Built with Packmol
21939
    1LIG      O    1   2.477   2.470   0.010
    1LIG      C    2   2.542   2.520   0.109
    1LIG     C1    3   2.471   2.467   0.213
    1LIG     O1    4   2.535   2.517   0.313
    1LIG     C2    5   2.470   2.468   0.411
    1LIG     C3    6   2.541   2.523   0.514
    1LIG     O2    7   2.477   2.475   0.613
    1LIG     C4    8   2.540   2.525   0.712
    1LIG     C5    9   2.468   2.470   0.815
    1LIG     O3   10   2.531   2.520   0.914
    1LIG     C6   11   2.466   2.471   1.013
    1LIG     C7   12   2.538   2.527   1.115
    1LIG     O4   13   2.474   2.479   1.215
    1LIG     C8   14   2.538   2.529   1.314
    1LIG     C9   15   2.465   2.473   1.416
    1LIG     O5   16   2.528   2.523   1.515
    1LIG    C10   17   2.464   2.474   1.614
    1LIG    C11   18   2.537   2.530   1.716
    1LIG     O6   19   2.473   2.481   1.815
    1LIG    C12   20   2.536   2.530   1.914
    1LIG    C13   21   2.463   2.475   2.017
    1LIG     O7   22   2.527   2.524   2.116
    1LIG    C14   23   2.463   2.475   2.215
    1LIG    C15   24   2.535   2.530   2.318
    1LIG     O8   25   2.471   2.481   2.418
    1LIG    C16   26   2.535   2.531   2.516
    1LIG    C17   27   2.464   2.476   2.619
    1LIG     O9   28   2.527   2.525   2.719
    1LIG    C18   29   2.462   2.476   2.817
    1LIG    C19   30   2.534   2.531   2.919
    1LIG    O10   31   2.470   2.482   3.019
    1LIG    C20   32   2.534   2.532   3.117
    1LIG    C21   33   2.462   2.476   3.219
    1LIG    O11   34   2.526   2.525   3.318
    1LIG    C22   35   2.462   2.476   3.417
    1LIG    C23   36   2.534   2.532   3.520
    1LIG    O12   37   2.470   2.483   3.619
    1LIG    C24   38   2.534   2.532   3.718
    1LIG    C25   39   2.462   2.477   3.821
    1LIG    O13   40   2.525   2.526   3.921
    1LIG    C26   41   2.461   2.477   4.019
    1LIG    C27   42   2.533   2.532   4.121
    1LIG    O14   43   2.469   2.483   4.220
    1LIG    C28   44   2.534   2.532   4.320
    1LIG    C29   45   2.462   2.476   4.423
    1LIG    O15   46   2.526   2.525   4.522
    1LIG    C30   47   2.462   2.476   4.620
    1LIG    C31   48   2.534   2.531   4.723
    1LIG    O16   49   2.470   2.482   4.821
    1LIG    C32   50   2.534   2.531   4.920
    1LIG    C33   51   2.462   2.476   5.023
    1LIG    O17   52   2.526   2.525   5.122
    1LIG    C34   53   2.462   2.475   5.221
    1LIG    C35   54   2.533   2.530   5.324
    1LIG    O18   55   2.470   2.481   5.423
    1LIG    C36   56   2.534   2.530   5.522
    1LIG    C37   57   2.463   2.475   5.625
    1LIG    O19   58   2.527   2.524   5.724
    1LIG    C38   59   2.463   2.474   5.822
    1LIG    C39   60   2.534   2.529   5.925
    1LIG    O20   61   2.471   2.480   6.025
    1LIG    C40   62   2.535   2.529   6.123
    1LIG    C41   63   2.464   2.474   6.226
    1LIG    O21   64   2.527   2.523   6.326
    1LIG    C42   65   2.463   2.473   6.424
    1LIG    C43   66   2.535   2.528   6.526
    1LIG    O22   67   2.472   2.479   6.626
    1LIG    C44   68   2.536   2.528   6.725
    1LIG    C45   69   2.464   2.472   6.827
    1LIG    O23   70   2.527   2.521   6.926
    1LIG    C46   71   2.464   2.472   7.025
    1LIG    C47   72   2.536   2.528   7.128
    1LIG    O24   73   2.473   2.478   7.226
    1LIG    C48   74   2.536   2.527   7.326
    1LIG    C49   75   2.464   2.471   7.428
    1LIG    O25   76   2.528   2.520   7.527
    1LIG    C50   77   2.465   2.471   7.626
    1LIG    C51   78   2.537   2.527   7.728
    1LIG    O26   79   2.473   2.477   7.827
    1LIG    C52   80   2.537   2.526   7.927
    1LIG    C53   81   2.465   2.469   8.029
    1LIG    O27   82   2.529   2.519   8.127
    1LIG    C54   83   2.466   2.469   8.227
    1LIG    C55   84   2.538   2.525   8.330
    1LIG    O28   85   2.474   2.475   8.429
    1LIG    C56   86   2.538   2.524   8.528
    1LIG    C57   87   2.467   2.468   8.632
    1LIG    O29   88   2.531   2.517   8.731
    1LIG    C58   89   2.467   2.467   8.830
    1LIG    C59   90   2.538   2.522   8.933
    1LIG      H   91   2.539   2.630   0.107
    1LIG     H1   92   2.647   2.489   0.108
    1LIG     H2   93   2.474   2.358   0.213
    1LIG     H3   94   2.366   2.498   0.212
    1LIG     H4   95   2.472   2.358   0.413
    1LIG     H5   96   2.365   2.499   0.412
    1LIG     H6   97   2.539   2.633   0.512
    1LIG     H7   98   2.646   2.492   0.513
    1LIG     H8   99   2.538   2.634   0.713
    1LIG     H9  100   2.645   2.494   0.714
    1LIG    H10  101   2.471   2.361   0.814
    1LIG    H11  102   2.363   2.501   0.813
    1LIG    H12  103   2.469   2.362   1.015
    1LIG    H13  104   2.361   2.502   1.014
    1LIG    H14  105   2.535   2.637   1.114
    1LIG    H15  106   2.643   2.496   1.115
    1LIG    H16  107   2.535   2.638   1.315
    1LIG    H17  108   2.643   2.498   1.315
    1LIG    H18  109   2.468   2.364   1.415
    1LIG    H19  110   2.360   2.504   1.414
    1LIG    H20  111   2.467   2.364   1.616
    1LIG    H21  112   2.359   2.505   1.615
    1LIG    H22  113   2.534   2.639   1.715
    1LIG    H23  114   2.642   2.499   1.715
    1LIG    H24  115   2.533   2.639   1.916
    1LIG    H25  116   2.641   2.499   1.916
    1LIG    H26  117   2.466   2.365   2.016
    1LIG    H27  118   2.358   2.506   2.015
    1LIG    H28  119   2.466   2.365   2.216
    1LIG    H29  120   2.358   2.506   2.216
    1LIG    H30  121   2.532   2.640   2.317
    1LIG    H31  122   2.640   2.499   2.317
    1LIG    H32  123   2.532   2.641   2.517
    1LIG    H33  124   2.640   2.500   2.517
    1LIG    H34  125   2.466   2.367   2.618
    1LIG    H35  126   2.358   2.507   2.618
    1LIG    H36  127   2.465   2.366   2.818
    1LIG    H37  128   2.357   2.507   2.818
    1LIG    H38  129   2.531   2.641   2.918
    1LIG    H39  130   2.639   2.500   2.918
    1LIG    H40  131   2.532   2.641   3.118
    1LIG    H41  132   2.640   2.501   3.118
    1LIG    H42  133   2.465   2.367   3.218
    1LIG    H43  134   2.357   2.507   3.218
    1LIG    H44  135   2.465   2.367   3.419
    1LIG    H45  136   2.357   2.507   3.419
    1LIG    H46  137   2.531   2.642   3.518
    1LIG    H47  138   2.639   2.501   3.519
    1LIG    H48  139   2.531   2.641   3.719
    1LIG    H49  140   2.639   2.501   3.720
    1LIG    H50  141   2.464   2.367   3.820
    1LIG    H51  142   2.357   2.508   3.820
    1LIG    H52  143   2.464   2.367   4.020
    1LIG    H53  144   2.356   2.508   4.020
    1LIG    H54  145   2.530   2.642   4.120
    1LIG    H55  146   2.638   2.501   4.120
    1LIG    H56  147   2.531   2.641   4.321
    1LIG    H57  148   2.639   2.501   4.321
    1LIG    H58  149   2.465   2.367   4.421
    1LIG    H59  150   2.357   2.507   4.421
    1LIG    H60  151   2.465   2.366   4.621
    1LIG    H61  152   2.357   2.507   4.622
    1LIG    H62  153   2.531   2.641   4.721
    1LIG    H63  154   2.639   2.500   4.721
    1LIG    H64  155   2.531   2.640   4.922
    1LIG    H65  156   2.639   2.500   4.921
    1LIG    H66  157   2.465   2.366   5.022
    1LIG    H67  158   2.357   2.507   5.022
    1LIG    H68  159   2.465   2.366   5.222
    1LIG    H69  160   2.357   2.506   5.222
    1LIG    H70  161   2.530   2.640   5.323
    1LIG    H71  162   2.639   2.500   5.323
    1LIG    H72  163   2.531   2.640   5.523
    1LIG    H73  164   2.639   2.500   5.523
    1LIG    H74  165   2.466   2.366   5.623
    1LIG    H75  166   2.358   2.506   5.624
    1LIG    H76  167   2.466   2.365   5.823
    1LIG    H77  168   2.357   2.505   5.824
    1LIG    H78  169   2.531   2.638   5.925
    1LIG    H79  170   2.639   2.498   5.924
    1LIG    H80  171   2.532   2.639   6.125
    1LIG    H81  172   2.640   2.499   6.124
    1LIG    H82  173   2.467   2.364   6.225
    1LIG    H83  174   2.358   2.504   6.225
    1LIG    H84  175   2.467   2.363   6.425
    1LIG    H85  176   2.358   2.503   6.425
    1LIG    H86  177   2.532   2.638   6.525
    1LIG    H87  178   2.641   2.498   6.525
    1LIG    H88  179   2.533   2.638   6.726
    1LIG    H89  180   2.641   2.498   6.726
    1LIG    H90  181   2.467   2.363   6.826
    1LIG    H91  182   2.359   2.503   6.826
    1LIG    H92  183   2.467   2.362   7.027
    1LIG    H93  184   2.359   2.502   7.027
    1LIG    H94  185   2.533   2.637   7.126
    1LIG    H95  186   2.642   2.497   7.126
    1LIG    H96  187   2.533   2.636   7.327
    1LIG    H97  188   2.641   2.496   7.327
    1LIG    H98  189   2.467   2.361   7.427
    1LIG    H99  190   2.359   2.501   7.427
    1LIG   H100  191   2.468   2.361   7.627
    1LIG   H101  192   2.360   2.501   7.628
    1LIG   H102  193   2.534   2.636   7.727
    1LIG   H103  194   2.642   2.496   7.727
    1LIG   H104  195   2.534   2.635   7.928
    1LIG   H105  196   2.642   2.495   7.928
    1LIG   H106  197   2.469   2.360   8.027
    1LIG   H107  198   2.360   2.500   8.028
    1LIG   H108  199   2.469   2.360   8.228
    1LIG   H109  200   2.361   2.500   8.228
    1LIG   H110  201   2.534   2.634   8.329
    1LIG   H111  202   2.643   2.494   8.329
    1LIG   H112  203   2.535   2.634   8.530
    1LIG   H113  204   2.644   2.494   8.529
    1LIG   H114  205   2.471   2.359   8.630
    1LIG   H115  206   2.362   2.499   8.631
    1LIG   H116  207   2.471   2.357   8.830
    1LIG   H117  208   2.362   2.499   8.831
    1LIG   H118  209   2.643   2.492   8.933
    1LIG   H119  210   2.491   2.485   9.010
    1MOL     C1  211   1.820   2.698   4.484
    1MOL     H1  212   1.715   2.668   4.493
    1MOL     O1  213   1.853   2.757   4.608
    1MOL     C2  214   1.986   2.810   4.617
    1MOL     H2  215   2.059   2.728   4.605
    1MOL     C3  216   2.004   2.867   4.757
    1MOL     H3  217   2.111   2.888   4.772
    1MOL     H4  218   1.973   2.790   4.830
    1MOL     O2  219   1.926   2.985   4.770
    1MOL     H5  220   1.949   3.027   4.854
    1MOL     C4  221   1.839   2.798   4.369
    1MOL     H6  222   1.770   2.882   4.388
    1MOL     O3  223   1.805   2.747   4.242
    1MOL     H7  224   1.837   2.655   4.233
    1MOL     C5  225   1.981   2.853   4.371
    1MOL     H8  226   2.052   2.771   4.352
    1MOL     O4  227   1.996   2.953   4.270
    1MOL     H9  228   1.948   2.919   4.192
    1MOL     C6  229   2.011   2.915   4.507
    1MOL    H10  230   1.943   3.000   4.522
    1MOL     O5  231   2.147   2.959   4.507
    1MOL     C7  232   2.176   3.086   4.563
    1MOL    H11  233   2.086   3.128   4.610
    1MOL     O6  234   2.270   3.074   4.668
    1MOL     C8  235   2.398   3.022   4.628
    1MOL    H12  236   2.384   2.923   4.581
    1MOL     C9  237   2.484   3.003   4.754
    1MOL    H13  238   2.556   2.923   4.734
    1MOL    H14  239   2.417   2.969   4.834
    1MOL     O7  240   2.549   3.121   4.799
    1MOL    H15  241   2.637   3.124   4.756
    1MOL    C10  242   2.228   3.178   4.452
    1MOL    H16  243   2.240   3.278   4.494
    1MOL     O8  244   2.140   3.192   4.342
    1MOL    H17  245   2.107   3.103   4.315
    1MOL    C11  246   2.366   3.130   4.405
    1MOL    H18  247   2.356   3.031   4.358
    1MOL     O9  248   2.423   3.222   4.312
    1MOL    H19  249   2.350   3.245   4.251
    1MOL    C12  250   2.459   3.119   4.525
    1MOL    H20  251   2.469   3.217   4.573
    1MOL    O10  252   2.587   3.074   4.479
    1MOL    C13  253   2.699   3.155   4.506
    1MOL    H21  254   2.667   3.255   4.539
    1MOL    O11  255   2.776   3.104   4.614
    1MOL    C14  256   2.830   2.972   4.591
    1MOL    H22  257   2.747   2.903   4.568
    1MOL    C15  258   2.899   2.924   4.719
    1MOL    H23  259   2.893   2.814   4.723
    1MOL    H24  260   2.841   2.963   4.804
    1MOL    O12  261   3.033   2.968   4.735
    1MOL    H25  262   3.090   2.897   4.699
    1MOL    C16  263   2.784   3.165   4.379
    1MOL    H26  264   2.866   3.235   4.398
    1MOL    O13  265   2.712   3.215   4.267
    1MOL    H27  266   2.617   3.193   4.277
    1MOL    C17  267   2.846   3.028   4.348
    1MOL    H28  268   2.766   2.956   4.325
    1MOL    O14  269   2.935   3.038   4.237
    1MOL    H29  270   2.887   3.088   4.169
    1MOL    C18  271   2.924   2.979   4.469
    1MOL    H30  272   3.004   3.050   4.492
    1MOL    O15  273   2.979   2.851   4.438
    1MOL    C19  274   3.118   2.833   4.452
    1MOL    H31  275   3.169   2.929   4.466
    1MOL    O16  276   3.148   2.757   4.569
    1MOL    C20  277   3.091   2.624   4.569
    1MOL    H32  278   2.982   2.633   4.558
    1MOL    C21  279   3.121   2.558   4.705
    1MOL    H33  280   3.038   2.490   4.728
    1MOL    H34  281   3.119   2.638   4.781
    1MOL    O17  282   3.246   2.493   4.713
    1MOL    H35  283   3.230   2.399   4.692
    1MOL    C22  284   3.170   2.762   4.326
    1MOL    H36  285   3.279   2.755   4.334
    1MOL    O18  286   3.142   2.833   4.207
    1MOL    H37  287   3.058   2.882   4.217
    1MOL    C23  288   3.114   2.620   4.320
    1MOL    H38  289   3.005   2.624   4.309
    1MOL    O19  290   3.171   2.548   4.211
    1MOL    H39  291   3.166   2.608   4.134
    1MOL    C24  292   3.148   2.546   4.449
    1MOL    H40  293   3.256   2.540   4.461
    1MOL    O20  294   3.091   2.415   4.442
    1MOL    C25  295   3.176   2.304   4.460
    1MOL    H41  296   3.281   2.335   4.459
    1MOL    O21  297   3.156   2.244   4.587
    1MOL    C26  298   3.023   2.193   4.609
    1MOL    H42  299   2.951   2.275   4.603
    1MOL    C27  300   3.017   2.136   4.750
    1MOL    H43  301   2.912   2.116   4.774
    1MOL    H44  302   3.055   2.212   4.820
    1MOL    O22  303   3.095   2.017   4.756
    1MOL    H45  304   3.086   1.980   4.845
    1MOL    C28  305   3.148   2.204   4.348
    1MOL    H46  306   3.218   2.120   4.360
    1MOL    O23  307   3.170   2.256   4.219
    1MOL    H47  308   3.147   2.351   4.218
    1MOL    C29  309   3.006   2.149   4.362
    1MOL    H48  310   2.934   2.232   4.349
    1MOL    O24  311   2.982   2.049   4.264
    1MOL    H49  312   3.020   2.083   4.181
    1MOL    C30  313   2.987   2.089   4.501
    1MOL    H50  314   3.051   2.001   4.511
    1MOL    O25  315   2.850   2.052   4.513
    1MOL    C31  316   2.819   1.927   4.575
    1MOL    H51  317   2.907   1.888   4.626
    1MOL    O26  318   2.721   1.946   4.675
    1MOL    C32  319   2.594   1.997   4.628
    1MOL    H52  320   2.611   2.093   4.578
    1MOL    C33  321   2.505   2.022   4.750
    1MOL    H53  322   2.429   2.096   4.722
    1MOL    H54  323   2.569   2.068   4.827
    1MOL    O27  324   2.445   1.905   4.801
    1MOL    H55  325   2.349   1.916   4.794
    1MOL    C34  326   2.769   1.829   4.467
    1MOL    H56  327   2.755   1.732   4.515
    1MOL    O28  328   2.861   1.808   4.362
    1MOL    H57  329   2.889   1.895   4.325
    1MOL    C35  330   2.634   1.876   4.413
    1MOL    H58  331   2.647   1.972   4.362
    1MOL    O29  332   2.580   1.780   4.322
    1MOL    H59  333   2.655   1.752   4.267
    1MOL    C36  334   2.536   1.896   4.528
    1MOL    H60  335   2.521   1.801   4.582
    1MOL    O30  336   2.411   1.941   4.474
    1MOL    C37  337   2.304   1.850   4.477
    1MOL    H61  338   2.340   1.748   4.496
    1MOL    O31  339   2.214   1.878   4.582
    1MOL    C38  340   2.153   2.008   4.577
    1MOL    H62  341   2.231   2.085   4.574
    1MOL    C39  342   2.076   2.024   4.706
    1MOL    H63  343   2.008   1.938   4.719
    1MOL    H64  344   2.018   2.116   4.705
    1MOL    O32  345   2.174   2.026   4.811
    1MOL    H65  346   2.130   2.048   4.894
    1MOL    C40  347   2.230   1.856   4.343
    1MOL    H66  348   2.152   1.779   4.346
    1MOL    O33  349   2.311   1.832   4.230
    1MOL    H67  350   2.405   1.831   4.256
    1MOL    C41  351   2.161   1.992   4.329
    1MOL    H68  352   2.238   2.070   4.325
    1MOL    O34  353   2.082   1.995   4.210
    1MOL    H69  354   2.140   1.961   4.139
    1MOL    C42  355   2.070   2.019   4.448
    1MOL    H70  356   1.989   1.944   4.450
    1MOL    O35  357   2.015   2.150   4.432
    1MOL    C43  358   1.875   2.166   4.436
    1MOL    H71  359   1.825   2.069   4.439
    1MOL    O36  360   1.834   2.233   4.554
    1MOL    C44  361   1.885   2.366   4.571
    1MOL    H72  362   1.995   2.363   4.573
    1MOL    C45  363   1.835   2.415   4.706
    1MOL    H73  364   1.727   2.395   4.712
    1MOL    H74  365   1.852   2.523   4.713
    1MOL    O37  366   1.908   2.345   4.807
    1MOL    H75  367   1.870   2.371   4.892
    1MOL    C46  368   1.831   2.246   4.313
    1MOL    H76  369   1.722   2.251   4.313
    1MOL    O38  370   1.868   2.187   4.190
    1MOL    H77  371   1.954   2.140   4.200
    1MOL    C47  372   1.885   2.389   4.322
    1MOL    H78  373   1.995   2.386   4.321
    1MOL    O39  374   1.837   2.466   4.212
    1MOL    H79  375   1.848   2.410   4.134
    1MOL    C48  376   1.841   2.455   4.452
    1MOL    H80  377   1.732   2.465   4.452
    1MOL    O40  378   1.902   2.584   4.459
    2SOL     OW  379   0.230   0.628   0.113
    2SOL    HW1  380   0.137   0.626   0.150
    2SOL    HW2  381   0.231   0.589   0.021
    3SOL     OW  382   0.225   0.275   0.996
    3SOL    HW1  383   0.260   0.258   1.088
    3SOL    HW2  384   0.137   0.230   0.984
    4SOL     OW  385   0.019   0.368   0.647
    4SOL    HW1  386  -0.063   0.411   0.686
    4SOL    HW2  387  -0.009   0.295   0.584
    5SOL     OW  388   0.569   1.275   1.165
    5SOL    HW1  389   0.476   1.268   1.128
    5SOL    HW2  390   0.580   1.364   1.209
    6SOL     OW  391   1.555   1.511   0.703
    6SOL    HW1  392   1.498   1.495   0.784
    6SOL    HW2  393   1.496   1.521   0.623
    7SOL     OW  394   1.135   0.703   0.717
    7SOL    HW1  395   1.192   0.781   0.692
    7SOL    HW2  396   1.075   0.729   0.793
    8SOL     OW  397   1.755   0.607   0.231
    8SOL    HW1  398   1.743   0.594   0.132
    8SOL    HW2  399   1.725   0.526   0.280
    9SOL     OW  400   0.768   1.144   1.023
    9SOL    HW1  401   0.690   1.161   1.083
    9SOL    HW2  402   0.802   1.231   0.987
   10SOL     OW  403   0.850   0.798   1.823
   10SOL    HW1  404   0.846   0.874   1.888
   10SOL    HW2  405   0.872   0.834   1.732
   11SOL     OW  406   0.685   1.012   0.665
   11SOL    HW1  407   0.754   0.996   0.735
   11SOL    HW2  408   0.612   1.069   0.703
   12SOL     OW  409   0.686   1.161   1.803
   12SOL    HW1  410   0.746   1.240   1.817
   12SOL    HW2  411   0.600   1.192   1.762
   13SOL     OW  412   0.335   1.435   1.061
   13SOL    HW1  413   0.257   1.404   1.008
   13SOL    HW2  414   0.393   1.493   1.004
   14SOL     OW  415   1.460   1.505   1.339
   14SOL    HW1  416   1.484   1.599   1.365
   14SOL    HW2  417   1.444   1.451   1.421
   15SOL     OW  418   0.438   0.392   1.499
   15SOL    HW1  419   0.520   0.336   1.508
   15SOL    HW2  420   0.357   0.334   1.503
   16SOL     OW  421   1.603   0.447   0.737
   16SOL    HW1  422   1.529   0.493   0.687
   16SOL    HW2  423   1.654   0.515   0.790
   17SOL     OW  424   0.231   1.713   0.483
   17SOL    HW1  425   0.265   1.790   0.537
   17SOL    HW2  426   0.275   1.713   0.393
   18SOL     OW  427   1.127   1.341   1.690
   18SOL    HW1  428   1.174   1.341   1.778
   18SOL    HW2  429   1.079   1.254   1.679
   19SOL     OW  430   0.230   1.434   0.538
   19SOL    HW1  431   0.204   1.530   0.538
   19SOL    HW2  432   0.159   1.380   0.583
   20SOL     OW  433   0.240   1.091   0.886
   20SOL    HW1  434   0.254   1.007   0.938
   20SOL    HW2  435   0.185   1.155   0.941
   21SOL     OW  436   0.620   1.786   1.439
   21SOL    HW1  437   0.528   1.769   1.474
   21SOL    HW2  438   0.648   1.878   1.465
   22SOL     OW  439   0.606   0.964   0.123
   22SOL    HW1  440   0.613   1.048   0.069
   22SOL    HW2  441   0.652   0.977   0.211
   23SOL     OW  442   1.594   0.114   1.480
   23SOL    HW1  443   1.576   0.181   1.408
   23SOL    HW2  444   1.591   0.160   1.569
   24SOL     OW  445   0.122   0.643   0.563
   24SOL    HW1  446   0.077   0.555   0.580
   24SOL    HW2  447   0.121   0.697   0.647
   25SOL     OW  448   1.842   1.767   0.359
   25SOL    HW1  449   1.896   1.738   0.439
   25SOL    HW2  450   1.872   1.857   0.330
   26SOL     OW  451   0.027   1.596   0.117
   26SOL    HW1  452   0.008   1.500   0.138
   26SOL    HW2  453  -0.006   1.654   0.192
   27SOL     OW  454   1.689   0.922   0.612
   27SOL    HW1  455   1.784   0.893   0.620
   27SOL    HW2  456   1.681   0.987   0.537
   28SOL     OW  457   1.641   1.108   0.432
   28SOL    HW1  458   1.727   1.110   0.380
   28SOL    HW2  459   1.655   1.155   0.520
   29SOL     OW  460   0.113   0.737   1.597
   29SOL    HW1  461   0.201   0.724   1.642
   29SOL    HW2  462   0.100   0.834   1.575
   30SOL     OW  463   0.613   1.365   0.726
   30SOL    HW1  464   0.564   1.278   0.735
   30SOL    HW2  465   0.590   1.408   0.639
   31SOL     OW  466   1.293   1.228   1.423
   31SOL    HW1  467   1.330   1.155   1.365
   31SOL    HW2  468   1.345   1.233   1.508
   32SOL     OW  469   0.809   0.004   0.502
   32SOL    HW1  470   0.849   0.095   0.493
   32SOL    HW2  471   0.709   0.012   0.508
   33SOL     OW  472   0.197   0.976   1.264
   33SOL    HW1  473   0.286   0.931   1.250
   33SOL    HW2  474   0.124   0.911   1.245
   34SOL     OW  475   1.525   0.999   0.190
   34SOL    HW1  476   1.462   0.923   0.203
   34SOL    HW2  477   1.573   1.017   0.276
   35SOL     OW  478   1.187   1.792   1.616
   35SOL    HW1  479   1.211   1.852   1.540
   35SOL    HW2  480   1.194   1.697   1.586
   36SOL     OW  481   0.317   0.251   1.801
   36SOL    HW1  482   0.388   0.322   1.807
   36SOL    HW2  483   0.229   0.290   1.829
   37SOL     OW  484   1.466   1.417   0.953
   37SOL    HW1  485   1.407   1.423   1.033
   37SOL    HW2  486   1.451   1.329   0.907
   38SOL     OW  487   1.667   1.714   0.572
   38SOL    HW1  488   1.626   1.691   0.484
   38SOL    HW2  489   1.649   1.640   0.637
   39SOL     OW  490   0.598   0.729   0.270
   39SOL    HW1  491   0.622   0.798   0.202
   39SOL    HW2  492   0.520   0.762   0.324
   40SOL     OW  493   1.281   0.345   0.944
   40SOL    HW1  494   1.195   0.295   0.931
   40SOL    HW2  495   1.343   0.291   1.000
   41SOL     OW  496   1.576   1.662   0.307
   41SOL    HW1  497   1.665   1.708   0.310
   41SOL    HW2  498   1.555   1.638   0.212
   42SOL     OW  499   0.807   0.605   1.465
   42SOL    HW1  500   0.760   0.602   1.554
   42SOL    HW2  501   0.756   0.550   1.399
   43SOL     OW  502   1.394   0.469   1.674
   43SOL    HW1  503   1.374   0.512   1.762
   43SOL    HW2  504   1.472   0.407   1.683
   44SOL     OW  505   0.973   0.890   1.572
   44SOL    HW1  506   1.019   0.806   1.543
   44SOL    HW2  507   0.917   0.924   1.497
   45SOL     OW  508   0.991   0.410   1.242
   45SOL    HW1  509   0.914   0.444   1.296
   45SOL    HW2  510   0.957   0.359   1.163
   46SOL     OW  511   1.041   0.701   0.429
   46SOL    HW1  512   1.067   0.697   0.525
   46SOL    HW2  513   0.956   0.650   0.415
   47SOL     OW  514   0.076   0.811   0.789
   47SOL    HW1  515   0.175   0.799   0.798
   47SOL    HW2  516   0.052   0.906   0.810
   48SOL     OW  517   0.130   1.821   1.571
   48SOL    HW1  518   0.120   1.806   1.670
   48SOL    HW2  519   0.044   1.857   1.535
   49SOL     OW  520   0.865   0.348   0.195
   49SOL    HW1  521   0.924   0.411   0.146
   49SOL    HW2  522   0.884   0.254   0.166
   50SOL     OW  523   1.719   0.585   1.831
   50SOL    HW1  524   1.693   0.674   1.795
   50SOL    HW2  525   1.717   0.517   1.758
   51SOL     OW  526   1.362   1.144   0.545
   51SOL    HW1  527   1.445   1.115   0.497
   51SOL    HW2  528   1.313   1.211   0.489
   52SOL     OW  529   0.550   0.196   0.885
   52SOL    HW1  530   0.545   0.191   0.985
   52SOL    HW2  531   0.552   0.292   0.856
   53SOL     OW  532   1.008   1.456   0.477
   53SOL    HW1  533   0.962   1.528   0.425
   53SOL    HW2  534   1.004   1.476   0.575
   54SOL     OW  535   0.351   1.801   0.853
   54SOL    HW1  536   0.401   1.715   0.859
   54SOL    HW2  537   0.416   1.878   0.850
   55SOL     OW  538   1.795   1.066   0.873
   55SOL    HW1  539   1.733   1.051   0.797
   55SOL    HW2  540   1.743   1.077   0.958
   56SOL     OW  541   1.227   1.550   1.506
   56SOL    HW1  542   1.233   1.473   1.570
   56SOL    HW2  543   1.175   1.524   1.426
   57SOL     OW  544   0.321   0.943   0.242
   57SOL    HW1  545   0.403   0.982   0.200
   57SOL    HW2  546   0.294   0.861   0.193
   58SOL     OW  547   1.458   0.735   0.728
   58SOL    HW1  548   1.453   0.670   0.803
   58SOL    HW2  549   1.538   0.794   0.741
   59SOL     OW  550   0.461   1.266   1.727
   59SOL    HW1  551   0.411   1.267   1.641
   59SOL    HW2  552   0.398   1.248   1.803
   60SOL     OW  553   1.111   1.776   0.237
   60SOL    HW1  554   1.051   1.714   0.287
   60SOL    HW2  555   1.142   1.732   0.152
   61SOL     OW  556   0.202   0.285   1.498
   61SOL    HW1  557   0.122   0.345   1.485
   61SOL    HW2  558   0.192   0.236   1.584
   62SOL     OW  559   1.632   1.377   0.081
   62SOL    HW1  560   1.600   1.471   0.071
   62SOL    HW2  561   1.556   1.314   0.069
   63SOL     OW  562   0.464   1.743   0.323
   63SOL    HW1  563   0.497   1.782   0.409
   63SOL    HW2  564   0.540   1.736   0.258
   64SOL     OW  565   1.400   0.107   0.426
   64SOL    HW1  566   1.376   0.070   0.336
   64SOL    HW2  567   1.499   0.123   0.430
   65SOL     OW  568   0.249   1.785   1.241
   65SOL    HW1  569   0.306   1.720   1.291
   65SOL    HW2  570   0.233   1.752   1.148
   66SOL     OW  571   0.940   1.698   0.904
   66SOL    HW1  572   1.020   1.641   0.925
   66SOL    HW2  573   0.891   1.658   0.827
   67SOL     OW  574   0.382   0.700   0.480
   67SOL    HW1  575   0.427   0.610   0.477
   67SOL    HW2  576   0.288   0.689   0.513
   68SOL     OW  577   1.547   0.222   1.729
   68SOL    HW1  578   1.542   0.259   1.821
   68SOL    HW2  579   1.475   0.153   1.717
   69SOL     OW  580   0.614   0.122   0.117
   69SOL    HW1  581   0.712   0.100   0.124
   69SOL    HW2  582   0.583   0.105   0.024
   70SOL     OW  583   0.781   0.264   1.749
   70SOL    HW1  584   0.848   0.203   1.792
   70SOL    HW2  585   0.708   0.283   1.814
   71SOL     OW  586   0.888   1.514   1.195
   71SOL    HW1  587   0.865   1.489   1.101
   71SOL    HW2  588   0.949   1.445   1.234
   72SOL     OW  589   1.351   0.590   1.433
   72SOL    HW1  590   1.379   0.547   1.518
   72SOL    HW2  591   1.376   0.686   1.434
   73SOL     OW  592   0.803   1.402   0.924
   73SOL    HW1  593   0.893   1.416   0.882
   73SOL    HW2  594   0.732   1.404   0.853
   74SOL     OW  595   0.922   0.503   0.899
   74SOL    HW1  596   0.897   0.494   0.803
   74SOL    HW2  597   0.970   0.421   0.930
   75SOL     OW  598   0.539   0.064   0.512
   75SOL    HW1  599   0.458   0.065   0.570
   75SOL    HW2  600   0.542   0.147   0.457
   76SOL     OW  601   1.434   1.188   0.041
   76SOL    HW1  602   1.466   1.112   0.098
   76SOL    HW2  603   1.342   1.215   0.071
   77SOL     OW  604   0.297   0.035   0.171
   77SOL    HW1  605   0.346   0.119   0.150
   77SOL    HW2  606   0.359  -0.030   0.216
   78SOL     OW  607   0.935   0.236   0.480
   78SOL    HW1  608   0.887   0.277   0.402
   78SOL    HW2  609   1.034   0.234   0.461
   79SOL     OW  610   1.076   0.683   1.464
   79SOL    HW1  611   0.996   0.622   1.467
   79SOL    HW2  612   1.157   0.630   1.440
   80SOL     OW  613   1.227   1.570   0.793
   80SOL    HW1  614   1.248   1.644   0.728
   80SOL    HW2  615   1.295   1.570   0.866
   81SOL     OW  616   0.459   1.152   0.741
   81SOL    HW1  617   0.388   1.125   0.806
   81SOL    HW2  618   0.433   1.124   0.648
   82SOL     OW  619   1.271   1.797   0.591
   82SOL    HW1  620   1.315   1.861   0.527
   82SOL    HW2  621   1.221   1.849   0.661
   83SOL     OW  622   1.032   0.549   0.016
   83SOL    HW1  623   0.991   0.631  -0.023
   83SOL    HW2  624   1.096   0.575   0.089
   84SOL     OW  625   0.078   0.556   1.386
   84SOL    HW1  626   0.170   0.555   1.345
   84SOL    HW2  627   0.072   0.630   1.453
   85SOL     OW  628   0.561   0.222   1.147
   85SOL    HW1  629   0.599   0.138   1.184
   85SOL    HW2  630   0.473   0.241   1.191
   86SOL     OW  631   0.866   0.454   0.642
   86SOL    HW1  632   0.834   0.526   0.580
   86SOL    HW2  633   0.890   0.373   0.589
   87SOL     OW  634   1.017   0.039   0.753
   87SOL    HW1  635   0.945   0.044   0.684
   87SOL    HW2  636   0.993  -0.030   0.822
   88SOL     OW  637   1.429   1.173   0.867
   88SOL    HW1  638   1.374   1.089   0.860
   88SOL    HW2  639   1.455   1.202   0.775
   89SOL     OW  640   1.466   0.590   0.992
   89SOL    HW1  641   1.436   0.495   0.999
   89SOL    HW2  642   1.539   0.606   1.058
   90SOL     OW  643   1.857   0.833   0.377
   90SOL    HW1  644   1.899   0.769   0.441
   90SOL    HW2  645   1.819   0.782   0.299
   91SOL     OW  646   0.488   1.385   0.174
   91SOL    HW1  647   0.401   1.370   0.221
   91SOL    HW2  648   0.471   1.411   0.079
   92SOL     OW  649   1.664   1.280   0.657
   92SOL    HW1  650   1.763   1.288   0.671
   92SOL    HW2  651   1.619   1.364   0.688
   93SOL     OW  652   1.390   0.575   0.078
   93SOL    HW1  653   1.336   0.554   0.159
   93SOL    HW2  654   1.481   0.534   0.087
   94SOL     OW  655   0.527   0.256   0.328
   94SOL    HW1  656   0.554   0.197   0.253
   94SOL    HW2  657   0.527   0.351   0.297
   95SOL     OW  658   1.754   1.223   1.588
   95SOL    HW1  659   1.845   1.184   1.575
   95SOL    HW2  660   1.762   1.319   1.612
   96SOL     OW  661   1.064   1.347   1.340
   96SOL    HW1  662   0.984   1.324   1.395
   96SOL    HW2  663   1.147   1.321   1.389
   97SOL     OW  664   1.592   1.629   1.625
   97SOL    HW1  665   1.619   1.663   1.535
   97SOL    HW2  666   1.671   1.591   1.671
   98SOL     OW  667   1.111   1.195   1.100
   98SOL    HW1  668   1.071   1.239   1.181
   98SOL    HW2  669   1.070   1.232   1.017
   99SOL     OW  670   1.638   1.099   1.079
   99SOL    HW1  671   1.643   1.180   1.138
   99SOL    HW2  672   1.552   1.101   1.028
  100SOL     OW  673   0.915   0.089   1.402
  100SOL    HW1  674   0.940   0.069   1.307
  100SOL    HW2  675   0.987   0.145   1.444
  101SOL     OW  676   0.980   1.116   1.719
  101SOL    HW1  677   0.881   1.122   1.729
  101SOL    HW2  678   1.003   1.036   1.663
  102SOL     OW  679   0.705   1.050   0.368
  102SOL    HW1  680   0.691   1.057   0.467
  102SOL    HW2  681   0.789   0.999   0.350
  103SOL     OW  682   0.410   0.813   1.251
  103SOL    HW1  683   0.496   0.825   1.301
  103SOL    HW2  684   0.368   0.726   1.278
  104SOL     OW  685   1.274   0.386   1.262
  104SOL    HW1  686   1.295   0.460   1.326
  104SOL    HW2  687   1.185   0.403   1.219
  105SOL     OW  688   0.064   1.564   1.331
  105SOL    HW1  689   0.018   1.646   1.297
  105SOL    HW2  690   0.162   1.583   1.340
  106SOL     OW  691   0.367   1.100   0.501
  106SOL    HW1  692   0.360   1.183   0.445
  106SOL    HW2  693   0.371   1.020   0.441
  107SOL     OW  694   0.566   0.537   0.865
  107SOL    HW1  695   0.578   0.603   0.791
  107SOL    HW2  696   0.612   0.571   0.948
  108SOL     OW  697   1.252   1.348   0.388
  108SOL    HW1  698   1.302   1.425   0.428
  108SOL    HW2  699   1.157   1.350   0.420
  109SOL     OW  700   1.272   1.445   1.142
  109SOL    HW1  701   1.319   1.458   1.229
  109SOL    HW2  702   1.206   1.371   1.151
  110SOL     OW  703   1.582   0.639   0.472
  110SOL    HW1  704   1.551   0.700   0.545
  110SOL    HW2  705   1.632   0.691   0.403
  111SOL     OW  706   0.354   1.510   1.329
  111SOL    HW1  707   0.333   1.466   1.242
  111SOL    HW2  708   0.451   1.536   1.332
  112SOL     OW  709   0.402   0.751   1.598
  112SOL    HW1  710   0.470   0.806   1.551
  112SOL    HW2  711   0.442   0.663   1.625
  113SOL     OW  712   1.587   0.779   1.670
  113SOL    HW1  713   1.495   0.817   1.665
  113SOL    HW2  714   1.647   0.826   1.605
  114SOL     OW  715   1.013   0.105   1.770
  114SOL    HW1  716   1.019   0.190   1.718
  114SOL    HW2  717   1.045   0.029   1.713
  115SOL     OW  718   0.504   0.050   1.740
  115SOL    HW1  719   0.462  -0.007   1.670
  115SOL    HW2  720   0.438   0.119   1.772
  116SOL     OW  721   0.573   0.870   1.029
  116SOL    HW1  722   0.617   0.959   1.020
  116SOL    HW2  723   0.510   0.870   1.106
  117SOL     OW  724   1.360   0.862   1.045
  117SOL    HW1  725   1.285   0.862   0.979
  117SOL    HW2  726   1.397   0.770   1.054
  118SOL     OW  727   1.209   0.525   0.275
  118SOL    HW1  728   1.222   0.441   0.329
  118SOL    HW2  729   1.180   0.599   0.335
  119SOL     OW  730   0.307   0.213   1.231
  119SOL    HW1  731   0.284   0.250   1.321
  119SOL    HW2  732   0.277   0.118   1.225
  120SOL     OW  733   0.037   1.310   1.282
  120SOL    HW1  734   0.090   1.261   1.350
  120SOL    HW2  735   0.059   1.408   1.287
  121SOL     OW  736   0.732   0.634   1.064
  121SOL    HW1  737   0.791   0.608   0.988
  121SOL    HW2  738   0.704   0.730   1.053
  122SOL     OW  739   1.728   0.935   1.854
  122SOL    HW1  740   1.682   0.928   1.765
  122SOL    HW2  741   1.666   0.979   1.920
  123SOL     OW  742   0.307   0.063   0.618
  123SOL    HW1  743   0.296   0.157   0.651
  123SOL    HW2  744   0.302   0.000   0.695
  124SOL     OW  745   1.622   0.367   0.374
  124SOL    HW1  746   1.624   0.291   0.438
  124SOL    HW2  747   1.574   0.444   0.414
  125SOL     OW  748   1.023   0.766   0.966
  125SOL    HW1  749   1.038   0.787   1.062
  125SOL    HW2  750   0.993   0.671   0.957
  126SOL     OW  751   0.980   1.573   1.700
  126SOL    HW1  752   0.960   1.617   1.612
  126SOL    HW2  753   1.019   1.482   1.684
  127SOL     OW  754   1.859   1.518   1.605
  127SOL    HW1  755   1.873   1.545   1.510
  127SOL    HW2  756   1.942   1.540   1.658
  128SOL     OW  757   0.350   0.898   1.804
  128SOL    HW1  758   0.426   0.942   1.852
  128SOL    HW2  759   0.385   0.851   1.722
  129SOL     OW  760   1.540   0.274   0.125
  129SOL    HW1  761   1.479   0.199   0.148
  129SOL    HW2  762   1.562   0.326   0.208
  130SOL     OW  763   1.303   0.838   0.042
  130SOL    HW1  764   1.337   0.745   0.057
  130SOL    HW2  765   1.321   0.865  -0.053
  131SOL     OW  766   1.068   1.333   0.849
  131SOL    HW1  767   1.075   1.249   0.794
  131SOL    HW2  768   1.130   1.402   0.813
  132SOL     OW  769   0.319   0.810   0.949
  132SOL    HW1  770   0.412   0.846   0.954
  132SOL    HW2  771   0.313   0.725   1.001
  133SOL     OW  772   0.339   0.509   1.006
  133SOL    HW1  773   0.287   0.426   0.989
  133SOL    HW2  774   0.416   0.514   0.942
  134SOL     OW  775   1.138   0.380   1.678
  134SOL    HW1  776   1.093   0.443   1.742
  134SOL    HW2  777   1.231   0.411   1.661
  135SOL     OW  778   1.160   0.207   1.477
  135SOL    HW1  779   1.160   0.271   1.554
  135SOL    HW2  780   1.188   0.255   1.394
  136SOL     OW  781   0.008   1.326   0.200
  136SOL    HW1  782  -0.085   1.347   0.169
  136SOL    HW2  783   0.018   1.227   0.213
  137SOL     OW  784   0.088   1.801   0.927
  137SOL    HW1  785   0.046   1.715   0.900
  137SOL    HW2  786   0.182   1.804   0.893
  138SOL     OW  787   0.504   1.568   0.910
  138SOL    HW1  788   0.570   1.642   0.919
  138SOL    HW2  789   0.548   1.489   0.868
  139SOL     OW  790   1.002   0.796   1.238
  139SOL    HW1  791   1.043   0.764   1.324
  139SOL    HW2  792   0.906   0.769   1.235
  140SOL     OW  793   0.040   0.544   1.114
  140SOL    HW1  794   0.125   0.511   1.073
  140SOL    HW2  795   0.053   0.559   1.212
  141SOL     OW  796   0.189   0.520   1.722
  141SOL    HW1  797   0.248   0.480   1.652
  141SOL    HW2  798   0.131   0.591   1.681
  142SOL     OW  799   1.369   0.950   1.660
  142SOL    HW1  800   1.408   1.039   1.680
  142SOL    HW2  801   1.379   0.930   1.563
  143SOL     OW  802   0.815   0.572   0.325
  143SOL    HW1  803   0.822   0.483   0.279
  143SOL    HW2  804   0.721   0.606   0.317
  144SOL     OW  805   1.657   0.604   1.206
  144SOL    HW1  806   1.619   0.535   1.268
  144SOL    HW2  807   1.739   0.568   1.162
  145SOL     OW  808   0.252   1.564   1.744
  145SOL    HW1  809   0.222   1.621   1.820
  145SOL    HW2  810   0.245   1.467   1.770
  146SOL     OW  811   0.671   0.464   1.269
  146SOL    HW1  812   0.637   0.375   1.239
  146SOL    HW2  813   0.697   0.518   1.189
  147SOL     OW  814   0.930   1.678   1.465
  147SOL    HW1  815   0.906   1.660   1.370
  147SOL    HW2  816   0.960   1.772   1.475
  148SOL     OW  817   0.473   0.500   0.191
  148SOL    HW1  818   0.534   0.580   0.195
  148SOL    HW2  819   0.378   0.531   0.198
  149SOL     OW  820   0.159   1.137   1.466
  149SOL    HW1  821   0.181   1.076   1.542
  149SOL    HW2  822   0.169   1.088   1.380
  150SOL     OW  823   1.347   1.059   1.234
  150SOL    HW1  824   1.371   0.996   1.160
  150SOL    HW2  825   1.257   1.099   1.216
  151SOL     OW  826   1.302   0.855   0.309
  151SOL    HW1  827   1.216   0.824   0.351
  151SOL    HW2  828   1.298   0.841   0.210
  152SOL     OW  829   1.759   1.747   1.154
  152SOL    HW1  830   1.820   1.777   1.081
  152SOL    HW2  831   1.721   1.658   1.132
  153SOL     OW  832   1.252   1.731   1.128
  153SOL    HW1  833   1.336   1.736   1.074
  153SOL    HW2  834   1.229   1.635   1.146
  154SOL     OW  835   0.083   1.258   1.022
  154SOL    HW1  836   0.078   1.257   1.122
  154SOL    HW2  837   0.000   1.217   0.984
  155SOL     OW  838   0.688   1.662   1.716
  155SOL    HW1  839   0.632   1.743   1.725
  155SOL    HW2  840   0.740   1.666   1.630
  156SOL     OW  841   0.903   0.086   0.133
  156SOL    HW1  842   0.954   0.087   0.047
  156SOL    HW2  843   0.959   0.044   0.204
  157SOL     OW  844   1.726   0.135   0.523
  157SOL    HW1  845   1.799   0.118   0.456
  157SOL    HW2  846   1.695   0.048   0.561
  158SOL     OW  847   1.388   1.573   0.477
  158SOL    HW1  848   1.455   1.585   0.403
  158SOL    HW2  849   1.348   1.662   0.500
  159SOL     OW  850   0.130   1.794   1.851
  159SOL    HW1  851   0.089   1.720   1.904
  159SOL    HW2  852   0.194   1.845   1.909
  160SOL     OW  853   1.280   0.927   0.672
  160SOL    HW1  854   1.340   0.846   0.674
  160SOL    HW2  855   1.320   0.996   0.612
  161SOL     OW  856   0.830   1.273   1.422
  161SOL    HW1  857   0.825   1.306   1.517
  161SOL    HW2  858   0.744   1.292   1.376
  162SOL     OW  859   0.672   1.616   0.154
  162SOL    HW1  860   0.681   1.626   0.055
  162SOL    HW2  861   0.632   1.527   0.175
  163SOL     OW  862   1.650   1.720   1.394
  163SOL    HW1  863   1.703   1.730   1.310
  163SOL    HW2  864   1.623   1.810   1.428
  164SOL     OW  865   1.841   0.175   0.963
  164SOL    HW1  866   1.880   0.090   0.927
  164SOL    HW2  867   1.743   0.177   0.944
  165SOL     OW  868   0.263   0.326   0.720
  165SOL    HW1  869   0.184   0.377   0.686
  165SOL    HW2  870   0.254   0.311   0.818
  166SOL     OW  871   1.194   1.612   0.031
  166SOL    HW1  872   1.200   1.519   0.068
  166SOL    HW2  873   1.135   1.612  -0.049
  167SOL     OW  874   0.822   1.002   1.372
  167SOL    HW1  875   0.862   1.001   1.280
  167SOL    HW2  876   0.832   1.094   1.412
  168SOL     OW  877   0.916   0.910   0.291
  168SOL    HW1  878   0.979   0.948   0.223
  168SOL    HW2  879   0.956   0.827   0.330
  169SOL     OW  880   1.504   1.607   0.044
  169SOL    HW1  881   1.412   1.644   0.051
  169SOL    HW2  882   1.542   1.627  -0.046
  170SOL     OW  883   0.372   1.288   1.490
  170SOL    HW1  884   0.359   1.381   1.456
  170SOL    HW2  885   0.288   1.236   1.477
  171SOL     OW  886   1.614   1.292   1.289
  171SOL    HW1  887   1.674   1.295   1.369
  171SOL    HW2  888   1.539   1.356   1.302
  172SOL     OW  889   1.039   1.098   0.696
  172SOL    HW1  890   0.969   1.051   0.750
  172SOL    HW2  891   1.098   1.030   0.653
  173SOL     OW  892   1.014   0.236   0.971
  173SOL    HW1  893   1.006   0.200   0.878
  173SOL    HW2  894   1.012   0.160   1.036
  174SOL     OW  895   0.590   1.487   0.491
  174SOL    HW1  896   0.632   1.429   0.421
  174SOL    HW2  897   0.546   1.566   0.447
  175SOL     OW  898   1.709   0.385   1.381
  175SOL    HW1  899   1.782   0.454   1.385
  175SOL    HW2  900   1.737   0.310   1.322
  176SOL     OW  901   0.255   1.348   0.290
  176SOL    HW1  902   0.159   1.349   0.263
  176SOL    HW2  903   0.267   1.401   0.374
  177SOL     OW  904   0.105   1.013   1.726
  177SOL    HW1  905   0.028   0.980   1.780
  177SOL    HW2  906   0.190   0.983   1.768
  178SOL     OW  907   0.672   0.203   1.489
  178SOL    HW1  908   0.762   0.187   1.449
  178SOL    HW2  909   0.680   0.208   1.588
  179SOL     OW  910   0.075   0.345   0.033
  179SOL    HW1  911  -0.017   0.317   0.004
  179SOL    HW2  912   0.106   0.422  -0.023
  180SOL     OW  913   1.440   0.856   1.398
  180SOL    HW1  914   1.383   0.908   1.335
  180SOL    HW2  915   1.536   0.868   1.374
  181SOL     OW  916   0.072   0.166   0.318
  181SOL    HW1  917   0.055   0.249   0.264
  181SOL    HW2  918   0.162   0.129   0.296
  182SOL     OW  919   1.183   1.335   0.119
  182SOL    HW1  920   1.084   1.324   0.121
  182SOL    HW2  921   1.217   1.350   0.212
  183SOL     OW  922   0.613   0.842   1.431
  183SOL    HW1  923   0.669   0.923   1.414
  183SOL    HW2  924   0.672   0.762   1.434
  184SOL     OW  925   1.493   1.767   0.959
  184SOL    HW1  926   1.526   1.831   0.890
  184SOL    HW2  927   1.559   1.761   1.034
  185SOL     OW  928   0.716   0.565   1.708
  185SOL    HW1  929   0.735   0.630   1.782
  185SOL    HW2  930   0.776   0.485   1.717
  186SOL     OW  931   1.450   1.220   1.633
  186SOL    HW1  932   1.441   1.210   1.732
  186SOL    HW2  933   1.546   1.213   1.607
  187SOL     OW  934   0.390   1.741   1.560
  187SOL    HW1  935   0.299   1.782   1.558
  187SOL    HW2  936   0.383   1.647   1.592
  188SOL     OW  937   1.674   0.883   1.254
  188SOL    HW1  938   1.647   0.794   1.217
  188SOL    HW2  939   1.675   0.951   1.181
  189SOL     OW  940   1.225   0.325   0.449
  189SOL    HW1  941   1.290   0.251   0.438
  189SOL    HW2  942   1.245   0.375   0.533
  190SOL     OW  943   0.594   0.745   0.652
  190SOL    HW1  944   0.644   0.830   0.633
  190SOL    HW2  945   0.506   0.747   0.604
  191SOL     OW  946   1.777   0.342   1.642
  191SOL    HW1  947   1.760   0.373   1.548
  191SOL    HW2  948   1.693   0.305   1.680
  192SOL     OW  949   1.730   0.934   1.517
  192SOL    HW1  950   1.768   1.025   1.532
  192SOL    HW2  951   1.722   0.917   1.418
  193SOL     OW  952   0.859   1.374   0.016
  193SOL    HW1  953   0.813   1.389   0.104
  193SOL    HW2  954   0.903   1.459  -0.014
  194SOL     OW  955   0.661   1.790   0.953
  194SOL    HW1  956   0.615   1.878   0.940
  194SOL    HW2  957   0.760   1.802   0.946
  195SOL     OW  958   0.859   0.956   0.861
  195SOL    HW1  959   0.913   0.887   0.909
  195SOL    HW2  960   0.827   1.025   0.927
  196SOL     OW  961   1.083   0.984   0.087
  196SOL    HW1  962   1.060   1.037   0.005
  196SOL    HW2  963   1.164   0.928   0.068
  197SOL     OW  964   1.861   1.569   0.851
  197SOL    HW1  965   1.790   1.557   0.781
  197SOL    HW2  966   1.862   1.490   0.911
  198SOL     OW  967   0.221   1.314   1.844
  198SOL    HW1  968   0.156   1.241   1.823
  198SOL    HW2  969   0.225   1.328   1.942
  199SOL     OW  970   0.079   1.240   0.653
  199SOL    HW1  971   0.078   1.193   0.741
  199SOL    HW2  972   0.161   1.212   0.602
  200SOL     OW  973   0.672   1.391   1.624
  200SOL    HW1  974   0.594   1.341   1.662
  200SOL    HW2  975   0.669   1.486   1.655
  201SOL     OW  976   1.824   0.192   1.227
  201SOL    HW1  977   1.820   0.102   1.271
  201SOL    HW2  978   1.827   0.181   1.128
  202SOL     OW  979   0.428   0.424   0.520
  202SOL    HW1  980   0.458   0.352   0.458
  202SOL    HW2  981   0.389   0.384   0.603
  203SOL     OW  982   1.705   1.487   1.104
  203SOL    HW1  983   1.612   1.462   1.077
  203SOL    HW2  984   1.731   1.437   1.186
  204SOL     OW  985   0.317   0.547   1.280
  204SOL    HW1  986   0.355   0.488   1.352
  204SOL    HW2  987   0.357   0.521   1.192
  205SOL     OW  988   0.812   1.586   0.687
  205SOL    HW1  989   0.844   1.596   0.593
  205SOL    HW2  990   0.733   1.524   0.689
  206SOL     OW  991   1.424   0.214   1.112
  206SOL    HW1  992   1.476   0.149   1.167
  206SOL    HW2  993   1.375   0.277   1.173
  207SOL     OW  994   1.001   0.034   1.154
  207SOL    HW1  995   0.938  -0.038   1.123
  207SOL    HW2  996   1.094  -0.002   1.154
  208SOL     OW  997   0.770   1.330   0.301
  208SOL    HW1  998   0.724   1.243   0.318
  208SOL    HW2  999   0.861   1.327   0.342
  209SOL     OW 1000   0.618   1.567   1.284
  209SOL    HW1 1001   0.613   1.649   1.341
  209SOL    HW2 1002   0.707   1.564   1.239
  210SOL     OW 1003   1.352   0.052   0.168
  210SOL    HW1 1004   1.387   0.011   0.084
  210SOL    HW2 1005   1.262   0.014   0.188
  211SOL     OW 1006   1.300   0.453   0.691
  211SOL    HW1 1007   1.241   0.533   0.695
  211SOL    HW2 1008   1.315   0.418   0.784
  212SOL     OW 1009   1.593   0.221   0.882
  212SOL    HW1 1010   1.509   0.220   0.936
  212SOL    HW2 1011   1.595   0.304   0.826
  213SOL     OW 1012   0.039   1.077   0.300
  213SOL    HW1 1013   0.138   1.066   0.291
  213SOL    HW2 1014  -0.001   0.991   0.332
  214SOL     OW 1015   0.875   1.646   0.337
  214SOL    HW1 1016   0.798   1.611   0.283
  214SOL    HW2 1017   0.843   1.717   0.399
  215SOL     OW 1018   0.230   0.628   1.975
  215SOL    HW1 1019   0.137   0.626   2.012
  215SOL    HW2 1020   0.231   0.589   1.883
  216SOL     OW 1021   0.225   0.275   2.858
  216SOL    HW1 1022   0.260   0.258   2.950
  216SOL    HW2 1023   0.137   0.230   2.846
  217SOL     OW 1024   0.019   0.368   2.509
  217SOL    HW1 1025  -0.063   0.411   2.548
  217SOL    HW2 1026  -0.009   0.295   2.446
  218SOL     OW 1027   0.569   1.275   3.027
  218SOL    HW1 1028   0.476   1.268   2.990
  218SOL    HW2 1029   0.580   1.364   3.071
  219SOL     OW 1030   1.555   1.511   2.565
  219SOL    HW1 1031   1.498   1.495   2.646
  219SOL    HW2 1032   1.496   1.521   2.485
  220SOL     OW 1033   1.135   0.703   2.579
  220SOL    HW1 1034   1.192   0.781   2.554
  220SOL    HW2 1035   1.075   0.729   2.655
  221SOL     OW 1036   1.755   0.607   2.093
  221SOL    HW1 1037   1.743   0.594   1.994
  221SOL    HW2 1038   1.725   0.526   2.142
  222SOL     OW 1039   0.768   1.144   2.885
  222SOL    HW1 1040   0.690   1.161   2.945
  222SOL    HW2 1041   0.802   1.231   2.849
  223SOL     OW 1042   0.850   0.798   3.685
  223SOL    HW1 1043   0.846   0.874   3.750
  223SOL    HW2 1044   0.872   0.834   3.594
  224SOL     OW 1045   0.685   1.012   2.527
  224SOL    HW1 1046   0.754   0.996   2.597
  224SOL    HW2 1047   0.612   1.069   2.565
  225SOL     OW 1048   0.686   1.161   3.665
  225SOL    HW1 1049   0.746   1.240   3.679
  225SOL    HW2 1050   0.600   1.192   3.624
  226SOL     OW 1051   0.335   1.435   2.923
  226SOL    HW1 1052   0.257   1.404   2.870
  226SOL    HW2 1053   0.393   1.493   2.866
  227SOL     OW 1054   1.460   1.505   3.201
  227SOL    HW1 1055   1.484   1.599   3.227
  227SOL    HW2 1056   1.444   1.451   3.283
  228SOL     OW 1057   0.438   0.392   3.361
  228SOL    HW1 1058   0.520   0.336   3.370
  228SOL    HW2 1059   0.357   0.334   3.365
  229SOL     OW 1060   1.603   0.447   2.599
  229SOL    HW1 1061   1.529   0.493   2.549
  229SOL    HW2 1062   1.654   0.515   2.652
  230SOL     OW 1063   0.231   1.713   2.345
  230SOL    HW1 1064   0.265   1.790   2.399
  230SOL    HW2 1065   0.275   1.713   2.255
  231SOL     OW 1066   1.127   1.341   3.552
  231SOL    HW1 1067   1.174   1.341   3.640
  231SOL    HW2 1068   1.079   1.254   3.541
  232SOL     OW 1069   0.230   1.434   2.400
  232SOL    HW1 1070   0.204   1.530   2.400
  232SOL    HW2 1071   0.159   1.380   2.445
  233SOL     OW 1072   0.240   1.091   2.748
  233SOL    HW1 1073   0.254   1.007   2.800
  233SOL    HW2 1074   0.185   1.155   2.803
  234SOL     OW 1075   0.620   1.786   3.301
  234SOL    HW1 1076   0.528   1.769   3.336
  234SOL    HW2 1077   0.648   1.878   3.327
  235SOL     OW 1078   0.606   0.964   1.985
  235SOL    HW1 1079   0.613   1.048   1.931
  235SOL    HW2 1080   0.652   0.977   2.073
  236SOL     OW 1081   1.594   0.114   3.342
  236SOL    HW1 1082   1.576   0.181   3.270
  236SOL    HW2 1083   1.591   0.160   3.431
  237SOL     OW 1084   0.122   0.643   2.425
  237SOL    HW1 1085   0.077   0.555   2.442
  237SOL    HW2 1086   0.121   0.697   2.509
  238SOL     OW 1087   1.842   1.767   2.221
  238SOL    HW1 1088   1.896   1.738   2.301
  238SOL    HW2 1089   1.872   1.857   2.192
  239SOL     OW 1090   0.027   1.596   1.979
  239SOL    HW1 1091   0.008   1.500   2.000
  239SOL    HW2 1092  -0.006   1.654   2.054
  240SOL     OW 1093   1.689   0.922   2.474
  240SOL    HW1 1094   1.784   0.893   2.482
  240SOL    HW2 1095   1.681   0.987   2.399
  241SOL     OW 1096   1.641   1.108   2.294
  241SOL    HW1 1097   1.727   1.110   2.242
  241SOL    HW2 1098   1.655   1.155   2.382
  242SOL     OW 1099   0.113   0.737   3.459
  242SOL    HW1 1100   0.201   0.724   3.504
  242SOL    HW2 1101   0.100   0.834   3.437
  243SOL     OW 1102   0.613   1.365   2.588
  243SOL    HW1 1103   0.564   1.278   2.597
  243SOL    HW2 1104   0.590   1.408   2.501
  244SOL     OW 1105   1.293   1.228   3.285
  244SOL    HW1 1106   1.330   1.155   3.227
  244SOL    HW2 1107   1.345   1.233   3.370
  245SOL     OW 1108   0.809   0.004   2.364
  245SOL    HW1 1109   0.849   0.095   2.355
  245SOL    HW2 1110   0.709   0.012   2.370
  246SOL     OW 1111   0.197   0.976   3.126
  246SOL    HW1 1112   0.286   0.931   3.112
  246SOL    HW2 1113   0.124   0.911   3.107
  247SOL     OW 1114   1.525   0.999   2.052
  247SOL    HW1 1115   1.462   0.923   2.065
  247SOL    HW2 1116   1.573   1.017   2.138
  248SOL     OW 1117   1.187   1.792   3.478
  248SOL    HW1 1118   1.211   1.852   3.402
  248SOL    HW2 1119   1.194   1.697   3.448
  249SOL     OW 1120   0.317   0.251   3.663
  249SOL    HW1 1121   0.388   0.322   3.669
  249SOL    HW2 1122   0.229   0.290   3.691
  250SOL     OW 1123   1.466   1.417   2.815
  250SOL    HW1 1124   1.407   1.423   2.895
  250SOL    HW2 1125   1.451   1.329   2.769
  251SOL     OW 1126   1.667   1.714   2.434
  251SOL    HW1 1127   1.626   1.691   2.346
  251SOL    HW2 1128   1.649   1.640   2.499
  252SOL     OW 1129   0.598   0.729   2.132
  252SOL    HW1 1130   0.622   0.798   2.064
  252SOL    HW2 1131   0.520   0.762   2.186
  253SOL     OW 1132   1.281   0.345   2.806
  253SOL    HW1 1133   1.195   0.295   2.793
  253SOL    HW2 1134   1.343   0.291   2.862
  254SOL     OW 1135   1.576   1.662   2.169
  254SOL    HW1 1136   1.665   1.708   2.172
  254SOL    HW2 1137   1.555   1.638   2.074
  255SOL     OW 1138   0.807   0.605   3.327
  255SOL    HW1 1139   0.760   0.602   3.416
  255SOL    HW2 1140   0.756   0.550   3.261
  256SOL     OW 1141   1.394   0.469   3.536
  256SOL    HW1 1142   1.374   0.512   3.624
  256SOL    HW2 1143   1.472   0.407   3.545
  257SOL     OW 1144   0.973   0.890   3.434
  257SOL    HW1 1145   1.019   0.806   3.405
  257SOL    HW2 1146   0.917   0.924   3.359
  258SOL     OW 1147   0.991   0.410   3.104
  258SOL    HW1 1148   0.914   0.444   3.158
  258SOL    HW2 1149   0.957   0.359   3.025
  259SOL     OW 1150   1.041   0.701   2.291
  259SOL    HW1 1151   1.067   0.697   2.387
  259SOL    HW2 1152   0.956   0.650   2.277
  260SOL     OW 1153   0.076   0.811   2.651
  260SOL    HW1 1154   0.175   0.799   2.660
  260SOL    HW2 1155   0.052   0.906   2.672
  261SOL     OW 1156   0.130   1.821   3.433
  261SOL    HW1 1157   0.120   1.806   3.532
  261SOL    HW2 1158   0.044   1.857   3.397
  262SOL     OW 1159   0.865   0.348   2.057
  262SOL    HW1 1160   0.924   0.411   2.008
  262SOL    HW2 1161   0.884   0.254   2.028
  263SOL     OW 1162   1.719   0.585   3.693
  263SOL    HW1 1163   1.693   0.674   3.657
  263SOL    HW2 1164   1.717   0.517   3.620
  264SOL     OW 1165   1.362   1.144   2.407
  264SOL    HW1 1166   1.445   1.115   2.359
  264SOL    HW2 1167   1.313   1.211   2.351
  265SOL     OW 1168   0.550   0.196   2.747
  265SOL    HW1 1169   0.545   0.191   2.847
  265SOL    HW2 1170   0.552   0.292   2.718
  266SOL     OW 1171   1.008   1.456   2.339
  266SOL    HW1 1172   0.962   1.528   2.287
  266SOL    HW2 1173   1.004   1.476   2.437
  267SOL     OW 1174   0.351   1.801   2.715
  267SOL    HW1 1175   0.401   1.715   2.721
  267SOL    HW2 1176   0.416   1.878   2.712
  268SOL     OW 1177   1.795   1.066   2.735
  268SOL    HW1 1178   1.733   1.051   2.659
  268SOL    HW2 1179   1.743   1.077   2.820
  269SOL     OW 1180   1.227   1.550   3.368
  269SOL    HW1 1181   1.233   1.473   3.432
  269SOL    HW2 1182   1.175   1.524   3.288
  270SOL     OW 1183   0.321   0.943   2.104
  270SOL    HW1 1184   0.403   0.982   2.062
  270SOL    HW2 1185   0.294   0.861   2.055
  271SOL     OW 1186   1.458   0.735   2.590
  271SOL    HW1 1187   1.453   0.670   2.665
  271SOL    HW2 1188   1.538   0.794   2.603
  272SOL     OW 1189   0.461   1.266   3.589
  272SOL    HW1 1190   0.411   1.267   3.503
  272SOL    HW2 1191   0.398   1.248   3.665
  273SOL     OW 1192   1.111   1.776   2.099
  273SOL    HW1 1193   1.051   1.714   2.149
  273SOL    HW2 1194   1.142   1.732   2.014
  274SOL     OW 1195   0.202   0.285   3.360
  274SOL    HW1 1196   0.122   0.345   3.347
  274SOL    HW2 1197   0.192   0.236   3.446
  275SOL     OW 1198   1.632   1.377   1.943
  275SOL    HW1 1199   1.600   1.471   1.933
  275SOL    HW2 1200   1.556   1.314   1.931
  276SOL     OW 1201   0.464   1.743   2.185
  276SOL    HW1 1202   0.497   1.782   2.271
  276SOL    HW2 1203   0.540   1.736   2.120
  277SOL     OW 1204   1.400   0.107   2.288
  277SOL    HW1 1205   1.376   0.070   2.198
  277SOL    HW2 1206   1.499   0.123   2.292
  278SOL     OW 1207   0.249   1.785   3.103
  278SOL    HW1 1208   0.306   1.720   3.153
  278SOL    HW2 1209   0.233   1.752   3.010
  279SOL     OW 1210   0.940   1.698   2.766
  279SOL    HW1 1211   1.020   1.641   2.787
  279SOL    HW2 1212   0.891   1.658   2.689
  280SOL     OW 1213   0.382   0.700   2.342
  280SOL    HW1 1214   0.427   0.610   2.339
  280SOL    HW2 1215   0.288   0.689   2.375
  281SOL     OW 1216   1.547   0.222   3.591
  281SOL    HW1 1217   1.542   0.259   3.683
  281SOL    HW2 1218   1.475   0.153   3.579
  282SOL     OW 1219   0.614   0.122   1.979
  282SOL    HW1 1220   0.712   0.100   1.986
  282SOL    HW2 1221   0.583   0.105   1.886
  283SOL     OW 1222   0.781   0.264   3.611
  283SOL    HW1 1223   0.848   0.203   3.654
  283SOL    HW2 1224   0.708   0.283   3.676
  284SOL     OW 1225   0.888   1.514   3.057
  284SOL    HW1 1226   0.865   1.489   2.963
  284SOL    HW2 1227   0.949   1.445   3.096
  285SOL     OW 1228   1.351   0.590   3.295
  285SOL    HW1 1229   1.379   0.547   3.380
  285SOL    HW2 1230   1.376   0.686   3.296
  286SOL     OW 1231   0.803   1.402   2.786
  286SOL    HW1 1232   0.893   1.416   2.744
  286SOL    HW2 1233   0.732   1.404   2.715
  287SOL     OW 1234   0.922   0.503   2.761
  287SOL    HW1 1235   0.897   0.494   2.665
  287SOL    HW2 1236   0.970   0.421   2.792
  288SOL     OW 1237   0.539   0.064   2.374
  288SOL    HW1 1238   0.458   0.065   2.432
  288SOL    HW2 1239   0.542   0.147   2.319
  289SOL     OW 1240   1.434   1.188   1.903
  289SOL    HW1 1241   1.466   1.112   1.960
  289SOL    HW2 1242   1.342   1.215   1.933
  290SOL     OW 1243   0.297   0.035   2.033
  290SOL    HW1 1244   0.346   0.119   2.012
  290SOL    HW2 1245   0.359  -0.030   2.078
  291SOL     OW 1246   0.935   0.236   2.342
  291SOL    HW1 1247   0.887   0.277   2.264
  291SOL    HW2 1248   1.034   0.234   2.323
  292SOL     OW 1249   1.076   0.683   3.326
  292SOL    HW1 1250   0.996   0.622   3.329
  292SOL    HW2 1251   1.157   0.630   3.302
  293SOL     OW 1252   1.227   1.570   2.655
  293SOL    HW1 1253   1.248   1.644   2.590
  293SOL    HW2 1254   1.295   1.570   2.728
  294SOL     OW 1255   0.459   1.152   2.603
  294SOL    HW1 1256   0.388   1.125   2.668
  294SOL    HW2 1257   0.433   1.124   2.510
  295SOL     OW 1258   1.271   1.797   2.453
  295SOL    HW1 1259   1.315   1.861   2.389
  295SOL    HW2 1260   1.221   1.849   2.523
  296SOL     OW 1261   1.032   0.549   1.878
  296SOL    HW1 1262   0.991   0.631   1.839
  296SOL    HW2 1263   1.096   0.575   1.951
  297SOL     OW 1264   0.078   0.556   3.248
  297SOL    HW1 1265   0.170   0.555   3.207
  297SOL    HW2 1266   0.072   0.630   3.315
  298SOL     OW 1267   0.561   0.222   3.009
  298SOL    HW1 1268   0.599   0.138   3.046
  298SOL    HW2 1269   0.473   0.241   3.053
  299SOL     OW 1270   0.866   0.454   2.504
  299SOL    HW1 1271   0.834   0.526   2.442
  299SOL    HW2 1272   0.890   0.373   2.451
  300SOL     OW 1273   1.017   0.039   2.615
  300SOL    HW1 1274   0.945   0.044   2.546
  300SOL    HW2 1275   0.993  -0.030   2.684
  301SOL     OW 1276   1.429   1.173   2.729
  301SOL    HW1 1277   1.374   1.089   2.722
  301SOL    HW2 1278   1.455   1.202   2.637
  302SOL     OW 1279   1.466   0.590   2.854
  302SOL    HW1 1280   1.436   0.495   2.861
  302SOL    HW2 1281   1.539   0.606   2.920
  303SOL     OW 1282   1.857   0.833   2.239
  303SOL    HW1 1283   1.899   0.769   2.303
  303SOL    HW2 1284   1.819   0.782   2.161
  304SOL     OW 1285   0.488   1.385   2.036
  304SOL    HW1 1286   0.401   1.370   2.083
  304SOL    HW2 1287   0.471   1.411   1.941
  305SOL     OW 1288   1.664   1.280   2.519
  305SOL    HW1 1289   1.763   1.288   2.533
  305SOL    HW2 1290   1.619   1.364   2.550
  306SOL     OW 1291   1.390   0.575   1.940
  306SOL    HW1 1292   1.336   0.554   2.021
  306SOL    HW2 1293   1.481   0.534   1.949
  307SOL     OW 1294   0.527   0.256   2.190
  307SOL    HW1 1295   0.554   0.197   2.115
  307SOL    HW2 1296   0.527   0.351   2.159
  308SOL     OW 1297   1.754   1.223   3.450
  308SOL    HW1 1298   1.845   1.184   3.437
  308SOL    HW2 1299   1.762   1.319   3.474
  309SOL     OW 1300   1.064   1.347   3.202
  309SOL    HW1 1301   0.984   1.324   3.257
  309SOL    HW2 1302   1.147   1.321   3.251
  310SOL     OW 1303   1.592   1.629   3.487
  310SOL    HW1 1304   1.619   1.663   3.397
  310SOL    HW2 1305   1.671   1.591   3.533
  311SOL     OW 1306   1.111   1.195   2.962
  311SOL    HW1 1307   1.071   1.239   3.043
  311SOL    HW2 1308   1.070   1.232   2.879
  312SOL     OW 1309   1.638   1.099   2.941
  312SOL    HW1 1310   1.643   1.180   3.000
  312SOL    HW2 1311   1.552   1.101   2.890
  313SOL     OW 1312   0.915   0.089   3.264
  313SOL    HW1 1313   0.940   0.069   3.169
  313SOL    HW2 1314   0.987   0.145   3.306
  314SOL     OW 1315   0.980   1.116   3.581
  314SOL    HW1 1316   0.881   1.122   3.591
  314SOL    HW2 1317   1.003   1.036   3.525
  315SOL     OW 1318   0.705   1.050   2.230
  315SOL    HW1 1319   0.691   1.057   2.329
  315SOL    HW2 1320   0.789   0.999   2.212
  316SOL     OW 1321   0.410   0.813   3.113
  316SOL    HW1 1322   0.496   0.825   3.163
  316SOL    HW2 1323   0.368   0.726   3.140
  317SOL     OW 1324   1.274   0.386   3.124
  317SOL    HW1 1325   1.295   0.460   3.188
  317SOL    HW2 1326   1.185   0.403   3.081
  318SOL     OW 1327   0.064   1.564   3.193
  318SOL    HW1 1328   0.018   1.646   3.159
  318SOL    HW2 1329   0.162   1.583   3.202
  319SOL     OW 1330   0.367   1.100   2.363
  319SOL    HW1 1331   0.360   1.183   2.307
  319SOL    HW2 1332   0.371   1.020   2.303
  320SOL     OW 1333   0.566   0.537   2.727
  320SOL    HW1 1334   0.578   0.603   2.653
  320SOL    HW2 1335   0.612   0.571   2.810
  321SOL     OW 1336   1.252   1.348   2.250
  321SOL    HW1 1337   1.302   1.425   2.290
  321SOL    HW2 1338   1.157   1.350   2.282
  322SOL     OW 1339   1.272   1.445   3.004
  322SOL    HW1 1340   1.319   1.458   3.091
  322SOL    HW2 1341   1.206   1.371   3.013
  323SOL     OW 1342   1.582   0.639   2.334
  323SOL    HW1 1343   1.551   0.700   2.407
  323SOL    HW2 1344   1.632   0.691   2.265
  324SOL     OW 1345   0.354   1.510   3.191
  324SOL    HW1 1346   0.333   1.466   3.104
  324SOL    HW2 1347   0.451   1.536   3.194
  325SOL     OW 1348   0.402   0.751   3.460
  325SOL    HW1 1349   0.470   0.806   3.413
  325SOL    HW2 1350   0.442   0.663   3.487
  326SOL     OW 1351   1.587   0.779   3.532
  326SOL    HW1 1352   1.495   0.817   3.527
  326SOL    HW2 1353   1.647   0.826   3.467
  327SOL     OW 1354   1.013   0.105   3.632
  327SOL    HW1 1355   1.019   0.190   3.580
  327SOL    HW2 1356   1.045   0.029   3.575
  328SOL     OW 1357   0.504   0.050   3.602
  328SOL    HW1 1358   0.462  -0.007   3.532
  328SOL    HW2 1359   0.438   0.119   3.634
  329SOL     OW 1360   0.573   0.870   2.891
  329SOL    HW1 1361   0.617   0.959   2.882
  329SOL    HW2 1362   0.510   0.870   2.968
  330SOL     OW 1363   1.360   0.862   2.907
  330SOL    HW1 1364   1.285   0.862   2.841
  330SOL    HW2 1365   1.397   0.770   2.916
  331SOL     OW 1366   1.209   0.525   2.137
  331SOL    HW1 1367   1.222   0.441   2.191
  331SOL    HW2 1368   1.180   0.599   2.197
  332SOL     OW 1369   0.307   0.213   3.093
  332SOL    HW1 1370   0.284   0.250   3.183
  332SOL    HW2 1371   0.277   0.118   3.087
  333SOL     OW 1372   0.037   1.310   3.144
  333SOL    HW1 1373   0.090   1.261   3.212
  333SOL    HW2 1374   0.059   1.408   3.149
  334SOL     OW 1375   0.732   0.634   2.926
  334SOL    HW1 1376   0.791   0.608   2.850
  334SOL    HW2 1377   0.704   0.730   2.915
  335SOL     OW 1378   1.728   0.935   3.716
  335SOL    HW1 1379   1.682   0.928   3.627
  335SOL    HW2 1380   1.666   0.979   3.782
  336SOL     OW 1381   0.307   0.063   2.480
  336SOL    HW1 1382   0.296   0.157   2.513
  336SOL    HW2 1383   0.302   0.000   2.557
  337SOL     OW 1384   1.622   0.367   2.236
  337SOL    HW1 1385   1.624   0.291   2.300
  337SOL    HW2 1386   1.574   0.444   2.276
  338SOL     OW 1387   1.023   0.766   2.828
  338SOL    HW1 1388   1.038   0.787   2.924
  338SOL    HW2 1389   0.993   0.671   2.819
  339SOL     OW 1390   0.980   1.573   3.562
  339SOL    HW1 1391   0.960   1.617   3.474
  339SOL    HW2 1392   1.019   1.482   3.546
  340SOL     OW 1393   1.859   1.518   3.467
  340SOL    HW1 1394   1.873   1.545   3.372
  340SOL    HW2 1395   1.942   1.540   3.520
  341SOL     OW 1396   0.350   0.898   3.666
  341SOL    HW1 1397   0.426   0.942   3.714
  341SOL    HW2 1398   0.385   0.851   3.584
  342SOL     OW 1399   1.540   0.274   1.987
  342SOL    HW1 1400   1.479   0.199   2.010
  342SOL    HW2 1401   1.562   0.326   2.070
  343SOL     OW 1402   1.303   0.838   1.904
  343SOL    HW1 1403   1.337   0.745   1.919
  343SOL    HW2 1404   1.321   0.865   1.809
  344SOL     OW 1405   1.068   1.333   2.711
  344SOL    HW1 1406   1.075   1.249   2.656
  344SOL    HW2 1407   1.130   1.402   2.675
  345SOL     OW 1408   0.319   0.810   2.811
  345SOL    HW1 1409   0.412   0.846   2.816
  345SOL    HW2 1410   0.313   0.725   2.863
  346SOL     OW 1411   0.339   0.509   2.868
  346SOL    HW1 1412   0.287   0.426   2.851
  346SOL    HW2 1413   0.416   0.514   2.804
  347SOL     OW 1414   1.138   0.380   3.540
  347SOL    HW1 1415   1.093   0.443   3.604
  347SOL    HW2 1416   1.231   0.411   3.523
  348SOL     OW 1417   1.160   0.207   3.339
  348SOL    HW1 1418   1.160   0.271   3.416
  348SOL    HW2 1419   1.188   0.255   3.256
  349SOL     OW 1420   0.008   1.326   2.062
  349SOL    HW1 1421  -0.085   1.347   2.031
  349SOL    HW2 1422   0.018   1.227   2.075
  350SOL     OW 1423   0.088   1.801   2.789
  350SOL    HW1 1424   0.046   1.715   2.762
  350SOL    HW2 1425   0.182   1.804   2.755
  351SOL     OW 1426   0.504   1.568   2.772
  351SOL    HW1 1427   0.570   1.642   2.781
  351SOL    HW2 1428   0.548   1.489   2.730
  352SOL     OW 1429   1.002   0.796   3.100
  352SOL    HW1 1430   1.043   0.764   3.186
  352SOL    HW2 1431   0.906   0.769   3.097
  353SOL     OW 1432   0.040   0.544   2.976
  353SOL    HW1 1433   0.125   0.511   2.935
  353SOL    HW2 1434   0.053   0.559   3.074
  354SOL     OW 1435   0.189   0.520   3.584
  354SOL    HW1 1436   0.248   0.480   3.514
  354SOL    HW2 1437   0.131   0.591   3.543
  355SOL     OW 1438   1.369   0.950   3.522
  355SOL    HW1 1439   1.408   1.039   3.542
  355SOL    HW2 1440   1.379   0.930   3.425
  356SOL     OW 1441   0.815   0.572   2.187
  356SOL    HW1 1442   0.822   0.483   2.141
  356SOL    HW2 1443   0.721   0.606   2.179
  357SOL     OW 1444   1.657   0.604   3.068
  357SOL    HW1 1445   1.619   0.535   3.130
  357SOL    HW2 1446   1.739   0.568   3.024
  358SOL     OW 1447   0.252   1.564   3.606
  358SOL    HW1 1448   0.222   1.621   3.682
  358SOL    HW2 1449   0.245   1.467   3.632
  359SOL     OW 1450   0.671   0.464   3.131
  359SOL    HW1 1451   0.637   0.375   3.101
  359SOL    HW2 1452   0.697   0.518   3.051
  360SOL     OW 1453   0.930   1.678   3.327
  360SOL    HW1 1454   0.906   1.660   3.232
  360SOL    HW2 1455   0.960   1.772   3.337
  361SOL     OW 1456   0.473   0.500   2.053
  361SOL    HW1 1457   0.534   0.580   2.057
  361SOL    HW2 1458   0.378   0.531   2.060
  362SOL     OW 1459   0.159   1.137   3.328
  362SOL    HW1 1460   0.181   1.076   3.404
  362SOL    HW2 1461   0.169   1.088   3.242
  363SOL     OW 1462   1.347   1.059   3.096
  363SOL    HW1 1463   1.371   0.996   3.022
  363SOL    HW2 1464   1.257   1.099   3.078
  364SOL     OW 1465   1.302   0.855   2.171
  364SOL    HW1 1466   1.216   0.824   2.213
  364SOL    HW2 1467   1.298   0.841   2.072
  365SOL     OW 1468   1.759   1.747   3.016
  365SOL    HW1 1469   1.820   1.777   2.943
  365SOL    HW2 1470   1.721   1.658   2.994
  366SOL     OW 1471   1.252   1.731   2.990
  366SOL    HW1 1472   1.336   1.736   2.936
  366SOL    HW2 1473   1.229   1.635   3.008
  367SOL     OW 1474   0.083   1.258   2.884
  367SOL    HW1 1475   0.078   1.257   2.984
  367SOL    HW2 1476   0.000   1.217   2.846
  368SOL     OW 1477   0.688   1.662   3.578
  368SOL    HW1 1478   0.632   1.743   3.587
  368SOL    HW2 1479   0.740   1.666   3.492
  369SOL     OW 1480   1.726   0.135   2.385
  369SOL    HW1 1481   1.799   0.118   2.318
  369SOL    HW2 1482   1.695   0.048   2.423
  370SOL     OW 1483   1.388   1.573   2.339
  370SOL    HW1 1484   1.455   1.585   2.265
  370SOL    HW2 1485   1.348   1.662   2.362
  371SOL     OW 1486   0.130   1.794   3.713
  371SOL    HW1 1487   0.089   1.720   3.766
  371SOL    HW2 1488   0.194   1.845   3.771
  372SOL     OW 1489   1.280   0.927   2.534
  372SOL    HW1 1490   1.340   0.846   2.536
  372SOL    HW2 1491   1.320   0.996   2.474
  373SOL     OW 1492   0.830   1.273   3.284
  373SOL    HW1 1493   0.825   1.306   3.379
  373SOL    HW2 1494   0.744   1.292   3.238
  374SOL     OW 1495   0.672   1.616   2.016
  374SOL    HW1 1496   0.681   1.626   1.917
  374SOL    HW2 1497   0.632   1.527   2.037
  375SOL     OW 1498   1.650   1.720   3.256
  375SOL    HW1 1499   1.703   1.730   3.172
  375SOL    HW2 1500   1.623   1.810   3.290
  376SOL     OW 1501   1.841   0.175   2.825
  376SOL    HW1 1502   1.880   0.090   2.789
  376SOL    HW2 1503   1.743   0.177   2.806
  377SOL     OW 1504   0.263   0.326   2.582
  377SOL    HW1 1505   0.184   0.377   2.548
  377SOL    HW2 1506   0.254   0.311   2.680
  378SOL     OW 1507   1.194   1.612   1.893
  378SOL    HW1 1508   1.200   1.519   1.930
  378SOL    HW2 1509   1.135   1.612   1.813
  379SOL     OW 1510   0.822   1.002   3.234
  379SOL    HW1 1511   0.862   1.001   3.142
  379SOL    HW2 1512   0.832   1.094   3.274
  380SOL     OW 1513   0.916   0.910   2.153
  380SOL    HW1 1514   0.979   0.948   2.085
  380SOL    HW2 1515   0.956   0.827   2.192
  381SOL     OW 1516   1.504   1.607   1.906
  381SOL    HW1 1517   1.412   1.644   1.913
  381SOL    HW2 1518   1.542   1.627   1.816
  382SOL     OW 1519   0.372   1.288   3.352
  382SOL    HW1 1520   0.359   1.381   3.318
  382SOL    HW2 1521   0.288   1.236   3.339
  383SOL     OW 1522   1.614   1.292   3.151
  383SOL    HW1 1523   1.674   1.295   3.231
  383SOL    HW2 1524   1.539   1.356   3.164
  384SOL     OW 1525   1.039   1.098   2.558
  384SOL    HW1 1526   0.969   1.051   2.612
  384SOL    HW2 1527   1.098   1.030   2.515
  385SOL     OW 1528   1.014   0.236   2.833
  385SOL    HW1 1529   1.006   0.200   2.740
  385SOL    HW2 1530   1.012   0.160   2.898
  386SOL     OW 1531   0.590   1.487   2.353
  386SOL    HW1 1532   0.632   1.429   2.283
  386SOL    HW2 1533   0.546   1.566   2.309
  387SOL     OW 1534   1.709   0.385   3.243
  387SOL    HW1 1535   1.782   0.454   3.247
  387SOL    HW2 1536   1.737   0.310   3.184
  388SOL     OW 1537   0.255   1.348   2.152
  388SOL    HW1 1538   0.159   1.349   2.125
  388SOL    HW2 1539   0.267   1.401   2.236
  389SOL     OW 1540   0.105   1.013   3.588
  389SOL    HW1 1541   0.028   0.980   3.642
  389SOL    HW2 1542   0.190   0.983   3.630
  390SOL     OW 1543   0.672   0.203   3.351
  390SOL    HW1 1544   0.762   0.187   3.311
  390SOL    HW2 1545   0.680   0.208   3.450
  391SOL     OW 1546   0.075   0.345   1.895
  391SOL    HW1 1547  -0.017   0.317   1.866
  391SOL    HW2 1548   0.106   0.422   1.839
  392SOL     OW 1549   1.440   0.856   3.260
  392SOL    HW1 1550   1.383   0.908   3.197
  392SOL    HW2 1551   1.536   0.868   3.236
  393SOL     OW 1552   0.072   0.166   2.180
  393SOL    HW1 1553   0.055   0.249   2.126
  393SOL    HW2 1554   0.162   0.129   2.158
  394SOL     OW 1555   1.183   1.335   1.981
  394SOL    HW1 1556   1.084   1.324   1.983
  394SOL    HW2 1557   1.217   1.350   2.074
  395SOL     OW 1558   0.613   0.842   3.293
  395SOL    HW1 1559   0.669   0.923   3.276
  395SOL    HW2 1560   0.672   0.762   3.296
  396SOL     OW 1561   1.493   1.767   2.821
  396SOL    HW1 1562   1.526   1.831   2.752
  396SOL    HW2 1563   1.559   1.761   2.896
  397SOL     OW 1564   0.716   0.565   3.570
  397SOL    HW1 1565   0.735   0.630   3.644
  397SOL    HW2 1566   0.776   0.485   3.579
  398SOL     OW 1567   1.450   1.220   3.495
  398SOL    HW1 1568   1.441   1.210   3.594
  398SOL    HW2 1569   1.546   1.213   3.469
  399SOL     OW 1570   0.390   1.741   3.422
  399SOL    HW1 1571   0.299   1.782   3.420
  399SOL    HW2 1572   0.383   1.647   3.454
  400SOL     OW 1573   1.674   0.883   3.116
  400SOL    HW1 1574   1.647   0.794   3.079
  400SOL    HW2 1575   1.675   0.951   3.043
  401SOL     OW 1576   1.225   0.325   2.311
  401SOL    HW1 1577   1.290   0.251   2.300
  401SOL    HW2 1578   1.245   0.375   2.395
  402SOL     OW 1579   0.594   0.745   2.514
  402SOL    HW1 1580   0.644   0.830   2.495
  402SOL    HW2 1581   0.506   0.747   2.466
  403SOL     OW 1582   1.777   0.342   3.504
  403SOL    HW1 1583   1.760   0.373   3.410
  403SOL    HW2 1584   1.693   0.305   3.542
  404SOL     OW 1585   1.730   0.934   3.379
  404SOL    HW1 1586   1.768   1.025   3.394
  404SOL    HW2 1587   1.722   0.917   3.280
  405SOL     OW 1588   0.859   1.374   1.878
  405SOL    HW1 1589   0.813   1.389   1.966
  405SOL    HW2 1590   0.903   1.459   1.848
  406SOL     OW 1591   0.661   1.790   2.815
  406SOL    HW1 1592   0.615   1.878   2.802
  406SOL    HW2 1593   0.760   1.802   2.808
  407SOL     OW 1594   0.859   0.956   2.723
  407SOL    HW1 1595   0.913   0.887   2.771
  407SOL    HW2 1596   0.827   1.025   2.789
  408SOL     OW 1597   1.083   0.984   1.949
  408SOL    HW1 1598   1.060   1.037   1.867
  408SOL    HW2 1599   1.164   0.928   1.930
  409SOL     OW 1600   1.861   1.569   2.713
  409SOL    HW1 1601   1.790   1.557   2.643
  409SOL    HW2 1602   1.862   1.490   2.773
  410SOL     OW 1603   0.221   1.314   3.706
  410SOL    HW1 1604   0.156   1.241   3.685
  410SOL    HW2 1605   0.225   1.328   3.804
  411SOL     OW 1606   0.079   1.240   2.515
  411SOL    HW1 1607   0.078   1.193   2.603
  411SOL    HW2 1608   0.161   1.212   2.464
  412SOL     OW 1609   0.672   1.391   3.486
  412SOL    HW1 1610   0.594   1.341   3.524
  412SOL    HW2 1611   0.669   1.486   3.517
  413SOL     OW 1612   1.824   0.192   3.089
  413SOL    HW1 1613   1.820   0.102   3.133
  413SOL    HW2 1614   1.827   0.181   2.990
  414SOL     OW 1615   0.428   0.424   2.382
  414SOL    HW1 1616   0.458   0.352   2.320
  414SOL    HW2 1617   0.389   0.384   2.465
  415SOL     OW 1618   1.705   1.487   2.966
  415SOL    HW1 1619   1.612   1.462   2.939
  415SOL    HW2 1620   1.731   1.437   3.048
  416SOL     OW 1621   0.317   0.547   3.142
  416SOL    HW1 1622   0.355   0.488   3.214
  416SOL    HW2 1623   0.357   0.521   3.054
  417SOL     OW 1624   0.812   1.586   2.549
  417SOL    HW1 1625   0.844   1.596   2.455
  417SOL    HW2 1626   0.733   1.524   2.551
  418SOL     OW 1627   1.424   0.214   2.974
  418SOL    HW1 1628   1.476   0.149   3.029
  418SOL    HW2 1629   1.375   0.277   3.035
  419SOL     OW 1630   1.001   0.034   3.016
  419SOL    HW1 1631   0.938  -0.038   2.985
  419SOL    HW2 1632   1.094  -0.002   3.016
  420SOL     OW 1633   0.770   1.330   2.163
  420SOL    HW1 1634   0.724   1.243   2.180
  420SOL    HW2 1635   0.861   1.327   2.204
  421SOL     OW 1636   0.618   1.567   3.146
  421SOL    HW1 1637   0.613   1.649   3.203
  421SOL    HW2 1638   0.707   1.564   3.101
  422SOL     OW 1639   1.352   0.052   2.030
  422SOL    HW1 1640   1.387   0.011   1.946
  422SOL    HW2 1641   1.262   0.014   2.050
  423SOL     OW 1642   1.300   0.453   2.553
  423SOL    HW1 1643   1.241   0.533   2.557
  423SOL    HW2 1644   1.315   0.418   2.646
  424SOL     OW 1645   1.593   0.221   2.744
  424SOL    HW1 1646   1.509   0.220   2.798
  424SOL    HW2 1647   1.595   0.304   2.688
  425SOL     OW 1648   0.039   1.077   2.162
  425SOL    HW1 1649   0.138   1.066   2.153
  425SOL    HW2 1650  -0.001   0.991   2.194
  426SOL     OW 1651   0.875   1.646   2.199
  426SOL    HW1 1652   0.798   1.611   2.145
  426SOL    HW2 1653   0.843   1.717   2.261
  427SOL     OW 1654   0.230   0.628   3.837
  427SOL    HW1 1655   0.137   0.626   3.874
  427SOL    HW2 1656   0.231   0.589   3.745
  428SOL     OW 1657   0.225   0.275   4.720
  428SOL    HW1 1658   0.260   0.258   4.812
  428SOL    HW2 1659   0.137   0.230   4.708
  429SOL     OW 1660   0.019   0.368   4.371
  429SOL    HW1 1661  -0.063   0.411   4.410
  429SOL    HW2 1662  -0.009   0.295   4.308
  430SOL     OW 1663   0.569   1.275   4.889
  430SOL    HW1 1664   0.476   1.268   4.852
  430SOL    HW2 1665   0.580   1.364   4.933
  431SOL     OW 1666   1.555   1.511   4.427
  431SOL    HW1 1667   1.498   1.495   4.508
  431SOL    HW2 1668   1.496   1.521   4.347
  432SOL     OW 1669   1.135   0.703   4.441
  432SOL    HW1 1670   1.192   0.781   4.416
  432SOL    HW2 1671   1.075   0.729   4.517
  433SOL     OW 1672   1.755   0.607   3.955
  433SOL    HW1 1673   1.743   0.594   3.856
  433SOL    HW2 1674   1.725   0.526   4.004
  434SOL     OW 1675   0.768   1.144   4.747
  434SOL    HW1 1676   0.690   1.161   4.807
  434SOL    HW2 1677   0.802   1.231   4.711
  435SOL     OW 1678   0.850   0.798   5.547
  435SOL    HW1 1679   0.846   0.874   5.612
  435SOL    HW2 1680   0.872   0.834   5.456
  436SOL     OW 1681   0.685   1.012   4.389
  436SOL    HW1 1682   0.754   0.996   4.459
  436SOL    HW2 1683   0.612   1.069   4.427
  437SOL     OW 1684   0.686   1.161   5.527
  437SOL    HW1 1685   0.746   1.240   5.541
  437SOL    HW2 1686   0.600   1.192   5.486
  438SOL     OW 1687   0.335   1.435   4.785
  438SOL    HW1 1688   0.257   1.404   4.732
  438SOL    HW2 1689   0.393   1.493   4.728
  439SOL     OW 1690   1.460   1.505   5.063
  439SOL    HW1 1691   1.484   1.599   5.089
  439SOL    HW2 1692   1.444   1.451   5.145
  440SOL     OW 1693   0.438   0.392   5.223
  440SOL    HW1 1694   0.520   0.336   5.232
  440SOL    HW2 1695   0.357   0.334   5.227
  441SOL     OW 1696   1.603   0.447   4.461
  441SOL    HW1 1697   1.529   0.493   4.411
  441SOL    HW2 1698   1.654   0.515   4.514
  442SOL     OW 1699   0.231   1.713   4.207
  442SOL    HW1 1700   0.265   1.790   4.261
  442SOL    HW2 1701   0.275   1.713   4.117
  443SOL     OW 1702   1.127   1.341   5.414
  443SOL    HW1 1703   1.174   1.341   5.502
  443SOL    HW2 1704   1.079   1.254   5.403
  444SOL     OW 1705   0.230   1.434   4.262
  444SOL    HW1 1706   0.204   1.530   4.262
  444SOL    HW2 1707   0.159   1.380   4.307
  445SOL     OW 1708   0.240   1.091   4.610
  445SOL    HW1 1709   0.254   1.007   4.662
  445SOL    HW2 1710   0.185   1.155   4.665
  446SOL     OW 1711   0.620   1.786   5.163
  446SOL    HW1 1712   0.528   1.769   5.198
  446SOL    HW2 1713   0.648   1.878   5.189
  447SOL     OW 1714   0.606   0.964   3.847
  447SOL    HW1 1715   0.613   1.048   3.793
  447SOL    HW2 1716   0.652   0.977   3.935
  448SOL     OW 1717   1.594   0.114   5.204
  448SOL    HW1 1718   1.576   0.181   5.132
  448SOL    HW2 1719   1.591   0.160   5.293
  449SOL     OW 1720   0.122   0.643   4.287
  449SOL    HW1 1721   0.077   0.555   4.304
  449SOL    HW2 1722   0.121   0.697   4.371
  450SOL     OW 1723   1.842   1.767   4.083
  450SOL    HW1 1724   1.896   1.738   4.163
  450SOL    HW2 1725   1.872   1.857   4.054
  451SOL     OW 1726   0.027   1.596   3.841
  451SOL    HW1 1727   0.008   1.500   3.862
  451SOL    HW2 1728  -0.006   1.654   3.916
  452SOL     OW 1729   1.689   0.922   4.336
  452SOL    HW1 1730   1.784   0.893   4.344
  452SOL    HW2 1731   1.681   0.987   4.261
  453SOL     OW 1732   1.641   1.108   4.156
  453SOL    HW1 1733   1.727   1.110   4.104
  453SOL    HW2 1734   1.655   1.155   4.244
  454SOL     OW 1735   0.113   0.737   5.321
  454SOL    HW1 1736   0.201   0.724   5.366
  454SOL    HW2 1737   0.100   0.834   5.299
  455SOL     OW 1738   0.613   1.365   4.450
  455SOL    HW1 1739   0.564   1.278   4.459
  455SOL    HW2 1740   0.590   1.408   4.363
  456SOL     OW 1741   1.293   1.228   5.147
  456SOL    HW1 1742   1.330   1.155   5.089
  456SOL    HW2 1743   1.345   1.233   5.232
  457SOL     OW 1744   0.809   0.004   4.226
  457SOL    HW1 1745   0.849   0.095   4.217
  457SOL    HW2 1746   0.709   0.012   4.232
  458SOL     OW 1747   0.197   0.976   4.988
  458SOL    HW1 1748   0.286   0.931   4.974
  458SOL    HW2 1749   0.124   0.911   4.969
  459SOL     OW 1750   1.525   0.999   3.914
  459SOL    HW1 1751   1.462   0.923   3.927
  459SOL    HW2 1752   1.573   1.017   4.000
  460SOL     OW 1753   1.187   1.792   5.340
  460SOL    HW1 1754   1.211   1.852   5.264
  460SOL    HW2 1755   1.194   1.697   5.310
  461SOL     OW 1756   0.317   0.251   5.525
  461SOL    HW1 1757   0.388   0.322   5.531
  461SOL    HW2 1758   0.229   0.290   5.553
  462SOL     OW 1759   1.466   1.417   4.677
  462SOL    HW1 1760   1.407   1.423   4.757
  462SOL    HW2 1761   1.451   1.329   4.631
  463SOL     OW 1762   1.667   1.714   4.296
  463SOL    HW1 1763   1.626   1.691   4.208
  463SOL    HW2 1764   1.649   1.640   4.361
  464SOL     OW 1765   0.598   0.729   3.994
  464SOL    HW1 1766   0.622   0.798   3.926
  464SOL    HW2 1767   0.520   0.762   4.048
  465SOL     OW 1768   1.281   0.345   4.668
  465SOL    HW1 1769   1.195   0.295   4.655
  465SOL    HW2 1770   1.343   0.291   4.724
  466SOL     OW 1771   1.576   1.662   4.031
  466SOL    HW1 1772   1.665   1.708   4.034
  466SOL    HW2 1773   1.555   1.638   3.936
  467SOL     OW 1774   0.807   0.605   5.189
  467SOL    HW1 1775   0.760   0.602   5.278
  467SOL    HW2 1776   0.756   0.550   5.123
  468SOL     OW 1777   1.394   0.469   5.398
  468SOL    HW1 1778   1.374   0.512   5.486
  468SOL    HW2 1779   1.472   0.407   5.407
  469SOL     OW 1780   0.973   0.890   5.296
  469SOL    HW1 1781   1.019   0.806   5.267
  469SOL    HW2 1782   0.917   0.924   5.221
  470SOL     OW 1783   0.991   0.410   4.966
  470SOL    HW1 1784   0.914   0.444   5.020
  470SOL    HW2 1785   0.957   0.359   4.887
  471SOL     OW 1786   1.041   0.701   4.153
  471SOL    HW1 1787   1.067   0.697   4.249
  471SOL    HW2 1788   0.956   0.650   4.139
  472SOL     OW 1789   0.076   0.811   4.513
  472SOL    HW1 1790   0.175   0.799   4.522
  472SOL    HW2 1791   0.052   0.906   4.534
  473SOL     OW 1792   0.130   1.821   5.295
  473SOL    HW1 1793   0.120   1.806   5.394
  473SOL    HW2 1794   0.044   1.857   5.259
  474SOL     OW 1795   0.865   0.348   3.919
  474SOL    HW1 1796   0.924   0.411   3.870
  474SOL    HW2 1797   0.884   0.254   3.890
  475SOL     OW 1798   1.719   0.585   5.555
  475SOL    HW1 1799   1.693   0.674   5.519
  475SOL    HW2 1800   1.717   0.517   5.482
  476SOL     OW 1801   1.362   1.144   4.269
  476SOL    HW1 1802   1.445   1.115   4.221
  476SOL    HW2 1803   1.313   1.211   4.213
  477SOL     OW 1804   0.550   0.196   4.609
  477SOL    HW1 1805   0.545   0.191   4.709
  477SOL    HW2 1806   0.552   0.292   4.580
  478SOL     OW 1807   1.008   1.456   4.201
  478SOL    HW1 1808   0.962   1.528   4.149
  478SOL    HW2 1809   1.004   1.476   4.299
  479SOL     OW 1810   0.351   1.801   4.577
  479SOL    HW1 1811   0.401   1.715   4.583
  479SOL    HW2 1812   0.416   1.878   4.574
  480SOL     OW 1813   1.795   1.066   4.597
  480SOL    HW1 1814   1.733   1.051   4.521
  480SOL    HW2 1815   1.743   1.077   4.682
  481SOL     OW 1816   1.227   1.550   5.230
  481SOL    HW1 1817   1.233   1.473   5.294
  481SOL    HW2 1818   1.175   1.524   5.150
  482SOL     OW 1819   0.321   0.943   3.966
  482SOL    HW1 1820   0.403   0.982   3.924
  482SOL    HW2 1821   0.294   0.861   3.917
  483SOL     OW 1822   1.458   0.735   4.452
  483SOL    HW1 1823   1.453   0.670   4.527
  483SOL    HW2 1824   1.538   0.794   4.465
  484SOL     OW 1825   0.461   1.266   5.451
  484SOL    HW1 1826   0.411   1.267   5.365
  484SOL    HW2 1827   0.398   1.248   5.527
  485SOL     OW 1828   1.111   1.776   3.961
  485SOL    HW1 1829   1.051   1.714   4.011
  485SOL    HW2 1830   1.142   1.732   3.876
  486SOL     OW 1831   0.202   0.285   5.222
  486SOL    HW1 1832   0.122   0.345   5.209
  486SOL    HW2 1833   0.192   0.236   5.308
  487SOL     OW 1834   1.632   1.377   3.805
  487SOL    HW1 1835   1.600   1.471   3.795
  487SOL    HW2 1836   1.556   1.314   3.793
  488SOL     OW 1837   0.464   1.743   4.047
  488SOL    HW1 1838   0.497   1.782   4.133
  488SOL    HW2 1839   0.540   1.736   3.982
  489SOL     OW 1840   1.400   0.107   4.150
  489SOL    HW1 1841   1.376   0.070   4.060
  489SOL    HW2 1842   1.499   0.123   4.154
  490SOL     OW 1843   0.249   1.785   4.965
  490SOL    HW1 1844   0.306   1.720   5.015
  490SOL    HW2 1845   0.233   1.752   4.872
  491SOL     OW 1846   0.940   1.698   4.628
  491SOL    HW1 1847   1.020   1.641   4.649
  491SOL    HW2 1848   0.891   1.658   4.551
  492SOL     OW 1849   0.382   0.700   4.204
  492SOL    HW1 1850   0.427   0.610   4.201
  492SOL    HW2 1851   0.288   0.689   4.237
  493SOL     OW 1852   1.547   0.222   5.453
  493SOL    HW1 1853   1.542   0.259   5.545
  493SOL    HW2 1854   1.475   0.153   5.441
  494SOL     OW 1855   0.614   0.122   3.841
  494SOL    HW1 1856   0.712   0.100   3.848
  494SOL    HW2 1857   0.583   0.105   3.748
  495SOL     OW 1858   0.781   0.264   5.473
  495SOL    HW1 1859   0.848   0.203   5.516
  495SOL    HW2 1860   0.708   0.283   5.538
  496SOL     OW 1861   0.888   1.514   4.919
  496SOL    HW1 1862   0.865   1.489   4.825
  496SOL    HW2 1863   0.949   1.445   4.958
  497SOL     OW 1864   1.351   0.590   5.157
  497SOL    HW1 1865   1.379   0.547   5.242
  497SOL    HW2 1866   1.376   0.686   5.158
  498SOL     OW 1867   0.803   1.402   4.648
  498SOL    HW1 1868   0.893   1.416   4.606
  498SOL    HW2 1869   0.732   1.404   4.577
  499SOL     OW 1870   0.922   0.503   4.623
  499SOL    HW1 1871   0.897   0.494   4.527
  499SOL    HW2 1872   0.970   0.421   4.654
  500SOL     OW 1873   0.539   0.064   4.236
  500SOL    HW1 1874   0.458   0.065   4.294
  500SOL    HW2 1875   0.542   0.147   4.181
  501SOL     OW 1876   1.434   1.188   3.765
  501SOL    HW1 1877   1.466   1.112   3.822
  501SOL    HW2 1878   1.342   1.215   3.795
  502SOL     OW 1879   0.297   0.035   3.895
  502SOL    HW1 1880   0.346   0.119   3.874
  502SOL    HW2 1881   0.359  -0.030   3.940
  503SOL     OW 1882   0.935   0.236   4.204
  503SOL    HW1 1883   0.887   0.277   4.126
  503SOL    HW2 1884   1.034   0.234   4.185
  504SOL     OW 1885   1.076   0.683   5.188
  504SOL    HW1 1886   0.996   0.622   5.191
  504SOL    HW2 1887   1.157   0.630   5.164
  505SOL     OW 1888   1.227   1.570   4.517
  505SOL    HW1 1889   1.248   1.644   4.452
  505SOL    HW2 1890   1.295   1.570   4.590
  506SOL     OW 1891   0.459   1.152   4.465
  506SOL    HW1 1892   0.388   1.125   4.530
  506SOL    HW2 1893   0.433   1.124   4.372
  507SOL     OW 1894   1.271   1.797   4.315
  507SOL    HW1 1895   1.315   1.861   4.251
  507SOL    HW2 1896   1.221   1.849   4.385
  508SOL     OW 1897   1.032   0.549   3.740
  508SOL    HW1 1898   0.991   0.631   3.701
  508SOL    HW2 1899   1.096   0.575   3.813
  509SOL     OW 1900   0.078   0.556   5.110
  509SOL    HW1 1901   0.170   0.555   5.069
  509SOL    HW2 1902   0.072   0.630   5.177
  510SOL     OW 1903   0.561   0.222   4.871
  510SOL    HW1 1904   0.599   0.138   4.908
  510SOL    HW2 1905   0.473   0.241   4.915
  511SOL     OW 1906   0.866   0.454   4.366
  511SOL    HW1 1907   0.834   0.526   4.304
  511SOL    HW2 1908   0.890   0.373   4.313
  512SOL     OW 1909   1.017   0.039   4.477
  512SOL    HW1 1910   0.945   0.044   4.408
  512SOL    HW2 1911   0.993  -0.030   4.546
  513SOL     OW 1912   1.429   1.173   4.591
  513SOL    HW1 1913   1.374   1.089   4.584
  513SOL    HW2 1914   1.455   1.202   4.499
  514SOL     OW 1915   1.466   0.590   4.716
  514SOL    HW1 1916   1.436   0.495   4.723
  514SOL    HW2 1917   1.539   0.606   4.782
  515SOL     OW 1918   1.857   0.833   4.101
  515SOL    HW1 1919   1.899   0.769   4.165
  515SOL    HW2 1920   1.819   0.782   4.023
  516SOL     OW 1921   0.488   1.385   3.898
  516SOL    HW1 1922   0.401   1.370   3.945
  516SOL    HW2 1923   0.471   1.411   3.803
  517SOL     OW 1924   1.664   1.280   4.381
  517SOL    HW1 1925   1.763   1.288   4.395
  517SOL    HW2 1926   1.619   1.364   4.412
  518SOL     OW 1927   1.390   0.575   3.802
  518SOL    HW1 1928   1.336   0.554   3.883
  518SOL    HW2 1929   1.481   0.534   3.811
  519SOL     OW 1930   0.527   0.256   4.052
  519SOL    HW1 1931   0.554   0.197   3.977
  519SOL    HW2 1932   0.527   0.351   4.021
  520SOL     OW 1933   1.754   1.223   5.312
  520SOL    HW1 1934   1.845   1.184   5.299
  520SOL    HW2 1935   1.762   1.319   5.336
  521SOL     OW 1936   1.064   1.347   5.064
  521SOL    HW1 1937   0.984   1.324   5.119
  521SOL    HW2 1938   1.147   1.321   5.113
  522SOL     OW 1939   1.592   1.629   5.349
  522SOL    HW1 1940   1.619   1.663   5.259
  522SOL    HW2 1941   1.671   1.591   5.395
  523SOL     OW 1942   1.111   1.195   4.824
  523SOL    HW1 1943   1.071   1.239   4.905
  523SOL    HW2 1944   1.070   1.232   4.741
  524SOL     OW 1945   1.638   1.099   4.803
  524SOL    HW1 1946   1.643   1.180   4.862
  524SOL    HW2 1947   1.552   1.101   4.752
  525SOL     OW 1948   0.915   0.089   5.126
  525SOL    HW1 1949   0.940   0.069   5.031
  525SOL    HW2 1950   0.987   0.145   5.168
  526SOL     OW 1951   0.980   1.116   5.443
  526SOL    HW1 1952   0.881   1.122   5.453
  526SOL    HW2 1953   1.003   1.036   5.387
  527SOL     OW 1954   0.705   1.050   4.092
  527SOL    HW1 1955   0.691   1.057   4.191
  527SOL    HW2 1956   0.789   0.999   4.074
  528SOL     OW 1957   0.410   0.813   4.975
  528SOL    HW1 1958   0.496   0.825   5.025
  528SOL    HW2 1959   0.368   0.726   5.002
  529SOL     OW 1960   1.274   0.386   4.986
  529SOL    HW1 1961   1.295   0.460   5.050
  529SOL    HW2 1962   1.185   0.403   4.943
  530SOL     OW 1963   0.064   1.564   5.055
  530SOL    HW1 1964   0.018   1.646   5.021
  530SOL    HW2 1965   0.162   1.583   5.064
  531SOL     OW 1966   0.367   1.100   4.225
  531SOL    HW1 1967   0.360   1.183   4.169
  531SOL    HW2 1968   0.371   1.020   4.165
  532SOL     OW 1969   0.566   0.537   4.589
  532SOL    HW1 1970   0.578   0.603   4.515
  532SOL    HW2 1971   0.612   0.571   4.672
  533SOL     OW 1972   1.252   1.348   4.112
  533SOL    HW1 1973   1.302   1.425   4.152
  533SOL    HW2 1974   1.157   1.350   4.144
  534SOL     OW 1975   1.272   1.445   4.866
  534SOL    HW1 1976   1.319   1.458   4.953
  534SOL    HW2 1977   1.206   1.371   4.875
  535SOL     OW 1978   1.582   0.639   4.196
  535SOL    HW1 1979   1.551   0.700   4.269
  535SOL    HW2 1980   1.632   0.691   4.127
  536SOL     OW 1981   0.354   1.510   5.053
  536SOL    HW1 1982   0.333   1.466   4.966
  536SOL    HW2 1983   0.451   1.536   5.056
  537SOL     OW 1984   0.402   0.751   5.322
  537SOL    HW1 1985   0.470   0.806   5.275
  537SOL    HW2 1986   0.442   0.663   5.349
  538SOL     OW 1987   1.587   0.779   5.394
  538SOL    HW1 1988   1.495   0.817   5.389
  538SOL    HW2 1989   1.647   0.826   5.329
  539SOL     OW 1990   1.013   0.105   5.494
  539SOL    HW1 1991   1.019   0.190   5.442
  539SOL    HW2 1992   1.045   0.029   5.437
  540SOL     OW 1993   0.504   0.050   5.464
  540SOL    HW1 1994   0.462  -0.007   5.394
  540SOL    HW2 1995   0.438   0.119   5.496
  541SOL     OW 1996   0.573   0.870   4.753
  541SOL    HW1 1997   0.617   0.959   4.744
  541SOL    HW2 1998   0.510   0.870   4.830
  542SOL     OW 1999   1.360   0.862   4.769
  542SOL    HW1 2000   1.285   0.862   4.703
  542SOL    HW2 2001   1.397   0.770   4.778
  543SOL     OW 2002   1.209   0.525   3.999
  543SOL    HW1 2003   1.222   0.441   4.053
  543SOL    HW2 2004   1.180   0.599   4.059
  544SOL     OW 2005   0.307   0.213   4.955
  544SOL    HW1 2006   0.284   0.250   5.045
  544SOL    HW2 2007   0.277   0.118   4.949
  545SOL     OW 2008   0.037   1.310   5.006
  545SOL    HW1 2009   0.090   1.261   5.074
  545SOL    HW2 2010   0.059   1.408   5.011
  546SOL     OW 2011   0.732   0.634   4.788
  546SOL    HW1 2012   0.791   0.608   4.712
  546SOL    HW2 2013   0.704   0.730   4.777
  547SOL     OW 2014   1.728   0.935   5.578
  547SOL    HW1 2015   1.682   0.928   5.489
  547SOL    HW2 2016   1.666   0.979   5.644
  548SOL     OW 2017   0.307   0.063   4.342
  548SOL    HW1 2018   0.296   0.157   4.375
  548SOL    HW2 2019   0.302   0.000   4.419
  549SOL     OW 2020   1.622   0.367   4.098
  549SOL    HW1 2021   1.624   0.291   4.162
  549SOL    HW2 2022   1.574   0.444   4.138
  550SOL     OW 2023   1.023   0.766   4.690
  550SOL    HW1 2024   1.038   0.787   4.786
  550SOL    HW2 2025   0.993   0.671   4.681
  551SOL     OW 2026   0.980   1.573   5.424
  551SOL    HW1 2027   0.960   1.617   5.336
  551SOL    HW2 2028   1.019   1.482   5.408
  552SOL     OW 2029   1.859   1.518   5.329
  552SOL    HW1 2030   1.873   1.545   5.234
  552SOL    HW2 2031   1.942   1.540   5.382
  553SOL     OW 2032   0.350   0.898   5.528
  553SOL    HW1 2033   0.426   0.942   5.576
  553SOL    HW2 2034   0.385   0.851   5.446
  554SOL     OW 2035   1.540   0.274   3.849
  554SOL    HW1 2036   1.479   0.199   3.872
  554SOL    HW2 2037   1.562   0.326   3.932
  555SOL     OW 2038   1.303   0.838   3.766
  555SOL    HW1 2039   1.337   0.745   3.781
  555SOL    HW2 2040   1.321   0.865   3.671
  556SOL     OW 2041   1.068   1.333   4.573
  556SOL    HW1 2042   1.075   1.249   4.518
  556SOL    HW2 2043   1.130   1.402   4.537
  557SOL     OW 2044   0.319   0.810   4.673
  557SOL    HW1 2045   0.412   0.846   4.678
  557SOL    HW2 2046   0.313   0.725   4.725
  558SOL     OW 2047   0.339   0.509   4.730
  558SOL    HW1 2048   0.287   0.426   4.713
  558SOL    HW2 2049   0.416   0.514   4.666
  559SOL     OW 2050   1.138   0.380   5.402
  559SOL    HW1 2051   1.093   0.443   5.466
  559SOL    HW2 2052   1.231   0.411   5.385
  560SOL     OW 2053   1.160   0.207   5.201
  560SOL    HW1 2054   1.160   0.271   5.278
  560SOL    HW2 2055   1.188   0.255   5.118
  561SOL     OW 2056   0.008   1.326   3.924
  561SOL    HW1 2057  -0.085   1.347   3.893
  561SOL    HW2 2058   0.018   1.227   3.937
  562SOL     OW 2059   0.088   1.801   4.651
  562SOL    HW1 2060   0.046   1.715   4.624
  562SOL    HW2 2061   0.182   1.804   4.617
  563SOL     OW 2062   0.504   1.568   4.634
  563SOL    HW1 2063   0.570   1.642   4.643
  563SOL    HW2 2064   0.548   1.489   4.592
  564SOL     OW 2065   1.002   0.796   4.962
  564SOL    HW1 2066   1.043   0.764   5.048
  564SOL    HW2 2067   0.906   0.769   4.959
  565SOL     OW 2068   0.040   0.544   4.838
  565SOL    HW1 2069   0.125   0.511   4.797
  565SOL    HW2 2070   0.053   0.559   4.936
  566SOL     OW 2071   0.189   0.520   5.446
  566SOL    HW1 2072   0.248   0.480   5.376
  566SOL    HW2 2073   0.131   0.591   5.405
  567SOL     OW 2074   1.369   0.950   5.384
  567SOL    HW1 2075   1.408   1.039   5.404
  567SOL    HW2 2076   1.379   0.930   5.287
  568SOL     OW 2077   0.815   0.572   4.049
  568SOL    HW1 2078   0.822   0.483   4.003
  568SOL    HW2 2079   0.721   0.606   4.041
  569SOL     OW 2080   1.657   0.604   4.930
  569SOL    HW1 2081   1.619   0.535   4.992
  569SOL    HW2 2082   1.739   0.568   4.886
  570SOL     OW 2083   0.252   1.564   5.468
  570SOL    HW1 2084   0.222   1.621   5.544
  570SOL    HW2 2085   0.245   1.467   5.494
  571SOL     OW 2086   0.671   0.464   4.993
  571SOL    HW1 2087   0.637   0.375   4.963
  571SOL    HW2 2088   0.697   0.518   4.913
  572SOL     OW 2089   0.930   1.678   5.189
  572SOL    HW1 2090   0.906   1.660   5.094
  572SOL    HW2 2091   0.960   1.772   5.199
  573SOL     OW 2092   0.473   0.500   3.915
  573SOL    HW1 2093   0.534   0.580   3.919
  573SOL    HW2 2094   0.378   0.531   3.922
  574SOL     OW 2095   0.159   1.137   5.190
  574SOL    HW1 2096   0.181   1.076   5.266
  574SOL    HW2 2097   0.169   1.088   5.104
  575SOL     OW 2098   1.347   1.059   4.958
  575SOL    HW1 2099   1.371   0.996   4.884
  575SOL    HW2 2100   1.257   1.099   4.940
  576SOL     OW 2101   1.302   0.855   4.033
  576SOL    HW1 2102   1.216   0.824   4.075
  576SOL    HW2 2103   1.298   0.841   3.934
  577SOL     OW 2104   1.759   1.747   4.878
  577SOL    HW1 2105   1.820   1.777   4.805
  577SOL    HW2 2106   1.721   1.658   4.856
  578SOL     OW 2107   1.252   1.731   4.852
  578SOL    HW1 2108   1.336   1.736   4.798
  578SOL    HW2 2109   1.229   1.635   4.870
  579SOL     OW 2110   0.083   1.258   4.746
  579SOL    HW1 2111   0.078   1.257   4.846
  579SOL    HW2 2112   0.000   1.217   4.708
  580SOL     OW 2113   0.688   1.662   5.440
  580SOL    HW1 2114   0.632   1.743   5.449
  580SOL    HW2 2115   0.740   1.666   5.354
  581SOL     OW 2116   1.726   0.135   4.247
  581SOL    HW1 2117   1.799   0.118   4.180
  581SOL    HW2 2118   1.695   0.048   4.285
  582SOL     OW 2119   1.388   1.573   4.201
  582SOL    HW1 2120   1.455   1.585   4.127
  582SOL    HW2 2121   1.348   1.662   4.224
  583SOL     OW 2122   0.130   1.794   5.575
  583SOL    HW1 2123   0.089   1.720   5.628
  583SOL    HW2 2124   0.194   1.845   5.633
  584SOL     OW 2125   1.280   0.927   4.396
  584SOL    HW1 2126   1.340   0.846   4.398
  584SOL    HW2 2127   1.320   0.996   4.336
  585SOL     OW 2128   0.830   1.273   5.146
  585SOL    HW1 2129   0.825   1.306   5.241
  585SOL    HW2 2130   0.744   1.292   5.100
  586SOL     OW 2131   0.672   1.616   3.878
  586SOL    HW1 2132   0.681   1.626   3.779
  586SOL    HW2 2133   0.632   1.527   3.899
  587SOL     OW 2134   1.650   1.720   5.118
  587SOL    HW1 2135   1.703   1.730   5.034
  587SOL    HW2 2136   1.623   1.810   5.152
  588SOL     OW 2137   1.841   0.175   4.687
  588SOL    HW1 2138   1.880   0.090   4.651
  588SOL    HW2 2139   1.743   0.177   4.668
  589SOL     OW 2140   0.263   0.326   4.444
  589SOL    HW1 2141   0.184   0.377   4.410
  589SOL    HW2 2142   0.254   0.311   4.542
  590SOL     OW 2143   1.194   1.612   3.755
  590SOL    HW1 2144   1.200   1.519   3.792
  590SOL    HW2 2145   1.135   1.612   3.675
  591SOL     OW 2146   0.822   1.002   5.096
  591SOL    HW1 2147   0.862   1.001   5.004
  591SOL    HW2 2148   0.832   1.094   5.136
  592SOL     OW 2149   0.916   0.910   4.015
  592SOL    HW1 2150   0.979   0.948   3.947
  592SOL    HW2 2151   0.956   0.827   4.054
  593SOL     OW 2152   1.504   1.607   3.768
  593SOL    HW1 2153   1.412   1.644   3.775
  593SOL    HW2 2154   1.542   1.627   3.678
  594SOL     OW 2155   0.372   1.288   5.214
  594SOL    HW1 2156   0.359   1.381   5.180
  594SOL    HW2 2157   0.288   1.236   5.201
  595SOL     OW 2158   1.614   1.292   5.013
  595SOL    HW1 2159   1.674   1.295   5.093
  595SOL    HW2 2160   1.539   1.356   5.026
  596SOL     OW 2161   1.039   1.098   4.420
  596SOL    HW1 2162   0.969   1.051   4.474
  596SOL    HW2 2163   1.098   1.030   4.377
  597SOL     OW 2164   1.014   0.236   4.695
  597SOL    HW1 2165   1.006   0.200   4.602
  597SOL    HW2 2166   1.012   0.160   4.760
  598SOL     OW 2167   0.590   1.487   4.215
  598SOL    HW1 2168   0.632   1.429   4.145
  598SOL    HW2 2169   0.546   1.566   4.171
  599SOL     OW 2170   1.709   0.385   5.105
  599SOL    HW1 2171   1.782   0.454   5.109
  599SOL    HW2 2172   1.737   0.310   5.046
  600SOL     OW 2173   0.255   1.348   4.014
  600SOL    HW1 2174   0.159   1.349   3.987
  600SOL    HW2 2175   0.267   1.401   4.098
  601SOL     OW 2176   0.105   1.013   5.450
  601SOL    HW1 2177   0.028   0.980   5.504
  601SOL    HW2 2178   0.190   0.983   5.492
  602SOL     OW 2179   0.672   0.203   5.213
  602SOL    HW1 2180   0.762   0.187   5.173
  602SOL    HW2 2181   0.680   0.208   5.312
  603SOL     OW 2182   0.075   0.345   3.757
  603SOL    HW1 2183  -0.017   0.317   3.728
  603SOL    HW2 2184   0.106   0.422   3.701
  604SOL     OW 2185   1.440   0.856   5.122
  604SOL    HW1 2186   1.383   0.908   5.059
  604SOL    HW2 2187   1.536   0.868   5.098
  605SOL     OW 2188   0.072   0.166   4.042
  605SOL    HW1 2189   0.055   0.249   3.988
  605SOL    HW2 2190   0.162   0.129   4.020
  606SOL     OW 2191   1.183   1.335   3.843
  606SOL    HW1 2192   1.084   1.324   3.845
  606SOL    HW2 2193   1.217   1.350   3.936
  607SOL     OW 2194   0.613   0.842   5.155
  607SOL    HW1 2195   0.669   0.923   5.138
  607SOL    HW2 2196   0.672   0.762   5.158
  608SOL     OW 2197   1.493   1.767   4.683
  608SOL    HW1 2198   1.526   1.831   4.614
  608SOL    HW2 2199   1.559   1.761   4.758
  609SOL     OW 2200   0.716   0.565   5.432
  609SOL    HW1 2201   0.735   0.630   5.506
  609SOL    HW2 2202   0.776   0.485   5.441
  610SOL     OW 2203   1.450   1.220   5.357
  610SOL    HW1 2204   1.441   1.210   5.456
  610SOL    HW2 2205   1.546   1.213   5.331
  611SOL     OW 2206   0.390   1.741   5.284
  611SOL    HW1 2207   0.299   1.782   5.282
  611SOL    HW2 2208   0.383   1.647   5.316
  612SOL     OW 2209   1.674   0.883   4.978
  612SOL    HW1 2210   1.647   0.794   4.941
  612SOL    HW2 2211   1.675   0.951   4.905
  613SOL     OW 2212   1.225   0.325   4.173
  613SOL    HW1 2213   1.290   0.251   4.162
  613SOL    HW2 2214   1.245   0.375   4.257
  614SOL     OW 2215   0.594   0.745   4.376
  614SOL    HW1 2216   0.644   0.830   4.357
  614SOL    HW2 2217   0.506   0.747   4.328
  615SOL     OW 2218   1.777   0.342   5.366
  615SOL    HW1 2219   1.760   0.373   5.272
  615SOL    HW2 2220   1.693   0.305   5.404
  616SOL     OW 2221   1.730   0.934   5.241
  616SOL    HW1 2222   1.768   1.025   5.256
  616SOL    HW2 2223   1.722   0.917   5.142
  617SOL     OW 2224   0.859   1.374   3.740
  617SOL    HW1 2225   0.813   1.389   3.828
  617SOL    HW2 2226   0.903   1.459   3.710
  618SOL     OW 2227   0.661   1.790   4.677
  618SOL    HW1 2228   0.615   1.878   4.664
  618SOL    HW2 2229   0.760   1.802   4.670
  619SOL     OW 2230   0.859   0.956   4.585
  619SOL    HW1 2231   0.913   0.887   4.633
  619SOL    HW2 2232   0.827   1.025   4.651
  620SOL     OW 2233   1.083   0.984   3.811
  620SOL    HW1 2234   1.060   1.037   3.729
  620SOL    HW2 2235   1.164   0.928   3.792
  621SOL     OW 2236   1.861   1.569   4.575
  621SOL    HW1 2237   1.790   1.557   4.505
  621SOL    HW2 2238   1.862   1.490   4.635
  622SOL     OW 2239   0.221   1.314   5.568
  622SOL    HW1 2240   0.156   1.241   5.547
  622SOL    HW2 2241   0.225   1.328   5.666
  623SOL     OW 2242   0.079   1.240   4.377
  623SOL    HW1 2243   0.078   1.193   4.465
  623SOL    HW2 2244   0.161   1.212   4.326
  624SOL     OW 2245   0.672   1.391   5.348
  624SOL    HW1 2246   0.594   1.341   5.386
  624SOL    HW2 2247   0.669   1.486   5.379
  625SOL     OW 2248   1.824   0.192   4.951
  625SOL    HW1 2249   1.820   0.102   4.995
  625SOL    HW2 2250   1.827   0.181   4.852
  626SOL     OW 2251   0.428   0.424   4.244
  626SOL    HW1 2252   0.458   0.352   4.182
  626SOL    HW2 2253   0.389   0.384   4.327
  627SOL     OW 2254   1.705   1.487   4.828
  627SOL    HW1 2255   1.612   1.462   4.801
  627SOL    HW2 2256   1.731   1.437   4.910
  628SOL     OW 2257   0.317   0.547   5.004
  628SOL    HW1 2258   0.355   0.488   5.076
  628SOL    HW2 2259   0.357   0.521   4.916
  629SOL     OW 2260   0.812   1.586   4.411
  629SOL    HW1 2261   0.844   1.596   4.317
  629SOL    HW2 2262   0.733   1.524   4.413
  630SOL     OW 2263   1.424   0.214   4.836
  630SOL    HW1 2264   1.476   0.149   4.891
  630SOL    HW2 2265   1.375   0.277   4.897
  631SOL     OW 2266   1.001   0.034   4.878
  631SOL    HW1 2267   0.938  -0.038   4.847
  631SOL    HW2 2268   1.094  -0.002   4.878
  632SOL     OW 2269   0.770   1.330   4.025
  632SOL    HW1 2270   0.724   1.243   4.042
  632SOL    HW2 2271   0.861   1.327   4.066
  633SOL     OW 2272   0.618   1.567   5.008
  633SOL    HW1 2273   0.613   1.649   5.065
  633SOL    HW2 2274   0.707   1.564   4.963
  634SOL     OW 2275   1.352   0.052   3.892
  634SOL    HW1 2276   1.387   0.011   3.808
  634SOL    HW2 2277   1.262   0.014   3.912
  635SOL     OW 2278   1.300   0.453   4.415
  635SOL    HW1 2279   1.241   0.533   4.419
  635SOL    HW2 2280   1.315   0.418   4.508
  636SOL     OW 2281   1.593   0.221   4.606
  636SOL    HW1 2282   1.509   0.220   4.660
  636SOL    HW2 2283   1.595   0.304   4.550
  637SOL     OW 2284   0.039   1.077   4.024
  637SOL    HW1 2285   0.138   1.066   4.015
  637SOL    HW2 2286  -0.001   0.991   4.056
  638SOL     OW 2287   0.875   1.646   4.061
  638SOL    HW1 2288   0.798   1.611   4.007
  638SOL    HW2 2289   0.843   1.717   4.123
  639SOL     OW 2290   0.230   0.628   5.699
  639SOL    HW1 2291   0.137   0.626   5.736
  639SOL    HW2 2292   0.231   0.589   5.607
  640SOL     OW 2293   0.225   0.275   6.582
  640SOL    HW1 2294   0.260   0.258   6.674
  640SOL    HW2 2295   0.137   0.230   6.570
  641SOL     OW 2296   0.019   0.368   6.233
  641SOL    HW1 2297  -0.063   0.411   6.272
  641SOL    HW2 2298  -0.009   0.295   6.170
  642SOL     OW 2299   0.569   1.275   6.751
  642SOL    HW1 2300   0.476   1.268   6.714
  642SOL    HW2 2301   0.580   1.364   6.795
  643SOL     OW 2302   1.555   1.511   6.289
  643SOL    HW1 2303   1.498   1.495   6.370
  643SOL    HW2 2304   1.496   1.521   6.209
  644SOL     OW 2305   1.135   0.703   6.303
  644SOL    HW1 2306   1.192   0.781   6.278
  644SOL    HW2 2307   1.075   0.729   6.379
  645SOL     OW 2308   1.755   0.607   5.817
  645SOL    HW1 2309   1.743   0.594   5.718
  645SOL    HW2 2310   1.725   0.526   5.866
  646SOL     OW 2311   0.768   1.144   6.609
  646SOL    HW1 2312   0.690   1.161   6.669
  646SOL    HW2 2313   0.802   1.231   6.573
  647SOL     OW 2314   0.850   0.798   7.409
  647SOL    HW1 2315   0.846   0.874   7.474
  647SOL    HW2 2316   0.872   0.834   7.318
  648SOL     OW 2317   0.685   1.012   6.251
  648SOL    HW1 2318   0.754   0.996   6.321
  648SOL    HW2 2319   0.612   1.069   6.289
  649SOL     OW 2320   0.686   1.161   7.389
  649SOL    HW1 2321   0.746   1.240   7.403
  649SOL    HW2 2322   0.600   1.192   7.348
  650SOL     OW 2323   0.335   1.435   6.647
  650SOL    HW1 2324   0.257   1.404   6.594
  650SOL    HW2 2325   0.393   1.493   6.590
  651SOL     OW 2326   1.460   1.505   6.925
  651SOL    HW1 2327   1.484   1.599   6.951
  651SOL    HW2 2328   1.444   1.451   7.007
  652SOL     OW 2329   0.438   0.392   7.085
  652SOL    HW1 2330   0.520   0.336   7.094
  652SOL    HW2 2331   0.357   0.334   7.089
  653SOL     OW 2332   1.603   0.447   6.323
  653SOL    HW1 2333   1.529   0.493   6.273
  653SOL    HW2 2334   1.654   0.515   6.376
  654SOL     OW 2335   0.231   1.713   6.069
  654SOL    HW1 2336   0.265   1.790   6.123
  654SOL    HW2 2337   0.275   1.713   5.979
  655SOL     OW 2338   1.127   1.341   7.276
  655SOL    HW1 2339   1.174   1.341   7.364
  655SOL    HW2 2340   1.079   1.254   7.265
  656SOL     OW 2341   0.230   1.434   6.124
  656SOL    HW1 2342   0.204   1.530   6.124
  656SOL    HW2 2343   0.159   1.380   6.169
  657SOL     OW 2344   0.240   1.091   6.472
  657SOL    HW1 2345   0.254   1.007   6.524
  657SOL    HW2 2346   0.185   1.155   6.527
  658SOL     OW 2347   0.620   1.786   7.025
  658SOL    HW1 2348   0.528   1.769   7.060
  658SOL    HW2 2349   0.648   1.878   7.051
  659SOL     OW 2350   0.606   0.964   5.709
  659SOL    HW1 2351   0.613   1.048   5.655
  659SOL    HW2 2352   0.652   0.977   5.797
  660SOL     OW 2353   1.594   0.114   7.066
  660SOL    HW1 2354   1.576   0.181   6.994
  660SOL    HW2 2355   1.591   0.160   7.155
  661SOL     OW 2356   0.122   0.643   6.149
  661SOL    HW1 2357   0.077   0.555   6.166
  661SOL    HW2 2358   0.121   0.697   6.233
  662SOL     OW 2359   1.842   1.767   5.945
  662SOL    HW1 2360   1.896   1.738   6.025
  662SOL    HW2 2361   1.872   1.857   5.916
  663SOL     OW 2362   0.027   1.596   5.703
  663SOL    HW1 2363   0.008   1.500   5.724
  663SOL    HW2 2364  -0.006   1.654   5.778
  664SOL     OW 2365   1.689   0.922   6.198
  664SOL    HW1 2366   1.784   0.893   6.206
  664SOL    HW2 2367   1.681   0.987   6.123
  665SOL     OW 2368   1.641   1.108   6.018
  665SOL    HW1 2369   1.727   1.110   5.966
  665SOL    HW2 2370   1.655   1.155   6.106
  666SOL     OW 2371   0.113   0.737   7.183
  666SOL    HW1 2372   0.201   0.724   7.228
  666SOL    HW2 2373   0.100   0.834   7.161
  667SOL     OW 2374   0.613   1.365   6.312
  667SOL    HW1 2375   0.564   1.278   6.321
  667SOL    HW2 2376   0.590   1.408   6.225
  668SOL     OW 2377   1.293   1.228   7.009
  668SOL    HW1 2378   1.330   1.155   6.951
  668SOL    HW2 2379   1.345   1.233   7.094
  669SOL     OW 2380   0.809   0.004   6.088
  669SOL    HW1 2381   0.849   0.095   6.079
  669SOL    HW2 2382   0.709   0.012   6.094
  670SOL     OW 2383   0.197   0.976   6.850
  670SOL    HW1 2384   0.286   0.931   6.836
  670SOL    HW2 2385   0.124   0.911   6.831
  671SOL     OW 2386   1.525   0.999   5.776
  671SOL    HW1 2387   1.462   0.923   5.789
  671SOL    HW2 2388   1.573   1.017   5.862
  672SOL     OW 2389   1.187   1.792   7.202
  672SOL    HW1 2390   1.211   1.852   7.126
  672SOL    HW2 2391   1.194   1.697   7.172
  673SOL     OW 2392   0.317   0.251   7.387
  673SOL    HW1 2393   0.388   0.322   7.393
  673SOL    HW2 2394   0.229   0.290   7.415
  674SOL     OW 2395   1.466   1.417   6.539
  674SOL    HW1 2396   1.407   1.423   6.619
  674SOL    HW2 2397   1.451   1.329   6.493
  675SOL     OW 2398   1.667   1.714   6.158
  675SOL    HW1 2399   1.626   1.691   6.070
  675SOL    HW2 2400   1.649   1.640   6.223
  676SOL     OW 2401   0.598   0.729   5.856
  676SOL    HW1 2402   0.622   0.798   5.788
  676SOL    HW2 2403   0.520   0.762   5.910
  677SOL     OW 2404   1.281   0.345   6.530
  677SOL    HW1 2405   1.195   0.295   6.517
  677SOL    HW2 2406   1.343   0.291   6.586
  678SOL     OW 2407   1.576   1.662   5.893
  678SOL    HW1 2408   1.665   1.708   5.896
  678SOL    HW2 2409   1.555   1.638   5.798
  679SOL     OW 2410   0.807   0.605   7.051
  679SOL    HW1 2411   0.760   0.602   7.140
  679SOL    HW2 2412   0.756   0.550   6.985
  680SOL     OW 2413   1.394   0.469   7.260
  680SOL    HW1 2414   1.374   0.512   7.348
  680SOL    HW2 2415   1.472   0.407   7.269
  681SOL     OW 2416   0.973   0.890   7.158
  681SOL    HW1 2417   1.019   0.806   7.129
  681SOL    HW2 2418   0.917   0.924   7.083
  682SOL     OW 2419   0.991   0.410   6.828
  682SOL    HW1 2420   0.914   0.444   6.882
  682SOL    HW2 2421   0.957   0.359   6.749
  683SOL     OW 2422   1.041   0.701   6.015
  683SOL    HW1 2423   1.067   0.697   6.111
  683SOL    HW2 2424   0.956   0.650   6.001
  684SOL     OW 2425   0.076   0.811   6.375
  684SOL    HW1 2426   0.175   0.799   6.384
  684SOL    HW2 2427   0.052   0.906   6.396
  685SOL     OW 2428   0.130   1.821   7.157
  685SOL    HW1 2429   0.120   1.806   7.256
  685SOL    HW2 2430   0.044   1.857   7.121
  686SOL     OW 2431   0.865   0.348   5.781
  686SOL    HW1 2432   0.924   0.411   5.732
  686SOL    HW2 2433   0.884   0.254   5.752
  687SOL     OW 2434   1.719   0.585   7.417
  687SOL    HW1 2435   1.693   0.674   7.381
  687SOL    HW2 2436   1.717   0.517   7.344
  688SOL     OW 2437   1.362   1.144   6.131
  688SOL    HW1 2438   1.445   1.115   6.083
  688SOL    HW2 2439   1.313   1.211   6.075
  689SOL     OW 2440   0.550   0.196   6.471
  689SOL    HW1 2441   0.545   0.191   6.571
  689SOL    HW2 2442   0.552   0.292   6.442
  690SOL     OW 2443   1.008   1.456   6.063
  690SOL    HW1 2444   0.962   1.528   6.011
  690SOL    HW2 2445   1.004   1.476   6.161
  691SOL     OW 2446   0.351   1.801   6.439
  691SOL    HW1 2447   0.401   1.715   6.445
  691SOL    HW2 2448   0.416   1.878   6.436
  692SOL     OW 2449   1.795   1.066   6.459
  692SOL    HW1 2450   1.733   1.051   6.383
  692SOL    HW2 2451   1.743   1.077   6.544
  693SOL     OW 2452   1.227   1.550   7.092
  693SOL    HW1 2453   1.233   1.473   7.156
  693SOL    HW2 2454   1.175   1.524   7.012
  694SOL     OW 2455   0.321   0.943   5.828
  694SOL    HW1 2456   0.403   0.982   5.786
  694SOL    HW2 2457   0.294   0.861   5.779
  695SOL     OW 2458   1.458   0.735   6.314
  695SOL    HW1 2459   1.453   0.670   6.389
  695SOL    HW2 2460   1.538   0.794   6.327
  696SOL     OW 2461   0.461   1.266   7.313
  696SOL    HW1 2462   0.411   1.267   7.227
  696SOL    HW2 2463   0.398   1.248   7.389
  697SOL     OW 2464   1.111   1.776   5.823
  697SOL    HW1 2465   1.051   1.714   5.873
  697SOL    HW2 2466   1.142   1.732   5.738
  698SOL     OW 2467   0.202   0.285   7.084
  698SOL    HW1 2468   0.122   0.345   7.071
  698SOL    HW2 2469   0.192   0.236   7.170
  699SOL     OW 2470   1.632   1.377   5.667
  699SOL    HW1 2471   1.600   1.471   5.657
  699SOL    HW2 2472   1.556   1.314   5.655
  700SOL     OW 2473   0.464   1.743   5.909
  700SOL    HW1 2474   0.497   1.782   5.995
  700SOL    HW2 2475   0.540   1.736   5.844
  701SOL     OW 2476   1.400   0.107   6.012
  701SOL    HW1 2477   1.376   0.070   5.922
  701SOL    HW2 2478   1.499   0.123   6.016
  702SOL     OW 2479   0.249   1.785   6.827
  702SOL    HW1 2480   0.306   1.720   6.877
  702SOL    HW2 2481   0.233   1.752   6.734
  703SOL     OW 2482   0.940   1.698   6.490
  703SOL    HW1 2483   1.020   1.641   6.511
  703SOL    HW2 2484   0.891   1.658   6.413
  704SOL     OW 2485   0.382   0.700   6.066
  704SOL    HW1 2486   0.427   0.610   6.063
  704SOL    HW2 2487   0.288   0.689   6.099
  705SOL     OW 2488   1.547   0.222   7.315
  705SOL    HW1 2489   1.542   0.259   7.407
  705SOL    HW2 2490   1.475   0.153   7.303
  706SOL     OW 2491   0.614   0.122   5.703
  706SOL    HW1 2492   0.712   0.100   5.710
  706SOL    HW2 2493   0.583   0.105   5.610
  707SOL     OW 2494   0.781   0.264   7.335
  707SOL    HW1 2495   0.848   0.203   7.378
  707SOL    HW2 2496   0.708   0.283   7.400
  708SOL     OW 2497   0.888   1.514   6.781
  708SOL    HW1 2498   0.865   1.489   6.687
  708SOL    HW2 2499   0.949   1.445   6.820
  709SOL     OW 2500   1.351   0.590   7.019
  709SOL    HW1 2501   1.379   0.547   7.104
  709SOL    HW2 2502   1.376   0.686   7.020
  710SOL     OW 2503   0.803   1.402   6.510
  710SOL    HW1 2504   0.893   1.416   6.468
  710SOL    HW2 2505   0.732   1.404   6.439
  711SOL     OW 2506   0.922   0.503   6.485
  711SOL    HW1 2507   0.897   0.494   6.389
  711SOL    HW2 2508   0.970   0.421   6.516
  712SOL     OW 2509   0.539   0.064   6.098
  712SOL    HW1 2510   0.458   0.065   6.156
  712SOL    HW2 2511   0.542   0.147   6.043
  713SOL     OW 2512   1.434   1.188   5.627
  713SOL    HW1 2513   1.466   1.112   5.684
  713SOL    HW2 2514   1.342   1.215   5.657
  714SOL     OW 2515   0.297   0.035   5.757
  714SOL    HW1 2516   0.346   0.119   5.736
  714SOL    HW2 2517   0.359  -0.030   5.802
  715SOL     OW 2518   0.935   0.236   6.066
  715SOL    HW1 2519   0.887   0.277   5.988
  715SOL    HW2 2520   1.034   0.234   6.047
  716SOL     OW 2521   1.076   0.683   7.050
  716SOL    HW1 2522   0.996   0.622   7.053
  716SOL    HW2 2523   1.157   0.630   7.026
  717SOL     OW 2524   1.227   1.570   6.379
  717SOL    HW1 2525   1.248   1.644   6.314
  717SOL    HW2 2526   1.295   1.570   6.452
  718SOL     OW 2527   0.459   1.152   6.327
  718SOL    HW1 2528   0.388   1.125   6.392
  718SOL    HW2 2529   0.433   1.124   6.234
  719SOL     OW 2530   1.271   1.797   6.177
  719SOL    HW1 2531   1.315   1.861   6.113
  719SOL    HW2 2532   1.221   1.849   6.247
  720SOL     OW 2533   1.032   0.549   5.602
  720SOL    HW1 2534   0.991   0.631   5.563
  720SOL    HW2 2535   1.096   0.575   5.675
  721SOL     OW 2536   0.078   0.556   6.972
  721SOL    HW1 2537   0.170   0.555   6.931
  721SOL    HW2 2538   0.072   0.630   7.039
  722SOL     OW 2539   0.561   0.222   6.733
  722SOL    HW1 2540   0.599   0.138   6.770
  722SOL    HW2 2541   0.473   0.241   6.777
  723SOL     OW 2542   0.866   0.454   6.228
  723SOL    HW1 2543   0.834   0.526   6.166
  723SOL    HW2 2544   0.890   0.373   6.175
  724SOL     OW 2545   1.017   0.039   6.339
  724SOL    HW1 2546   0.945   0.044   6.270
  724SOL    HW2 2547   0.993  -0.030   6.408
  725SOL     OW 2548   1.429   1.173   6.453
  725SOL    HW1 2549   1.374   1.089   6.446
  725SOL    HW2 2550   1.455   1.202   6.361
  726SOL     OW 2551   1.466   0.590   6.578
  726SOL    HW1 2552   1.436   0.495   6.585
  726SOL    HW2 2553   1.539   0.606   6.644
  727SOL     OW 2554   1.857   0.833   5.963
  727SOL    HW1 2555   1.899   0.769   6.027
  727SOL    HW2 2556   1.819   0.782   5.885
  728SOL     OW 2557   0.488   1.385   5.760
  728SOL    HW1 2558   0.401   1.370   5.807
  728SOL    HW2 2559   0.471   1.411   5.665
  729SOL     OW 2560   1.664   1.280   6.243
  729SOL    HW1 2561   1.763   1.288   6.257
  729SOL    HW2 2562   1.619   1.364   6.274
  730SOL     OW 2563   1.390   0.575   5.664
  730SOL    HW1 2564   1.336   0.554   5.745
  730SOL    HW2 2565   1.481   0.534   5.673
  731SOL     OW 2566   0.527   0.256   5.914
  731SOL    HW1 2567   0.554   0.197   5.839
  731SOL    HW2 2568   0.527   0.351   5.883
  732SOL     OW 2569   1.754   1.223   7.174
  732SOL    HW1 2570   1.845   1.184   7.161
  732SOL    HW2 2571   1.762   1.319   7.198
  733SOL     OW 2572   1.064   1.347   6.926
  733SOL    HW1 2573   0.984   1.324   6.981
  733SOL    HW2 2574   1.147   1.321   6.975
  734SOL     OW 2575   1.592   1.629   7.211
  734SOL    HW1 2576   1.619   1.663   7.121
  734SOL    HW2 2577   1.671   1.591   7.257
  735SOL     OW 2578   1.111   1.195   6.686
  735SOL    HW1 2579   1.071   1.239   6.767
  735SOL    HW2 2580   1.070   1.232   6.603
  736SOL     OW 2581   1.638   1.099   6.665
  736SOL    HW1 2582   1.643   1.180   6.724
  736SOL    HW2 2583   1.552   1.101   6.614
  737SOL     OW 2584   0.915   0.089   6.988
  737SOL    HW1 2585   0.940   0.069   6.893
  737SOL    HW2 2586   0.987   0.145   7.030
  738SOL     OW 2587   0.980   1.116   7.305
  738SOL    HW1 2588   0.881   1.122   7.315
  738SOL    HW2 2589   1.003   1.036   7.249
  739SOL     OW 2590   0.705   1.050   5.954
  739SOL    HW1 2591   0.691   1.057   6.053
  739SOL    HW2 2592   0.789   0.999   5.936
  740SOL     OW 2593   0.410   0.813   6.837
  740SOL    HW1 2594   0.496   0.825   6.887
  740SOL    HW2 2595   0.368   0.726   6.864
  741SOL     OW 2596   1.274   0.386   6.848
  741SOL    HW1 2597   1.295   0.460   6.912
  741SOL    HW2 2598   1.185   0.403   6.805
  742SOL     OW 2599   0.064   1.564   6.917
  742SOL    HW1 2600   0.018   1.646   6.883
  742SOL    HW2 2601   0.162   1.583   6.926
  743SOL     OW 2602   0.367   1.100   6.087
  743SOL    HW1 2603   0.360   1.183   6.031
  743SOL    HW2 2604   0.371   1.020   6.027
  744SOL     OW 2605   0.566   0.537   6.451
  744SOL    HW1 2606   0.578   0.603   6.377
  744SOL    HW2 2607   0.612   0.571   6.534
  745SOL     OW 2608   1.252   1.348   5.974
  745SOL    HW1 2609   1.302   1.425   6.014
  745SOL    HW2 2610   1.157   1.350   6.006
  746SOL     OW 2611   1.272   1.445   6.728
  746SOL    HW1 2612   1.319   1.458   6.815
  746SOL    HW2 2613   1.206   1.371   6.737
  747SOL     OW 2614   1.582   0.639   6.058
  747SOL    HW1 2615   1.551   0.700   6.131
  747SOL    HW2 2616   1.632   0.691   5.989
  748SOL     OW 2617   0.354   1.510   6.915
  748SOL    HW1 2618   0.333   1.466   6.828
  748SOL    HW2 2619   0.451   1.536   6.918
  749SOL     OW 2620   0.402   0.751   7.184
  749SOL    HW1 2621   0.470   0.806   7.137
  749SOL    HW2 2622   0.442   0.663   7.211
  750SOL     OW 2623   1.587   0.779   7.256
  750SOL    HW1 2624   1.495   0.817   7.251
  750SOL    HW2 2625   1.647   0.826   7.191
  751SOL     OW 2626   1.013   0.105   7.356
  751SOL    HW1 2627   1.019   0.190   7.304
  751SOL    HW2 2628   1.045   0.029   7.299
  752SOL     OW 2629   0.504   0.050   7.326
  752SOL    HW1 2630   0.462  -0.007   7.256
  752SOL    HW2 2631   0.438   0.119   7.358
  753SOL     OW 2632   0.573   0.870   6.615
  753SOL    HW1 2633   0.617   0.959   6.606
  753SOL    HW2 2634   0.510   0.870   6.692
  754SOL     OW 2635   1.360   0.862   6.631
  754SOL    HW1 2636   1.285   0.862   6.565
  754SOL    HW2 2637   1.397   0.770   6.640
  755SOL     OW 2638   1.209   0.525   5.861
  755SOL    HW1 2639   1.222   0.441   5.915
  755SOL    HW2 2640   1.180   0.599   5.921
  756SOL     OW 2641   0.307   0.213   6.817
  756SOL    HW1 2642   0.284   0.250   6.907
  756SOL    HW2 2643   0.277   0.118   6.811
  757SOL     OW 2644   0.037   1.310   6.868
  757SOL    HW1 2645   0.090   1.261   6.936
  757SOL    HW2 2646   0.059   1.408   6.873
  758SOL     OW 2647   0.732   0.634   6.650
  758SOL    HW1 2648   0.791   0.608   6.574
  758SOL    HW2 2649   0.704   0.730   6.639
  759SOL     OW 2650   1.728   0.935   7.440
  759SOL    HW1 2651   1.682   0.928   7.351
  759SOL    HW2 2652   1.666   0.979   7.506
  760SOL     OW 2653   0.307   0.063   6.204
  760SOL    HW1 2654   0.296   0.157   6.237
  760SOL    HW2 2655   0.302   0.000   6.281
  761SOL     OW 2656   1.622   0.367   5.960
  761SOL    HW1 2657   1.624   0.291   6.024
  761SOL    HW2 2658   1.574   0.444   6.000
  762SOL     OW 2659   1.023   0.766   6.552
  762SOL    HW1 2660   1.038   0.787   6.648
  762SOL    HW2 2661   0.993   0.671   6.543
  763SOL     OW 2662   0.980   1.573   7.286
  763SOL    HW1 2663   0.960   1.617   7.198
  763SOL    HW2 2664   1.019   1.482   7.270
  764SOL     OW 2665   1.859   1.518   7.191
  764SOL    HW1 2666   1.873   1.545   7.096
  764SOL    HW2 2667   1.942   1.540   7.244
  765SOL     OW 2668   0.350   0.898   7.390
  765SOL    HW1 2669   0.426   0.942   7.438
  765SOL    HW2 2670   0.385   0.851   7.308
  766SOL     OW 2671   1.540   0.274   5.711
  766SOL    HW1 2672   1.479   0.199   5.734
  766SOL    HW2 2673   1.562   0.326   5.794
  767SOL     OW 2674   1.303   0.838   5.628
  767SOL    HW1 2675   1.337   0.745   5.643
  767SOL    HW2 2676   1.321   0.865   5.533
  768SOL     OW 2677   1.068   1.333   6.435
  768SOL    HW1 2678   1.075   1.249   6.380
  768SOL    HW2 2679   1.130   1.402   6.399
  769SOL     OW 2680   0.319   0.810   6.535
  769SOL    HW1 2681   0.412   0.846   6.540
  769SOL    HW2 2682   0.313   0.725   6.587
  770SOL     OW 2683   0.339   0.509   6.592
  770SOL    HW1 2684   0.287   0.426   6.575
  770SOL    HW2 2685   0.416   0.514   6.528
  771SOL     OW 2686   1.138   0.380   7.264
  771SOL    HW1 2687   1.093   0.443   7.328
  771SOL    HW2 2688   1.231   0.411   7.247
  772SOL     OW 2689   1.160   0.207   7.063
  772SOL    HW1 2690   1.160   0.271   7.140
  772SOL    HW2 2691   1.188   0.255   6.980
  773SOL     OW 2692   0.008   1.326   5.786
  773SOL    HW1 2693  -0.085   1.347   5.755
  773SOL    HW2 2694   0.018   1.227   5.799
  774SOL     OW 2695   0.088   1.801   6.513
  774SOL    HW1 2696   0.046   1.715   6.486
  774SOL    HW2 2697   0.182   1.804   6.479
  775SOL     OW 2698   0.504   1.568   6.496
  775SOL    HW1 2699   0.570   1.642   6.505
  775SOL    HW2 2700   0.548   1.489   6.454
  776SOL     OW 2701   1.002   0.796   6.824
  776SOL    HW1 2702   1.043   0.764   6.910
  776SOL    HW2 2703   0.906   0.769   6.821
  777SOL     OW 2704   0.040   0.544   6.700
  777SOL    HW1 2705   0.125   0.511   6.659
  777SOL    HW2 2706   0.053   0.559   6.798
  778SOL     OW 2707   0.189   0.520   7.308
  778SOL    HW1 2708   0.248   0.480   7.238
  778SOL    HW2 2709   0.131   0.591   7.267
  779SOL     OW 2710   1.369   0.950   7.246
  779SOL    HW1 2711   1.408   1.039   7.266
  779SOL    HW2 2712   1.379   0.930   7.149
  780SOL     OW 2713   0.815   0.572   5.911
  780SOL    HW1 2714   0.822   0.483   5.865
  780SOL    HW2 2715   0.721   0.606   5.903
  781SOL     OW 2716   1.657   0.604   6.792
  781SOL    HW1 2717   1.619   0.535   6.854
  781SOL    HW2 2718   1.739   0.568   6.748
  782SOL     OW 2719   0.252   1.564   7.330
  782SOL    HW1 2720   0.222   1.621   7.406
  782SOL    HW2 2721   0.245   1.467   7.356
  783SOL     OW 2722   0.671   0.464   6.855
  783SOL    HW1 2723   0.637   0.375   6.825
  783SOL    HW2 2724   0.697   0.518   6.775
  784SOL     OW 2725   0.930   1.678   7.051
  784SOL    HW1 2726   0.906   1.660   6.956
  784SOL    HW2 2727   0.960   1.772   7.061
  785SOL     OW 2728   0.473   0.500   5.777
  785SOL    HW1 2729   0.534   0.580   5.781
  785SOL    HW2 2730   0.378   0.531   5.784
  786SOL     OW 2731   0.159   1.137   7.052
  786SOL    HW1 2732   0.181   1.076   7.128
  786SOL    HW2 2733   0.169   1.088   6.966
  787SOL     OW 2734   1.347   1.059   6.820
  787SOL    HW1 2735   1.371   0.996   6.746
  787SOL    HW2 2736   1.257   1.099   6.802
  788SOL     OW 2737   1.302   0.855   5.895
  788SOL    HW1 2738   1.216   0.824   5.937
  788SOL    HW2 2739   1.298   0.841   5.796
  789SOL     OW 2740   1.759   1.747   6.740
  789SOL    HW1 2741   1.820   1.777   6.667
  789SOL    HW2 2742   1.721   1.658   6.718
  790SOL     OW 2743   1.252   1.731   6.714
  790SOL    HW1 2744   1.336   1.736   6.660
  790SOL    HW2 2745   1.229   1.635   6.732
  791SOL     OW 2746   0.083   1.258   6.608
  791SOL    HW1 2747   0.078   1.257   6.708
  791SOL    HW2 2748   0.000   1.217   6.570
  792SOL     OW 2749   0.688   1.662   7.302
  792SOL    HW1 2750   0.632   1.743   7.311
  792SOL    HW2 2751   0.740   1.666   7.216
  793SOL     OW 2752   1.726   0.135   6.109
  793SOL    HW1 2753   1.799   0.118   6.042
  793SOL    HW2 2754   1.695   0.048   6.147
  794SOL     OW 2755   1.388   1.573   6.063
  794SOL    HW1 2756   1.455   1.585   5.989
  794SOL    HW2 2757   1.348   1.662   6.086
  795SOL     OW 2758   0.130   1.794   7.437
  795SOL    HW1 2759   0.089   1.720   7.490
  795SOL    HW2 2760   0.194   1.845   7.495
  796SOL     OW 2761   1.280   0.927   6.258
  796SOL    HW1 2762   1.340   0.846   6.260
  796SOL    HW2 2763   1.320   0.996   6.198
  797SOL     OW 2764   0.830   1.273   7.008
  797SOL    HW1 2765   0.825   1.306   7.103
  797SOL    HW2 2766   0.744   1.292   6.962
  798SOL     OW 2767   0.672   1.616   5.740
  798SOL    HW1 2768   0.681   1.626   5.641
  798SOL    HW2 2769   0.632   1.527   5.761
  799SOL     OW 2770   1.650   1.720   6.980
  799SOL    HW1 2771   1.703   1.730   6.896
  799SOL    HW2 2772   1.623   1.810   7.014
  800SOL     OW 2773   1.841   0.175   6.549
  800SOL    HW1 2774   1.880   0.090   6.513
  800SOL    HW2 2775   1.743   0.177   6.530
  801SOL     OW 2776   0.263   0.326   6.306
  801SOL    HW1 2777   0.184   0.377   6.272
  801SOL    HW2 2778   0.254   0.311   6.404
  802SOL     OW 2779   1.194   1.612   5.617
  802SOL    HW1 2780   1.200   1.519   5.654
  802SOL    HW2 2781   1.135   1.612   5.537
  803SOL     OW 2782   0.822   1.002   6.958
  803SOL    HW1 2783   0.862   1.001   6.866
  803SOL    HW2 2784   0.832   1.094   6.998
  804SOL     OW 2785   0.916   0.910   5.877
  804SOL    HW1 2786   0.979   0.948   5.809
  804SOL    HW2 2787   0.956   0.827   5.916
  805SOL     OW 2788   1.504   1.607   5.630
  805SOL    HW1 2789   1.412   1.644   5.637
  805SOL    HW2 2790   1.542   1.627   5.540
  806SOL     OW 2791   0.372   1.288   7.076
  806SOL    HW1 2792   0.359   1.381   7.042
  806SOL    HW2 2793   0.288   1.236   7.063
  807SOL     OW 2794   1.614   1.292   6.875
  807SOL    HW1 2795   1.674   1.295   6.955
  807SOL    HW2 2796   1.539   1.356   6.888
  808SOL     OW 2797   1.039   1.098   6.282
  808SOL    HW1 2798   0.969   1.051   6.336
  808SOL    HW2 2799   1.098   1.030   6.239
  809SOL     OW 2800   1.014   0.236   6.557
  809SOL    HW1 2801   1.006   0.200   6.464
  809SOL    HW2 2802   1.012   0.160   6.622
  810SOL     OW 2803   0.590   1.487   6.077
  810SOL    HW1 2804   0.632   1.429   6.007
  810SOL    HW2 2805   0.546   1.566   6.033
  811SOL     OW 2806   1.709   0.385   6.967
  811SOL    HW1 2807   1.782   0.454   6.971
  811SOL    HW2 2808   1.737   0.310   6.908
  812SOL     OW 2809   0.255   1.348   5.876
  812SOL    HW1 2810   0.159   1.349   5.849
  812SOL    HW2 2811   0.267   1.401   5.960
  813SOL     OW 2812   0.105   1.013   7.312
  813SOL    HW1 2813   0.028   0.980   7.366
  813SOL    HW2 2814   0.190   0.983   7.354
  814SOL     OW 2815   0.672   0.203   7.075
  814SOL    HW1 2816   0.762   0.187   7.035
  814SOL    HW2 2817   0.680   0.208   7.174
  815SOL     OW 2818   0.075   0.345   5.619
  815SOL    HW1 2819  -0.017   0.317   5.590
  815SOL    HW2 2820   0.106   0.422   5.563
  816SOL     OW 2821   1.440   0.856   6.984
  816SOL    HW1 2822   1.383   0.908   6.921
  816SOL    HW2 2823   1.536   0.868   6.960
  817SOL     OW 2824   0.072   0.166   5.904
  817SOL    HW1 2825   0.055   0.249   5.850
  817SOL    HW2 2826   0.162   0.129   5.882
  818SOL     OW 2827   1.183   1.335   5.705
  818SOL    HW1 2828   1.084   1.324   5.707
  818SOL    HW2 2829   1.217   1.350   5.798
  819SOL     OW 2830   0.613   0.842   7.017
  819SOL    HW1 2831   0.669   0.923   7.000
  819SOL    HW2 2832   0.672   0.762   7.020
  820SOL     OW 2833   1.493   1.767   6.545
  820SOL    HW1 2834   1.526   1.831   6.476
  820SOL    HW2 2835   1.559   1.761   6.620
  821SOL     OW 2836   0.716   0.565   7.294
  821SOL    HW1 2837   0.735   0.630   7.368
  821SOL    HW2 2838   0.776   0.485   7.303
  822SOL     OW 2839   1.450   1.220   7.219
  822SOL    HW1 2840   1.441   1.210   7.318
  822SOL    HW2 2841   1.546   1.213   7.193
  823SOL     OW 2842   0.390   1.741   7.146
  823SOL    HW1 2843   0.299   1.782   7.144
  823SOL    HW2 2844   0.383   1.647   7.178
  824SOL     OW 2845   1.674   0.883   6.840
  824SOL    HW1 2846   1.647   0.794   6.803
  824SOL    HW2 2847   1.675   0.951   6.767
  825SOL     OW 2848   1.225   0.325   6.035
  825SOL    HW1 2849   1.290   0.251   6.024
  825SOL    HW2 2850   1.245   0.375   6.119
  826SOL     OW 2851   0.594   0.745   6.238
  826SOL    HW1 2852   0.644   0.830   6.219
  826SOL    HW2 2853   0.506   0.747   6.190
  827SOL     OW 2854   1.777   0.342   7.228
  827SOL    HW1 2855   1.760   0.373   7.134
  827SOL    HW2 2856   1.693   0.305   7.266
  828SOL     OW 2857   1.730   0.934   7.103
  828SOL    HW1 2858   1.768   1.025   7.118
  828SOL    HW2 2859   1.722   0.917   7.004
  829SOL     OW 2860   0.859   1.374   5.602
  829SOL    HW1 2861   0.813   1.389   5.690
  829SOL    HW2 2862   0.903   1.459   5.572
  830SOL     OW 2863   0.661   1.790   6.539
  830SOL    HW1 2864   0.615   1.878   6.526
  830SOL    HW2 2865   0.760   1.802   6.532
  831SOL     OW 2866   0.859   0.956   6.447
  831SOL    HW1 2867   0.913   0.887   6.495
  831SOL    HW2 2868   0.827   1.025   6.513
  832SOL     OW 2869   1.083   0.984   5.673
  832SOL    HW1 2870   1.060   1.037   5.591
  832SOL    HW2 2871   1.164   0.928   5.654
  833SOL     OW 2872   1.861   1.569   6.437
  833SOL    HW1 2873   1.790   1.557   6.367
  833SOL    HW2 2874   1.862   1.490   6.497
  834SOL     OW 2875   0.221   1.314   7.430
  834SOL    HW1 2876   0.156   1.241   7.409
  834SOL    HW2 2877   0.225   1.328   7.528
  835SOL     OW 2878   0.079   1.240   6.239
  835SOL    HW1 2879   0.078   1.193   6.327
  835SOL    HW2 2880   0.161   1.212   6.188
  836SOL     OW 2881   0.672   1.391   7.210
  836SOL    HW1 2882   0.594   1.341   7.248
  836SOL    HW2 2883   0.669   1.486   7.241
  837SOL     OW 2884   1.824   0.192   6.813
  837SOL    HW1 2885   1.820   0.102   6.857
  837SOL    HW2 2886   1.827   0.181   6.714
  838SOL     OW 2887   0.428   0.424   6.106
  838SOL    HW1 2888   0.458   0.352   6.044
  838SOL    HW2 2889   0.389   0.384   6.189
  839SOL     OW 2890   1.705   1.487   6.690
  839SOL    HW1 2891   1.612   1.462   6.663
  839SOL    HW2 2892   1.731   1.437   6.772
  840SOL     OW 2893   0.317   0.547   6.866
  840SOL    HW1 2894   0.355   0.488   6.938
  840SOL    HW2 2895   0.357   0.521   6.778
  841SOL     OW 2896   0.812   1.586   6.273
  841SOL    HW1 2897   0.844   1.596   6.179
  841SOL    HW2 2898   0.733   1.524   6.275
  842SOL     OW 2899   1.424   0.214   6.698
  842SOL    HW1 2900   1.476   0.149   6.753
  842SOL    HW2 2901   1.375   0.277   6.759
  843SOL     OW 2902   1.001   0.034   6.740
  843SOL    HW1 2903   0.938  -0.038   6.709
  843SOL    HW2 2904   1.094  -0.002   6.740
  844SOL     OW 2905   0.770   1.330   5.887
  844SOL    HW1 2906   0.724   1.243   5.904
  844SOL    HW2 2907   0.861   1.327   5.928
  845SOL     OW 2908   0.618   1.567   6.870
  845SOL    HW1 2909   0.613   1.649   6.927
  845SOL    HW2 2910   0.707   1.564   6.825
  846SOL     OW 2911   1.352   0.052   5.754
  846SOL    HW1 2912   1.387   0.011   5.670
  846SOL    HW2 2913   1.262   0.014   5.774
  847SOL     OW 2914   1.300   0.453   6.277
  847SOL    HW1 2915   1.241   0.533   6.281
  847SOL    HW2 2916   1.315   0.418   6.370
  848SOL     OW 2917   1.593   0.221   6.468
  848SOL    HW1 2918   1.509   0.220   6.522
  848SOL    HW2 2919   1.595   0.304   6.412
  849SOL     OW 2920   0.039   1.077   5.886
  849SOL    HW1 2921   0.138   1.066   5.877
  849SOL    HW2 2922  -0.001   0.991   5.918
  850SOL     OW 2923   0.875   1.646   5.923
  850SOL    HW1 2924   0.798   1.611   5.869
  850SOL    HW2 2925   0.843   1.717   5.985
  851SOL     OW 2926   0.230   0.628   7.561
  851SOL    HW1 2927   0.137   0.626   7.598
  851SOL    HW2 2928   0.231   0.589   7.469
  852SOL     OW 2929   0.225   0.275   8.444
  852SOL    HW1 2930   0.260   0.258   8.536
  852SOL    HW2 2931   0.137   0.230   8.432
  853SOL     OW 2932   0.019   0.368   8.095
  853SOL    HW1 2933  -0.063   0.411   8.134
  853SOL    HW2 2934  -0.009   0.295   8.032
  854SOL     OW 2935   0.569   1.275   8.613
  854SOL    HW1 2936   0.476   1.268   8.576
  854SOL    HW2 2937   0.580   1.364   8.657
  855SOL     OW 2938   1.555   1.511   8.151
  855SOL    HW1 2939   1.498   1.495   8.232
  855SOL    HW2 2940   1.496   1.521   8.071
  856SOL     OW 2941   1.135   0.703   8.165
  856SOL    HW1 2942   1.192   0.781   8.140
  856SOL    HW2 2943   1.075   0.729   8.241
  857SOL     OW 2944   1.755   0.607   7.679
  857SOL    HW1 2945   1.743   0.594   7.580
  857SOL    HW2 2946   1.725   0.526   7.728
  858SOL     OW 2947   0.768   1.144   8.471
  858SOL    HW1 2948   0.690   1.161   8.531
  858SOL    HW2 2949   0.802   1.231   8.435
  859SOL     OW 2950   0.685   1.012   8.113
  859SOL    HW1 2951   0.754   0.996   8.183
  859SOL    HW2 2952   0.612   1.069   8.151
  860SOL     OW 2953   0.335   1.435   8.509
  860SOL    HW1 2954   0.257   1.404   8.456
  860SOL    HW2 2955   0.393   1.493   8.452
  861SOL     OW 2956   1.460   1.505   8.787
  861SOL    HW1 2957   1.484   1.599   8.813
  861SOL    HW2 2958   1.444   1.451   8.869
  862SOL     OW 2959   0.438   0.392   8.947
  862SOL    HW1 2960   0.520   0.336   8.956
  862SOL    HW2 2961   0.357   0.334   8.951
  863SOL     OW 2962   1.603   0.447   8.185
  863SOL    HW1 2963   1.529   0.493   8.135
  863SOL    HW2 2964   1.654   0.515   8.238
  864SOL     OW 2965   0.231   1.713   7.931
  864SOL    HW1 2966   0.265   1.790   7.985
  864SOL    HW2 2967   0.275   1.713   7.841
  865SOL     OW 2968   0.230   1.434   7.986
  865SOL    HW1 2969   0.204   1.530   7.986
  865SOL    HW2 2970   0.159   1.380   8.031
  866SOL     OW 2971   0.240   1.091   8.334
  866SOL    HW1 2972   0.254   1.007   8.386
  866SOL    HW2 2973   0.185   1.155   8.389
  867SOL     OW 2974   0.620   1.786   8.887
  867SOL    HW1 2975   0.528   1.769   8.922
  867SOL    HW2 2976   0.648   1.878   8.913
  868SOL     OW 2977   0.606   0.964   7.571
  868SOL    HW1 2978   0.613   1.048   7.517
  868SOL    HW2 2979   0.652   0.977   7.659
  869SOL     OW 2980   1.594   0.114   8.928
  869SOL    HW1 2981   1.576   0.181   8.856
  869SOL    HW2 2982   1.591   0.160   9.017
  870SOL     OW 2983   0.122   0.643   8.011
  870SOL    HW1 2984   0.077   0.555   8.028
  870SOL    HW2 2985   0.121   0.697   8.095
  871SOL     OW 2986   1.842   1.767   7.807
  871SOL    HW1 2987   1.896   1.738   7.887
  871SOL    HW2 2988   1.872   1.857   7.778
  872SOL     OW 2989   0.027   1.596   7.565
  872SOL    HW1 2990   0.008   1.500   7.586
  872SOL    HW2 2991  -0.006   1.654   7.640
  873SOL     OW 2992   1.689   0.922   8.060
  873SOL    HW1 2993   1.784   0.893   8.068
  873SOL    HW2 2994   1.681   0.987   7.985
  874SOL     OW 2995   1.641   1.108   7.880
  874SOL    HW1 2996   1.727   1.110   7.828
  874SOL    HW2 2997   1.655   1.155   7.968
  875SOL     OW 2998   0.613   1.365   8.174
  875SOL    HW1 2999   0.564   1.278   8.183
  875SOL    HW2 3000   0.590   1.408   8.087
  876SOL     OW 3001   0.809   0.004   7.950
  876SOL    HW1 3002   0.849   0.095   7.941
  876SOL    HW2 3003   0.709   0.012   7.956
  877SOL     OW 3004   0.197   0.976   8.712
  877SOL    HW1 3005   0.286   0.931   8.698
  877SOL    HW2 3006   0.124   0.911   8.693
  878SOL     OW 3007   1.525   0.999   7.638
  878SOL    HW1 3008   1.462   0.923   7.651
  878SOL    HW2 3009   1.573   1.017   7.724
  879SOL     OW 3010   0.317   0.251   9.249
  879SOL    HW1 3011   0.388   0.322   9.255
  879SOL    HW2 3012   0.229   0.290   9.277
  880SOL     OW 3013   1.466   1.417   8.401
  880SOL    HW1 3014   1.407   1.423   8.481
  880SOL    HW2 3015   1.451   1.329   8.355
  881SOL     OW 3016   1.667   1.714   8.020
  881SOL    HW1 3017   1.626   1.691   7.932
  881SOL    HW2 3018   1.649   1.640   8.085
  882SOL     OW 3019   0.598   0.729   7.718
  882SOL    HW1 3020   0.622   0.798   7.650
  882SOL    HW2 3021   0.520   0.762   7.772
  883SOL     OW 3022   1.281   0.345   8.392
  883SOL    HW1 3023   1.195   0.295   8.379
  883SOL    HW2 3024   1.343   0.291   8.448
  884SOL     OW 3025   1.576   1.662   7.755
  884SOL    HW1 3026   1.665   1.708   7.758
  884SOL    HW2 3027   1.555   1.638   7.660
  885SOL     OW 3028   0.807   0.605   8.913
  885SOL    HW1 3029   0.760   0.602   9.002
  885SOL    HW2 3030   0.756   0.550   8.847
  886SOL     OW 3031   0.991   0.410   8.690
  886SOL    HW1 3032   0.914   0.444   8.744
  886SOL    HW2 3033   0.957   0.359   8.611
  887SOL     OW 3034   1.041   0.701   7.877
  887SOL    HW1 3035   1.067   0.697   7.973
  887SOL    HW2 3036   0.956   0.650   7.863
  888SOL     OW 3037   0.076   0.811   8.237
  888SOL    HW1 3038   0.175   0.799   8.246
  888SOL    HW2 3039   0.052   0.906   8.258
  889SOL     OW 3040   0.130   1.821   9.019
  889SOL    HW1 3041   0.120   1.806   9.118
  889SOL    HW2 3042   0.044   1.857   8.983
  890SOL     OW 3043   0.865   0.348   7.643
  890SOL    HW1 3044   0.924   0.411   7.594
  890SOL    HW2 3045   0.884   0.254   7.614
  891SOL     OW 3046   1.362   1.144   7.993
  891SOL    HW1 3047   1.445   1.115   7.945
  891SOL    HW2 3048   1.313   1.211   7.937
  892SOL     OW 3049   0.550   0.196   8.333
  892SOL    HW1 3050   0.545   0.191   8.433
  892SOL    HW2 3051   0.552   0.292   8.304
  893SOL     OW 3052   1.008   1.456   7.925
  893SOL    HW1 3053   0.962   1.528   7.873
  893SOL    HW2 3054   1.004   1.476   8.023
  894SOL     OW 3055   0.351   1.801   8.301
  894SOL    HW1 3056   0.401   1.715   8.307
  894SOL    HW2 3057   0.416   1.878   8.298
  895SOL     OW 3058   1.795   1.066   8.321
  895SOL    HW1 3059   1.733   1.051   8.245
  895SOL    HW2 3060   1.743   1.077   8.406
  896SOL     OW 3061   0.321   0.943   7.690
  896SOL    HW1 3062   0.403   0.982   7.648
  896SOL    HW2 3063   0.294   0.861   7.641
  897SOL     OW 3064   1.458   0.735   8.176
  897SOL    HW1 3065   1.453   0.670   8.251
  897SOL    HW2 3066   1.538   0.794   8.189
  898SOL     OW 3067   1.111   1.776   7.685
  898SOL    HW1 3068   1.051   1.714   7.735
  898SOL    HW2 3069   1.142   1.732   7.600
  899SOL     OW 3070   1.632   1.377   7.529
  899SOL    HW1 3071   1.600   1.471   7.519
  899SOL    HW2 3072   1.556   1.314   7.517
  900SOL     OW 3073   0.464   1.743   7.771
  900SOL    HW1 3074   0.497   1.782   7.857
  900SOL    HW2 3075   0.540   1.736   7.706
  901SOL     OW 3076   1.400   0.107   7.874
  901SOL    HW1 3077   1.376   0.070   7.784
  901SOL    HW2 3078   1.499   0.123   7.878
  902SOL     OW 3079   0.249   1.785   8.689
  902SOL    HW1 3080   0.306   1.720   8.739
  902SOL    HW2 3081   0.233   1.752   8.596
  903SOL     OW 3082   0.940   1.698   8.352
  903SOL    HW1 3083   1.020   1.641   8.373
  903SOL    HW2 3084   0.891   1.658   8.275
  904SOL     OW 3085   0.382   0.700   7.928
  904SOL    HW1 3086   0.427   0.610   7.925
  904SOL    HW2 3087   0.288   0.689   7.961
  905SOL     OW 3088   0.614   0.122   7.565
  905SOL    HW1 3089   0.712   0.100   7.572
  905SOL    HW2 3090   0.583   0.105   7.472
  906SOL     OW 3091   0.888   1.514   8.643
  906SOL    HW1 3092   0.865   1.489   8.549
  906SOL    HW2 3093   0.949   1.445   8.682
  907SOL     OW 3094   0.803   1.402   8.372
  907SOL    HW1 3095   0.893   1.416   8.330
  907SOL    HW2 3096   0.732   1.404   8.301
  908SOL     OW 3097   0.922   0.503   8.347
  908SOL    HW1 3098   0.897   0.494   8.251
  908SOL    HW2 3099   0.970   0.421   8.378
  909SOL     OW 3100   0.539   0.064   7.960
  909SOL    HW1 3101   0.458   0.065   8.018
  909SOL    HW2 3102   0.542   0.147   7.905
  910SOL     OW 3103   1.434   1.188   7.489
  910SOL    HW1 3104   1.466   1.112   7.546
  910SOL    HW2 3105   1.342   1.215   7.519
  911SOL     OW 3106   0.297   0.035   7.619
  911SOL    HW1 3107   0.346   0.119   7.598
  911SOL    HW2 3108   0.359  -0.030   7.664
  912SOL     OW 3109   0.935   0.236   7.928
  912SOL    HW1 3110   0.887   0.277   7.850
  912SOL    HW2 3111   1.034   0.234   7.909
  913SOL     OW 3112   1.227   1.570   8.241
  913SOL    HW1 3113   1.248   1.644   8.176
  913SOL    HW2 3114   1.295   1.570   8.314
  914SOL     OW 3115   0.459   1.152   8.189
  914SOL    HW1 3116   0.388   1.125   8.254
  914SOL    HW2 3117   0.433   1.124   8.096
  915SOL     OW 3118   1.271   1.797   8.039
  915SOL    HW1 3119   1.315   1.861   7.975
  915SOL    HW2 3120   1.221   1.849   8.109
  916SOL     OW 3121   1.032   0.549   7.464
  916SOL    HW1 3122   0.991   0.631   7.425
  916SOL    HW2 3123   1.096   0.575   7.537
  917SOL     OW 3124   0.078   0.556   8.834
  917SOL    HW1 3125   0.170   0.555   8.793
  917SOL    HW2 3126   0.072   0.630   8.901
  918SOL     OW 3127   0.561   0.222   8.595
  918SOL    HW1 3128   0.599   0.138   8.632
  918SOL    HW2 3129   0.473   0.241   8.639
  919SOL     OW 3130   0.866   0.454   8.090
  919SOL    HW1 3131   0.834   0.526   8.028
  919SOL    HW2 3132   0.890   0.373   8.037
  920SOL     OW 3133   1.017   0.039   8.201
  920SOL    HW1 3134   0.945   0.044   8.132
  920SOL    HW2 3135   0.993  -0.030   8.270
  921SOL     OW 3136   1.429   1.173   8.315
  921SOL    HW1 3137   1.374   1.089   8.308
  921SOL    HW2 3138   1.455   1.202   8.223
  922SOL     OW 3139   1.466   0.590   8.440
  922SOL    HW1 3140   1.436   0.495   8.447
  922SOL    HW2 3141   1.539   0.606   8.506
  923SOL     OW 3142   1.857   0.833   7.825
  923SOL    HW1 3143   1.899   0.769   7.889
  923SOL    HW2 3144   1.819   0.782   7.747
  924SOL     OW 3145   0.488   1.385   7.622
  924SOL    HW1 3146   0.401   1.370   7.669
  924SOL    HW2 3147   0.471   1.411   7.527
  925SOL     OW 3148   1.664   1.280   8.105
  925SOL    HW1 3149   1.763   1.288   8.119
  925SOL    HW2 3150   1.619   1.364   8.136
  926SOL     OW 3151   1.390   0.575   7.526
  926SOL    HW1 3152   1.336   0.554   7.607
  926SOL    HW2 3153   1.481   0.534   7.535
  927SOL     OW 3154   0.527   0.256   7.776
  927SOL    HW1 3155   0.554   0.197   7.701
  927SOL    HW2 3156   0.527   0.351   7.745
  928SOL     OW 3157   1.064   1.347   8.788
  928SOL    HW1 3158   0.984   1.324   8.843
  928SOL    HW2 3159   1.147   1.321   8.837
  929SOL     OW 3160   1.111   1.195   8.548
  929SOL    HW1 3161   1.071   1.239   8.629
  929SOL    HW2 3162   1.070   1.232   8.465
  930SOL     OW 3163   1.638   1.099   8.527
  930SOL    HW1 3164   1.643   1.180   8.586
  930SOL    HW2 3165   1.552   1.101   8.476
  931SOL     OW 3166   0.915   0.089   8.850
  931SOL    HW1 3167   0.940   0.069   8.755
  931SOL    HW2 3168   0.987   0.145   8.892
  932SOL     OW 3169   0.705   1.050   7.816
  932SOL    HW1 3170   0.691   1.057   7.915
  932SOL    HW2 3171   0.789   0.999   7.798
  933SOL     OW 3172   0.410   0.813   8.699
  933SOL    HW1 3173   0.496   0.825   8.749
  933SOL    HW2 3174   0.368   0.726   8.726
  934SOL     OW 3175   1.274   0.386   8.710
  934SOL    HW1 3176   1.295   0.460   8.774
  934SOL    HW2 3177   1.185   0.403   8.667
  935SOL     OW 3178   0.064   1.564   8.779
  935SOL    HW1 3179   0.018   1.646   8.745
  935SOL    HW2 3180   0.162   1.583   8.788
  936SOL     OW 3181   0.367   1.100   7.949
  936SOL    HW1 3182   0.360   1.183   7.893
  936SOL    HW2 3183   0.371   1.020   7.889
  937SOL     OW 3184   0.566   0.537   8.313
  937SOL    HW1 3185   0.578   0.603   8.239
  937SOL    HW2 3186   0.612   0.571   8.396
  938SOL     OW 3187   1.252   1.348   7.836
  938SOL    HW1 3188   1.302   1.425   7.876
  938SOL    HW2 3189   1.157   1.350   7.868
  939SOL     OW 3190   1.272   1.445   8.590
  939SOL    HW1 3191   1.319   1.458   8.677
  939SOL    HW2 3192   1.206   1.371   8.599
  940SOL     OW 3193   1.582   0.639   7.920
  940SOL    HW1 3194   1.551   0.700   7.993
  940SOL    HW2 3195   1.632   0.691   7.851
  941SOL     OW 3196   0.354   1.510   8.777
  941SOL    HW1 3197   0.333   1.466   8.690
  941SOL    HW2 3198   0.451   1.536   8.780
  942SOL     OW 3199   0.402   0.751   9.046
  942SOL    HW1 3200   0.470   0.806   8.999
  942SOL    HW2 3201   0.442   0.663   9.073
  943SOL     OW 3202   1.587   0.779   9.118
  943SOL    HW1 3203   1.495   0.817   9.113
  943SOL    HW2 3204   1.647   0.826   9.053
  944SOL     OW 3205   0.573   0.870   8.477
  944SOL    HW1 3206   0.617   0.959   8.468
  944SOL    HW2 3207   0.510   0.870   8.554
  945SOL     OW 3208   1.360   0.862   8.493
  945SOL    HW1 3209   1.285   0.862   8.427
  945SOL    HW2 3210   1.397   0.770   8.502
  946SOL     OW 3211   1.209   0.525   7.723
  946SOL    HW1 3212   1.222   0.441   7.777
  946SOL    HW2 3213   1.180   0.599   7.783
  947SOL     OW 3214   0.307   0.213   8.679
  947SOL    HW1 3215   0.284   0.250   8.769
  947SOL    HW2 3216   0.277   0.118   8.673
  948SOL     OW 3217   0.037   1.310   8.730
  948SOL    HW1 3218   0.090   1.261   8.798
  948SOL    HW2 3219   0.059   1.408   8.735
  949SOL     OW 3220   0.732   0.634   8.512
  949SOL    HW1 3221   0.791   0.608   8.436
  949SOL    HW2 3222   0.704   0.730   8.501
  950SOL     OW 3223   0.307   0.063   8.066
  950SOL    HW1 3224   0.296   0.157   8.099
  950SOL    HW2 3225   0.302   0.000   8.143
  951SOL     OW 3226   1.622   0.367   7.822
  951SOL    HW1 3227   1.624   0.291   7.886
  951SOL    HW2 3228   1.574   0.444   7.862
  952SOL     OW 3229   1.023   0.766   8.414
  952SOL    HW1 3230   1.038   0.787   8.510
  952SOL    HW2 3231   0.993   0.671   8.405
  953SOL     OW 3232   0.980   1.573   9.148
  953SOL    HW1 3233   0.960   1.617   9.060
  953SOL    HW2 3234   1.019   1.482   9.132
  954SOL     OW 3235   1.540   0.274   7.573
  954SOL    HW1 3236   1.479   0.199   7.596
  954SOL    HW2 3237   1.562   0.326   7.656
  955SOL     OW 3238   1.303   0.838   7.490
  955SOL    HW1 3239   1.337   0.745   7.505
  955SOL    HW2 3240   1.321   0.865   7.395
  956SOL     OW 3241   1.068   1.333   8.297
  956SOL    HW1 3242   1.075   1.249   8.242
  956SOL    HW2 3243   1.130   1.402   8.261
  957SOL     OW 3244   0.319   0.810   8.397
  957SOL    HW1 3245   0.412   0.846   8.402
  957SOL    HW2 3246   0.313   0.725   8.449
  958SOL     OW 3247   0.339   0.509   8.454
  958SOL    HW1 3248   0.287   0.426   8.437
  958SOL    HW2 3249   0.416   0.514   8.390
  959SOL     OW 3250   1.138   0.380   9.126
  959SOL    HW1 3251   1.093   0.443   9.190
  959SOL    HW2 3252   1.231   0.411   9.109
  960SOL     OW 3253   1.160   0.207   8.925
  960SOL    HW1 3254   1.160   0.271   9.002
  960SOL    HW2 3255   1.188   0.255   8.842
  961SOL     OW 3256   0.008   1.326   7.648
  961SOL    HW1 3257  -0.085   1.347   7.617
  961SOL    HW2 3258   0.018   1.227   7.661
  962SOL     OW 3259   0.088   1.801   8.375
  962SOL    HW1 3260   0.046   1.715   8.348
  962SOL    HW2 3261   0.182   1.804   8.341
  963SOL     OW 3262   0.504   1.568   8.358
  963SOL    HW1 3263   0.570   1.642   8.367
  963SOL    HW2 3264   0.548   1.489   8.316
  964SOL     OW 3265   1.002   0.796   8.686
  964SOL    HW1 3266   1.043   0.764   8.772
  964SOL    HW2 3267   0.906   0.769   8.683
  965SOL     OW 3268   0.040   0.544   8.562
  965SOL    HW1 3269   0.125   0.511   8.521
  965SOL    HW2 3270   0.053   0.559   8.660
  966SOL     OW 3271   0.815   0.572   7.773
  966SOL    HW1 3272   0.822   0.483   7.727
  966SOL    HW2 3273   0.721   0.606   7.765
  967SOL     OW 3274   1.657   0.604   8.654
  967SOL    HW1 3275   1.619   0.535   8.716
  967SOL    HW2 3276   1.739   0.568   8.610
  968SOL     OW 3277   0.671   0.464   8.717
  968SOL    HW1 3278   0.637   0.375   8.687
  968SOL    HW2 3279   0.697   0.518   8.637
  969SOL     OW 3280   0.930   1.678   8.913
  969SOL    HW1 3281   0.906   1.660   8.818
  969SOL    HW2 3282   0.960   1.772   8.923
  970SOL     OW 3283   0.473   0.500   7.639
  970SOL    HW1 3284   0.534   0.580   7.643
  970SOL    HW2 3285   0.378   0.531   7.646
  971SOL     OW 3286   0.159   1.137   8.914
  971SOL    HW1 3287   0.181   1.076   8.990
  971SOL    HW2 3288   0.169   1.088   8.828
  972SOL     OW 3289   1.347   1.059   8.682
  972SOL    HW1 3290   1.371   0.996   8.608
  972SOL    HW2 3291   1.257   1.099   8.664
  973SOL     OW 3292   1.302   0.855   7.757
  973SOL    HW1 3293   1.216   0.824   7.799
  973SOL    HW2 3294   1.298   0.841   7.658
  974SOL     OW 3295   1.759   1.747   8.602
  974SOL    HW1 3296   1.820   1.777   8.529
  974SOL    HW2 3297   1.721   1.658   8.580
  975SOL     OW 3298   1.252   1.731   8.576
  975SOL    HW1 3299   1.336   1.736   8.522
  975SOL    HW2 3300   1.229   1.635   8.594
  976SOL     OW 3301   0.083   1.258   8.470
  976SOL    HW1 3302   0.078   1.257   8.570
  976SOL    HW2 3303   0.000   1.217   8.432
  977SOL     OW 3304   1.726   0.135   7.971
  977SOL    HW1 3305   1.799   0.118   7.904
  977SOL    HW2 3306   1.695   0.048   8.009
  978SOL     OW 3307   1.388   1.573   7.925
  978SOL    HW1 3308   1.455   1.585   7.851
  978SOL    HW2 3309   1.348   1.662   7.948
  979SOL     OW 3310   1.280   0.927   8.120
  979SOL    HW1 3311   1.340   0.846   8.122
  979SOL    HW2 3312   1.320   0.996   8.060
  980SOL     OW 3313   0.672   1.616   7.602
  980SOL    HW1 3314   0.681   1.626   7.503
  980SOL    HW2 3315   0.632   1.527   7.623
  981SOL     OW 3316   1.650   1.720   8.842
  981SOL    HW1 3317   1.703   1.730   8.758
  981SOL    HW2 3318   1.623   1.810   8.876
  982SOL     OW 3319   1.841   0.175   8.411
  982SOL    HW1 3320   1.880   0.090   8.375
  982SOL    HW2 3321   1.743   0.177   8.392
  983SOL     OW 3322   0.263   0.326   8.168
  983SOL    HW1 3323   0.184   0.377   8.134
  983SOL    HW2 3324   0.254   0.311   8.266
  984SOL     OW 3325   1.194   1.612   7.479
  984SOL    HW1 3326   1.200   1.519   7.516
  984SOL    HW2 3327   1.135   1.612   7.399
  985SOL     OW 3328   0.822   1.002   8.820
  985SOL    HW1 3329   0.862   1.001   8.728
  985SOL    HW2 3330   0.832   1.094   8.860
  986SOL     OW 3331   0.916   0.910   7.739
  986SOL    HW1 3332   0.979   0.948   7.671
  986SOL    HW2 3333   0.956   0.827   7.778
  987SOL     OW 3334   1.504   1.607   7.492
  987SOL    HW1 3335   1.412   1.644   7.499
  987SOL    HW2 3336   1.542   1.627   7.402
  988SOL     OW 3337   0.372   1.288   8.938
  988SOL    HW1 3338   0.359   1.381   8.904
  988SOL    HW2 3339   0.288   1.236   8.925
  989SOL     OW 3340   1.614   1.292   8.737
  989SOL    HW1 3341   1.674   1.295   8.817
  989SOL    HW2 3342   1.539   1.356   8.750
  990SOL     OW 3343   1.039   1.098   8.144
  990SOL    HW1 3344   0.969   1.051   8.198
  990SOL    HW2 3345   1.098   1.030   8.101
  991SOL     OW 3346   1.014   0.236   8.419
  991SOL    HW1 3347   1.006   0.200   8.326
  991SOL    HW2 3348   1.012   0.160   8.484
  992SOL     OW 3349   0.590   1.487   7.939
  992SOL    HW1 3350   0.632   1.429   7.869
  992SOL    HW2 3351   0.546   1.566   7.895
  993SOL     OW 3352   1.709   0.385   8.829
  993SOL    HW1 3353   1.782   0.454   8.833
  993SOL    HW2 3354   1.737   0.310   8.770
  994SOL     OW 3355   0.255   1.348   7.738
  994SOL    HW1 3356   0.159   1.349   7.711
  994SOL    HW2 3357   0.267   1.401   7.822
  995SOL     OW 3358   0.075   0.345   7.481
  995SOL    HW1 3359  -0.017   0.317   7.452
  995SOL    HW2 3360   0.106   0.422   7.425
  996SOL     OW 3361   1.440   0.856   8.846
  996SOL    HW1 3362   1.383   0.908   8.783
  996SOL    HW2 3363   1.536   0.868   8.822
  997SOL     OW 3364   0.072   0.166   7.766
  997SOL    HW1 3365   0.055   0.249   7.712
  997SOL    HW2 3366   0.162   0.129   7.744
  998SOL     OW 3367   1.183   1.335   7.567
  998SOL    HW1 3368   1.084   1.324   7.569
  998SOL    HW2 3369   1.217   1.350   7.660
  999SOL     OW 3370   0.613   0.842   8.879
  999SOL    HW1 3371   0.669   0.923   8.862
  999SOL    HW2 3372   0.672   0.762   8.882
 1000SOL     OW 3373   1.493   1.767   8.407
 1000SOL    HW1 3374   1.526   1.831   8.338
 1000SOL    HW2 3375   1.559   1.761   8.482
 1001SOL     OW 3376   0.390   1.741   9.008
 1001SOL    HW1 3377   0.299   1.782   9.006
 1001SOL    HW2 3378   0.383   1.647   9.040
 1002SOL     OW 3379   1.674   0.883   8.702
 1002SOL    HW1 3380   1.647   0.794   8.665
 1002SOL    HW2 3381   1.675   0.951   8.629
 1003SOL     OW 3382   1.225   0.325   7.897
 1003SOL    HW1 3383   1.290   0.251   7.886
 1003SOL    HW2 3384   1.245   0.375   7.981
 1004SOL     OW 3385   0.594   0.745   8.100
 1004SOL    HW1 3386   0.644   0.830   8.081
 1004SOL    HW2 3387   0.506   0.747   8.052
 1005SOL     OW 3388   1.777   0.342   9.090
 1005SOL    HW1 3389   1.760   0.373   8.996
 1005SOL    HW2 3390   1.693   0.305   9.128
 1006SOL     OW 3391   1.730   0.934   8.965
 1006SOL    HW1 3392   1.768   1.025   8.980
 1006SOL    HW2 3393   1.722   0.917   8.866
 1007SOL     OW 3394   0.859   1.374   7.464
 1007SOL    HW1 3395   0.813   1.389   7.552
 1007SOL    HW2 3396   0.903   1.459   7.434
 1008SOL     OW 3397   0.661   1.790   8.401
 1008SOL    HW1 3398   0.615   1.878   8.388
 1008SOL    HW2 3399   0.760   1.802   8.394
 1009SOL     OW 3400   0.859   0.956   8.309
 1009SOL    HW1 3401   0.913   0.887   8.357
 1009SOL    HW2 3402   0.827   1.025   8.375
 1010SOL     OW 3403   1.083   0.984   7.535
 1010SOL    HW1 3404   1.060   1.037   7.453
 1010SOL    HW2 3405   1.164   0.928   7.516
 1011SOL     OW 3406   1.861   1.569   8.299
 1011SOL    HW1 3407   1.790   1.557   8.229
 1011SOL    HW2 3408   1.862   1.490   8.359
 1012SOL     OW 3409   0.079   1.240   8.101
 1012SOL    HW1 3410   0.078   1.193   8.189
 1012SOL    HW2 3411   0.161   1.212   8.050
 1013SOL     OW 3412   1.824   0.192   8.675
 1013SOL    HW1 3413   1.820   0.102   8.719
 1013SOL    HW2 3414   1.827   0.181   8.576
 1014SOL     OW 3415   0.428   0.424   7.968
 1014SOL    HW1 3416   0.458   0.352   7.906
 1014SOL    HW2 3417   0.389   0.384   8.051
 1015SOL     OW 3418   1.705   1.487   8.552
 1015SOL    HW1 3419   1.612   1.462   8.525
 1015SOL    HW2 3420   1.731   1.437   8.634
 1016SOL     OW 3421   0.317   0.547   8.728
 1016SOL    HW1 3422   0.355   0.488   8.800
 1016SOL    HW2 3423   0.357   0.521   8.640
 1017SOL     OW 3424   0.812   1.586   8.135
 1017SOL    HW1 3425   0.844   1.596   8.041
 1017SOL    HW2 3426   0.733   1.524   8.137
 1018SOL     OW 3427   1.424   0.214   8.560
 1018SOL    HW1 3428   1.476   0.149   8.615
 1018SOL    HW2 3429   1.375   0.277   8.621
 1019SOL     OW 3430   1.001   0.034   8.602
 1019SOL    HW1 3431   0.938  -0.038   8.571
 1019SOL    HW2 3432   1.094  -0.002   8.602
 1020SOL     OW 3433   0.770   1.330   7.749
 1020SOL    HW1 3434   0.724   1.243   7.766
 1020SOL    HW2 3435   0.861   1.327   7.790
 1021SOL     OW 3436   0.618   1.567   8.732
 1021SOL    HW1 3437   0.613   1.649   8.789
 1021SOL    HW2 3438   0.707   1.564   8.687
 1022SOL     OW 3439   1.352   0.052   7.616
 1022SOL    HW1 3440   1.387   0.011   7.532
 1022SOL    HW2 3441   1.262   0.014   7.636
 1023SOL     OW 3442   1.300   0.453   8.139
 1023SOL    HW1 3443   1.241   0.533   8.143
 1023SOL    HW2 3444   1.315   0.418   8.232
 1024SOL     OW 3445   1.593   0.221   8.330
 1024SOL    HW1 3446   1.509   0.220   8.384
 1024SOL    HW2 3447   1.595   0.304   8.274
 1025SOL     OW 3448   0.039   1.077   7.748
 1025SOL    HW1 3449   0.138   1.066   7.739
 1025SOL    HW2 3450  -0.001   0.991   7.780
 1026SOL     OW 3451   0.875   1.646   7.785
 1026SOL    HW1 3452   0.798   1.611   7.731
 1026SOL    HW2 3453   0.843   1.717   7.847
 1027SOL     OW 3454   0.230   2.490   0.113
 1027SOL    HW1 3455   0.137   2.488   0.150
 1027SOL    HW2 3456   0.231   2.451   0.021
 1028SOL     OW 3457   0.225   2.137   0.996
 1028SOL    HW1 3458   0.260   2.120   1.088
 1028SOL    HW2 3459   0.137   2.092   0.984
 1029SOL     OW 3460   0.019   2.230   0.647
 1029SOL    HW1 3461  -0.063   2.273   0.686
 1029SOL    HW2 3462  -0.009   2.157   0.584
 1030SOL     OW 3463   0.569   3.137   1.165
 1030SOL    HW1 3464   0.476   3.130   1.128
 1030SOL    HW2 3465   0.580   3.226   1.209
 1031SOL     OW 3466   1.555   3.373   0.703
 1031SOL    HW1 3467   1.498   3.357   0.784
 1031SOL    HW2 3468   1.496   3.383   0.623
 1032SOL     OW 3469   1.135   2.565   0.717
 1032SOL    HW1 3470   1.192   2.643   0.692
 1032SOL    HW2 3471   1.075   2.591   0.793
 1033SOL     OW 3472   1.755   2.469   0.231
 1033SOL    HW1 3473   1.743   2.456   0.132
 1033SOL    HW2 3474   1.725   2.388   0.280
 1034SOL     OW 3475   0.768   3.006   1.023
 1034SOL    HW1 3476   0.690   3.023   1.083
 1034SOL    HW2 3477   0.802   3.093   0.987
 1035SOL     OW 3478   0.850   2.660   1.823
 1035SOL    HW1 3479   0.846   2.736   1.888
 1035SOL    HW2 3480   0.872   2.696   1.732
 1036SOL     OW 3481   0.685   2.874   0.665
 1036SOL    HW1 3482   0.754   2.858   0.735
 1036SOL    HW2 3483   0.612   2.931   0.703
 1037SOL     OW 3484   0.686   3.023   1.803
 1037SOL    HW1 3485   0.746   3.102   1.817
 1037SOL    HW2 3486   0.600   3.054   1.762
 1038SOL     OW 3487   0.335   3.297   1.061
 1038SOL    HW1 3488   0.257   3.266   1.008
 1038SOL    HW2 3489   0.393   3.355   1.004
 1039SOL     OW 3490   1.460   3.367   1.339
 1039SOL    HW1 3491   1.484   3.461   1.365
 1039SOL    HW2 3492   1.444   3.313   1.421
 1040SOL     OW 3493   0.438   2.254   1.499
 1040SOL    HW1 3494   0.520   2.198   1.508
 1040SOL    HW2 3495   0.357   2.196   1.503
 1041SOL     OW 3496   1.603   2.309   0.737
 1041SOL    HW1 3497   1.529   2.355   0.687
 1041SOL    HW2 3498   1.654   2.377   0.790
 1042SOL     OW 3499   0.231   3.575   0.483
 1042SOL    HW1 3500   0.265   3.652   0.537
 1042SOL    HW2 3501   0.275   3.575   0.393
 1043SOL     OW 3502   1.127   3.203   1.690
 1043SOL    HW1 3503   1.174   3.203   1.778
 1043SOL    HW2 3504   1.079   3.116   1.679
 1044SOL     OW 3505   0.230   3.296   0.538
 1044SOL    HW1 3506   0.204   3.392   0.538
 1044SOL    HW2 3507   0.159   3.242   0.583
 1045SOL     OW 3508   0.240   2.953   0.886
 1045SOL    HW1 3509   0.254   2.869   0.938
 1045SOL    HW2 3510   0.185   3.017   0.941
 1046SOL     OW 3511   0.620   3.648   1.439
 1046SOL    HW1 3512   0.528   3.631   1.474
 1046SOL    HW2 3513   0.648   3.740   1.465
 1047SOL     OW 3514   0.606   2.826   0.123
 1047SOL    HW1 3515   0.613   2.910   0.069
 1047SOL    HW2 3516   0.652   2.839   0.211
 1048SOL     OW 3517   1.594   1.976   1.480
 1048SOL    HW1 3518   1.576   2.043   1.408
 1048SOL    HW2 3519   1.591   2.022   1.569
 1049SOL     OW 3520   0.122   2.505   0.563
 1049SOL    HW1 3521   0.077   2.417   0.580
 1049SOL    HW2 3522   0.121   2.559   0.647
 1050SOL     OW 3523   1.842   3.629   0.359
 1050SOL    HW1 3524   1.896   3.600   0.439
 1050SOL    HW2 3525   1.872   3.719   0.330
 1051SOL     OW 3526   0.027   3.458   0.117
 1051SOL    HW1 3527   0.008   3.362   0.138
 1051SOL    HW2 3528  -0.006   3.516   0.192
 1052SOL     OW 3529   1.689   2.784   0.612
 1052SOL    HW1 3530   1.784   2.755   0.620
 1052SOL    HW2 3531   1.681   2.849   0.537
 1053SOL     OW 3532   1.641   2.970   0.432
 1053SOL    HW1 3533   1.727   2.972   0.380
 1053SOL    HW2 3534   1.655   3.017   0.520
 1054SOL     OW 3535   0.113   2.599   1.597
 1054SOL    HW1 3536   0.201   2.586   1.642
 1054SOL    HW2 3537   0.100   2.696   1.575
 1055SOL     OW 3538   0.613   3.227   0.726
 1055SOL    HW1 3539   0.564   3.140   0.735
 1055SOL    HW2 3540   0.590   3.270   0.639
 1056SOL     OW 3541   1.293   3.090   1.423
 1056SOL    HW1 3542   1.330   3.017   1.365
 1056SOL    HW2 3543   1.345   3.095   1.508
 1057SOL     OW 3544   0.809   1.866   0.502
 1057SOL    HW1 3545   0.849   1.957   0.493
 1057SOL    HW2 3546   0.709   1.874   0.508
 1058SOL     OW 3547   0.197   2.838   1.264
 1058SOL    HW1 3548   0.286   2.793   1.250
 1058SOL    HW2 3549   0.124   2.773   1.245
 1059SOL     OW 3550   1.525   2.861   0.190
 1059SOL    HW1 3551   1.462   2.785   0.203
 1059SOL    HW2 3552   1.573   2.879   0.276
 1060SOL     OW 3553   1.187   3.654   1.616
 1060SOL    HW1 3554   1.211   3.714   1.540
 1060SOL    HW2 3555   1.194   3.559   1.586
 1061SOL     OW 3556   0.317   2.113   1.801
 1061SOL    HW1 3557   0.388   2.184   1.807
 1061SOL    HW2 3558   0.229   2.152   1.829
 1062SOL     OW 3559   1.466   3.279   0.953
 1062SOL    HW1 3560   1.407   3.285   1.033
 1062SOL    HW2 3561   1.451   3.191   0.907
 1063SOL     OW 3562   1.667   3.576   0.572
 1063SOL    HW1 3563   1.626   3.553   0.484
 1063SOL    HW2 3564   1.649   3.502   0.637
 1064SOL     OW 3565   0.598   2.591   0.270
 1064SOL    HW1 3566   0.622   2.660   0.202
 1064SOL    HW2 3567   0.520   2.624   0.324
 1065SOL     OW 3568   1.281   2.207   0.944
 1065SOL    HW1 3569   1.195   2.157   0.931
 1065SOL    HW2 3570   1.343   2.153   1.000
 1066SOL     OW 3571   1.576   3.524   0.307
 1066SOL    HW1 3572   1.665   3.570   0.310
 1066SOL    HW2 3573   1.555   3.500   0.212
 1067SOL     OW 3574   0.807   2.467   1.465
 1067SOL    HW1 3575   0.760   2.464   1.554
 1067SOL    HW2 3576   0.756   2.412   1.399
 1068SOL     OW 3577   1.394   2.331   1.674
 1068SOL    HW1 3578   1.374   2.374   1.762
 1068SOL    HW2 3579   1.472   2.269   1.683
 1069SOL     OW 3580   0.973   2.752   1.572
 1069SOL    HW1 3581   1.019   2.668   1.543
 1069SOL    HW2 3582   0.917   2.786   1.497
 1070SOL     OW 3583   0.991   2.272   1.242
 1070SOL    HW1 3584   0.914   2.306   1.296
 1070SOL    HW2 3585   0.957   2.221   1.163
 1071SOL     OW 3586   1.041   2.563   0.429
 1071SOL    HW1 3587   1.067   2.559   0.525
 1071SOL    HW2 3588   0.956   2.512   0.415
 1072SOL     OW 3589   0.076   2.673   0.789
 1072SOL    HW1 3590   0.175   2.661   0.798
 1072SOL    HW2 3591   0.052   2.768   0.810
 1073SOL     OW 3592   0.130   3.683   1.571
 1073SOL    HW1 3593   0.120   3.668   1.670
 1073SOL    HW2 3594   0.044   3.719   1.535
 1074SOL     OW 3595   0.865   2.210   0.195
 1074SOL    HW1 3596   0.924   2.273   0.146
 1074SOL    HW2 3597   0.884   2.116   0.166
 1075SOL     OW 3598   1.719   2.447   1.831
 1075SOL    HW1 3599   1.693   2.536   1.795
 1075SOL    HW2 3600   1.717   2.379   1.758
 1076SOL     OW 3601   1.362   3.006   0.545
 1076SOL    HW1 3602   1.445   2.977   0.497
 1076SOL    HW2 3603   1.313   3.073   0.489
 1077SOL     OW 3604   0.550   2.058   0.885
 1077SOL    HW1 3605   0.545   2.053   0.985
 1077SOL    HW2 3606   0.552   2.154   0.856
 1078SOL     OW 3607   1.008   3.318   0.477
 1078SOL    HW1 3608   0.962   3.390   0.425
 1078SOL    HW2 3609   1.004   3.338   0.575
 1079SOL     OW 3610   0.351   3.663   0.853
 1079SOL    HW1 3611   0.401   3.577   0.859
 1079SOL    HW2 3612   0.416   3.740   0.850
 1080SOL     OW 3613   1.795   2.928   0.873
 1080SOL    HW1 3614   1.733   2.913   0.797
 1080SOL    HW2 3615   1.743   2.939   0.958
 1081SOL     OW 3616   1.227   3.412   1.506
 1081SOL    HW1 3617   1.233   3.335   1.570
 1081SOL    HW2 3618   1.175   3.386   1.426
 1082SOL     OW 3619   0.321   2.805   0.242
 1082SOL    HW1 3620   0.403   2.844   0.200
 1082SOL    HW2 3621   0.294   2.723   0.193
 1083SOL     OW 3622   1.458   2.597   0.728
 1083SOL    HW1 3623   1.453   2.532   0.803
 1083SOL    HW2 3624   1.538   2.656   0.741
 1084SOL     OW 3625   0.461   3.128   1.727
 1084SOL    HW1 3626   0.411   3.129   1.641
 1084SOL    HW2 3627   0.398   3.110   1.803
 1085SOL     OW 3628   1.111   3.638   0.237
 1085SOL    HW1 3629   1.051   3.576   0.287
 1085SOL    HW2 3630   1.142   3.594   0.152
 1086SOL     OW 3631   0.202   2.147   1.498
 1086SOL    HW1 3632   0.122   2.207   1.485
 1086SOL    HW2 3633   0.192   2.098   1.584
 1087SOL     OW 3634   1.632   3.239   0.081
 1087SOL    HW1 3635   1.600   3.333   0.071
 1087SOL    HW2 3636   1.556   3.176   0.069
 1088SOL     OW 3637   0.464   3.605   0.323
 1088SOL    HW1 3638   0.497   3.644   0.409
 1088SOL    HW2 3639   0.540   3.598   0.258
 1089SOL     OW 3640   1.400   1.969   0.426
 1089SOL    HW1 3641   1.376   1.932   0.336
 1089SOL    HW2 3642   1.499   1.985   0.430
 1090SOL     OW 3643   0.249   3.647   1.241
 1090SOL    HW1 3644   0.306   3.582   1.291
 1090SOL    HW2 3645   0.233   3.614   1.148
 1091SOL     OW 3646   0.940   3.560   0.904
 1091SOL    HW1 3647   1.020   3.503   0.925
 1091SOL    HW2 3648   0.891   3.520   0.827
 1092SOL     OW 3649   0.382   2.562   0.480
 1092SOL    HW1 3650   0.427   2.472   0.477
 1092SOL    HW2 3651   0.288   2.551   0.513
 1093SOL     OW 3652   1.547   2.084   1.729
 1093SOL    HW1 3653   1.542   2.121   1.821
 1093SOL    HW2 3654   1.475   2.015   1.717
 1094SOL     OW 3655   0.614   1.984   0.117
 1094SOL    HW1 3656   0.712   1.962   0.124
 1094SOL    HW2 3657   0.583   1.967   0.024
 1095SOL     OW 3658   0.781   2.126   1.749
 1095SOL    HW1 3659   0.848   2.065   1.792
 1095SOL    HW2 3660   0.708   2.145   1.814
 1096SOL     OW 3661   0.888   3.376   1.195
 1096SOL    HW1 3662   0.865   3.351   1.101
 1096SOL    HW2 3663   0.949   3.307   1.234
 1097SOL     OW 3664   1.351   2.452   1.433
 1097SOL    HW1 3665   1.379   2.409   1.518
 1097SOL    HW2 3666   1.376   2.548   1.434
 1098SOL     OW 3667   0.803   3.264   0.924
 1098SOL    HW1 3668   0.893   3.278   0.882
 1098SOL    HW2 3669   0.732   3.266   0.853
 1099SOL     OW 3670   0.922   2.365   0.899
 1099SOL    HW1 3671   0.897   2.356   0.803
 1099SOL    HW2 3672   0.970   2.283   0.930
 1100SOL     OW 3673   0.539   1.926   0.512
 1100SOL    HW1 3674   0.458   1.927   0.570
 1100SOL    HW2 3675   0.542   2.009   0.457
 1101SOL     OW 3676   1.434   3.050   0.041
 1101SOL    HW1 3677   1.466   2.974   0.098
 1101SOL    HW2 3678   1.342   3.077   0.071
 1102SOL     OW 3679   0.297   1.897   0.171
 1102SOL    HW1 3680   0.346   1.981   0.150
 1102SOL    HW2 3681   0.359   1.832   0.216
 1103SOL     OW 3682   0.935   2.098   0.480
 1103SOL    HW1 3683   0.887   2.139   0.402
 1103SOL    HW2 3684   1.034   2.096   0.461
 1104SOL     OW 3685   1.076   2.545   1.464
 1104SOL    HW1 3686   0.996   2.484   1.467
 1104SOL    HW2 3687   1.157   2.492   1.440
 1105SOL     OW 3688   1.227   3.432   0.793
 1105SOL    HW1 3689   1.248   3.506   0.728
 1105SOL    HW2 3690   1.295   3.432   0.866
 1106SOL     OW 3691   0.459   3.014   0.741
 1106SOL    HW1 3692   0.388   2.987   0.806
 1106SOL    HW2 3693   0.433   2.986   0.648
 1107SOL     OW 3694   1.271   3.659   0.591
 1107SOL    HW1 3695   1.315   3.723   0.527
 1107SOL    HW2 3696   1.221   3.711   0.661
 1108SOL     OW 3697   1.032   2.411   0.016
 1108SOL    HW1 3698   0.991   2.493  -0.023
 1108SOL    HW2 3699   1.096   2.437   0.089
 1109SOL     OW 3700   0.078   2.418   1.386
 1109SOL    HW1 3701   0.170   2.417   1.345
 1109SOL    HW2 3702   0.072   2.492   1.453
 1110SOL     OW 3703   0.561   2.084   1.147
 1110SOL    HW1 3704   0.599   2.000   1.184
 1110SOL    HW2 3705   0.473   2.103   1.191
 1111SOL     OW 3706   0.866   2.316   0.642
 1111SOL    HW1 3707   0.834   2.388   0.580
 1111SOL    HW2 3708   0.890   2.235   0.589
 1112SOL     OW 3709   1.017   1.901   0.753
 1112SOL    HW1 3710   0.945   1.906   0.684
 1112SOL    HW2 3711   0.993   1.832   0.822
 1113SOL     OW 3712   1.429   3.035   0.867
 1113SOL    HW1 3713   1.374   2.951   0.860
 1113SOL    HW2 3714   1.455   3.064   0.775
 1114SOL     OW 3715   1.466   2.452   0.992
 1114SOL    HW1 3716   1.436   2.357   0.999
 1114SOL    HW2 3717   1.539   2.468   1.058
 1115SOL     OW 3718   1.857   2.695   0.377
 1115SOL    HW1 3719   1.899   2.631   0.441
 1115SOL    HW2 3720   1.819   2.644   0.299
 1116SOL     OW 3721   0.488   3.247   0.174
 1116SOL    HW1 3722   0.401   3.232   0.221
 1116SOL    HW2 3723   0.471   3.273   0.079
 1117SOL     OW 3724   1.664   3.142   0.657
 1117SOL    HW1 3725   1.763   3.150   0.671
 1117SOL    HW2 3726   1.619   3.226   0.688
 1118SOL     OW 3727   1.390   2.437   0.078
 1118SOL    HW1 3728   1.336   2.416   0.159
 1118SOL    HW2 3729   1.481   2.396   0.087
 1119SOL     OW 3730   0.527   2.118   0.328
 1119SOL    HW1 3731   0.554   2.059   0.253
 1119SOL    HW2 3732   0.527   2.213   0.297
 1120SOL     OW 3733   1.754   3.085   1.588
 1120SOL    HW1 3734   1.845   3.046   1.575
 1120SOL    HW2 3735   1.762   3.181   1.612
 1121SOL     OW 3736   1.064   3.209   1.340
 1121SOL    HW1 3737   0.984   3.186   1.395
 1121SOL    HW2 3738   1.147   3.183   1.389
 1122SOL     OW 3739   1.592   3.491   1.625
 1122SOL    HW1 3740   1.619   3.525   1.535
 1122SOL    HW2 3741   1.671   3.453   1.671
 1123SOL     OW 3742   1.111   3.057   1.100
 1123SOL    HW1 3743   1.071   3.101   1.181
 1123SOL    HW2 3744   1.070   3.094   1.017
 1124SOL     OW 3745   1.638   2.961   1.079
 1124SOL    HW1 3746   1.643   3.042   1.138
 1124SOL    HW2 3747   1.552   2.963   1.028
 1125SOL     OW 3748   0.915   1.951   1.402
 1125SOL    HW1 3749   0.940   1.931   1.307
 1125SOL    HW2 3750   0.987   2.007   1.444
 1126SOL     OW 3751   0.980   2.978   1.719
 1126SOL    HW1 3752   0.881   2.984   1.729
 1126SOL    HW2 3753   1.003   2.898   1.663
 1127SOL     OW 3754   0.705   2.912   0.368
 1127SOL    HW1 3755   0.691   2.919   0.467
 1127SOL    HW2 3756   0.789   2.861   0.350
 1128SOL     OW 3757   0.410   2.675   1.251
 1128SOL    HW1 3758   0.496   2.687   1.301
 1128SOL    HW2 3759   0.368   2.588   1.278
 1129SOL     OW 3760   1.274   2.248   1.262
 1129SOL    HW1 3761   1.295   2.322   1.326
 1129SOL    HW2 3762   1.185   2.265   1.219
 1130SOL     OW 3763   0.064   3.426   1.331
 1130SOL    HW1 3764   0.018   3.508   1.297
 1130SOL    HW2 3765   0.162   3.445   1.340
 1131SOL     OW 3766   0.367   2.962   0.501
 1131SOL    HW1 3767   0.360   3.045   0.445
 1131SOL    HW2 3768   0.371   2.882   0.441
 1132SOL     OW 3769   0.566   2.399   0.865
 1132SOL    HW1 3770   0.578   2.465   0.791
 1132SOL    HW2 3771   0.612   2.433   0.948
 1133SOL     OW 3772   1.252   3.210   0.388
 1133SOL    HW1 3773   1.302   3.287   0.428
 1133SOL    HW2 3774   1.157   3.212   0.420
 1134SOL     OW 3775   1.272   3.307   1.142
 1134SOL    HW1 3776   1.319   3.320   1.229
 1134SOL    HW2 3777   1.206   3.233   1.151
 1135SOL     OW 3778   1.582   2.501   0.472
 1135SOL    HW1 3779   1.551   2.562   0.545
 1135SOL    HW2 3780   1.632   2.553   0.403
 1136SOL     OW 3781   0.354   3.372   1.329
 1136SOL    HW1 3782   0.333   3.328   1.242
 1136SOL    HW2 3783   0.451   3.398   1.332
 1137SOL     OW 3784   0.402   2.613   1.598
 1137SOL    HW1 3785   0.470   2.668   1.551
 1137SOL    HW2 3786   0.442   2.525   1.625
 1138SOL     OW 3787   1.587   2.641   1.670
 1138SOL    HW1 3788   1.495   2.679   1.665
 1138SOL    HW2 3789   1.647   2.688   1.605
 1139SOL     OW 3790   1.013   1.967   1.770
 1139SOL    HW1 3791   1.019   2.052   1.718
 1139SOL    HW2 3792   1.045   1.891   1.713
 1140SOL     OW 3793   0.504   1.912   1.740
 1140SOL    HW1 3794   0.462   1.855   1.670
 1140SOL    HW2 3795   0.438   1.981   1.772
 1141SOL     OW 3796   0.573   2.732   1.029
 1141SOL    HW1 3797   0.617   2.821   1.020
 1141SOL    HW2 3798   0.510   2.732   1.106
 1142SOL     OW 3799   1.360   2.724   1.045
 1142SOL    HW1 3800   1.285   2.724   0.979
 1142SOL    HW2 3801   1.397   2.632   1.054
 1143SOL     OW 3802   1.209   2.387   0.275
 1143SOL    HW1 3803   1.222   2.303   0.329
 1143SOL    HW2 3804   1.180   2.461   0.335
 1144SOL     OW 3805   0.307   2.075   1.231
 1144SOL    HW1 3806   0.284   2.112   1.321
 1144SOL    HW2 3807   0.277   1.980   1.225
 1145SOL     OW 3808   0.037   3.172   1.282
 1145SOL    HW1 3809   0.090   3.123   1.350
 1145SOL    HW2 3810   0.059   3.270   1.287
 1146SOL     OW 3811   0.732   2.496   1.064
 1146SOL    HW1 3812   0.791   2.470   0.988
 1146SOL    HW2 3813   0.704   2.592   1.053
 1147SOL     OW 3814   1.728   2.797   1.854
 1147SOL    HW1 3815   1.682   2.790   1.765
 1147SOL    HW2 3816   1.666   2.841   1.920
 1148SOL     OW 3817   0.307   1.925   0.618
 1148SOL    HW1 3818   0.296   2.019   0.651
 1148SOL    HW2 3819   0.302   1.862   0.695
 1149SOL     OW 3820   1.622   2.229   0.374
 1149SOL    HW1 3821   1.624   2.153   0.438
 1149SOL    HW2 3822   1.574   2.306   0.414
 1150SOL     OW 3823   1.023   2.628   0.966
 1150SOL    HW1 3824   1.038   2.649   1.062
 1150SOL    HW2 3825   0.993   2.533   0.957
 1151SOL     OW 3826   0.980   3.435   1.700
 1151SOL    HW1 3827   0.960   3.479   1.612
 1151SOL    HW2 3828   1.019   3.344   1.684
 1152SOL     OW 3829   1.859   3.380   1.605
 1152SOL    HW1 3830   1.873   3.407   1.510
 1152SOL    HW2 3831   1.942   3.402   1.658
 1153SOL     OW 3832   0.350   2.760   1.804
 1153SOL    HW1 3833   0.426   2.804   1.852
 1153SOL    HW2 3834   0.385   2.713   1.722
 1154SOL     OW 3835   1.540   2.136   0.125
 1154SOL    HW1 3836   1.479   2.061   0.148
 1154SOL    HW2 3837   1.562   2.188   0.208
 1155SOL     OW 3838   1.303   2.700   0.042
 1155SOL    HW1 3839   1.337   2.607   0.057
 1155SOL    HW2 3840   1.321   2.727  -0.053
 1156SOL     OW 3841   1.068   3.195   0.849
 1156SOL    HW1 3842   1.075   3.111   0.794
 1156SOL    HW2 3843   1.130   3.264   0.813
 1157SOL     OW 3844   0.319   2.672   0.949
 1157SOL    HW1 3845   0.412   2.708   0.954
 1157SOL    HW2 3846   0.313   2.587   1.001
 1158SOL     OW 3847   0.339   2.371   1.006
 1158SOL    HW1 3848   0.287   2.288   0.989
 1158SOL    HW2 3849   0.416   2.376   0.942
 1159SOL     OW 3850   1.138   2.242   1.678
 1159SOL    HW1 3851   1.093   2.305   1.742
 1159SOL    HW2 3852   1.231   2.273   1.661
 1160SOL     OW 3853   1.160   2.069   1.477
 1160SOL    HW1 3854   1.160   2.133   1.554
 1160SOL    HW2 3855   1.188   2.117   1.394
 1161SOL     OW 3856   0.008   3.188   0.200
 1161SOL    HW1 3857  -0.085   3.209   0.169
 1161SOL    HW2 3858   0.018   3.089   0.213
 1162SOL     OW 3859   0.088   3.663   0.927
 1162SOL    HW1 3860   0.046   3.577   0.900
 1162SOL    HW2 3861   0.182   3.666   0.893
 1163SOL     OW 3862   0.504   3.430   0.910
 1163SOL    HW1 3863   0.570   3.504   0.919
 1163SOL    HW2 3864   0.548   3.351   0.868
 1164SOL     OW 3865   1.002   2.658   1.238
 1164SOL    HW1 3866   1.043   2.626   1.324
 1164SOL    HW2 3867   0.906   2.631   1.235
 1165SOL     OW 3868   0.040   2.406   1.114
 1165SOL    HW1 3869   0.125   2.373   1.073
 1165SOL    HW2 3870   0.053   2.421   1.212
 1166SOL     OW 3871   0.189   2.382   1.722
 1166SOL    HW1 3872   0.248   2.342   1.652
 1166SOL    HW2 3873   0.131   2.453   1.681
 1167SOL     OW 3874   1.369   2.812   1.660
 1167SOL    HW1 3875   1.408   2.901   1.680
 1167SOL    HW2 3876   1.379   2.792   1.563
 1168SOL     OW 3877   0.815   2.434   0.325
 1168SOL    HW1 3878   0.822   2.345   0.279
 1168SOL    HW2 3879   0.721   2.468   0.317
 1169SOL     OW 3880   1.657   2.466   1.206
 1169SOL    HW1 3881   1.619   2.397   1.268
 1169SOL    HW2 3882   1.739   2.430   1.162
 1170SOL     OW 3883   0.252   3.426   1.744
 1170SOL    HW1 3884   0.222   3.483   1.820
 1170SOL    HW2 3885   0.245   3.329   1.770
 1171SOL     OW 3886   0.671   2.326   1.269
 1171SOL    HW1 3887   0.637   2.237   1.239
 1171SOL    HW2 3888   0.697   2.380   1.189
 1172SOL     OW 3889   0.930   3.540   1.465
 1172SOL    HW1 3890   0.906   3.522   1.370
 1172SOL    HW2 3891   0.960   3.634   1.475
 1173SOL     OW 3892   0.473   2.362   0.191
 1173SOL    HW1 3893   0.534   2.442   0.195
 1173SOL    HW2 3894   0.378   2.393   0.198
 1174SOL     OW 3895   0.159   2.999   1.466
 1174SOL    HW1 3896   0.181   2.938   1.542
 1174SOL    HW2 3897   0.169   2.950   1.380
 1175SOL     OW 3898   1.347   2.921   1.234
 1175SOL    HW1 3899   1.371   2.858   1.160
 1175SOL    HW2 3900   1.257   2.961   1.216
 1176SOL     OW 3901   1.302   2.717   0.309
 1176SOL    HW1 3902   1.216   2.686   0.351
 1176SOL    HW2 3903   1.298   2.703   0.210
 1177SOL     OW 3904   1.759   3.609   1.154
 1177SOL    HW1 3905   1.820   3.639   1.081
 1177SOL    HW2 3906   1.721   3.520   1.132
 1178SOL     OW 3907   1.252   3.593   1.128
 1178SOL    HW1 3908   1.336   3.598   1.074
 1178SOL    HW2 3909   1.229   3.497   1.146
 1179SOL     OW 3910   0.083   3.120   1.022
 1179SOL    HW1 3911   0.078   3.119   1.122
 1179SOL    HW2 3912   0.000   3.079   0.984
 1180SOL     OW 3913   0.688   3.524   1.716
 1180SOL    HW1 3914   0.632   3.605   1.725
 1180SOL    HW2 3915   0.740   3.528   1.630
 1181SOL     OW 3916   0.903   1.948   0.133
 1181SOL    HW1 3917   0.954   1.949   0.047
 1181SOL    HW2 3918   0.959   1.906   0.204
 1182SOL     OW 3919   1.726   1.997   0.523
 1182SOL    HW1 3920   1.799   1.980   0.456
 1182SOL    HW2 3921   1.695   1.910   0.561
 1183SOL     OW 3922   1.388   3.435   0.477
 1183SOL    HW1 3923   1.455   3.447   0.403
 1183SOL    HW2 3924   1.348   3.524   0.500
 1184SOL     OW 3925   0.130   3.656   1.851
 1184SOL    HW1 3926   0.089   3.582   1.904
 1184SOL    HW2 3927   0.194   3.707   1.909
 1185SOL     OW 3928   1.280   2.789   0.672
 1185SOL    HW1 3929   1.340   2.708   0.674
 1185SOL    HW2 3930   1.320   2.858   0.612
 1186SOL     OW 3931   0.830   3.135   1.422
 1186SOL    HW1 3932   0.825   3.168   1.517
 1186SOL    HW2 3933   0.744   3.154   1.376
 1187SOL     OW 3934   0.672   3.478   0.154
 1187SOL    HW1 3935   0.681   3.488   0.055
 1187SOL    HW2 3936   0.632   3.389   0.175
 1188SOL     OW 3937   1.650   3.582   1.394
 1188SOL    HW1 3938   1.703   3.592   1.310
 1188SOL    HW2 3939   1.623   3.672   1.428
 1189SOL     OW 3940   1.841   2.037   0.963
 1189SOL    HW1 3941   1.880   1.952   0.927
 1189SOL    HW2 3942   1.743   2.039   0.944
 1190SOL     OW 3943   0.263   2.188   0.720
 1190SOL    HW1 3944   0.184   2.239   0.686
 1190SOL    HW2 3945   0.254   2.173   0.818
 1191SOL     OW 3946   1.194   3.474   0.031
 1191SOL    HW1 3947   1.200   3.381   0.068
 1191SOL    HW2 3948   1.135   3.474  -0.049
 1192SOL     OW 3949   0.822   2.864   1.372
 1192SOL    HW1 3950   0.862   2.863   1.280
 1192SOL    HW2 3951   0.832   2.956   1.412
 1193SOL     OW 3952   0.916   2.772   0.291
 1193SOL    HW1 3953   0.979   2.810   0.223
 1193SOL    HW2 3954   0.956   2.689   0.330
 1194SOL     OW 3955   1.504   3.469   0.044
 1194SOL    HW1 3956   1.412   3.506   0.051
 1194SOL    HW2 3957   1.542   3.489  -0.046
 1195SOL     OW 3958   0.372   3.150   1.490
 1195SOL    HW1 3959   0.359   3.243   1.456
 1195SOL    HW2 3960   0.288   3.098   1.477
 1196SOL     OW 3961   1.614   3.154   1.289
 1196SOL    HW1 3962   1.674   3.157   1.369
 1196SOL    HW2 3963   1.539   3.218   1.302
 1197SOL     OW 3964   1.039   2.960   0.696
 1197SOL    HW1 3965   0.969   2.913   0.750
 1197SOL    HW2 3966   1.098   2.892   0.653
 1198SOL     OW 3967   1.014   2.098   0.971
 1198SOL    HW1 3968   1.006   2.062   0.878
 1198SOL    HW2 3969   1.012   2.022   1.036
 1199SOL     OW 3970   0.590   3.349   0.491
 1199SOL    HW1 3971   0.632   3.291   0.421
 1199SOL    HW2 3972   0.546   3.428   0.447
 1200SOL     OW 3973   1.709   2.247   1.381
 1200SOL    HW1 3974   1.782   2.316   1.385
 1200SOL    HW2 3975   1.737   2.172   1.322
 1201SOL     OW 3976   0.255   3.210   0.290
 1201SOL    HW1 3977   0.159   3.211   0.263
 1201SOL    HW2 3978   0.267   3.263   0.374
 1202SOL     OW 3979   0.105   2.875   1.726
 1202SOL    HW1 3980   0.028   2.842   1.780
 1202SOL    HW2 3981   0.190   2.845   1.768
 1203SOL     OW 3982   0.672   2.065   1.489
 1203SOL    HW1 3983   0.762   2.049   1.449
 1203SOL    HW2 3984   0.680   2.070   1.588
 1204SOL     OW 3985   0.075   2.207   0.033
 1204SOL    HW1 3986  -0.017   2.179   0.004
 1204SOL    HW2 3987   0.106   2.284  -0.023
 1205SOL     OW 3988   1.440   2.718   1.398
 1205SOL    HW1 3989   1.383   2.770   1.335
 1205SOL    HW2 3990   1.536   2.730   1.374
 1206SOL     OW 3991   0.072   2.028   0.318
 1206SOL    HW1 3992   0.055   2.111   0.264
 1206SOL    HW2 3993   0.162   1.991   0.296
 1207SOL     OW 3994   1.183   3.197   0.119
 1207SOL    HW1 3995   1.084   3.186   0.121
 1207SOL    HW2 3996   1.217   3.212   0.212
 1208SOL     OW 3997   0.613   2.704   1.431
 1208SOL    HW1 3998   0.669   2.785   1.414
 1208SOL    HW2 3999   0.672   2.624   1.434
 1209SOL     OW 4000   1.493   3.629   0.959
 1209SOL    HW1 4001   1.526   3.693   0.890
 1209SOL    HW2 4002   1.559   3.623   1.034
 1210SOL     OW 4003   0.716   2.427   1.708
 1210SOL    HW1 4004   0.735   2.492   1.782
 1210SOL    HW2 4005   0.776   2.347   1.717
 1211SOL     OW 4006   1.450   3.082   1.633
 1211SOL    HW1 4007   1.441   3.072   1.732
 1211SOL    HW2 4008   1.546   3.075   1.607
 1212SOL     OW 4009   0.390   3.603   1.560
 1212SOL    HW1 4010   0.299   3.644   1.558
 1212SOL    HW2 4011   0.383   3.509   1.592
 1213SOL     OW 4012   1.674   2.745   1.254
 1213SOL    HW1 4013   1.647   2.656   1.217
 1213SOL    HW2 4014   1.675   2.813   1.181
 1214SOL     OW 4015   1.225   2.187   0.449
 1214SOL    HW1 4016   1.290   2.113   0.438
 1214SOL    HW2 4017   1.245   2.237   0.533
 1215SOL     OW 4018   0.594   2.607   0.652
 1215SOL    HW1 4019   0.644   2.692   0.633
 1215SOL    HW2 4020   0.506   2.609   0.604
 1216SOL     OW 4021   1.777   2.204   1.642
 1216SOL    HW1 4022   1.760   2.235   1.548
 1216SOL    HW2 4023   1.693   2.167   1.680
 1217SOL     OW 4024   1.730   2.796   1.517
 1217SOL    HW1 4025   1.768   2.887   1.532
 1217SOL    HW2 4026   1.722   2.779   1.418
 1218SOL     OW 4027   0.859   3.236   0.016
 1218SOL    HW1 4028   0.813   3.251   0.104
 1218SOL    HW2 4029   0.903   3.321  -0.014
 1219SOL     OW 4030   0.661   3.652   0.953
 1219SOL    HW1 4031   0.615   3.740   0.940
 1219SOL    HW2 4032   0.760   3.664   0.946
 1220SOL     OW 4033   0.859   2.818   0.861
 1220SOL    HW1 4034   0.913   2.749   0.909
 1220SOL    HW2 4035   0.827   2.887   0.927
 1221SOL     OW 4036   1.083   2.846   0.087
 1221SOL    HW1 4037   1.060   2.899   0.005
 1221SOL    HW2 4038   1.164   2.790   0.068
 1222SOL     OW 4039   1.861   3.431   0.851
 1222SOL    HW1 4040   1.790   3.419   0.781
 1222SOL    HW2 4041   1.862   3.352   0.911
 1223SOL     OW 4042   0.221   3.176   1.844
 1223SOL    HW1 4043   0.156   3.103   1.823
 1223SOL    HW2 4044   0.225   3.190   1.942
 1224SOL     OW 4045   0.079   3.102   0.653
 1224SOL    HW1 4046   0.078   3.055   0.741
 1224SOL    HW2 4047   0.161   3.074   0.602
 1225SOL     OW 4048   0.672   3.253   1.624
 1225SOL    HW1 4049   0.594   3.203   1.662
 1225SOL    HW2 4050   0.669   3.348   1.655
 1226SOL     OW 4051   1.824   2.054   1.227
 1226SOL    HW1 4052   1.820   1.964   1.271
 1226SOL    HW2 4053   1.827   2.043   1.128
 1227SOL     OW 4054   0.428   2.286   0.520
 1227SOL    HW1 4055   0.458   2.214   0.458
 1227SOL    HW2 4056   0.389   2.246   0.603
 1228SOL     OW 4057   1.705   3.349   1.104
 1228SOL    HW1 4058   1.612   3.324   1.077
 1228SOL    HW2 4059   1.731   3.299   1.186
 1229SOL     OW 4060   0.317   2.409   1.280
 1229SOL    HW1 4061   0.355   2.350   1.352
 1229SOL    HW2 4062   0.357   2.383   1.192
 1230SOL     OW 4063   0.812   3.448   0.687
 1230SOL    HW1 4064   0.844   3.458   0.593
 1230SOL    HW2 4065   0.733   3.386   0.689
 1231SOL     OW 4066   1.424   2.076   1.112
 1231SOL    HW1 4067   1.476   2.011   1.167
 1231SOL    HW2 4068   1.375   2.139   1.173
 1232SOL     OW 4069   1.001   1.896   1.154
 1232SOL    HW1 4070   0.938   1.824   1.123
 1232SOL    HW2 4071   1.094   1.860   1.154
 1233SOL     OW 4072   0.770   3.192   0.301
 1233SOL    HW1 4073   0.724   3.105   0.318
 1233SOL    HW2 4074   0.861   3.189   0.342
 1234SOL     OW 4075   0.618   3.429   1.284
 1234SOL    HW1 4076   0.613   3.511   1.341
 1234SOL    HW2 4077   0.707   3.426   1.239
 1235SOL     OW 4078   1.352   1.914   0.168
 1235SOL    HW1 4079   1.387   1.873   0.084
 1235SOL    HW2 4080   1.262   1.876   0.188
 1236SOL     OW 4081   1.300   2.315   0.691
 1236SOL    HW1 4082   1.241   2.395   0.695
 1236SOL    HW2 4083   1.315   2.280   0.784
 1237SOL     OW 4084   1.593   2.083   0.882
 1237SOL    HW1 4085   1.509   2.082   0.936
 1237SOL    HW2 4086   1.595   2.166   0.826
 1238SOL     OW 4087   0.039   2.939   0.300
 1238SOL    HW1 4088   0.138   2.928   0.291
 1238SOL    HW2 4089  -0.001   2.853   0.332
 1239SOL     OW 4090   0.875   3.508   0.337
 1239SOL    HW1 4091   0.798   3.473   0.283
 1239SOL    HW2 4092   0.843   3.579   0.399
 1240SOL     OW 4093   0.230   2.490   1.975
 1240SOL    HW1 4094   0.137   2.488   2.012
 1240SOL    HW2 4095   0.231   2.451   1.883
 1241SOL     OW 4096   0.225   2.137   2.858
 1241SOL    HW1 4097   0.260   2.120   2.950
 1241SOL    HW2 4098   0.137   2.092   2.846
 1242SOL     OW 4099   0.019   2.230   2.509
 1242SOL    HW1 4100  -0.063   2.273   2.548
 1242SOL    HW2 4101  -0.009   2.157   2.446
 1243SOL     OW 4102   0.569   3.137   3.027
 1243SOL    HW1 4103   0.476   3.130   2.990
 1243SOL    HW2 4104   0.580   3.226   3.071
 1244SOL     OW 4105   1.555   3.373   2.565
 1244SOL    HW1 4106   1.498   3.357   2.646
 1244SOL    HW2 4107   1.496   3.383   2.485
 1245SOL     OW 4108   1.135   2.565   2.579
 1245SOL    HW1 4109   1.192   2.643   2.554
 1245SOL    HW2 4110   1.075   2.591   2.655
 1246SOL     OW 4111   1.755   2.469   2.093
 1246SOL    HW1 4112   1.743   2.456   1.994
 1246SOL    HW2 4113   1.725   2.388   2.142
 1247SOL     OW 4114   0.768   3.006   2.885
 1247SOL    HW1 4115   0.690   3.023   2.945
 1247SOL    HW2 4116   0.802   3.093   2.849
 1248SOL     OW 4117   0.850   2.660   3.685
 1248SOL    HW1 4118   0.846   2.736   3.750
 1248SOL    HW2 4119   0.872   2.696   3.594
 1249SOL     OW 4120   0.685   2.874   2.527
 1249SOL    HW1 4121   0.754   2.858   2.597
 1249SOL    HW2 4122   0.612   2.931   2.565
 1250SOL     OW 4123   0.686   3.023   3.665
 1250SOL    HW1 4124   0.746   3.102   3.679
 1250SOL    HW2 4125   0.600   3.054   3.624
 1251SOL     OW 4126   0.335   3.297   2.923
 1251SOL    HW1 4127   0.257   3.266   2.870
 1251SOL    HW2 4128   0.393   3.355   2.866
 1252SOL     OW 4129   1.460   3.367   3.201
 1252SOL    HW1 4130   1.484   3.461   3.227
 1252SOL    HW2 4131   1.444   3.313   3.283
 1253SOL     OW 4132   0.438   2.254   3.361
 1253SOL    HW1 4133   0.520   2.198   3.370
 1253SOL    HW2 4134   0.357   2.196   3.365
 1254SOL     OW 4135   1.603   2.309   2.599
 1254SOL    HW1 4136   1.529   2.355   2.549
 1254SOL    HW2 4137   1.654   2.377   2.652
 1255SOL     OW 4138   0.231   3.575   2.345
 1255SOL    HW1 4139   0.265   3.652   2.399
 1255SOL    HW2 4140   0.275   3.575   2.255
 1256SOL     OW 4141   1.127   3.203   3.552
 1256SOL    HW1 4142   1.174   3.203   3.640
 1256SOL    HW2 4143   1.079   3.116   3.541
 1257SOL     OW 4144   0.230   3.296   2.400
 1257SOL    HW1 4145   0.204   3.392   2.400
 1257SOL    HW2 4146   0.159   3.242   2.445
 1258SOL     OW 4147   0.240   2.953   2.748
 1258SOL    HW1 4148   0.254   2.869   2.800
 1258SOL    HW2 4149   0.185   3.017   2.803
 1259SOL     OW 4150   0.620   3.648   3.301
 1259SOL    HW1 4151   0.528   3.631   3.336
 1259SOL    HW2 4152   0.648   3.740   3.327
 1260SOL     OW 4153   0.606   2.826   1.985
 1260SOL    HW1 4154   0.613   2.910   1.931
 1260SOL    HW2 4155   0.652   2.839   2.073
 1261SOL     OW 4156   1.594   1.976   3.342
 1261SOL    HW1 4157   1.576   2.043   3.270
 1261SOL    HW2 4158   1.591   2.022   3.431
 1262SOL     OW 4159   0.122   2.505   2.425
 1262SOL    HW1 4160   0.077   2.417   2.442
 1262SOL    HW2 4161   0.121   2.559   2.509
 1263SOL     OW 4162   1.842   3.629   2.221
 1263SOL    HW1 4163   1.896   3.600   2.301
 1263SOL    HW2 4164   1.872   3.719   2.192
 1264SOL     OW 4165   0.027   3.458   1.979
 1264SOL    HW1 4166   0.008   3.362   2.000
 1264SOL    HW2 4167  -0.006   3.516   2.054
 1265SOL     OW 4168   1.689   2.784   2.474
 1265SOL    HW1 4169   1.784   2.755   2.482
 1265SOL    HW2 4170   1.681   2.849   2.399
 1266SOL     OW 4171   1.641   2.970   2.294
 1266SOL    HW1 4172   1.727   2.972   2.242
 1266SOL    HW2 4173   1.655   3.017   2.382
 1267SOL     OW 4174   0.113   2.599   3.459
 1267SOL    HW1 4175   0.201   2.586   3.504
 1267SOL    HW2 4176   0.100   2.696   3.437
 1268SOL     OW 4177   0.613   3.227   2.588
 1268SOL    HW1 4178   0.564   3.140   2.597
 1268SOL    HW2 4179   0.590   3.270   2.501
 1269SOL     OW 4180   1.293   3.090   3.285
 1269SOL    HW1 4181   1.330   3.017   3.227
 1269SOL    HW2 4182   1.345   3.095   3.370
 1270SOL     OW 4183   0.809   1.866   2.364
 1270SOL    HW1 4184   0.849   1.957   2.355
 1270SOL    HW2 4185   0.709   1.874   2.370
 1271SOL     OW 4186   0.197   2.838   3.126
 1271SOL    HW1 4187   0.286   2.793   3.112
 1271SOL    HW2 4188   0.124   2.773   3.107
 1272SOL     OW 4189   1.525   2.861   2.052
 1272SOL    HW1 4190   1.462   2.785   2.065
 1272SOL    HW2 4191   1.573   2.879   2.138
 1273SOL     OW 4192   1.187   3.654   3.478
 1273SOL    HW1 4193   1.211   3.714   3.402
 1273SOL    HW2 4194   1.194   3.559   3.448
 1274SOL     OW 4195   0.317   2.113   3.663
 1274SOL    HW1 4196   0.388   2.184   3.669
 1274SOL    HW2 4197   0.229   2.152   3.691
 1275SOL     OW 4198   1.466   3.279   2.815
 1275SOL    HW1 4199   1.407   3.285   2.895
 1275SOL    HW2 4200   1.451   3.191   2.769
 1276SOL     OW 4201   1.667   3.576   2.434
 1276SOL    HW1 4202   1.626   3.553   2.346
 1276SOL    HW2 4203   1.649   3.502   2.499
 1277SOL     OW 4204   0.598   2.591   2.132
 1277SOL    HW1 4205   0.622   2.660   2.064
 1277SOL    HW2 4206   0.520   2.624   2.186
 1278SOL     OW 4207   1.281   2.207   2.806
 1278SOL    HW1 4208   1.195   2.157   2.793
 1278SOL    HW2 4209   1.343   2.153   2.862
 1279SOL     OW 4210   1.576   3.524   2.169
 1279SOL    HW1 4211   1.665   3.570   2.172
 1279SOL    HW2 4212   1.555   3.500   2.074
 1280SOL     OW 4213   0.807   2.467   3.327
 1280SOL    HW1 4214   0.760   2.464   3.416
 1280SOL    HW2 4215   0.756   2.412   3.261
 1281SOL     OW 4216   1.394   2.331   3.536
 1281SOL    HW1 4217   1.374   2.374   3.624
 1281SOL    HW2 4218   1.472   2.269   3.545
 1282SOL     OW 4219   0.973   2.752   3.434
 1282SOL    HW1 4220   1.019   2.668   3.405
 1282SOL    HW2 4221   0.917   2.786   3.359
 1283SOL     OW 4222   0.991   2.272   3.104
 1283SOL    HW1 4223   0.914   2.306   3.158
 1283SOL    HW2 4224   0.957   2.221   3.025
 1284SOL     OW 4225   1.041   2.563   2.291
 1284SOL    HW1 4226   1.067   2.559   2.387
 1284SOL    HW2 4227   0.956   2.512   2.277
 1285SOL     OW 4228   0.076   2.673   2.651
 1285SOL    HW1 4229   0.175   2.661   2.660
 1285SOL    HW2 4230   0.052   2.768   2.672
 1286SOL     OW 4231   0.130   3.683   3.433
 1286SOL    HW1 4232   0.120   3.668   3.532
 1286SOL    HW2 4233   0.044   3.719   3.397
 1287SOL     OW 4234   0.865   2.210   2.057
 1287SOL    HW1 4235   0.924   2.273   2.008
 1287SOL    HW2 4236   0.884   2.116   2.028
 1288SOL     OW 4237   1.719   2.447   3.693
 1288SOL    HW1 4238   1.693   2.536   3.657
 1288SOL    HW2 4239   1.717   2.379   3.620
 1289SOL     OW 4240   1.362   3.006   2.407
 1289SOL    HW1 4241   1.445   2.977   2.359
 1289SOL    HW2 4242   1.313   3.073   2.351
 1290SOL     OW 4243   0.550   2.058   2.747
 1290SOL    HW1 4244   0.545   2.053   2.847
 1290SOL    HW2 4245   0.552   2.154   2.718
 1291SOL     OW 4246   1.008   3.318   2.339
 1291SOL    HW1 4247   0.962   3.390   2.287
 1291SOL    HW2 4248   1.004   3.338   2.437
 1292SOL     OW 4249   0.351   3.663   2.715
 1292SOL    HW1 4250   0.401   3.577   2.721
 1292SOL    HW2 4251   0.416   3.740   2.712
 1293SOL     OW 4252   1.795   2.928   2.735
 1293SOL    HW1 4253   1.733   2.913   2.659
 1293SOL    HW2 4254   1.743   2.939   2.820
 1294SOL     OW 4255   1.227   3.412   3.368
 1294SOL    HW1 4256   1.233   3.335   3.432
 1294SOL    HW2 4257   1.175   3.386   3.288
 1295SOL     OW 4258   0.321   2.805   2.104
 1295SOL    HW1 4259   0.403   2.844   2.062
 1295SOL    HW2 4260   0.294   2.723   2.055
 1296SOL     OW 4261   1.458   2.597   2.590
 1296SOL    HW1 4262   1.453   2.532   2.665
 1296SOL    HW2 4263   1.538   2.656   2.603
 1297SOL     OW 4264   0.461   3.128   3.589
 1297SOL    HW1 4265   0.411   3.129   3.503
 1297SOL    HW2 4266   0.398   3.110   3.665
 1298SOL     OW 4267   1.111   3.638   2.099
 1298SOL    HW1 4268   1.051   3.576   2.149
 1298SOL    HW2 4269   1.142   3.594   2.014
 1299SOL     OW 4270   0.202   2.147   3.360
 1299SOL    HW1 4271   0.122   2.207   3.347
 1299SOL    HW2 4272   0.192   2.098   3.446
 1300SOL     OW 4273   1.632   3.239   1.943
 1300SOL    HW1 4274   1.600   3.333   1.933
 1300SOL    HW2 4275   1.556   3.176   1.931
 1301SOL     OW 4276   0.464   3.605   2.185
 1301SOL    HW1 4277   0.497   3.644   2.271
 1301SOL    HW2 4278   0.540   3.598   2.120
 1302SOL     OW 4279   1.400   1.969   2.288
 1302SOL    HW1 4280   1.376   1.932   2.198
 1302SOL    HW2 4281   1.499   1.985   2.292
 1303SOL     OW 4282   0.249   3.647   3.103
 1303SOL    HW1 4283   0.306   3.582   3.153
 1303SOL    HW2 4284   0.233   3.614   3.010
 1304SOL     OW 4285   0.940   3.560   2.766
 1304SOL    HW1 4286   1.020   3.503   2.787
 1304SOL    HW2 4287   0.891   3.520   2.689
 1305SOL     OW 4288   0.382   2.562   2.342
 1305SOL    HW1 4289   0.427   2.472   2.339
 1305SOL    HW2 4290   0.288   2.551   2.375
 1306SOL     OW 4291   1.547   2.084   3.591
 1306SOL    HW1 4292   1.542   2.121   3.683
 1306SOL    HW2 4293   1.475   2.015   3.579
 1307SOL     OW 4294   0.614   1.984   1.979
 1307SOL    HW1 4295   0.712   1.962   1.986
 1307SOL    HW2 4296   0.583   1.967   1.886
 1308SOL     OW 4297   0.781   2.126   3.611
 1308SOL    HW1 4298   0.848   2.065   3.654
 1308SOL    HW2 4299   0.708   2.145   3.676
 1309SOL     OW 4300   0.888   3.376   3.057
 1309SOL    HW1 4301   0.865   3.351   2.963
 1309SOL    HW2 4302   0.949   3.307   3.096
 1310SOL     OW 4303   1.351   2.452   3.295
 1310SOL    HW1 4304   1.379   2.409   3.380
 1310SOL    HW2 4305   1.376   2.548   3.296
 1311SOL     OW 4306   0.803   3.264   2.786
 1311SOL    HW1 4307   0.893   3.278   2.744
 1311SOL    HW2 4308   0.732   3.266   2.715
 1312SOL     OW 4309   0.922   2.365   2.761
 1312SOL    HW1 4310   0.897   2.356   2.665
 1312SOL    HW2 4311   0.970   2.283   2.792
 1313SOL     OW 4312   0.539   1.926   2.374
 1313SOL    HW1 4313   0.458   1.927   2.432
 1313SOL    HW2 4314   0.542   2.009   2.319
 1314SOL     OW 4315   1.434   3.050   1.903
 1314SOL    HW1 4316   1.466   2.974   1.960
 1314SOL    HW2 4317   1.342   3.077   1.933
 1315SOL     OW 4318   0.297   1.897   2.033
 1315SOL    HW1 4319   0.346   1.981   2.012
 1315SOL    HW2 4320   0.359   1.832   2.078
 1316SOL     OW 4321   0.935   2.098   2.342
 1316SOL    HW1 4322   0.887   2.139   2.264
 1316SOL    HW2 4323   1.034   2.096   2.323
 1317SOL     OW 4324   1.076   2.545   3.326
 1317SOL    HW1 4325   0.996   2.484   3.329
 1317SOL    HW2 4326   1.157   2.492   3.302
 1318SOL     OW 4327   1.227   3.432   2.655
 1318SOL    HW1 4328   1.248   3.506   2.590
 1318SOL    HW2 4329   1.295   3.432   2.728
 1319SOL     OW 4330   0.459   3.014   2.603
 1319SOL    HW1 4331   0.388   2.987   2.668
 1319SOL    HW2 4332   0.433   2.986   2.510
 1320SOL     OW 4333   1.271   3.659   2.453
 1320SOL    HW1 4334   1.315   3.723   2.389
 1320SOL    HW2 4335   1.221   3.711   2.523
 1321SOL     OW 4336   1.032   2.411   1.878
 1321SOL    HW1 4337   0.991   2.493   1.839
 1321SOL    HW2 4338   1.096   2.437   1.951
 1322SOL     OW 4339   0.078   2.418   3.248
 1322SOL    HW1 4340   0.170   2.417   3.207
 1322SOL    HW2 4341   0.072   2.492   3.315
 1323SOL     OW 4342   0.561   2.084   3.009
 1323SOL    HW1 4343   0.599   2.000   3.046
 1323SOL    HW2 4344   0.473   2.103   3.053
 1324SOL     OW 4345   0.866   2.316   2.504
 1324SOL    HW1 4346   0.834   2.388   2.442
 1324SOL    HW2 4347   0.890   2.235   2.451
 1325SOL     OW 4348   1.017   1.901   2.615
 1325SOL    HW1 4349   0.945   1.906   2.546
 1325SOL    HW2 4350   0.993   1.832   2.684
 1326SOL     OW 4351   1.429   3.035   2.729
 1326SOL    HW1 4352   1.374   2.951   2.722
 1326SOL    HW2 4353   1.455   3.064   2.637
 1327SOL     OW 4354   1.466   2.452   2.854
 1327SOL    HW1 4355   1.436   2.357   2.861
 1327SOL    HW2 4356   1.539   2.468   2.920
 1328SOL     OW 4357   1.857   2.695   2.239
 1328SOL    HW1 4358   1.899   2.631   2.303
 1328SOL    HW2 4359   1.819   2.644   2.161
 1329SOL     OW 4360   0.488   3.247   2.036
 1329SOL    HW1 4361   0.401   3.232   2.083
 1329SOL    HW2 4362   0.471   3.273   1.941
 1330SOL     OW 4363   1.664   3.142   2.519
 1330SOL    HW1 4364   1.763   3.150   2.533
 1330SOL    HW2 4365   1.619   3.226   2.550
 1331SOL     OW 4366   1.390   2.437   1.940
 1331SOL    HW1 4367   1.336   2.416   2.021
 1331SOL    HW2 4368   1.481   2.396   1.949
 1332SOL     OW 4369   0.527   2.118   2.190
 1332SOL    HW1 4370   0.554   2.059   2.115
 1332SOL    HW2 4371   0.527   2.213   2.159
 1333SOL     OW 4372   1.754   3.085   3.450
 1333SOL    HW1 4373   1.845   3.046   3.437
 1333SOL    HW2 4374   1.762   3.181   3.474
 1334SOL     OW 4375   1.064   3.209   3.202
 1334SOL    HW1 4376   0.984   3.186   3.257
 1334SOL    HW2 4377   1.147   3.183   3.251
 1335SOL     OW 4378   1.592   3.491   3.487
 1335SOL    HW1 4379   1.619   3.525   3.397
 1335SOL    HW2 4380   1.671   3.453   3.533
 1336SOL     OW 4381   1.111   3.057   2.962
 1336SOL    HW1 4382   1.071   3.101   3.043
 1336SOL    HW2 4383   1.070   3.094   2.879
 1337SOL     OW 4384   1.638   2.961   2.941
 1337SOL    HW1 4385   1.643   3.042   3.000
 1337SOL    HW2 4386   1.552   2.963   2.890
 1338SOL     OW 4387   0.915   1.951   3.264
 1338SOL    HW1 4388   0.940   1.931   3.169
 1338SOL    HW2 4389   0.987   2.007   3.306
 1339SOL     OW 4390   0.980   2.978   3.581
 1339SOL    HW1 4391   0.881   2.984   3.591
 1339SOL    HW2 4392   1.003   2.898   3.525
 1340SOL     OW 4393   0.705   2.912   2.230
 1340SOL    HW1 4394   0.691   2.919   2.329
 1340SOL    HW2 4395   0.789   2.861   2.212
 1341SOL     OW 4396   0.410   2.675   3.113
 1341SOL    HW1 4397   0.496   2.687   3.163
 1341SOL    HW2 4398   0.368   2.588   3.140
 1342SOL     OW 4399   1.274   2.248   3.124
 1342SOL    HW1 4400   1.295   2.322   3.188
 1342SOL    HW2 4401   1.185   2.265   3.081
 1343SOL     OW 4402   0.064   3.426   3.193
 1343SOL    HW1 4403   0.018   3.508   3.159
 1343SOL    HW2 4404   0.162   3.445   3.202
 1344SOL     OW 4405   0.367   2.962   2.363
 1344SOL    HW1 4406   0.360   3.045   2.307
 1344SOL    HW2 4407   0.371   2.882   2.303
 1345SOL     OW 4408   0.566   2.399   2.727
 1345SOL    HW1 4409   0.578   2.465   2.653
 1345SOL    HW2 4410   0.612   2.433   2.810
 1346SOL     OW 4411   1.252   3.210   2.250
 1346SOL    HW1 4412   1.302   3.287   2.290
 1346SOL    HW2 4413   1.157   3.212   2.282
 1347SOL     OW 4414   1.272   3.307   3.004
 1347SOL    HW1 4415   1.319   3.320   3.091
 1347SOL    HW2 4416   1.206   3.233   3.013
 1348SOL     OW 4417   1.582   2.501   2.334
 1348SOL    HW1 4418   1.551   2.562   2.407
 1348SOL    HW2 4419   1.632   2.553   2.265
 1349SOL     OW 4420   0.354   3.372   3.191
 1349SOL    HW1 4421   0.333   3.328   3.104
 1349SOL    HW2 4422   0.451   3.398   3.194
 1350SOL     OW 4423   0.402   2.613   3.460
 1350SOL    HW1 4424   0.470   2.668   3.413
 1350SOL    HW2 4425   0.442   2.525   3.487
 1351SOL     OW 4426   1.587   2.641   3.532
 1351SOL    HW1 4427   1.495   2.679   3.527
 1351SOL    HW2 4428   1.647   2.688   3.467
 1352SOL     OW 4429   1.013   1.967   3.632
 1352SOL    HW1 4430   1.019   2.052   3.580
 1352SOL    HW2 4431   1.045   1.891   3.575
 1353SOL     OW 4432   0.504   1.912   3.602
 1353SOL    HW1 4433   0.462   1.855   3.532
 1353SOL    HW2 4434   0.438   1.981   3.634
 1354SOL     OW 4435   0.573   2.732   2.891
 1354SOL    HW1 4436   0.617   2.821   2.882
 1354SOL    HW2 4437   0.510   2.732   2.968
 1355SOL     OW 4438   1.360   2.724   2.907
 1355SOL    HW1 4439   1.285   2.724   2.841
 1355SOL    HW2 4440   1.397   2.632   2.916
 1356SOL     OW 4441   1.209   2.387   2.137
 1356SOL    HW1 4442   1.222   2.303   2.191
 1356SOL    HW2 4443   1.180   2.461   2.197
 1357SOL     OW 4444   0.307   2.075   3.093
 1357SOL    HW1 4445   0.284   2.112   3.183
 1357SOL    HW2 4446   0.277   1.980   3.087
 1358SOL     OW 4447   0.037   3.172   3.144
 1358SOL    HW1 4448   0.090   3.123   3.212
 1358SOL    HW2 4449   0.059   3.270   3.149
 1359SOL     OW 4450   0.732   2.496   2.926
 1359SOL    HW1 4451   0.791   2.470   2.850
 1359SOL    HW2 4452   0.704   2.592   2.915
 1360SOL     OW 4453   1.728   2.797   3.716
 1360SOL    HW1 4454   1.682   2.790   3.627
 1360SOL    HW2 4455   1.666   2.841   3.782
 1361SOL     OW 4456   0.307   1.925   2.480
 1361SOL    HW1 4457   0.296   2.019   2.513
 1361SOL    HW2 4458   0.302   1.862   2.557
 1362SOL     OW 4459   1.622   2.229   2.236
 1362SOL    HW1 4460   1.624   2.153   2.300
 1362SOL    HW2 4461   1.574   2.306   2.276
 1363SOL     OW 4462   1.023   2.628   2.828
 1363SOL    HW1 4463   1.038   2.649   2.924
 1363SOL    HW2 4464   0.993   2.533   2.819
 1364SOL     OW 4465   0.980   3.435   3.562
 1364SOL    HW1 4466   0.960   3.479   3.474
 1364SOL    HW2 4467   1.019   3.344   3.546
 1365SOL     OW 4468   1.859   3.380   3.467
 1365SOL    HW1 4469   1.873   3.407   3.372
 1365SOL    HW2 4470   1.942   3.402   3.520
 1366SOL     OW 4471   0.350   2.760   3.666
 1366SOL    HW1 4472   0.426   2.804   3.714
 1366SOL    HW2 4473   0.385   2.713   3.584
 1367SOL     OW 4474   1.540   2.136   1.987
 1367SOL    HW1 4475   1.479   2.061   2.010
 1367SOL    HW2 4476   1.562   2.188   2.070
 1368SOL     OW 4477   1.303   2.700   1.904
 1368SOL    HW1 4478   1.337   2.607   1.919
 1368SOL    HW2 4479   1.321   2.727   1.809
 1369SOL     OW 4480   1.068   3.195   2.711
 1369SOL    HW1 4481   1.075   3.111   2.656
 1369SOL    HW2 4482   1.130   3.264   2.675
 1370SOL     OW 4483   0.319   2.672   2.811
 1370SOL    HW1 4484   0.412   2.708   2.816
 1370SOL    HW2 4485   0.313   2.587   2.863
 1371SOL     OW 4486   0.339   2.371   2.868
 1371SOL    HW1 4487   0.287   2.288   2.851
 1371SOL    HW2 4488   0.416   2.376   2.804
 1372SOL     OW 4489   1.138   2.242   3.540
 1372SOL    HW1 4490   1.093   2.305   3.604
 1372SOL    HW2 4491   1.231   2.273   3.523
 1373SOL     OW 4492   1.160   2.069   3.339
 1373SOL    HW1 4493   1.160   2.133   3.416
 1373SOL    HW2 4494   1.188   2.117   3.256
 1374SOL     OW 4495   0.008   3.188   2.062
 1374SOL    HW1 4496  -0.085   3.209   2.031
 1374SOL    HW2 4497   0.018   3.089   2.075
 1375SOL     OW 4498   0.088   3.663   2.789
 1375SOL    HW1 4499   0.046   3.577   2.762
 1375SOL    HW2 4500   0.182   3.666   2.755
 1376SOL     OW 4501   0.504   3.430   2.772
 1376SOL    HW1 4502   0.570   3.504   2.781
 1376SOL    HW2 4503   0.548   3.351   2.730
 1377SOL     OW 4504   1.002   2.658   3.100
 1377SOL    HW1 4505   1.043   2.626   3.186
 1377SOL    HW2 4506   0.906   2.631   3.097
 1378SOL     OW 4507   0.040   2.406   2.976
 1378SOL    HW1 4508   0.125   2.373   2.935
 1378SOL    HW2 4509   0.053   2.421   3.074
 1379SOL     OW 4510   0.189   2.382   3.584
 1379SOL    HW1 4511   0.248   2.342   3.514
 1379SOL    HW2 4512   0.131   2.453   3.543
 1380SOL     OW 4513   1.369   2.812   3.522
 1380SOL    HW1 4514   1.408   2.901   3.542
 1380SOL    HW2 4515   1.379   2.792   3.425
 1381SOL     OW 4516   0.815   2.434   2.187
 1381SOL    HW1 4517   0.822   2.345   2.141
 1381SOL    HW2 4518   0.721   2.468   2.179
 1382SOL     OW 4519   1.657   2.466   3.068
 1382SOL    HW1 4520   1.619   2.397   3.130
 1382SOL    HW2 4521   1.739   2.430   3.024
 1383SOL     OW 4522   0.252   3.426   3.606
 1383SOL    HW1 4523   0.222   3.483   3.682
 1383SOL    HW2 4524   0.245   3.329   3.632
 1384SOL     OW 4525   0.671   2.326   3.131
 1384SOL    HW1 4526   0.637   2.237   3.101
 1384SOL    HW2 4527   0.697   2.380   3.051
 1385SOL     OW 4528   0.930   3.540   3.327
 1385SOL    HW1 4529   0.906   3.522   3.232
 1385SOL    HW2 4530   0.960   3.634   3.337
 1386SOL     OW 4531   0.473   2.362   2.053
 1386SOL    HW1 4532   0.534   2.442   2.057
 1386SOL    HW2 4533   0.378   2.393   2.060
 1387SOL     OW 4534   0.159   2.999   3.328
 1387SOL    HW1 4535   0.181   2.938   3.404
 1387SOL    HW2 4536   0.169   2.950   3.242
 1388SOL     OW 4537   1.347   2.921   3.096
 1388SOL    HW1 4538   1.371   2.858   3.022
 1388SOL    HW2 4539   1.257   2.961   3.078
 1389SOL     OW 4540   1.302   2.717   2.171
 1389SOL    HW1 4541   1.216   2.686   2.213
 1389SOL    HW2 4542   1.298   2.703   2.072
 1390SOL     OW 4543   1.759   3.609   3.016
 1390SOL    HW1 4544   1.820   3.639   2.943
 1390SOL    HW2 4545   1.721   3.520   2.994
 1391SOL     OW 4546   1.252   3.593   2.990
 1391SOL    HW1 4547   1.336   3.598   2.936
 1391SOL    HW2 4548   1.229   3.497   3.008
 1392SOL     OW 4549   0.083   3.120   2.884
 1392SOL    HW1 4550   0.078   3.119   2.984
 1392SOL    HW2 4551   0.000   3.079   2.846
 1393SOL     OW 4552   0.688   3.524   3.578
 1393SOL    HW1 4553   0.632   3.605   3.587
 1393SOL    HW2 4554   0.740   3.528   3.492
 1394SOL     OW 4555   1.726   1.997   2.385
 1394SOL    HW1 4556   1.799   1.980   2.318
 1394SOL    HW2 4557   1.695   1.910   2.423
 1395SOL     OW 4558   1.388   3.435   2.339
 1395SOL    HW1 4559   1.455   3.447   2.265
 1395SOL    HW2 4560   1.348   3.524   2.362
 1396SOL     OW 4561   0.130   3.656   3.713
 1396SOL    HW1 4562   0.089   3.582   3.766
 1396SOL    HW2 4563   0.194   3.707   3.771
 1397SOL     OW 4564   1.280   2.789   2.534
 1397SOL    HW1 4565   1.340   2.708   2.536
 1397SOL    HW2 4566   1.320   2.858   2.474
 1398SOL     OW 4567   0.830   3.135   3.284
 1398SOL    HW1 4568   0.825   3.168   3.379
 1398SOL    HW2 4569   0.744   3.154   3.238
 1399SOL     OW 4570   0.672   3.478   2.016
 1399SOL    HW1 4571   0.681   3.488   1.917
 1399SOL    HW2 4572   0.632   3.389   2.037
 1400SOL     OW 4573   1.650   3.582   3.256
 1400SOL    HW1 4574   1.703   3.592   3.172
 1400SOL    HW2 4575   1.623   3.672   3.290
 1401SOL     OW 4576   1.841   2.037   2.825
 1401SOL    HW1 4577   1.880   1.952   2.789
 1401SOL    HW2 4578   1.743   2.039   2.806
 1402SOL     OW 4579   0.263   2.188   2.582
 1402SOL    HW1 4580   0.184   2.239   2.548
 1402SOL    HW2 4581   0.254   2.173   2.680
 1403SOL     OW 4582   1.194   3.474   1.893
 1403SOL    HW1 4583   1.200   3.381   1.930
 1403SOL    HW2 4584   1.135   3.474   1.813
 1404SOL     OW 4585   0.822   2.864   3.234
 1404SOL    HW1 4586   0.862   2.863   3.142
 1404SOL    HW2 4587   0.832   2.956   3.274
 1405SOL     OW 4588   0.916   2.772   2.153
 1405SOL    HW1 4589   0.979   2.810   2.085
 1405SOL    HW2 4590   0.956   2.689   2.192
 1406SOL     OW 4591   1.504   3.469   1.906
 1406SOL    HW1 4592   1.412   3.506   1.913
 1406SOL    HW2 4593   1.542   3.489   1.816
 1407SOL     OW 4594   0.372   3.150   3.352
 1407SOL    HW1 4595   0.359   3.243   3.318
 1407SOL    HW2 4596   0.288   3.098   3.339
 1408SOL     OW 4597   1.614   3.154   3.151
 1408SOL    HW1 4598   1.674   3.157   3.231
 1408SOL    HW2 4599   1.539   3.218   3.164
 1409SOL     OW 4600   1.039   2.960   2.558
 1409SOL    HW1 4601   0.969   2.913   2.612
 1409SOL    HW2 4602   1.098   2.892   2.515
 1410SOL     OW 4603   1.014   2.098   2.833
 1410SOL    HW1 4604   1.006   2.062   2.740
 1410SOL    HW2 4605   1.012   2.022   2.898
 1411SOL     OW 4606   0.590   3.349   2.353
 1411SOL    HW1 4607   0.632   3.291   2.283
 1411SOL    HW2 4608   0.546   3.428   2.309
 1412SOL     OW 4609   1.709   2.247   3.243
 1412SOL    HW1 4610   1.782   2.316   3.247
 1412SOL    HW2 4611   1.737   2.172   3.184
 1413SOL     OW 4612   0.255   3.210   2.152
 1413SOL    HW1 4613   0.159   3.211   2.125
 1413SOL    HW2 4614   0.267   3.263   2.236
 1414SOL     OW 4615   0.105   2.875   3.588
 1414SOL    HW1 4616   0.028   2.842   3.642
 1414SOL    HW2 4617   0.190   2.845   3.630
 1415SOL     OW 4618   0.672   2.065   3.351
 1415SOL    HW1 4619   0.762   2.049   3.311
 1415SOL    HW2 4620   0.680   2.070   3.450
 1416SOL     OW 4621   0.075   2.207   1.895
 1416SOL    HW1 4622  -0.017   2.179   1.866
 1416SOL    HW2 4623   0.106   2.284   1.839
 1417SOL     OW 4624   1.440   2.718   3.260
 1417SOL    HW1 4625   1.383   2.770   3.197
 1417SOL    HW2 4626   1.536   2.730   3.236
 1418SOL     OW 4627   0.072   2.028   2.180
 1418SOL    HW1 4628   0.055   2.111   2.126
 1418SOL    HW2 4629   0.162   1.991   2.158
 1419SOL     OW 4630   1.183   3.197   1.981
 1419SOL    HW1 4631   1.084   3.186   1.983
 1419SOL    HW2 4632   1.217   3.212   2.074
 1420SOL     OW 4633   0.613   2.704   3.293
 1420SOL    HW1 4634   0.669   2.785   3.276
 1420SOL    HW2 4635   0.672   2.624   3.296
 1421SOL     OW 4636   1.493   3.629   2.821
 1421SOL    HW1 4637   1.526   3.693   2.752
 1421SOL    HW2 4638   1.559   3.623   2.896
 1422SOL     OW 4639   0.716   2.427   3.570
 1422SOL    HW1 4640   0.735   2.492   3.644
 1422SOL    HW2 4641   0.776   2.347   3.579
 1423SOL     OW 4642   1.450   3.082   3.495
 1423SOL    HW1 4643   1.441   3.072   3.594
 1423SOL    HW2 4644   1.546   3.075   3.469
 1424SOL     OW 4645   0.390   3.603   3.422
 1424SOL    HW1 4646   0.299   3.644   3.420
 1424SOL    HW2 4647   0.383   3.509   3.454
 1425SOL     OW 4648   1.674   2.745   3.116
 1425SOL    HW1 4649   1.647   2.656   3.079
 1425SOL    HW2 4650   1.675   2.813   3.043
 1426SOL     OW 4651   1.225   2.187   2.311
 1426SOL    HW1 4652   1.290   2.113   2.300
 1426SOL    HW2 4653   1.245   2.237   2.395
 1427SOL     OW 4654   0.594   2.607   2.514
 1427SOL    HW1 4655   0.644   2.692   2.495
 1427SOL    HW2 4656   0.506   2.609   2.466
 1428SOL     OW 4657   1.777   2.204   3.504
 1428SOL    HW1 4658   1.760   2.235   3.410
 1428SOL    HW2 4659   1.693   2.167   3.542
 1429SOL     OW 4660   1.730   2.796   3.379
 1429SOL    HW1 4661   1.768   2.887   3.394
 1429SOL    HW2 4662   1.722   2.779   3.280
 1430SOL     OW 4663   0.859   3.236   1.878
 1430SOL    HW1 4664   0.813   3.251   1.966
 1430SOL    HW2 4665   0.903   3.321   1.848
 1431SOL     OW 4666   0.661   3.652   2.815
 1431SOL    HW1 4667   0.615   3.740   2.802
 1431SOL    HW2 4668   0.760   3.664   2.808
 1432SOL     OW 4669   0.859   2.818   2.723
 1432SOL    HW1 4670   0.913   2.749   2.771
 1432SOL    HW2 4671   0.827   2.887   2.789
 1433SOL     OW 4672   1.083   2.846   1.949
 1433SOL    HW1 4673   1.060   2.899   1.867
 1433SOL    HW2 4674   1.164   2.790   1.930
 1434SOL     OW 4675   1.861   3.431   2.713
 1434SOL    HW1 4676   1.790   3.419   2.643
 1434SOL    HW2 4677   1.862   3.352   2.773
 1435SOL     OW 4678   0.221   3.176   3.706
 1435SOL    HW1 4679   0.156   3.103   3.685
 1435SOL    HW2 4680   0.225   3.190   3.804
 1436SOL     OW 4681   0.079   3.102   2.515
 1436SOL    HW1 4682   0.078   3.055   2.603
 1436SOL    HW2 4683   0.161   3.074   2.464
 1437SOL     OW 4684   0.672   3.253   3.486
 1437SOL    HW1 4685   0.594   3.203   3.524
 1437SOL    HW2 4686   0.669   3.348   3.517
 1438SOL     OW 4687   1.824   2.054   3.089
 1438SOL    HW1 4688   1.820   1.964   3.133
 1438SOL    HW2 4689   1.827   2.043   2.990
 1439SOL     OW 4690   0.428   2.286   2.382
 1439SOL    HW1 4691   0.458   2.214   2.320
 1439SOL    HW2 4692   0.389   2.246   2.465
 1440SOL     OW 4693   1.705   3.349   2.966
 1440SOL    HW1 4694   1.612   3.324   2.939
 1440SOL    HW2 4695   1.731   3.299   3.048
 1441SOL     OW 4696   0.317   2.409   3.142
 1441SOL    HW1 4697   0.355   2.350   3.214
 1441SOL    HW2 4698   0.357   2.383   3.054
 1442SOL     OW 4699   0.812   3.448   2.549
 1442SOL    HW1 4700   0.844   3.458   2.455
 1442SOL    HW2 4701   0.733   3.386   2.551
 1443SOL     OW 4702   1.424   2.076   2.974
 1443SOL    HW1 4703   1.476   2.011   3.029
 1443SOL    HW2 4704   1.375   2.139   3.035
 1444SOL     OW 4705   1.001   1.896   3.016
 1444SOL    HW1 4706   0.938   1.824   2.985
 1444SOL    HW2 4707   1.094   1.860   3.016
 1445SOL     OW 4708   0.770   3.192   2.163
 1445SOL    HW1 4709   0.724   3.105   2.180
 1445SOL    HW2 4710   0.861   3.189   2.204
 1446SOL     OW 4711   0.618   3.429   3.146
 1446SOL    HW1 4712   0.613   3.511   3.203
 1446SOL    HW2 4713   0.707   3.426   3.101
 1447SOL     OW 4714   1.352   1.914   2.030
 1447SOL    HW1 4715   1.387   1.873   1.946
 1447SOL    HW2 4716   1.262   1.876   2.050
 1448SOL     OW 4717   1.300   2.315   2.553
 1448SOL    HW1 4718   1.241   2.395   2.557
 1448SOL    HW2 4719   1.315   2.280   2.646
 1449SOL     OW 4720   1.593   2.083   2.744
 1449SOL    HW1 4721   1.509   2.082   2.798
 1449SOL    HW2 4722   1.595   2.166   2.688
 1450SOL     OW 4723   0.039   2.939   2.162
 1450SOL    HW1 4724   0.138   2.928   2.153
 1450SOL    HW2 4725  -0.001   2.853   2.194
 1451SOL     OW 4726   0.875   3.508   2.199
 1451SOL    HW1 4727   0.798   3.473   2.145
 1451SOL    HW2 4728   0.843   3.579   2.261
 1452SOL     OW 4729   0.230   2.490   3.837
 1452SOL    HW1 4730   0.137   2.488   3.874
 1452SOL    HW2 4731   0.231   2.451   3.745
 1453SOL     OW 4732   0.225   2.137   4.720
 1453SOL    HW1 4733   0.260   2.120   4.812
 1453SOL    HW2 4734   0.137   2.092   4.708
 1454SOL     OW 4735   0.019   2.230   4.371
 1454SOL    HW1 4736  -0.063   2.273   4.410
 1454SOL    HW2 4737  -0.009   2.157   4.308
 1455SOL     OW 4738   0.569   3.137   4.889
 1455SOL    HW1 4739   0.476   3.130   4.852
 1455SOL    HW2 4740   0.580   3.226   4.933
 1456SOL     OW 4741   1.555   3.373   4.427
 1456SOL    HW1 4742   1.498   3.357   4.508
 1456SOL    HW2 4743   1.496   3.383   4.347
 1457SOL     OW 4744   1.135   2.565   4.441
 1457SOL    HW1 4745   1.192   2.643   4.416
 1457SOL    HW2 4746   1.075   2.591   4.517
 1458SOL     OW 4747   1.755   2.469   3.955
 1458SOL    HW1 4748   1.743   2.456   3.856
 1458SOL    HW2 4749   1.725   2.388   4.004
 1459SOL     OW 4750   0.768   3.006   4.747
 1459SOL    HW1 4751   0.690   3.023   4.807
 1459SOL    HW2 4752   0.802   3.093   4.711
 1460SOL     OW 4753   0.850   2.660   5.547
 1460SOL    HW1 4754   0.846   2.736   5.612
 1460SOL    HW2 4755   0.872   2.696   5.456
 1461SOL     OW 4756   0.685   2.874   4.389
 1461SOL    HW1 4757   0.754   2.858   4.459
 1461SOL    HW2 4758   0.612   2.931   4.427
 1462SOL     OW 4759   0.686   3.023   5.527
 1462SOL    HW1 4760   0.746   3.102   5.541
 1462SOL    HW2 4761   0.600   3.054   5.486
 1463SOL     OW 4762   0.335   3.297   4.785
 1463SOL    HW1 4763   0.257   3.266   4.732
 1463SOL    HW2 4764   0.393   3.355   4.728
 1464SOL     OW 4765   1.460   3.367   5.063
 1464SOL    HW1 4766   1.484   3.461   5.089
 1464SOL    HW2 4767   1.444   3.313   5.145
 1465SOL     OW 4768   0.438   2.254   5.223
 1465SOL    HW1 4769   0.520   2.198   5.232
 1465SOL    HW2 4770   0.357   2.196   5.227
 1466SOL     OW 4771   0.231   3.575   4.207
 1466SOL    HW1 4772   0.265   3.652   4.261
 1466SOL    HW2 4773   0.275   3.575   4.117
 1467SOL     OW 4774   1.127   3.203   5.414
 1467SOL    HW1 4775   1.174   3.203   5.502
 1467SOL    HW2 4776   1.079   3.116   5.403
 1468SOL     OW 4777   0.230   3.296   4.262
 1468SOL    HW1 4778   0.204   3.392   4.262
 1468SOL    HW2 4779   0.159   3.242   4.307
 1469SOL     OW 4780   0.240   2.953   4.610
 1469SOL    HW1 4781   0.254   2.869   4.662
 1469SOL    HW2 4782   0.185   3.017   4.665
 1470SOL     OW 4783   0.620   3.648   5.163
 1470SOL    HW1 4784   0.528   3.631   5.198
 1470SOL    HW2 4785   0.648   3.740   5.189
 1471SOL     OW 4786   0.606   2.826   3.847
 1471SOL    HW1 4787   0.613   2.910   3.793
 1471SOL    HW2 4788   0.652   2.839   3.935
 1472SOL     OW 4789   1.594   1.976   5.204
 1472SOL    HW1 4790   1.576   2.043   5.132
 1472SOL    HW2 4791   1.591   2.022   5.293
 1473SOL     OW 4792   0.122   2.505   4.287
 1473SOL    HW1 4793   0.077   2.417   4.304
 1473SOL    HW2 4794   0.121   2.559   4.371
 1474SOL     OW 4795   1.842   3.629   4.083
 1474SOL    HW1 4796   1.896   3.600   4.163
 1474SOL    HW2 4797   1.872   3.719   4.054
 1475SOL     OW 4798   0.027   3.458   3.841
 1475SOL    HW1 4799   0.008   3.362   3.862
 1475SOL    HW2 4800  -0.006   3.516   3.916
 1476SOL     OW 4801   1.641   2.970   4.156
 1476SOL    HW1 4802   1.727   2.972   4.104
 1476SOL    HW2 4803   1.655   3.017   4.244
 1477SOL     OW 4804   0.113   2.599   5.321
 1477SOL    HW1 4805   0.201   2.586   5.366
 1477SOL    HW2 4806   0.100   2.696   5.299
 1478SOL     OW 4807   0.613   3.227   4.450
 1478SOL    HW1 4808   0.564   3.140   4.459
 1478SOL    HW2 4809   0.590   3.270   4.363
 1479SOL     OW 4810   1.293   3.090   5.147
 1479SOL    HW1 4811   1.330   3.017   5.089
 1479SOL    HW2 4812   1.345   3.095   5.232
 1480SOL     OW 4813   0.809   1.866   4.226
 1480SOL    HW1 4814   0.849   1.957   4.217
 1480SOL    HW2 4815   0.709   1.874   4.232
 1481SOL     OW 4816   0.197   2.838   4.988
 1481SOL    HW1 4817   0.286   2.793   4.974
 1481SOL    HW2 4818   0.124   2.773   4.969
 1482SOL     OW 4819   1.525   2.861   3.914
 1482SOL    HW1 4820   1.462   2.785   3.927
 1482SOL    HW2 4821   1.573   2.879   4.000
 1483SOL     OW 4822   1.187   3.654   5.340
 1483SOL    HW1 4823   1.211   3.714   5.264
 1483SOL    HW2 4824   1.194   3.559   5.310
 1484SOL     OW 4825   0.317   2.113   5.525
 1484SOL    HW1 4826   0.388   2.184   5.531
 1484SOL    HW2 4827   0.229   2.152   5.553
 1485SOL     OW 4828   1.466   3.279   4.677
 1485SOL    HW1 4829   1.407   3.285   4.757
 1485SOL    HW2 4830   1.451   3.191   4.631
 1486SOL     OW 4831   1.667   3.576   4.296
 1486SOL    HW1 4832   1.626   3.553   4.208
 1486SOL    HW2 4833   1.649   3.502   4.361
 1487SOL     OW 4834   0.598   2.591   3.994
 1487SOL    HW1 4835   0.622   2.660   3.926
 1487SOL    HW2 4836   0.520   2.624   4.048
 1488SOL     OW 4837   1.281   2.207   4.668
 1488SOL    HW1 4838   1.195   2.157   4.655
 1488SOL    HW2 4839   1.343   2.153   4.724
 1489SOL     OW 4840   1.576   3.524   4.031
 1489SOL    HW1 4841   1.665   3.570   4.034
 1489SOL    HW2 4842   1.555   3.500   3.936
 1490SOL     OW 4843   0.807   2.467   5.189
 1490SOL    HW1 4844   0.760   2.464   5.278
 1490SOL    HW2 4845   0.756   2.412   5.123
 1491SOL     OW 4846   1.394   2.331   5.398
 1491SOL    HW1 4847   1.374   2.374   5.486
 1491SOL    HW2 4848   1.472   2.269   5.407
 1492SOL     OW 4849   0.973   2.752   5.296
 1492SOL    HW1 4850   1.019   2.668   5.267
 1492SOL    HW2 4851   0.917   2.786   5.221
 1493SOL     OW 4852   0.991   2.272   4.966
 1493SOL    HW1 4853   0.914   2.306   5.020
 1493SOL    HW2 4854   0.957   2.221   4.887
 1494SOL     OW 4855   1.041   2.563   4.153
 1494SOL    HW1 4856   1.067   2.559   4.249
 1494SOL    HW2 4857   0.956   2.512   4.139
 1495SOL     OW 4858   0.076   2.673   4.513
 1495SOL    HW1 4859   0.175   2.661   4.522
 1495SOL    HW2 4860   0.052   2.768   4.534
 1496SOL     OW 4861   0.130   3.683   5.295
 1496SOL    HW1 4862   0.120   3.668   5.394
 1496SOL    HW2 4863   0.044   3.719   5.259
 1497SOL     OW 4864   0.865   2.210   3.919
 1497SOL    HW1 4865   0.924   2.273   3.870
 1497SOL    HW2 4866   0.884   2.116   3.890
 1498SOL     OW 4867   1.719   2.447   5.555
 1498SOL    HW1 4868   1.693   2.536   5.519
 1498SOL    HW2 4869   1.717   2.379   5.482
 1499SOL     OW 4870   1.362   3.006   4.269
 1499SOL    HW1 4871   1.445   2.977   4.221
 1499SOL    HW2 4872   1.313   3.073   4.213
 1500SOL     OW 4873   0.550   2.058   4.609
 1500SOL    HW1 4874   0.545   2.053   4.709
 1500SOL    HW2 4875   0.552   2.154   4.580
 1501SOL     OW 4876   1.008   3.318   4.201
 1501SOL    HW1 4877   0.962   3.390   4.149
 1501SOL    HW2 4878   1.004   3.338   4.299
 1502SOL     OW 4879   0.351   3.663   4.577
 1502SOL    HW1 4880   0.401   3.577   4.583
 1502SOL    HW2 4881   0.416   3.740   4.574
 1503SOL     OW 4882   1.795   2.928   4.597
 1503SOL    HW1 4883   1.733   2.913   4.521
 1503SOL    HW2 4884   1.743   2.939   4.682
 1504SOL     OW 4885   1.227   3.412   5.230
 1504SOL    HW1 4886   1.233   3.335   5.294
 1504SOL    HW2 4887   1.175   3.386   5.150
 1505SOL     OW 4888   0.321   2.805   3.966
 1505SOL    HW1 4889   0.403   2.844   3.924
 1505SOL    HW2 4890   0.294   2.723   3.917
 1506SOL     OW 4891   1.458   2.597   4.452
 1506SOL    HW1 4892   1.453   2.532   4.527
 1506SOL    HW2 4893   1.538   2.656   4.465
 1507SOL     OW 4894   0.461   3.128   5.451
 1507SOL    HW1 4895   0.411   3.129   5.365
 1507SOL    HW2 4896   0.398   3.110   5.527
 1508SOL     OW 4897   1.111   3.638   3.961
 1508SOL    HW1 4898   1.051   3.576   4.011
 1508SOL    HW2 4899   1.142   3.594   3.876
 1509SOL     OW 4900   0.202   2.147   5.222
 1509SOL    HW1 4901   0.122   2.207   5.209
 1509SOL    HW2 4902   0.192   2.098   5.308
 1510SOL     OW 4903   1.632   3.239   3.805
 1510SOL    HW1 4904   1.600   3.333   3.795
 1510SOL    HW2 4905   1.556   3.176   3.793
 1511SOL     OW 4906   0.464   3.605   4.047
 1511SOL    HW1 4907   0.497   3.644   4.133
 1511SOL    HW2 4908   0.540   3.598   3.982
 1512SOL     OW 4909   1.400   1.969   4.150
 1512SOL    HW1 4910   1.376   1.932   4.060
 1512SOL    HW2 4911   1.499   1.985   4.154
 1513SOL     OW 4912   0.249   3.647   4.965
 1513SOL    HW1 4913   0.306   3.582   5.015
 1513SOL    HW2 4914   0.233   3.614   4.872
 1514SOL     OW 4915   0.940   3.560   4.628
 1514SOL    HW1 4916   1.020   3.503   4.649
 1514SOL    HW2 4917   0.891   3.520   4.551
 1515SOL     OW 4918   0.382   2.562   4.204
 1515SOL    HW1 4919   0.427   2.472   4.201
 1515SOL    HW2 4920   0.288   2.551   4.237
 1516SOL     OW 4921   1.547   2.084   5.453
 1516SOL    HW1 4922   1.542   2.121   5.545
 1516SOL    HW2 4923   1.475   2.015   5.441
 1517SOL     OW 4924   0.614   1.984   3.841
 1517SOL    HW1 4925   0.712   1.962   3.848
 1517SOL    HW2 4926   0.583   1.967   3.748
 1518SOL     OW 4927   0.781   2.126   5.473
 1518SOL    HW1 4928   0.848   2.065   5.516
 1518SOL    HW2 4929   0.708   2.145   5.538
 1519SOL     OW 4930   0.888   3.376   4.919
 1519SOL    HW1 4931   0.865   3.351   4.825
 1519SOL    HW2 4932   0.949   3.307   4.958
 1520SOL     OW 4933   1.351   2.452   5.157
 1520SOL    HW1 4934   1.379   2.409   5.242
 1520SOL    HW2 4935   1.376   2.548   5.158
 1521SOL     OW 4936   0.803   3.264   4.648
 1521SOL    HW1 4937   0.893   3.278   4.606
 1521SOL    HW2 4938   0.732   3.266   4.577
 1522SOL     OW 4939   0.922   2.365   4.623
 1522SOL    HW1 4940   0.897   2.356   4.527
 1522SOL    HW2 4941   0.970   2.283   4.654
 1523SOL     OW 4942   0.539   1.926   4.236
 1523SOL    HW1 4943   0.458   1.927   4.294
 1523SOL    HW2 4944   0.542   2.009   4.181
 1524SOL     OW 4945   1.434   3.050   3.765
 1524SOL    HW1 4946   1.466   2.974   3.822
 1524SOL    HW2 4947   1.342   3.077   3.795
 1525SOL     OW 4948   0.297   1.897   3.895
 1525SOL    HW1 4949   0.346   1.981   3.874
 1525SOL    HW2 4950   0.359   1.832   3.940
 1526SOL     OW 4951   0.935   2.098   4.204
 1526SOL    HW1 4952   0.887   2.139   4.126
 1526SOL    HW2 4953   1.034   2.096   4.185
 1527SOL     OW 4954   1.076   2.545   5.188
 1527SOL    HW1 4955   0.996   2.484   5.191
 1527SOL    HW2 4956   1.157   2.492   5.164
 1528SOL     OW 4957   1.227   3.432   4.517
 1528SOL    HW1 4958   1.248   3.506   4.452
 1528SOL    HW2 4959   1.295   3.432   4.590
 1529SOL     OW 4960   0.459   3.014   4.465
 1529SOL    HW1 4961   0.388   2.987   4.530
 1529SOL    HW2 4962   0.433   2.986   4.372
 1530SOL     OW 4963   1.271   3.659   4.315
 1530SOL    HW1 4964   1.315   3.723   4.251
 1530SOL    HW2 4965   1.221   3.711   4.385
 1531SOL     OW 4966   1.032   2.411   3.740
 1531SOL    HW1 4967   0.991   2.493   3.701
 1531SOL    HW2 4968   1.096   2.437   3.813
 1532SOL     OW 4969   0.078   2.418   5.110
 1532SOL    HW1 4970   0.170   2.417   5.069
 1532SOL    HW2 4971   0.072   2.492   5.177
 1533SOL     OW 4972   0.561   2.084   4.871
 1533SOL    HW1 4973   0.599   2.000   4.908
 1533SOL    HW2 4974   0.473   2.103   4.915
 1534SOL     OW 4975   0.866   2.316   4.366
 1534SOL    HW1 4976   0.834   2.388   4.304
 1534SOL    HW2 4977   0.890   2.235   4.313
 1535SOL     OW 4978   1.017   1.901   4.477
 1535SOL    HW1 4979   0.945   1.906   4.408
 1535SOL    HW2 4980   0.993   1.832   4.546
 1536SOL     OW 4981   1.429   3.035   4.591
 1536SOL    HW1 4982   1.374   2.951   4.584
 1536SOL    HW2 4983   1.455   3.064   4.499
 1537SOL     OW 4984   1.466   2.452   4.716
 1537SOL    HW1 4985   1.436   2.357   4.723
 1537SOL    HW2 4986   1.539   2.468   4.782
 1538SOL     OW 4987   0.488   3.247   3.898
 1538SOL    HW1 4988   0.401   3.232   3.945
 1538SOL    HW2 4989   0.471   3.273   3.803
 1539SOL     OW 4990   1.664   3.142   4.381
 1539SOL    HW1 4991   1.763   3.150   4.395
 1539SOL    HW2 4992   1.619   3.226   4.412
 1540SOL     OW 4993   1.390   2.437   3.802
 1540SOL    HW1 4994   1.336   2.416   3.883
 1540SOL    HW2 4995   1.481   2.396   3.811
 1541SOL     OW 4996   0.527   2.118   4.052
 1541SOL    HW1 4997   0.554   2.059   3.977
 1541SOL    HW2 4998   0.527   2.213   4.021
 1542SOL     OW 4999   1.754   3.085   5.312
 1542SOL    HW1 5000   1.845   3.046   5.299
 1542SOL    HW2 5001   1.762   3.181   5.336
 1543SOL     OW 5002   1.064   3.209   5.064
 1543SOL    HW1 5003   0.984   3.186   5.119
 1543SOL    HW2 5004   1.147   3.183   5.113
 1544SOL     OW 5005   1.592   3.491   5.349
 1544SOL    HW1 5006   1.619   3.525   5.259
 1544SOL    HW2 5007   1.671   3.453   5.395
 1545SOL     OW 5008   1.111   3.057   4.824
 1545SOL    HW1 5009   1.071   3.101   4.905
 1545SOL    HW2 5010   1.070   3.094   4.741
 1546SOL     OW 5011   1.638   2.961   4.803
 1546SOL    HW1 5012   1.643   3.042   4.862
 1546SOL    HW2 5013   1.552   2.963   4.752
 1547SOL     OW 5014   0.915   1.951   5.126
 1547SOL    HW1 5015   0.940   1.931   5.031
 1547SOL    HW2 5016   0.987   2.007   5.168
 1548SOL     OW 5017   0.980   2.978   5.443
 1548SOL    HW1 5018   0.881   2.984   5.453
 1548SOL    HW2 5019   1.003   2.898   5.387
 1549SOL     OW 5020   0.705   2.912   4.092
 1549SOL    HW1 5021   0.691   2.919   4.191
 1549SOL    HW2 5022   0.789   2.861   4.074
 1550SOL     OW 5023   0.410   2.675   4.975
 1550SOL    HW1 5024   0.496   2.687   5.025
 1550SOL    HW2 5025   0.368   2.588   5.002
 1551SOL     OW 5026   1.274   2.248   4.986
 1551SOL    HW1 5027   1.295   2.322   5.050
 1551SOL    HW2 5028   1.185   2.265   4.943
 1552SOL     OW 5029   0.064   3.426   5.055
 1552SOL    HW1 5030   0.018   3.508   5.021
 1552SOL    HW2 5031   0.162   3.445   5.064
 1553SOL     OW 5032   0.367   2.962   4.225
 1553SOL    HW1 5033   0.360   3.045   4.169
 1553SOL    HW2 5034   0.371   2.882   4.165
 1554SOL     OW 5035   0.566   2.399   4.589
 1554SOL    HW1 5036   0.578   2.465   4.515
 1554SOL    HW2 5037   0.612   2.433   4.672
 1555SOL     OW 5038   1.252   3.210   4.112
 1555SOL    HW1 5039   1.302   3.287   4.152
 1555SOL    HW2 5040   1.157   3.212   4.144
 1556SOL     OW 5041   1.272   3.307   4.866
 1556SOL    HW1 5042   1.319   3.320   4.953
 1556SOL    HW2 5043   1.206   3.233   4.875
 1557SOL     OW 5044   1.582   2.501   4.196
 1557SOL    HW1 5045   1.551   2.562   4.269
 1557SOL    HW2 5046   1.632   2.553   4.127
 1558SOL     OW 5047   0.354   3.372   5.053
 1558SOL    HW1 5048   0.333   3.328   4.966
 1558SOL    HW2 5049   0.451   3.398   5.056
 1559SOL     OW 5050   0.402   2.613   5.322
 1559SOL    HW1 5051   0.470   2.668   5.275
 1559SOL    HW2 5052   0.442   2.525   5.349
 1560SOL     OW 5053   1.587   2.641   5.394
 1560SOL    HW1 5054   1.495   2.679   5.389
 1560SOL    HW2 5055   1.647   2.688   5.329
 1561SOL     OW 5056   1.013   1.967   5.494
 1561SOL    HW1 5057   1.019   2.052   5.442
 1561SOL    HW2 5058   1.045   1.891   5.437
 1562SOL     OW 5059   0.504   1.912   5.464
 1562SOL    HW1 5060   0.462   1.855   5.394
 1562SOL    HW2 5061   0.438   1.981   5.496
 1563SOL     OW 5062   0.573   2.732   4.753
 1563SOL    HW1 5063   0.617   2.821   4.744
 1563SOL    HW2 5064   0.510   2.732   4.830
 1564SOL     OW 5065   1.360   2.724   4.769
 1564SOL    HW1 5066   1.285   2.724   4.703
 1564SOL    HW2 5067   1.397   2.632   4.778
 1565SOL     OW 5068   1.209   2.387   3.999
 1565SOL    HW1 5069   1.222   2.303   4.053
 1565SOL    HW2 5070   1.180   2.461   4.059
 1566SOL     OW 5071   0.307   2.075   4.955
 1566SOL    HW1 5072   0.284   2.112   5.045
 1566SOL    HW2 5073   0.277   1.980   4.949
 1567SOL     OW 5074   0.037   3.172   5.006
 1567SOL    HW1 5075   0.090   3.123   5.074
 1567SOL    HW2 5076   0.059   3.270   5.011
 1568SOL     OW 5077   0.732   2.496   4.788
 1568SOL    HW1 5078   0.791   2.470   4.712
 1568SOL    HW2 5079   0.704   2.592   4.777
 1569SOL     OW 5080   1.728   2.797   5.578
 1569SOL    HW1 5081   1.682   2.790   5.489
 1569SOL    HW2 5082   1.666   2.841   5.644
 1570SOL     OW 5083   0.307   1.925   4.342
 1570SOL    HW1 5084   0.296   2.019   4.375
 1570SOL    HW2 5085   0.302   1.862   4.419
 1571SOL     OW 5086   1.622   2.229   4.098
 1571SOL    HW1 5087   1.624   2.153   4.162
 1571SOL    HW2 5088   1.574   2.306   4.138
 1572SOL     OW 5089   1.023   2.628   4.690
 1572SOL    HW1 5090   1.038   2.649   4.786
 1572SOL    HW2 5091   0.993   2.533   4.681
 1573SOL     OW 5092   0.980   3.435   5.424
 1573SOL    HW1 5093   0.960   3.479   5.336
 1573SOL    HW2 5094   1.019   3.344   5.408
 1574SOL     OW 5095   1.859   3.380   5.329
 1574SOL    HW1 5096   1.873   3.407   5.234
 1574SOL    HW2 5097   1.942   3.402   5.382
 1575SOL     OW 5098   0.350   2.760   5.528
 1575SOL    HW1 5099   0.426   2.804   5.576
 1575SOL    HW2 5100   0.385   2.713   5.446
 1576SOL     OW 5101   1.540   2.136   3.849
 1576SOL    HW1 5102   1.479   2.061   3.872
 1576SOL    HW2 5103   1.562   2.188   3.932
 1577SOL     OW 5104   1.303   2.700   3.766
 1577SOL    HW1 5105   1.337   2.607   3.781
 1577SOL    HW2 5106   1.321   2.727   3.671
 1578SOL     OW 5107   1.068   3.195   4.573
 1578SOL    HW1 5108   1.075   3.111   4.518
 1578SOL    HW2 5109   1.130   3.264   4.537
 1579SOL     OW 5110   0.319   2.672   4.673
 1579SOL    HW1 5111   0.412   2.708   4.678
 1579SOL    HW2 5112   0.313   2.587   4.725
 1580SOL     OW 5113   0.339   2.371   4.730
 1580SOL    HW1 5114   0.287   2.288   4.713
 1580SOL    HW2 5115   0.416   2.376   4.666
 1581SOL     OW 5116   1.138   2.242   5.402
 1581SOL    HW1 5117   1.093   2.305   5.466
 1581SOL    HW2 5118   1.231   2.273   5.385
 1582SOL     OW 5119   1.160   2.069   5.201
 1582SOL    HW1 5120   1.160   2.133   5.278
 1582SOL    HW2 5121   1.188   2.117   5.118
 1583SOL     OW 5122   0.008   3.188   3.924
 1583SOL    HW1 5123  -0.085   3.209   3.893
 1583SOL    HW2 5124   0.018   3.089   3.937
 1584SOL     OW 5125   0.088   3.663   4.651
 1584SOL    HW1 5126   0.046   3.577   4.624
 1584SOL    HW2 5127   0.182   3.666   4.617
 1585SOL     OW 5128   0.504   3.430   4.634
 1585SOL    HW1 5129   0.570   3.504   4.643
 1585SOL    HW2 5130   0.548   3.351   4.592
 1586SOL     OW 5131   1.002   2.658   4.962
 1586SOL    HW1 5132   1.043   2.626   5.048
 1586SOL    HW2 5133   0.906   2.631   4.959
 1587SOL     OW 5134   0.040   2.406   4.838
 1587SOL    HW1 5135   0.125   2.373   4.797
 1587SOL    HW2 5136   0.053   2.421   4.936
 1588SOL     OW 5137   0.189   2.382   5.446
 1588SOL    HW1 5138   0.248   2.342   5.376
 1588SOL    HW2 5139   0.131   2.453   5.405
 1589SOL     OW 5140   1.369   2.812   5.384
 1589SOL    HW1 5141   1.408   2.901   5.404
 1589SOL    HW2 5142   1.379   2.792   5.287
 1590SOL     OW 5143   0.815   2.434   4.049
 1590SOL    HW1 5144   0.822   2.345   4.003
 1590SOL    HW2 5145   0.721   2.468   4.041
 1591SOL     OW 5146   1.657   2.466   4.930
 1591SOL    HW1 5147   1.619   2.397   4.992
 1591SOL    HW2 5148   1.739   2.430   4.886
 1592SOL     OW 5149   0.252   3.426   5.468
 1592SOL    HW1 5150   0.222   3.483   5.544
 1592SOL    HW2 5151   0.245   3.329   5.494
 1593SOL     OW 5152   0.671   2.326   4.993
 1593SOL    HW1 5153   0.637   2.237   4.963
 1593SOL    HW2 5154   0.697   2.380   4.913
 1594SOL     OW 5155   0.930   3.540   5.189
 1594SOL    HW1 5156   0.906   3.522   5.094
 1594SOL    HW2 5157   0.960   3.634   5.199
 1595SOL     OW 5158   0.473   2.362   3.915
 1595SOL    HW1 5159   0.534   2.442   3.919
 1595SOL    HW2 5160   0.378   2.393   3.922
 1596SOL     OW 5161   0.159   2.999   5.190
 1596SOL    HW1 5162   0.181   2.938   5.266
 1596SOL    HW2 5163   0.169   2.950   5.104
 1597SOL     OW 5164   1.347   2.921   4.958
 1597SOL    HW1 5165   1.371   2.858   4.884
 1597SOL    HW2 5166   1.257   2.961   4.940
 1598SOL     OW 5167   1.302   2.717   4.033
 1598SOL    HW1 5168   1.216   2.686   4.075
 1598SOL    HW2 5169   1.298   2.703   3.934
 1599SOL     OW 5170   1.759   3.609   4.878
 1599SOL    HW1 5171   1.820   3.639   4.805
 1599SOL    HW2 5172   1.721   3.520   4.856
 1600SOL     OW 5173   1.252   3.593   4.852
 1600SOL    HW1 5174   1.336   3.598   4.798
 1600SOL    HW2 5175   1.229   3.497   4.870
 1601SOL     OW 5176   0.083   3.120   4.746
 1601SOL    HW1 5177   0.078   3.119   4.846
 1601SOL    HW2 5178   0.000   3.079   4.708
 1602SOL     OW 5179   0.688   3.524   5.440
 1602SOL    HW1 5180   0.632   3.605   5.449
 1602SOL    HW2 5181   0.740   3.528   5.354
 1603SOL     OW 5182   1.726   1.997   4.247
 1603SOL    HW1 5183   1.799   1.980   4.180
 1603SOL    HW2 5184   1.695   1.910   4.285
 1604SOL     OW 5185   1.388   3.435   4.201
 1604SOL    HW1 5186   1.455   3.447   4.127
 1604SOL    HW2 5187   1.348   3.524   4.224
 1605SOL     OW 5188   0.130   3.656   5.575
 1605SOL    HW1 5189   0.089   3.582   5.628
 1605SOL    HW2 5190   0.194   3.707   5.633
 1606SOL     OW 5191   1.280   2.789   4.396
 1606SOL    HW1 5192   1.340   2.708   4.398
 1606SOL    HW2 5193   1.320   2.858   4.336
 1607SOL     OW 5194   0.830   3.135   5.146
 1607SOL    HW1 5195   0.825   3.168   5.241
 1607SOL    HW2 5196   0.744   3.154   5.100
 1608SOL     OW 5197   0.672   3.478   3.878
 1608SOL    HW1 5198   0.681   3.488   3.779
 1608SOL    HW2 5199   0.632   3.389   3.899
 1609SOL     OW 5200   1.650   3.582   5.118
 1609SOL    HW1 5201   1.703   3.592   5.034
 1609SOL    HW2 5202   1.623   3.672   5.152
 1610SOL     OW 5203   1.841   2.037   4.687
 1610SOL    HW1 5204   1.880   1.952   4.651
 1610SOL    HW2 5205   1.743   2.039   4.668
 1611SOL     OW 5206   0.263   2.188   4.444
 1611SOL    HW1 5207   0.184   2.239   4.410
 1611SOL    HW2 5208   0.254   2.173   4.542
 1612SOL     OW 5209   1.194   3.474   3.755
 1612SOL    HW1 5210   1.200   3.381   3.792
 1612SOL    HW2 5211   1.135   3.474   3.675
 1613SOL     OW 5212   0.822   2.864   5.096
 1613SOL    HW1 5213   0.862   2.863   5.004
 1613SOL    HW2 5214   0.832   2.956   5.136
 1614SOL     OW 5215   0.916   2.772   4.015
 1614SOL    HW1 5216   0.979   2.810   3.947
 1614SOL    HW2 5217   0.956   2.689   4.054
 1615SOL     OW 5218   1.504   3.469   3.768
 1615SOL    HW1 5219   1.412   3.506   3.775
 1615SOL    HW2 5220   1.542   3.489   3.678
 1616SOL     OW 5221   0.372   3.150   5.214
 1616SOL    HW1 5222   0.359   3.243   5.180
 1616SOL    HW2 5223   0.288   3.098   5.201
 1617SOL     OW 5224   1.614   3.154   5.013
 1617SOL    HW1 5225   1.674   3.157   5.093
 1617SOL    HW2 5226   1.539   3.218   5.026
 1618SOL     OW 5227   1.039   2.960   4.420
 1618SOL    HW1 5228   0.969   2.913   4.474
 1618SOL    HW2 5229   1.098   2.892   4.377
 1619SOL     OW 5230   1.014   2.098   4.695
 1619SOL    HW1 5231   1.006   2.062   4.602
 1619SOL    HW2 5232   1.012   2.022   4.760
 1620SOL     OW 5233   0.590   3.349   4.215
 1620SOL    HW1 5234   0.632   3.291   4.145
 1620SOL    HW2 5235   0.546   3.428   4.171
 1621SOL     OW 5236   1.709   2.247   5.105
 1621SOL    HW1 5237   1.782   2.316   5.109
 1621SOL    HW2 5238   1.737   2.172   5.046
 1622SOL     OW 5239   0.255   3.210   4.014
 1622SOL    HW1 5240   0.159   3.211   3.987
 1622SOL    HW2 5241   0.267   3.263   4.098
 1623SOL     OW 5242   0.105   2.875   5.450
 1623SOL    HW1 5243   0.028   2.842   5.504
 1623SOL    HW2 5244   0.190   2.845   5.492
 1624SOL     OW 5245   0.672   2.065   5.213
 1624SOL    HW1 5246   0.762   2.049   5.173
 1624SOL    HW2 5247   0.680   2.070   5.312
 1625SOL     OW 5248   0.075   2.207   3.757
 1625SOL    HW1 5249  -0.017   2.179   3.728
 1625SOL    HW2 5250   0.106   2.284   3.701
 1626SOL     OW 5251   1.440   2.718   5.122
 1626SOL    HW1 5252   1.383   2.770   5.059
 1626SOL    HW2 5253   1.536   2.730   5.098
 1627SOL     OW 5254   0.072   2.028   4.042
 1627SOL    HW1 5255   0.055   2.111   3.988
 1627SOL    HW2 5256   0.162   1.991   4.020
 1628SOL     OW 5257   1.183   3.197   3.843
 1628SOL    HW1 5258   1.084   3.186   3.845
 1628SOL    HW2 5259   1.217   3.212   3.936
 1629SOL     OW 5260   0.613   2.704   5.155
 1629SOL    HW1 5261   0.669   2.785   5.138
 1629SOL    HW2 5262   0.672   2.624   5.158
 1630SOL     OW 5263   1.493   3.629   4.683
 1630SOL    HW1 5264   1.526   3.693   4.614
 1630SOL    HW2 5265   1.559   3.623   4.758
 1631SOL     OW 5266   0.716   2.427   5.432
 1631SOL    HW1 5267   0.735   2.492   5.506
 1631SOL    HW2 5268   0.776   2.347   5.441
 1632SOL     OW 5269   1.450   3.082   5.357
 1632SOL    HW1 5270   1.441   3.072   5.456
 1632SOL    HW2 5271   1.546   3.075   5.331
 1633SOL     OW 5272   0.390   3.603   5.284
 1633SOL    HW1 5273   0.299   3.644   5.282
 1633SOL    HW2 5274   0.383   3.509   5.316
 1634SOL     OW 5275   1.674   2.745   4.978
 1634SOL    HW1 5276   1.647   2.656   4.941
 1634SOL    HW2 5277   1.675   2.813   4.905
 1635SOL     OW 5278   1.225   2.187   4.173
 1635SOL    HW1 5279   1.290   2.113   4.162
 1635SOL    HW2 5280   1.245   2.237   4.257
 1636SOL     OW 5281   0.594   2.607   4.376
 1636SOL    HW1 5282   0.644   2.692   4.357
 1636SOL    HW2 5283   0.506   2.609   4.328
 1637SOL     OW 5284   1.777   2.204   5.366
 1637SOL    HW1 5285   1.760   2.235   5.272
 1637SOL    HW2 5286   1.693   2.167   5.404
 1638SOL     OW 5287   1.730   2.796   5.241
 1638SOL    HW1 5288   1.768   2.887   5.256
 1638SOL    HW2 5289   1.722   2.779   5.142
 1639SOL     OW 5290   0.859   3.236   3.740
 1639SOL    HW1 5291   0.813   3.251   3.828
 1639SOL    HW2 5292   0.903   3.321   3.710
 1640SOL     OW 5293   0.661   3.652   4.677
 1640SOL    HW1 5294   0.615   3.740   4.664
 1640SOL    HW2 5295   0.760   3.664   4.670
 1641SOL     OW 5296   0.859   2.818   4.585
 1641SOL    HW1 5297   0.913   2.749   4.633
 1641SOL    HW2 5298   0.827   2.887   4.651
 1642SOL     OW 5299   1.083   2.846   3.811
 1642SOL    HW1 5300   1.060   2.899   3.729
 1642SOL    HW2 5301   1.164   2.790   3.792
 1643SOL     OW 5302   1.861   3.431   4.575
 1643SOL    HW1 5303   1.790   3.419   4.505
 1643SOL    HW2 5304   1.862   3.352   4.635
 1644SOL     OW 5305   0.221   3.176   5.568
 1644SOL    HW1 5306   0.156   3.103   5.547
 1644SOL    HW2 5307   0.225   3.190   5.666
 1645SOL     OW 5308   0.079   3.102   4.377
 1645SOL    HW1 5309   0.078   3.055   4.465
 1645SOL    HW2 5310   0.161   3.074   4.326
 1646SOL     OW 5311   0.672   3.253   5.348
 1646SOL    HW1 5312   0.594   3.203   5.386
 1646SOL    HW2 5313   0.669   3.348   5.379
 1647SOL     OW 5314   1.824   2.054   4.951
 1647SOL    HW1 5315   1.820   1.964   4.995
 1647SOL    HW2 5316   1.827   2.043   4.852
 1648SOL     OW 5317   0.428   2.286   4.244
 1648SOL    HW1 5318   0.458   2.214   4.182
 1648SOL    HW2 5319   0.389   2.246   4.327
 1649SOL     OW 5320   1.705   3.349   4.828
 1649SOL    HW1 5321   1.612   3.324   4.801
 1649SOL    HW2 5322   1.731   3.299   4.910
 1650SOL     OW 5323   0.317   2.409   5.004
 1650SOL    HW1 5324   0.355   2.350   5.076
 1650SOL    HW2 5325   0.357   2.383   4.916
 1651SOL     OW 5326   0.812   3.448   4.411
 1651SOL    HW1 5327   0.844   3.458   4.317
 1651SOL    HW2 5328   0.733   3.386   4.413
 1652SOL     OW 5329   1.424   2.076   4.836
 1652SOL    HW1 5330   1.476   2.011   4.891
 1652SOL    HW2 5331   1.375   2.139   4.897
 1653SOL     OW 5332   1.001   1.896   4.878
 1653SOL    HW1 5333   0.938   1.824   4.847
 1653SOL    HW2 5334   1.094   1.860   4.878
 1654SOL     OW 5335   0.770   3.192   4.025
 1654SOL    HW1 5336   0.724   3.105   4.042
 1654SOL    HW2 5337   0.861   3.189   4.066
 1655SOL     OW 5338   0.618   3.429   5.008
 1655SOL    HW1 5339   0.613   3.511   5.065
 1655SOL    HW2 5340   0.707   3.426   4.963
 1656SOL     OW 5341   1.352   1.914   3.892
 1656SOL    HW1 5342   1.387   1.873   3.808
 1656SOL    HW2 5343   1.262   1.876   3.912
 1657SOL     OW 5344   1.300   2.315   4.415
 1657SOL    HW1 5345   1.241   2.395   4.419
 1657SOL    HW2 5346   1.315   2.280   4.508
 1658SOL     OW 5347   1.593   2.083   4.606
 1658SOL    HW1 5348   1.509   2.082   4.660
 1658SOL    HW2 5349   1.595   2.166   4.550
 1659SOL     OW 5350   0.039   2.939   4.024
 1659SOL    HW1 5351   0.138   2.928   4.015
 1659SOL    HW2 5352  -0.001   2.853   4.056
 1660SOL     OW 5353   0.875   3.508   4.061
 1660SOL    HW1 5354   0.798   3.473   4.007
 1660SOL    HW2 5355   0.843   3.579   4.123
 1661SOL     OW 5356   0.230   2.490   5.699
 1661SOL    HW1 5357   0.137   2.488   5.736
 1661SOL    HW2 5358   0.231   2.451   5.607
 1662SOL     OW 5359   0.225   2.137   6.582
 1662SOL    HW1 5360   0.260   2.120   6.674
 1662SOL    HW2 5361   0.137   2.092   6.570
 1663SOL     OW 5362   0.019   2.230   6.233
 1663SOL    HW1 5363  -0.063   2.273   6.272
 1663SOL    HW2 5364  -0.009   2.157   6.170
 1664SOL     OW 5365   0.569   3.137   6.751
 1664SOL    HW1 5366   0.476   3.130   6.714
 1664SOL    HW2 5367   0.580   3.226   6.795
 1665SOL     OW 5368   1.555   3.373   6.289
 1665SOL    HW1 5369   1.498   3.357   6.370
 1665SOL    HW2 5370   1.496   3.383   6.209
 1666SOL     OW 5371   1.135   2.565   6.303
 1666SOL    HW1 5372   1.192   2.643   6.278
 1666SOL    HW2 5373   1.075   2.591   6.379
 1667SOL     OW 5374   1.755   2.469   5.817
 1667SOL    HW1 5375   1.743   2.456   5.718
 1667SOL    HW2 5376   1.725   2.388   5.866
 1668SOL     OW 5377   0.768   3.006   6.609
 1668SOL    HW1 5378   0.690   3.023   6.669
 1668SOL    HW2 5379   0.802   3.093   6.573
 1669SOL     OW 5380   0.850   2.660   7.409
 1669SOL    HW1 5381   0.846   2.736   7.474
 1669SOL    HW2 5382   0.872   2.696   7.318
 1670SOL     OW 5383   0.685   2.874   6.251
 1670SOL    HW1 5384   0.754   2.858   6.321
 1670SOL    HW2 5385   0.612   2.931   6.289
 1671SOL     OW 5386   0.686   3.023   7.389
 1671SOL    HW1 5387   0.746   3.102   7.403
 1671SOL    HW2 5388   0.600   3.054   7.348
 1672SOL     OW 5389   0.335   3.297   6.647
 1672SOL    HW1 5390   0.257   3.266   6.594
 1672SOL    HW2 5391   0.393   3.355   6.590
 1673SOL     OW 5392   1.460   3.367   6.925
 1673SOL    HW1 5393   1.484   3.461   6.951
 1673SOL    HW2 5394   1.444   3.313   7.007
 1674SOL     OW 5395   0.438   2.254   7.085
 1674SOL    HW1 5396   0.520   2.198   7.094
 1674SOL    HW2 5397   0.357   2.196   7.089
 1675SOL     OW 5398   1.603   2.309   6.323
 1675SOL    HW1 5399   1.529   2.355   6.273
 1675SOL    HW2 5400   1.654   2.377   6.376
 1676SOL     OW 5401   0.231   3.575   6.069
 1676SOL    HW1 5402   0.265   3.652   6.123
 1676SOL    HW2 5403   0.275   3.575   5.979
 1677SOL     OW 5404   1.127   3.203   7.276
 1677SOL    HW1 5405   1.174   3.203   7.364
 1677SOL    HW2 5406   1.079   3.116   7.265
 1678SOL     OW 5407   0.230   3.296   6.124
 1678SOL    HW1 5408   0.204   3.392   6.124
 1678SOL    HW2 5409   0.159   3.242   6.169
 1679SOL     OW 5410   0.240   2.953   6.472
 1679SOL    HW1 5411   0.254   2.869   6.524
 1679SOL    HW2 5412   0.185   3.017   6.527
 1680SOL     OW 5413   0.620   3.648   7.025
 1680SOL    HW1 5414   0.528   3.631   7.060
 1680SOL    HW2 5415   0.648   3.740   7.051
 1681SOL     OW 5416   0.606   2.826   5.709
 1681SOL    HW1 5417   0.613   2.910   5.655
 1681SOL    HW2 5418   0.652   2.839   5.797
 1682SOL     OW 5419   1.594   1.976   7.066
 1682SOL    HW1 5420   1.576   2.043   6.994
 1682SOL    HW2 5421   1.591   2.022   7.155
 1683SOL     OW 5422   0.122   2.505   6.149
 1683SOL    HW1 5423   0.077   2.417   6.166
 1683SOL    HW2 5424   0.121   2.559   6.233
 1684SOL     OW 5425   1.842   3.629   5.945
 1684SOL    HW1 5426   1.896   3.600   6.025
 1684SOL    HW2 5427   1.872   3.719   5.916
 1685SOL     OW 5428   0.027   3.458   5.703
 1685SOL    HW1 5429   0.008   3.362   5.724
 1685SOL    HW2 5430  -0.006   3.516   5.778
 1686SOL     OW 5431   1.689   2.784   6.198
 1686SOL    HW1 5432   1.784   2.755   6.206
 1686SOL    HW2 5433   1.681   2.849   6.123
 1687SOL     OW 5434   1.641   2.970   6.018
 1687SOL    HW1 5435   1.727   2.972   5.966
 1687SOL    HW2 5436   1.655   3.017   6.106
 1688SOL     OW 5437   0.113   2.599   7.183
 1688SOL    HW1 5438   0.201   2.586   7.228
 1688SOL    HW2 5439   0.100   2.696   7.161
 1689SOL     OW 5440   0.613   3.227   6.312
 1689SOL    HW1 5441   0.564   3.140   6.321
 1689SOL    HW2 5442   0.590   3.270   6.225
 1690SOL     OW 5443   1.293   3.090   7.009
 1690SOL    HW1 5444   1.330   3.017   6.951
 1690SOL    HW2 5445   1.345   3.095   7.094
 1691SOL     OW 5446   0.809   1.866   6.088
 1691SOL    HW1 5447   0.849   1.957   6.079
 1691SOL    HW2 5448   0.709   1.874   6.094
 1692SOL     OW 5449   0.197   2.838   6.850
 1692SOL    HW1 5450   0.286   2.793   6.836
 1692SOL    HW2 5451   0.124   2.773   6.831
 1693SOL     OW 5452   1.525   2.861   5.776
 1693SOL    HW1 5453   1.462   2.785   5.789
 1693SOL    HW2 5454   1.573   2.879   5.862
 1694SOL     OW 5455   1.187   3.654   7.202
 1694SOL    HW1 5456   1.211   3.714   7.126
 1694SOL    HW2 5457   1.194   3.559   7.172
 1695SOL     OW 5458   0.317   2.113   7.387
 1695SOL    HW1 5459   0.388   2.184   7.393
 1695SOL    HW2 5460   0.229   2.152   7.415
 1696SOL     OW 5461   1.466   3.279   6.539
 1696SOL    HW1 5462   1.407   3.285   6.619
 1696SOL    HW2 5463   1.451   3.191   6.493
 1697SOL     OW 5464   1.667   3.576   6.158
 1697SOL    HW1 5465   1.626   3.553   6.070
 1697SOL    HW2 5466   1.649   3.502   6.223
 1698SOL     OW 5467   0.598   2.591   5.856
 1698SOL    HW1 5468   0.622   2.660   5.788
 1698SOL    HW2 5469   0.520   2.624   5.910
 1699SOL     OW 5470   1.281   2.207   6.530
 1699SOL    HW1 5471   1.195   2.157   6.517
 1699SOL    HW2 5472   1.343   2.153   6.586
 1700SOL     OW 5473   1.576   3.524   5.893
 1700SOL    HW1 5474   1.665   3.570   5.896
 1700SOL    HW2 5475   1.555   3.500   5.798
 1701SOL     OW 5476   0.807   2.467   7.051
 1701SOL    HW1 5477   0.760   2.464   7.140
 1701SOL    HW2 5478   0.756   2.412   6.985
 1702SOL     OW 5479   1.394   2.331   7.260
 1702SOL    HW1 5480   1.374   2.374   7.348
 1702SOL    HW2 5481   1.472   2.269   7.269
 1703SOL     OW 5482   0.973   2.752   7.158
 1703SOL    HW1 5483   1.019   2.668   7.129
 1703SOL    HW2 5484   0.917   2.786   7.083
 1704SOL     OW 5485   0.991   2.272   6.828
 1704SOL    HW1 5486   0.914   2.306   6.882
 1704SOL    HW2 5487   0.957   2.221   6.749
 1705SOL     OW 5488   1.041   2.563   6.015
 1705SOL    HW1 5489   1.067   2.559   6.111
 1705SOL    HW2 5490   0.956   2.512   6.001
 1706SOL     OW 5491   0.076   2.673   6.375
 1706SOL    HW1 5492   0.175   2.661   6.384
 1706SOL    HW2 5493   0.052   2.768   6.396
 1707SOL     OW 5494   0.130   3.683   7.157
 1707SOL    HW1 5495   0.120   3.668   7.256
 1707SOL    HW2 5496   0.044   3.719   7.121
 1708SOL     OW 5497   0.865   2.210   5.781
 1708SOL    HW1 5498   0.924   2.273   5.732
 1708SOL    HW2 5499   0.884   2.116   5.752
 1709SOL     OW 5500   1.719   2.447   7.417
 1709SOL    HW1 5501   1.693   2.536   7.381
 1709SOL    HW2 5502   1.717   2.379   7.344
 1710SOL     OW 5503   1.362   3.006   6.131
 1710SOL    HW1 5504   1.445   2.977   6.083
 1710SOL    HW2 5505   1.313   3.073   6.075
 1711SOL     OW 5506   0.550   2.058   6.471
 1711SOL    HW1 5507   0.545   2.053   6.571
 1711SOL    HW2 5508   0.552   2.154   6.442
 1712SOL     OW 5509   1.008   3.318   6.063
 1712SOL    HW1 5510   0.962   3.390   6.011
 1712SOL    HW2 5511   1.004   3.338   6.161
 1713SOL     OW 5512   0.351   3.663   6.439
 1713SOL    HW1 5513   0.401   3.577   6.445
 1713SOL    HW2 5514   0.416   3.740   6.436
 1714SOL     OW 5515   1.795   2.928   6.459
 1714SOL    HW1 5516   1.733   2.913   6.383
 1714SOL    HW2 5517   1.743   2.939   6.544
 1715SOL     OW 5518   1.227   3.412   7.092
 1715SOL    HW1 5519   1.233   3.335   7.156
 1715SOL    HW2 5520   1.175   3.386   7.012
 1716SOL     OW 5521   0.321   2.805   5.828
 1716SOL    HW1 5522   0.403   2.844   5.786
 1716SOL    HW2 5523   0.294   2.723   5.779
 1717SOL     OW 5524   1.458   2.597   6.314
 1717SOL    HW1 5525   1.453   2.532   6.389
 1717SOL    HW2 5526   1.538   2.656   6.327
 1718SOL     OW 5527   0.461   3.128   7.313
 1718SOL    HW1 5528   0.411   3.129   7.227
 1718SOL    HW2 5529   0.398   3.110   7.389
 1719SOL     OW 5530   1.111   3.638   5.823
 1719SOL    HW1 5531   1.051   3.576   5.873
 1719SOL    HW2 5532   1.142   3.594   5.738
 1720SOL     OW 5533   0.202   2.147   7.084
 1720SOL    HW1 5534   0.122   2.207   7.071
 1720SOL    HW2 5535   0.192   2.098   7.170
 1721SOL     OW 5536   1.632   3.239   5.667
 1721SOL    HW1 5537   1.600   3.333   5.657
 1721SOL    HW2 5538   1.556   3.176   5.655
 1722SOL     OW 5539   0.464   3.605   5.909
 1722SOL    HW1 5540   0.497   3.644   5.995
 1722SOL    HW2 5541   0.540   3.598   5.844
 1723SOL     OW 5542   1.400   1.969   6.012
 1723SOL    HW1 5543   1.376   1.932   5.922
 1723SOL    HW2 5544   1.499   1.985   6.016
 1724SOL     OW 5545   0.249   3.647   6.827
 1724SOL    HW1 5546   0.306   3.582   6.877
 1724SOL    HW2 5547   0.233   3.614   6.734
 1725SOL     OW 5548   0.940   3.560   6.490
 1725SOL    HW1 5549   1.020   3.503   6.511
 1725SOL    HW2 5550   0.891   3.520   6.413
 1726SOL     OW 5551   0.382   2.562   6.066
 1726SOL    HW1 5552   0.427   2.472   6.063
 1726SOL    HW2 5553   0.288   2.551   6.099
 1727SOL     OW 5554   1.547   2.084   7.315
 1727SOL    HW1 5555   1.542   2.121   7.407
 1727SOL    HW2 5556   1.475   2.015   7.303
 1728SOL     OW 5557   0.614   1.984   5.703
 1728SOL    HW1 5558   0.712   1.962   5.710
 1728SOL    HW2 5559   0.583   1.967   5.610
 1729SOL     OW 5560   0.781   2.126   7.335
 1729SOL    HW1 5561   0.848   2.065   7.378
 1729SOL    HW2 5562   0.708   2.145   7.400
 1730SOL     OW 5563   0.888   3.376   6.781
 1730SOL    HW1 5564   0.865   3.351   6.687
 1730SOL    HW2 5565   0.949   3.307   6.820
 1731SOL     OW 5566   1.351   2.452   7.019
 1731SOL    HW1 5567   1.379   2.409   7.104
 1731SOL    HW2 5568   1.376   2.548   7.020
 1732SOL     OW 5569   0.803   3.264   6.510
 1732SOL    HW1 5570   0.893   3.278   6.468
 1732SOL    HW2 5571   0.732   3.266   6.439
 1733SOL     OW 5572   0.922   2.365   6.485
 1733SOL    HW1 5573   0.897   2.356   6.389
 1733SOL    HW2 5574   0.970   2.283   6.516
 1734SOL     OW 5575   0.539   1.926   6.098
 1734SOL    HW1 5576   0.458   1.927   6.156
 1734SOL    HW2 5577   0.542   2.009   6.043
 1735SOL     OW 5578   1.434   3.050   5.627
 1735SOL    HW1 5579   1.466   2.974   5.684
 1735SOL    HW2 5580   1.342   3.077   5.657
 1736SOL     OW 5581   0.297   1.897   5.757
 1736SOL    HW1 5582   0.346   1.981   5.736
 1736SOL    HW2 5583   0.359   1.832   5.802
 1737SOL     OW 5584   0.935   2.098   6.066
 1737SOL    HW1 5585   0.887   2.139   5.988
 1737SOL    HW2 5586   1.034   2.096   6.047
 1738SOL     OW 5587   1.076   2.545   7.050
 1738SOL    HW1 5588   0.996   2.484   7.053
 1738SOL    HW2 5589   1.157   2.492   7.026
 1739SOL     OW 5590   1.227   3.432   6.379
 1739SOL    HW1 5591   1.248   3.506   6.314
 1739SOL    HW2 5592   1.295   3.432   6.452
 1740SOL     OW 5593   0.459   3.014   6.327
 1740SOL    HW1 5594   0.388   2.987   6.392
 1740SOL    HW2 5595   0.433   2.986   6.234
 1741SOL     OW 5596   1.271   3.659   6.177
 1741SOL    HW1 5597   1.315   3.723   6.113
 1741SOL    HW2 5598   1.221   3.711   6.247
 1742SOL     OW 5599   1.032   2.411   5.602
 1742SOL    HW1 5600   0.991   2.493   5.563
 1742SOL    HW2 5601   1.096   2.437   5.675
 1743SOL     OW 5602   0.078   2.418   6.972
 1743SOL    HW1 5603   0.170   2.417   6.931
 1743SOL    HW2 5604   0.072   2.492   7.039
 1744SOL     OW 5605   0.561   2.084   6.733
 1744SOL    HW1 5606   0.599   2.000   6.770
 1744SOL    HW2 5607   0.473   2.103   6.777
 1745SOL     OW 5608   0.866   2.316   6.228
 1745SOL    HW1 5609   0.834   2.388   6.166
 1745SOL    HW2 5610   0.890   2.235   6.175
 1746SOL     OW 5611   1.017   1.901   6.339
 1746SOL    HW1 5612   0.945   1.906   6.270
 1746SOL    HW2 5613   0.993   1.832   6.408
 1747SOL     OW 5614   1.429   3.035   6.453
 1747SOL    HW1 5615   1.374   2.951   6.446
 1747SOL    HW2 5616   1.455   3.064   6.361
 1748SOL     OW 5617   1.466   2.452   6.578
 1748SOL    HW1 5618   1.436   2.357   6.585
 1748SOL    HW2 5619   1.539   2.468   6.644
 1749SOL     OW 5620   1.857   2.695   5.963
 1749SOL    HW1 5621   1.899   2.631   6.027
 1749SOL    HW2 5622   1.819   2.644   5.885
 1750SOL     OW 5623   0.488   3.247   5.760
 1750SOL    HW1 5624   0.401   3.232   5.807
 1750SOL    HW2 5625   0.471   3.273   5.665
 1751SOL     OW 5626   1.664   3.142   6.243
 1751SOL    HW1 5627   1.763   3.150   6.257
 1751SOL    HW2 5628   1.619   3.226   6.274
 1752SOL     OW 5629   1.390   2.437   5.664
 1752SOL    HW1 5630   1.336   2.416   5.745
 1752SOL    HW2 5631   1.481   2.396   5.673
 1753SOL     OW 5632   0.527   2.118   5.914
 1753SOL    HW1 5633   0.554   2.059   5.839
 1753SOL    HW2 5634   0.527   2.213   5.883
 1754SOL     OW 5635   1.754   3.085   7.174
 1754SOL    HW1 5636   1.845   3.046   7.161
 1754SOL    HW2 5637   1.762   3.181   7.198
 1755SOL     OW 5638   1.064   3.209   6.926
 1755SOL    HW1 5639   0.984   3.186   6.981
 1755SOL    HW2 5640   1.147   3.183   6.975
 1756SOL     OW 5641   1.592   3.491   7.211
 1756SOL    HW1 5642   1.619   3.525   7.121
 1756SOL    HW2 5643   1.671   3.453   7.257
 1757SOL     OW 5644   1.111   3.057   6.686
 1757SOL    HW1 5645   1.071   3.101   6.767
 1757SOL    HW2 5646   1.070   3.094   6.603
 1758SOL     OW 5647   1.638   2.961   6.665
 1758SOL    HW1 5648   1.643   3.042   6.724
 1758SOL    HW2 5649   1.552   2.963   6.614
 1759SOL     OW 5650   0.915   1.951   6.988
 1759SOL    HW1 5651   0.940   1.931   6.893
 1759SOL    HW2 5652   0.987   2.007   7.030
 1760SOL     OW 5653   0.980   2.978   7.305
 1760SOL    HW1 5654   0.881   2.984   7.315
 1760SOL    HW2 5655   1.003   2.898   7.249
 1761SOL     OW 5656   0.705   2.912   5.954
 1761SOL    HW1 5657   0.691   2.919   6.053
 1761SOL    HW2 5658   0.789   2.861   5.936
 1762SOL     OW 5659   0.410   2.675   6.837
 1762SOL    HW1 5660   0.496   2.687   6.887
 1762SOL    HW2 5661   0.368   2.588   6.864
 1763SOL     OW 5662   1.274   2.248   6.848
 1763SOL    HW1 5663   1.295   2.322   6.912
 1763SOL    HW2 5664   1.185   2.265   6.805
 1764SOL     OW 5665   0.064   3.426   6.917
 1764SOL    HW1 5666   0.018   3.508   6.883
 1764SOL    HW2 5667   0.162   3.445   6.926
 1765SOL     OW 5668   0.367   2.962   6.087
 1765SOL    HW1 5669   0.360   3.045   6.031
 1765SOL    HW2 5670   0.371   2.882   6.027
 1766SOL     OW 5671   0.566   2.399   6.451
 1766SOL    HW1 5672   0.578   2.465   6.377
 1766SOL    HW2 5673   0.612   2.433   6.534
 1767SOL     OW 5674   1.252   3.210   5.974
 1767SOL    HW1 5675   1.302   3.287   6.014
 1767SOL    HW2 5676   1.157   3.212   6.006
 1768SOL     OW 5677   1.272   3.307   6.728
 1768SOL    HW1 5678   1.319   3.320   6.815
 1768SOL    HW2 5679   1.206   3.233   6.737
 1769SOL     OW 5680   1.582   2.501   6.058
 1769SOL    HW1 5681   1.551   2.562   6.131
 1769SOL    HW2 5682   1.632   2.553   5.989
 1770SOL     OW 5683   0.354   3.372   6.915
 1770SOL    HW1 5684   0.333   3.328   6.828
 1770SOL    HW2 5685   0.451   3.398   6.918
 1771SOL     OW 5686   0.402   2.613   7.184
 1771SOL    HW1 5687   0.470   2.668   7.137
 1771SOL    HW2 5688   0.442   2.525   7.211
 1772SOL     OW 5689   1.587   2.641   7.256
 1772SOL    HW1 5690   1.495   2.679   7.251
 1772SOL    HW2 5691   1.647   2.688   7.191
 1773SOL     OW 5692   1.013   1.967   7.356
 1773SOL    HW1 5693   1.019   2.052   7.304
 1773SOL    HW2 5694   1.045   1.891   7.299
 1774SOL     OW 5695   0.504   1.912   7.326
 1774SOL    HW1 5696   0.462   1.855   7.256
 1774SOL    HW2 5697   0.438   1.981   7.358
 1775SOL     OW 5698   0.573   2.732   6.615
 1775SOL    HW1 5699   0.617   2.821   6.606
 1775SOL    HW2 5700   0.510   2.732   6.692
 1776SOL     OW 5701   1.360   2.724   6.631
 1776SOL    HW1 5702   1.285   2.724   6.565
 1776SOL    HW2 5703   1.397   2.632   6.640
 1777SOL     OW 5704   1.209   2.387   5.861
 1777SOL    HW1 5705   1.222   2.303   5.915
 1777SOL    HW2 5706   1.180   2.461   5.921
 1778SOL     OW 5707   0.307   2.075   6.817
 1778SOL    HW1 5708   0.284   2.112   6.907
 1778SOL    HW2 5709   0.277   1.980   6.811
 1779SOL     OW 5710   0.037   3.172   6.868
 1779SOL    HW1 5711   0.090   3.123   6.936
 1779SOL    HW2 5712   0.059   3.270   6.873
 1780SOL     OW 5713   0.732   2.496   6.650
 1780SOL    HW1 5714   0.791   2.470   6.574
 1780SOL    HW2 5715   0.704   2.592   6.639
 1781SOL     OW 5716   1.728   2.797   7.440
 1781SOL    HW1 5717   1.682   2.790   7.351
 1781SOL    HW2 5718   1.666   2.841   7.506
 1782SOL     OW 5719   0.307   1.925   6.204
 1782SOL    HW1 5720   0.296   2.019   6.237
 1782SOL    HW2 5721   0.302   1.862   6.281
 1783SOL     OW 5722   1.622   2.229   5.960
 1783SOL    HW1 5723   1.624   2.153   6.024
 1783SOL    HW2 5724   1.574   2.306   6.000
 1784SOL     OW 5725   1.023   2.628   6.552
 1784SOL    HW1 5726   1.038   2.649   6.648
 1784SOL    HW2 5727   0.993   2.533   6.543
 1785SOL     OW 5728   0.980   3.435   7.286
 1785SOL    HW1 5729   0.960   3.479   7.198
 1785SOL    HW2 5730   1.019   3.344   7.270
 1786SOL     OW 5731   1.859   3.380   7.191
 1786SOL    HW1 5732   1.873   3.407   7.096
 1786SOL    HW2 5733   1.942   3.402   7.244
 1787SOL     OW 5734   0.350   2.760   7.390
 1787SOL    HW1 5735   0.426   2.804   7.438
 1787SOL    HW2 5736   0.385   2.713   7.308
 1788SOL     OW 5737   1.540   2.136   5.711
 1788SOL    HW1 5738   1.479   2.061   5.734
 1788SOL    HW2 5739   1.562   2.188   5.794
 1789SOL     OW 5740   1.303   2.700   5.628
 1789SOL    HW1 5741   1.337   2.607   5.643
 1789SOL    HW2 5742   1.321   2.727   5.533
 1790SOL     OW 5743   1.068   3.195   6.435
 1790SOL    HW1 5744   1.075   3.111   6.380
 1790SOL    HW2 5745   1.130   3.264   6.399
 1791SOL     OW 5746   0.319   2.672   6.535
 1791SOL    HW1 5747   0.412   2.708   6.540
 1791SOL    HW2 5748   0.313   2.587   6.587
 1792SOL     OW 5749   0.339   2.371   6.592
 1792SOL    HW1 5750   0.287   2.288   6.575
 1792SOL    HW2 5751   0.416   2.376   6.528
 1793SOL     OW 5752   1.138   2.242   7.264
 1793SOL    HW1 5753   1.093   2.305   7.328
 1793SOL    HW2 5754   1.231   2.273   7.247
 1794SOL     OW 5755   1.160   2.069   7.063
 1794SOL    HW1 5756   1.160   2.133   7.140
 1794SOL    HW2 5757   1.188   2.117   6.980
 1795SOL     OW 5758   0.008   3.188   5.786
 1795SOL    HW1 5759  -0.085   3.209   5.755
 1795SOL    HW2 5760   0.018   3.089   5.799
 1796SOL     OW 5761   0.088   3.663   6.513
 1796SOL    HW1 5762   0.046   3.577   6.486
 1796SOL    HW2 5763   0.182   3.666   6.479
 1797SOL     OW 5764   0.504   3.430   6.496
 1797SOL    HW1 5765   0.570   3.504   6.505
 1797SOL    HW2 5766   0.548   3.351   6.454
 1798SOL     OW 5767   1.002   2.658   6.824
 1798SOL    HW1 5768   1.043   2.626   6.910
 1798SOL    HW2 5769   0.906   2.631   6.821
 1799SOL     OW 5770   0.040   2.406   6.700
 1799SOL    HW1 5771   0.125   2.373   6.659
 1799SOL    HW2 5772   0.053   2.421   6.798
 1800SOL     OW 5773   0.189   2.382   7.308
 1800SOL    HW1 5774   0.248   2.342   7.238
 1800SOL    HW2 5775   0.131   2.453   7.267
 1801SOL     OW 5776   1.369   2.812   7.246
 1801SOL    HW1 5777   1.408   2.901   7.266
 1801SOL    HW2 5778   1.379   2.792   7.149
 1802SOL     OW 5779   0.815   2.434   5.911
 1802SOL    HW1 5780   0.822   2.345   5.865
 1802SOL    HW2 5781   0.721   2.468   5.903
 1803SOL     OW 5782   1.657   2.466   6.792
 1803SOL    HW1 5783   1.619   2.397   6.854
 1803SOL    HW2 5784   1.739   2.430   6.748
 1804SOL     OW 5785   0.252   3.426   7.330
 1804SOL    HW1 5786   0.222   3.483   7.406
 1804SOL    HW2 5787   0.245   3.329   7.356
 1805SOL     OW 5788   0.671   2.326   6.855
 1805SOL    HW1 5789   0.637   2.237   6.825
 1805SOL    HW2 5790   0.697   2.380   6.775
 1806SOL     OW 5791   0.930   3.540   7.051
 1806SOL    HW1 5792   0.906   3.522   6.956
 1806SOL    HW2 5793   0.960   3.634   7.061
 1807SOL     OW 5794   0.473   2.362   5.777
 1807SOL    HW1 5795   0.534   2.442   5.781
 1807SOL    HW2 5796   0.378   2.393   5.784
 1808SOL     OW 5797   0.159   2.999   7.052
 1808SOL    HW1 5798   0.181   2.938   7.128
 1808SOL    HW2 5799   0.169   2.950   6.966
 1809SOL     OW 5800   1.347   2.921   6.820
 1809SOL    HW1 5801   1.371   2.858   6.746
 1809SOL    HW2 5802   1.257   2.961   6.802
 1810SOL     OW 5803   1.302   2.717   5.895
 1810SOL    HW1 5804   1.216   2.686   5.937
 1810SOL    HW2 5805   1.298   2.703   5.796
 1811SOL     OW 5806   1.759   3.609   6.740
 1811SOL    HW1 5807   1.820   3.639   6.667
 1811SOL    HW2 5808   1.721   3.520   6.718
 1812SOL     OW 5809   1.252   3.593   6.714
 1812SOL    HW1 5810   1.336   3.598   6.660
 1812SOL    HW2 5811   1.229   3.497   6.732
 1813SOL     OW 5812   0.083   3.120   6.608
 1813SOL    HW1 5813   0.078   3.119   6.708
 1813SOL    HW2 5814   0.000   3.079   6.570
 1814SOL     OW 5815   0.688   3.524   7.302
 1814SOL    HW1 5816   0.632   3.605   7.311
 1814SOL    HW2 5817   0.740   3.528   7.216
 1815SOL     OW 5818   1.726   1.997   6.109
 1815SOL    HW1 5819   1.799   1.980   6.042
 1815SOL    HW2 5820   1.695   1.910   6.147
 1816SOL     OW 5821   1.388   3.435   6.063
 1816SOL    HW1 5822   1.455   3.447   5.989
 1816SOL    HW2 5823   1.348   3.524   6.086
 1817SOL     OW 5824   0.130   3.656   7.437
 1817SOL    HW1 5825   0.089   3.582   7.490
 1817SOL    HW2 5826   0.194   3.707   7.495
 1818SOL     OW 5827   1.280   2.789   6.258
 1818SOL    HW1 5828   1.340   2.708   6.260
 1818SOL    HW2 5829   1.320   2.858   6.198
 1819SOL     OW 5830   0.830   3.135   7.008
 1819SOL    HW1 5831   0.825   3.168   7.103
 1819SOL    HW2 5832   0.744   3.154   6.962
 1820SOL     OW 5833   0.672   3.478   5.740
 1820SOL    HW1 5834   0.681   3.488   5.641
 1820SOL    HW2 5835   0.632   3.389   5.761
 1821SOL     OW 5836   1.650   3.582   6.980
 1821SOL    HW1 5837   1.703   3.592   6.896
 1821SOL    HW2 5838   1.623   3.672   7.014
 1822SOL     OW 5839   1.841   2.037   6.549
 1822SOL    HW1 5840   1.880   1.952   6.513
 1822SOL    HW2 5841   1.743   2.039   6.530
 1823SOL     OW 5842   0.263   2.188   6.306
 1823SOL    HW1 5843   0.184   2.239   6.272
 1823SOL    HW2 5844   0.254   2.173   6.404
 1824SOL     OW 5845   1.194   3.474   5.617
 1824SOL    HW1 5846   1.200   3.381   5.654
 1824SOL    HW2 5847   1.135   3.474   5.537
 1825SOL     OW 5848   0.822   2.864   6.958
 1825SOL    HW1 5849   0.862   2.863   6.866
 1825SOL    HW2 5850   0.832   2.956   6.998
 1826SOL     OW 5851   0.916   2.772   5.877
 1826SOL    HW1 5852   0.979   2.810   5.809
 1826SOL    HW2 5853   0.956   2.689   5.916
 1827SOL     OW 5854   1.504   3.469   5.630
 1827SOL    HW1 5855   1.412   3.506   5.637
 1827SOL    HW2 5856   1.542   3.489   5.540
 1828SOL     OW 5857   0.372   3.150   7.076
 1828SOL    HW1 5858   0.359   3.243   7.042
 1828SOL    HW2 5859   0.288   3.098   7.063
 1829SOL     OW 5860   1.614   3.154   6.875
 1829SOL    HW1 5861   1.674   3.157   6.955
 1829SOL    HW2 5862   1.539   3.218   6.888
 1830SOL     OW 5863   1.039   2.960   6.282
 1830SOL    HW1 5864   0.969   2.913   6.336
 1830SOL    HW2 5865   1.098   2.892   6.239
 1831SOL     OW 5866   1.014   2.098   6.557
 1831SOL    HW1 5867   1.006   2.062   6.464
 1831SOL    HW2 5868   1.012   2.022   6.622
 1832SOL     OW 5869   0.590   3.349   6.077
 1832SOL    HW1 5870   0.632   3.291   6.007
 1832SOL    HW2 5871   0.546   3.428   6.033
 1833SOL     OW 5872   1.709   2.247   6.967
 1833SOL    HW1 5873   1.782   2.316   6.971
 1833SOL    HW2 5874   1.737   2.172   6.908
 1834SOL     OW 5875   0.255   3.210   5.876
 1834SOL    HW1 5876   0.159   3.211   5.849
 1834SOL    HW2 5877   0.267   3.263   5.960
 1835SOL     OW 5878   0.105   2.875   7.312
 1835SOL    HW1 5879   0.028   2.842   7.366
 1835SOL    HW2 5880   0.190   2.845   7.354
 1836SOL     OW 5881   0.672   2.065   7.075
 1836SOL    HW1 5882   0.762   2.049   7.035
 1836SOL    HW2 5883   0.680   2.070   7.174
 1837SOL     OW 5884   0.075   2.207   5.619
 1837SOL    HW1 5885  -0.017   2.179   5.590
 1837SOL    HW2 5886   0.106   2.284   5.563
 1838SOL     OW 5887   1.440   2.718   6.984
 1838SOL    HW1 5888   1.383   2.770   6.921
 1838SOL    HW2 5889   1.536   2.730   6.960
 1839SOL     OW 5890   0.072   2.028   5.904
 1839SOL    HW1 5891   0.055   2.111   5.850
 1839SOL    HW2 5892   0.162   1.991   5.882
 1840SOL     OW 5893   1.183   3.197   5.705
 1840SOL    HW1 5894   1.084   3.186   5.707
 1840SOL    HW2 5895   1.217   3.212   5.798
 1841SOL     OW 5896   0.613   2.704   7.017
 1841SOL    HW1 5897   0.669   2.785   7.000
 1841SOL    HW2 5898   0.672   2.624   7.020
 1842SOL     OW 5899   1.493   3.629   6.545
 1842SOL    HW1 5900   1.526   3.693   6.476
 1842SOL    HW2 5901   1.559   3.623   6.620
 1843SOL     OW 5902   0.716   2.427   7.294
 1843SOL    HW1 5903   0.735   2.492   7.368
 1843SOL    HW2 5904   0.776   2.347   7.303
 1844SOL     OW 5905   1.450   3.082   7.219
 1844SOL    HW1 5906   1.441   3.072   7.318
 1844SOL    HW2 5907   1.546   3.075   7.193
 1845SOL     OW 5908   0.390   3.603   7.146
 1845SOL    HW1 5909   0.299   3.644   7.144
 1845SOL    HW2 5910   0.383   3.509   7.178
 1846SOL     OW 5911   1.674   2.745   6.840
 1846SOL    HW1 5912   1.647   2.656   6.803
 1846SOL    HW2 5913   1.675   2.813   6.767
 1847SOL     OW 5914   1.225   2.187   6.035
 1847SOL    HW1 5915   1.290   2.113   6.024
 1847SOL    HW2 5916   1.245   2.237   6.119
 1848SOL     OW 5917   0.594   2.607   6.238
 1848SOL    HW1 5918   0.644   2.692   6.219
 1848SOL    HW2 5919   0.506   2.609   6.190
 1849SOL     OW 5920   1.777   2.204   7.228
 1849SOL    HW1 5921   1.760   2.235   7.134
 1849SOL    HW2 5922   1.693   2.167   7.266
 1850SOL     OW 5923   1.730   2.796   7.103
 1850SOL    HW1 5924   1.768   2.887   7.118
 1850SOL    HW2 5925   1.722   2.779   7.004
 1851SOL     OW 5926   0.859   3.236   5.602
 1851SOL    HW1 5927   0.813   3.251   5.690
 1851SOL    HW2 5928   0.903   3.321   5.572
 1852SOL     OW 5929   0.661   3.652   6.539
 1852SOL    HW1 5930   0.615   3.740   6.526
 1852SOL    HW2 5931   0.760   3.664   6.532
 1853SOL     OW 5932   0.859   2.818   6.447
 1853SOL    HW1 5933   0.913   2.749   6.495
 1853SOL    HW2 5934   0.827   2.887   6.513
 1854SOL     OW 5935   1.083   2.846   5.673
 1854SOL    HW1 5936   1.060   2.899   5.591
 1854SOL    HW2 5937   1.164   2.790   5.654
 1855SOL     OW 5938   1.861   3.431   6.437
 1855SOL    HW1 5939   1.790   3.419   6.367
 1855SOL    HW2 5940   1.862   3.352   6.497
 1856SOL     OW 5941   0.221   3.176   7.430
 1856SOL    HW1 5942   0.156   3.103   7.409
 1856SOL    HW2 5943   0.225   3.190   7.528
 1857SOL     OW 5944   0.079   3.102   6.239
 1857SOL    HW1 5945   0.078   3.055   6.327
 1857SOL    HW2 5946   0.161   3.074   6.188
 1858SOL     OW 5947   0.672   3.253   7.210
 1858SOL    HW1 5948   0.594   3.203   7.248
 1858SOL    HW2 5949   0.669   3.348   7.241
 1859SOL     OW 5950   1.824   2.054   6.813
 1859SOL    HW1 5951   1.820   1.964   6.857
 1859SOL    HW2 5952   1.827   2.043   6.714
 1860SOL     OW 5953   0.428   2.286   6.106
 1860SOL    HW1 5954   0.458   2.214   6.044
 1860SOL    HW2 5955   0.389   2.246   6.189
 1861SOL     OW 5956   1.705   3.349   6.690
 1861SOL    HW1 5957   1.612   3.324   6.663
 1861SOL    HW2 5958   1.731   3.299   6.772
 1862SOL     OW 5959   0.317   2.409   6.866
 1862SOL    HW1 5960   0.355   2.350   6.938
 1862SOL    HW2 5961   0.357   2.383   6.778
 1863SOL     OW 5962   0.812   3.448   6.273
 1863SOL    HW1 5963   0.844   3.458   6.179
 1863SOL    HW2 5964   0.733   3.386   6.275
 1864SOL     OW 5965   1.424   2.076   6.698
 1864SOL    HW1 5966   1.476   2.011   6.753
 1864SOL    HW2 5967   1.375   2.139   6.759
 1865SOL     OW 5968   1.001   1.896   6.740
 1865SOL    HW1 5969   0.938   1.824   6.709
 1865SOL    HW2 5970   1.094   1.860   6.740
 1866SOL     OW 5971   0.770   3.192   5.887
 1866SOL    HW1 5972   0.724   3.105   5.904
 1866SOL    HW2 5973   0.861   3.189   5.928
 1867SOL     OW 5974   0.618   3.429   6.870
 1867SOL    HW1 5975   0.613   3.511   6.927
 1867SOL    HW2 5976   0.707   3.426   6.825
 1868SOL     OW 5977   1.352   1.914   5.754
 1868SOL    HW1 5978   1.387   1.873   5.670
 1868SOL    HW2 5979   1.262   1.876   5.774
 1869SOL     OW 5980   1.300   2.315   6.277
 1869SOL    HW1 5981   1.241   2.395   6.281
 1869SOL    HW2 5982   1.315   2.280   6.370
 1870SOL     OW 5983   1.593   2.083   6.468
 1870SOL    HW1 5984   1.509   2.082   6.522
 1870SOL    HW2 5985   1.595   2.166   6.412
 1871SOL     OW 5986   0.039   2.939   5.886
 1871SOL    HW1 5987   0.138   2.928   5.877
 1871SOL    HW2 5988  -0.001   2.853   5.918
 1872SOL     OW 5989   0.875   3.508   5.923
 1872SOL    HW1 5990   0.798   3.473   5.869
 1872SOL    HW2 5991   0.843   3.579   5.985
 1873SOL     OW 5992   0.230   2.490   7.561
 1873SOL    HW1 5993   0.137   2.488   7.598
 1873SOL    HW2 5994   0.231   2.451   7.469
 1874SOL     OW 5995   0.225   2.137   8.444
 1874SOL    HW1 5996   0.260   2.120   8.536
 1874SOL    HW2 5997   0.137   2.092   8.432
 1875SOL     OW 5998   0.019   2.230   8.095
 1875SOL    HW1 5999  -0.063   2.273   8.134
 1875SOL    HW2 6000  -0.009   2.157   8.032
 1876SOL     OW 6001   0.569   3.137   8.613
 1876SOL    HW1 6002   0.476   3.130   8.576
 1876SOL    HW2 6003   0.580   3.226   8.657
 1877SOL     OW 6004   1.555   3.373   8.151
 1877SOL    HW1 6005   1.498   3.357   8.232
 1877SOL    HW2 6006   1.496   3.383   8.071
 1878SOL     OW 6007   1.135   2.565   8.165
 1878SOL    HW1 6008   1.192   2.643   8.140
 1878SOL    HW2 6009   1.075   2.591   8.241
 1879SOL     OW 6010   1.755   2.469   7.679
 1879SOL    HW1 6011   1.743   2.456   7.580
 1879SOL    HW2 6012   1.725   2.388   7.728
 1880SOL     OW 6013   0.768   3.006   8.471
 1880SOL    HW1 6014   0.690   3.023   8.531
 1880SOL    HW2 6015   0.802   3.093   8.435
 1881SOL     OW 6016   0.685   2.874   8.113
 1881SOL    HW1 6017   0.754   2.858   8.183
 1881SOL    HW2 6018   0.612   2.931   8.151
 1882SOL     OW 6019   0.335   3.297   8.509
 1882SOL    HW1 6020   0.257   3.266   8.456
 1882SOL    HW2 6021   0.393   3.355   8.452
 1883SOL     OW 6022   1.460   3.367   8.787
 1883SOL    HW1 6023   1.484   3.461   8.813
 1883SOL    HW2 6024   1.444   3.313   8.869
 1884SOL     OW 6025   0.438   2.254   8.947
 1884SOL    HW1 6026   0.520   2.198   8.956
 1884SOL    HW2 6027   0.357   2.196   8.951
 1885SOL     OW 6028   1.603   2.309   8.185
 1885SOL    HW1 6029   1.529   2.355   8.135
 1885SOL    HW2 6030   1.654   2.377   8.238
 1886SOL     OW 6031   0.231   3.575   7.931
 1886SOL    HW1 6032   0.265   3.652   7.985
 1886SOL    HW2 6033   0.275   3.575   7.841
 1887SOL     OW 6034   0.230   3.296   7.986
 1887SOL    HW1 6035   0.204   3.392   7.986
 1887SOL    HW2 6036   0.159   3.242   8.031
 1888SOL     OW 6037   0.240   2.953   8.334
 1888SOL    HW1 6038   0.254   2.869   8.386
 1888SOL    HW2 6039   0.185   3.017   8.389
 1889SOL     OW 6040   0.620   3.648   8.887
 1889SOL    HW1 6041   0.528   3.631   8.922
 1889SOL    HW2 6042   0.648   3.740   8.913
 1890SOL     OW 6043   0.606   2.826   7.571
 1890SOL    HW1 6044   0.613   2.910   7.517
 1890SOL    HW2 6045   0.652   2.839   7.659
 1891SOL     OW 6046   1.594   1.976   8.928
 1891SOL    HW1 6047   1.576   2.043   8.856
 1891SOL    HW2 6048   1.591   2.022   9.017
 1892SOL     OW 6049   0.122   2.505   8.011
 1892SOL    HW1 6050   0.077   2.417   8.028
 1892SOL    HW2 6051   0.121   2.559   8.095
 1893SOL     OW 6052   1.842   3.629   7.807
 1893SOL    HW1 6053   1.896   3.600   7.887
 1893SOL    HW2 6054   1.872   3.719   7.778
 1894SOL     OW 6055   0.027   3.458   7.565
 1894SOL    HW1 6056   0.008   3.362   7.586
 1894SOL    HW2 6057  -0.006   3.516   7.640
 1895SOL     OW 6058   1.689   2.784   8.060
 1895SOL    HW1 6059   1.784   2.755   8.068
 1895SOL    HW2 6060   1.681   2.849   7.985
 1896SOL     OW 6061   1.641   2.970   7.880
 1896SOL    HW1 6062   1.727   2.972   7.828
 1896SOL    HW2 6063   1.655   3.017   7.968
 1897SOL     OW 6064   0.613   3.227   8.174
 1897SOL    HW1 6065   0.564   3.140   8.183
 1897SOL    HW2 6066   0.590   3.270   8.087
 1898SOL     OW 6067   0.809   1.866   7.950
 1898SOL    HW1 6068   0.849   1.957   7.941
 1898SOL    HW2 6069   0.709   1.874   7.956
 1899SOL     OW 6070   0.197   2.838   8.712
 1899SOL    HW1 6071   0.286   2.793   8.698
 1899SOL    HW2 6072   0.124   2.773   8.693
 1900SOL     OW 6073   1.525   2.861   7.638
 1900SOL    HW1 6074   1.462   2.785   7.651
 1900SOL    HW2 6075   1.573   2.879   7.724
 1901SOL     OW 6076   0.317   2.113   9.249
 1901SOL    HW1 6077   0.388   2.184   9.255
 1901SOL    HW2 6078   0.229   2.152   9.277
 1902SOL     OW 6079   1.466   3.279   8.401
 1902SOL    HW1 6080   1.407   3.285   8.481
 1902SOL    HW2 6081   1.451   3.191   8.355
 1903SOL     OW 6082   1.667   3.576   8.020
 1903SOL    HW1 6083   1.626   3.553   7.932
 1903SOL    HW2 6084   1.649   3.502   8.085
 1904SOL     OW 6085   0.598   2.591   7.718
 1904SOL    HW1 6086   0.622   2.660   7.650
 1904SOL    HW2 6087   0.520   2.624   7.772
 1905SOL     OW 6088   1.281   2.207   8.392
 1905SOL    HW1 6089   1.195   2.157   8.379
 1905SOL    HW2 6090   1.343   2.153   8.448
 1906SOL     OW 6091   1.576   3.524   7.755
 1906SOL    HW1 6092   1.665   3.570   7.758
 1906SOL    HW2 6093   1.555   3.500   7.660
 1907SOL     OW 6094   0.807   2.467   8.913
 1907SOL    HW1 6095   0.760   2.464   9.002
 1907SOL    HW2 6096   0.756   2.412   8.847
 1908SOL     OW 6097   0.991   2.272   8.690
 1908SOL    HW1 6098   0.914   2.306   8.744
 1908SOL    HW2 6099   0.957   2.221   8.611
 1909SOL     OW 6100   1.041   2.563   7.877
 1909SOL    HW1 6101   1.067   2.559   7.973
 1909SOL    HW2 6102   0.956   2.512   7.863
 1910SOL     OW 6103   0.076   2.673   8.237
 1910SOL    HW1 6104   0.175   2.661   8.246
 1910SOL    HW2 6105   0.052   2.768   8.258
 1911SOL     OW 6106   0.130   3.683   9.019
 1911SOL    HW1 6107   0.120   3.668   9.118
 1911SOL    HW2 6108   0.044   3.719   8.983
 1912SOL     OW 6109   0.865   2.210   7.643
 1912SOL    HW1 6110   0.924   2.273   7.594
 1912SOL    HW2 6111   0.884   2.116   7.614
 1913SOL     OW 6112   1.362   3.006   7.993
 1913SOL    HW1 6113   1.445   2.977   7.945
 1913SOL    HW2 6114   1.313   3.073   7.937
 1914SOL     OW 6115   0.550   2.058   8.333
 1914SOL    HW1 6116   0.545   2.053   8.433
 1914SOL    HW2 6117   0.552   2.154   8.304
 1915SOL     OW 6118   1.008   3.318   7.925
 1915SOL    HW1 6119   0.962   3.390   7.873
 1915SOL    HW2 6120   1.004   3.338   8.023
 1916SOL     OW 6121   0.351   3.663   8.301
 1916SOL    HW1 6122   0.401   3.577   8.307
 1916SOL    HW2 6123   0.416   3.740   8.298
 1917SOL     OW 6124   1.795   2.928   8.321
 1917SOL    HW1 6125   1.733   2.913   8.245
 1917SOL    HW2 6126   1.743   2.939   8.406
 1918SOL     OW 6127   0.321   2.805   7.690
 1918SOL    HW1 6128   0.403   2.844   7.648
 1918SOL    HW2 6129   0.294   2.723   7.641
 1919SOL     OW 6130   1.458   2.597   8.176
 1919SOL    HW1 6131   1.453   2.532   8.251
 1919SOL    HW2 6132   1.538   2.656   8.189
 1920SOL     OW 6133   1.111   3.638   7.685
 1920SOL    HW1 6134   1.051   3.576   7.735
 1920SOL    HW2 6135   1.142   3.594   7.600
 1921SOL     OW 6136   1.632   3.239   7.529
 1921SOL    HW1 6137   1.600   3.333   7.519
 1921SOL    HW2 6138   1.556   3.176   7.517
 1922SOL     OW 6139   0.464   3.605   7.771
 1922SOL    HW1 6140   0.497   3.644   7.857
 1922SOL    HW2 6141   0.540   3.598   7.706
 1923SOL     OW 6142   1.400   1.969   7.874
 1923SOL    HW1 6143   1.376   1.932   7.784
 1923SOL    HW2 6144   1.499   1.985   7.878
 1924SOL     OW 6145   0.249   3.647   8.689
 1924SOL    HW1 6146   0.306   3.582   8.739
 1924SOL    HW2 6147   0.233   3.614   8.596
 1925SOL     OW 6148   0.940   3.560   8.352
 1925SOL    HW1 6149   1.020   3.503   8.373
 1925SOL    HW2 6150   0.891   3.520   8.275
 1926SOL     OW 6151   0.382   2.562   7.928
 1926SOL    HW1 6152   0.427   2.472   7.925
 1926SOL    HW2 6153   0.288   2.551   7.961
 1927SOL     OW 6154   0.614   1.984   7.565
 1927SOL    HW1 6155   0.712   1.962   7.572
 1927SOL    HW2 6156   0.583   1.967   7.472
 1928SOL     OW 6157   0.888   3.376   8.643
 1928SOL    HW1 6158   0.865   3.351   8.549
 1928SOL    HW2 6159   0.949   3.307   8.682
 1929SOL     OW 6160   0.803   3.264   8.372
 1929SOL    HW1 6161   0.893   3.278   8.330
 1929SOL    HW2 6162   0.732   3.266   8.301
 1930SOL     OW 6163   0.922   2.365   8.347
 1930SOL    HW1 6164   0.897   2.356   8.251
 1930SOL    HW2 6165   0.970   2.283   8.378
 1931SOL     OW 6166   0.539   1.926   7.960
 1931SOL    HW1 6167   0.458   1.927   8.018
 1931SOL    HW2 6168   0.542   2.009   7.905
 1932SOL     OW 6169   1.434   3.050   7.489
 1932SOL    HW1 6170   1.466   2.974   7.546
 1932SOL    HW2 6171   1.342   3.077   7.519
 1933SOL     OW 6172   0.297   1.897   7.619
 1933SOL    HW1 6173   0.346   1.981   7.598
 1933SOL    HW2 6174   0.359   1.832   7.664
 1934SOL     OW 6175   0.935   2.098   7.928
 1934SOL    HW1 6176   0.887   2.139   7.850
 1934SOL    HW2 6177   1.034   2.096   7.909
 1935SOL     OW 6178   1.227   3.432   8.241
 1935SOL    HW1 6179   1.248   3.506   8.176
 1935SOL    HW2 6180   1.295   3.432   8.314
 1936SOL     OW 6181   0.459   3.014   8.189
 1936SOL    HW1 6182   0.388   2.987   8.254
 1936SOL    HW2 6183   0.433   2.986   8.096
 1937SOL     OW 6184   1.271   3.659   8.039
 1937SOL    HW1 6185   1.315   3.723   7.975
 1937SOL    HW2 6186   1.221   3.711   8.109
 1938SOL     OW 6187   1.032   2.411   7.464
 1938SOL    HW1 6188   0.991   2.493   7.425
 1938SOL    HW2 6189   1.096   2.437   7.537
 1939SOL     OW 6190   0.078   2.418   8.834
 1939SOL    HW1 6191   0.170   2.417   8.793
 1939SOL    HW2 6192   0.072   2.492   8.901
 1940SOL     OW 6193   0.561   2.084   8.595
 1940SOL    HW1 6194   0.599   2.000   8.632
 1940SOL    HW2 6195   0.473   2.103   8.639
 1941SOL     OW 6196   0.866   2.316   8.090
 1941SOL    HW1 6197   0.834   2.388   8.028
 1941SOL    HW2 6198   0.890   2.235   8.037
 1942SOL     OW 6199   1.017   1.901   8.201
 1942SOL    HW1 6200   0.945   1.906   8.132
 1942SOL    HW2 6201   0.993   1.832   8.270
 1943SOL     OW 6202   1.429   3.035   8.315
 1943SOL    HW1 6203   1.374   2.951   8.308
 1943SOL    HW2 6204   1.455   3.064   8.223
 1944SOL     OW 6205   1.466   2.452   8.440
 1944SOL    HW1 6206   1.436   2.357   8.447
 1944SOL    HW2 6207   1.539   2.468   8.506
 1945SOL     OW 6208   1.857   2.695   7.825
 1945SOL    HW1 6209   1.899   2.631   7.889
 1945SOL    HW2 6210   1.819   2.644   7.747
 1946SOL     OW 6211   0.488   3.247   7.622
 1946SOL    HW1 6212   0.401   3.232   7.669
 1946SOL    HW2 6213   0.471   3.273   7.527
 1947SOL     OW 6214   1.664   3.142   8.105
 1947SOL    HW1 6215   1.763   3.150   8.119
 1947SOL    HW2 6216   1.619   3.226   8.136
 1948SOL     OW 6217   1.390   2.437   7.526
 1948SOL    HW1 6218   1.336   2.416   7.607
 1948SOL    HW2 6219   1.481   2.396   7.535
 1949SOL     OW 6220   0.527   2.118   7.776
 1949SOL    HW1 6221   0.554   2.059   7.701
 1949SOL    HW2 6222   0.527   2.213   7.745
 1950SOL     OW 6223   1.064   3.209   8.788
 1950SOL    HW1 6224   0.984   3.186   8.843
 1950SOL    HW2 6225   1.147   3.183   8.837
 1951SOL     OW 6226   1.111   3.057   8.548
 1951SOL    HW1 6227   1.071   3.101   8.629
 1951SOL    HW2 6228   1.070   3.094   8.465
 1952SOL     OW 6229   1.638   2.961   8.527
 1952SOL    HW1 6230   1.643   3.042   8.586
 1952SOL    HW2 6231   1.552   2.963   8.476
 1953SOL     OW 6232   0.915   1.951   8.850
 1953SOL    HW1 6233   0.940   1.931   8.755
 1953SOL    HW2 6234   0.987   2.007   8.892
 1954SOL     OW 6235   0.705   2.912   7.816
 1954SOL    HW1 6236   0.691   2.919   7.915
 1954SOL    HW2 6237   0.789   2.861   7.798
 1955SOL     OW 6238   0.410   2.675   8.699
 1955SOL    HW1 6239   0.496   2.687   8.749
 1955SOL    HW2 6240   0.368   2.588   8.726
 1956SOL     OW 6241   1.274   2.248   8.710
 1956SOL    HW1 6242   1.295   2.322   8.774
 1956SOL    HW2 6243   1.185   2.265   8.667
 1957SOL     OW 6244   0.064   3.426   8.779
 1957SOL    HW1 6245   0.018   3.508   8.745
 1957SOL    HW2 6246   0.162   3.445   8.788
 1958SOL     OW 6247   0.367   2.962   7.949
 1958SOL    HW1 6248   0.360   3.045   7.893
 1958SOL    HW2 6249   0.371   2.882   7.889
 1959SOL     OW 6250   0.566   2.399   8.313
 1959SOL    HW1 6251   0.578   2.465   8.239
 1959SOL    HW2 6252   0.612   2.433   8.396
 1960SOL     OW 6253   1.252   3.210   7.836
 1960SOL    HW1 6254   1.302   3.287   7.876
 1960SOL    HW2 6255   1.157   3.212   7.868
 1961SOL     OW 6256   1.272   3.307   8.590
 1961SOL    HW1 6257   1.319   3.320   8.677
 1961SOL    HW2 6258   1.206   3.233   8.599
 1962SOL     OW 6259   1.582   2.501   7.920
 1962SOL    HW1 6260   1.551   2.562   7.993
 1962SOL    HW2 6261   1.632   2.553   7.851
 1963SOL     OW 6262   0.354   3.372   8.777
 1963SOL    HW1 6263   0.333   3.328   8.690
 1963SOL    HW2 6264   0.451   3.398   8.780
 1964SOL     OW 6265   0.402   2.613   9.046
 1964SOL    HW1 6266   0.470   2.668   8.999
 1964SOL    HW2 6267   0.442   2.525   9.073
 1965SOL     OW 6268   1.587   2.641   9.118
 1965SOL    HW1 6269   1.495   2.679   9.113
 1965SOL    HW2 6270   1.647   2.688   9.053
 1966SOL     OW 6271   0.573   2.732   8.477
 1966SOL    HW1 6272   0.617   2.821   8.468
 1966SOL    HW2 6273   0.510   2.732   8.554
 1967SOL     OW 6274   1.360   2.724   8.493
 1967SOL    HW1 6275   1.285   2.724   8.427
 1967SOL    HW2 6276   1.397   2.632   8.502
 1968SOL     OW 6277   1.209   2.387   7.723
 1968SOL    HW1 6278   1.222   2.303   7.777
 1968SOL    HW2 6279   1.180   2.461   7.783
 1969SOL     OW 6280   0.307   2.075   8.679
 1969SOL    HW1 6281   0.284   2.112   8.769
 1969SOL    HW2 6282   0.277   1.980   8.673
 1970SOL     OW 6283   0.037   3.172   8.730
 1970SOL    HW1 6284   0.090   3.123   8.798
 1970SOL    HW2 6285   0.059   3.270   8.735
 1971SOL     OW 6286   0.732   2.496   8.512
 1971SOL    HW1 6287   0.791   2.470   8.436
 1971SOL    HW2 6288   0.704   2.592   8.501
 1972SOL     OW 6289   0.307   1.925   8.066
 1972SOL    HW1 6290   0.296   2.019   8.099
 1972SOL    HW2 6291   0.302   1.862   8.143
 1973SOL     OW 6292   1.622   2.229   7.822
 1973SOL    HW1 6293   1.624   2.153   7.886
 1973SOL    HW2 6294   1.574   2.306   7.862
 1974SOL     OW 6295   1.023   2.628   8.414
 1974SOL    HW1 6296   1.038   2.649   8.510
 1974SOL    HW2 6297   0.993   2.533   8.405
 1975SOL     OW 6298   0.980   3.435   9.148
 1975SOL    HW1 6299   0.960   3.479   9.060
 1975SOL    HW2 6300   1.019   3.344   9.132
 1976SOL     OW 6301   1.540   2.136   7.573
 1976SOL    HW1 6302   1.479   2.061   7.596
 1976SOL    HW2 6303   1.562   2.188   7.656
 1977SOL     OW 6304   1.303   2.700   7.490
 1977SOL    HW1 6305   1.337   2.607   7.505
 1977SOL    HW2 6306   1.321   2.727   7.395
 1978SOL     OW 6307   1.068   3.195   8.297
 1978SOL    HW1 6308   1.075   3.111   8.242
 1978SOL    HW2 6309   1.130   3.264   8.261
 1979SOL     OW 6310   0.319   2.672   8.397
 1979SOL    HW1 6311   0.412   2.708   8.402
 1979SOL    HW2 6312   0.313   2.587   8.449
 1980SOL     OW 6313   0.339   2.371   8.454
 1980SOL    HW1 6314   0.287   2.288   8.437
 1980SOL    HW2 6315   0.416   2.376   8.390
 1981SOL     OW 6316   1.138   2.242   9.126
 1981SOL    HW1 6317   1.093   2.305   9.190
 1981SOL    HW2 6318   1.231   2.273   9.109
 1982SOL     OW 6319   1.160   2.069   8.925
 1982SOL    HW1 6320   1.160   2.133   9.002
 1982SOL    HW2 6321   1.188   2.117   8.842
 1983SOL     OW 6322   0.008   3.188   7.648
 1983SOL    HW1 6323  -0.085   3.209   7.617
 1983SOL    HW2 6324   0.018   3.089   7.661
 1984SOL     OW 6325   0.088   3.663   8.375
 1984SOL    HW1 6326   0.046   3.577   8.348
 1984SOL    HW2 6327   0.182   3.666   8.341
 1985SOL     OW 6328   0.504   3.430   8.358
 1985SOL    HW1 6329   0.570   3.504   8.367
 1985SOL    HW2 6330   0.548   3.351   8.316
 1986SOL     OW 6331   1.002   2.658   8.686
 1986SOL    HW1 6332   1.043   2.626   8.772
 1986SOL    HW2 6333   0.906   2.631   8.683
 1987SOL     OW 6334   0.040   2.406   8.562
 1987SOL    HW1 6335   0.125   2.373   8.521
 1987SOL    HW2 6336   0.053   2.421   8.660
 1988SOL     OW 6337   0.815   2.434   7.773
 1988SOL    HW1 6338   0.822   2.345   7.727
 1988SOL    HW2 6339   0.721   2.468   7.765
 1989SOL     OW 6340   1.657   2.466   8.654
 1989SOL    HW1 6341   1.619   2.397   8.716
 1989SOL    HW2 6342   1.739   2.430   8.610
 1990SOL     OW 6343   0.671   2.326   8.717
 1990SOL    HW1 6344   0.637   2.237   8.687
 1990SOL    HW2 6345   0.697   2.380   8.637
 1991SOL     OW 6346   0.930   3.540   8.913
 1991SOL    HW1 6347   0.906   3.522   8.818
 1991SOL    HW2 6348   0.960   3.634   8.923
 1992SOL     OW 6349   0.473   2.362   7.639
 1992SOL    HW1 6350   0.534   2.442   7.643
 1992SOL    HW2 6351   0.378   2.393   7.646
 1993SOL     OW 6352   0.159   2.999   8.914
 1993SOL    HW1 6353   0.181   2.938   8.990
 1993SOL    HW2 6354   0.169   2.950   8.828
 1994SOL     OW 6355   1.347   2.921   8.682
 1994SOL    HW1 6356   1.371   2.858   8.608
 1994SOL    HW2 6357   1.257   2.961   8.664
 1995SOL     OW 6358   1.302   2.717   7.757
 1995SOL    HW1 6359   1.216   2.686   7.799
 1995SOL    HW2 6360   1.298   2.703   7.658
 1996SOL     OW 6361   1.759   3.609   8.602
 1996SOL    HW1 6362   1.820   3.639   8.529
 1996SOL    HW2 6363   1.721   3.520   8.580
 1997SOL     OW 6364   1.252   3.593   8.576
 1997SOL    HW1 6365   1.336   3.598   8.522
 1997SOL    HW2 6366   1.229   3.497   8.594
 1998SOL     OW 6367   0.083   3.120   8.470
 1998SOL    HW1 6368   0.078   3.119   8.570
 1998SOL    HW2 6369   0.000   3.079   8.432
 1999SOL     OW 6370   1.726   1.997   7.971
 1999SOL    HW1 6371   1.799   1.980   7.904
 1999SOL    HW2 6372   1.695   1.910   8.009
 2000SOL     OW 6373   1.388   3.435   7.925
 2000SOL    HW1 6374   1.455   3.447   7.851
 2000SOL    HW2 6375   1.348   3.524   7.948
 2001SOL     OW 6376   1.280   2.789   8.120
 2001SOL    HW1 6377   1.340   2.708   8.122
 2001SOL    HW2 6378   1.320   2.858   8.060
 2002SOL     OW 6379   0.672   3.478   7.602
 2002SOL    HW1 6380   0.681   3.488   7.503
 2002SOL    HW2 6381   0.632   3.389   7.623
 2003SOL     OW 6382   1.650   3.582   8.842
 2003SOL    HW1 6383   1.703   3.592   8.758
 2003SOL    HW2 6384   1.623   3.672   8.876
 2004SOL     OW 6385   1.841   2.037   8.411
 2004SOL    HW1 6386   1.880   1.952   8.375
 2004SOL    HW2 6387   1.743   2.039   8.392
 2005SOL     OW 6388   0.263   2.188   8.168
 2005SOL    HW1 6389   0.184   2.239   8.134
 2005SOL    HW2 6390   0.254   2.173   8.266
 2006SOL     OW 6391   1.194   3.474   7.479
 2006SOL    HW1 6392   1.200   3.381   7.516
 2006SOL    HW2 6393   1.135   3.474   7.399
 2007SOL     OW 6394   0.822   2.864   8.820
 2007SOL    HW1 6395   0.862   2.863   8.728
 2007SOL    HW2 6396   0.832   2.956   8.860
 2008SOL     OW 6397   0.916   2.772   7.739
 2008SOL    HW1 6398   0.979   2.810   7.671
 2008SOL    HW2 6399   0.956   2.689   7.778
 2009SOL     OW 6400   1.504   3.469   7.492
 2009SOL    HW1 6401   1.412   3.506   7.499
 2009SOL    HW2 6402   1.542   3.489   7.402
 2010SOL     OW 6403   0.372   3.150   8.938
 2010SOL    HW1 6404   0.359   3.243   8.904
 2010SOL    HW2 6405   0.288   3.098   8.925
 2011SOL     OW 6406   1.614   3.154   8.737
 2011SOL    HW1 6407   1.674   3.157   8.817
 2011SOL    HW2 6408   1.539   3.218   8.750
 2012SOL     OW 6409   1.039   2.960   8.144
 2012SOL    HW1 6410   0.969   2.913   8.198
 2012SOL    HW2 6411   1.098   2.892   8.101
 2013SOL     OW 6412   1.014   2.098   8.419
 2013SOL    HW1 6413   1.006   2.062   8.326
 2013SOL    HW2 6414   1.012   2.022   8.484
 2014SOL     OW 6415   0.590   3.349   7.939
 2014SOL    HW1 6416   0.632   3.291   7.869
 2014SOL    HW2 6417   0.546   3.428   7.895
 2015SOL     OW 6418   1.709   2.247   8.829
 2015SOL    HW1 6419   1.782   2.316   8.833
 2015SOL    HW2 6420   1.737   2.172   8.770
 2016SOL     OW 6421   0.255   3.210   7.738
 2016SOL    HW1 6422   0.159   3.211   7.711
 2016SOL    HW2 6423   0.267   3.263   7.822
 2017SOL     OW 6424   0.075   2.207   7.481
 2017SOL    HW1 6425  -0.017   2.179   7.452
 2017SOL    HW2 6426   0.106   2.284   7.425
 2018SOL     OW 6427   1.440   2.718   8.846
 2018SOL    HW1 6428   1.383   2.770   8.783
 2018SOL    HW2 6429   1.536   2.730   8.822
 2019SOL     OW 6430   0.072   2.028   7.766
 2019SOL    HW1 6431   0.055   2.111   7.712
 2019SOL    HW2 6432   0.162   1.991   7.744
 2020SOL     OW 6433   1.183   3.197   7.567
 2020SOL    HW1 6434   1.084   3.186   7.569
 2020SOL    HW2 6435   1.217   3.212   7.660
 2021SOL     OW 6436   0.613   2.704   8.879
 2021SOL    HW1 6437   0.669   2.785   8.862
 2021SOL    HW2 6438   0.672   2.624   8.882
 2022SOL     OW 6439   1.493   3.629   8.407
 2022SOL    HW1 6440   1.526   3.693   8.338
 2022SOL    HW2 6441   1.559   3.623   8.482
 2023SOL     OW 6442   0.390   3.603   9.008
 2023SOL    HW1 6443   0.299   3.644   9.006
 2023SOL    HW2 6444   0.383   3.509   9.040
 2024SOL     OW 6445   1.674   2.745   8.702
 2024SOL    HW1 6446   1.647   2.656   8.665
 2024SOL    HW2 6447   1.675   2.813   8.629
 2025SOL     OW 6448   1.225   2.187   7.897
 2025SOL    HW1 6449   1.290   2.113   7.886
 2025SOL    HW2 6450   1.245   2.237   7.981
 2026SOL     OW 6451   0.594   2.607   8.100
 2026SOL    HW1 6452   0.644   2.692   8.081
 2026SOL    HW2 6453   0.506   2.609   8.052
 2027SOL     OW 6454   1.777   2.204   9.090
 2027SOL    HW1 6455   1.760   2.235   8.996
 2027SOL    HW2 6456   1.693   2.167   9.128
 2028SOL     OW 6457   1.730   2.796   8.965
 2028SOL    HW1 6458   1.768   2.887   8.980
 2028SOL    HW2 6459   1.722   2.779   8.866
 2029SOL     OW 6460   0.859   3.236   7.464
 2029SOL    HW1 6461   0.813   3.251   7.552
 2029SOL    HW2 6462   0.903   3.321   7.434
 2030SOL     OW 6463   0.661   3.652   8.401
 2030SOL    HW1 6464   0.615   3.740   8.388
 2030SOL    HW2 6465   0.760   3.664   8.394
 2031SOL     OW 6466   0.859   2.818   8.309
 2031SOL    HW1 6467   0.913   2.749   8.357
 2031SOL    HW2 6468   0.827   2.887   8.375
 2032SOL     OW 6469   1.083   2.846   7.535
 2032SOL    HW1 6470   1.060   2.899   7.453
 2032SOL    HW2 6471   1.164   2.790   7.516
 2033SOL     OW 6472   1.861   3.431   8.299
 2033SOL    HW1 6473   1.790   3.419   8.229
 2033SOL    HW2 6474   1.862   3.352   8.359
 2034SOL     OW 6475   0.079   3.102   8.101
 2034SOL    HW1 6476   0.078   3.055   8.189
 2034SOL    HW2 6477   0.161   3.074   8.050
 2035SOL     OW 6478   1.824   2.054   8.675
 2035SOL    HW1 6479   1.820   1.964   8.719
 2035SOL    HW2 6480   1.827   2.043   8.576
 2036SOL     OW 6481   0.428   2.286   7.968
 2036SOL    HW1 6482   0.458   2.214   7.906
 2036SOL    HW2 6483   0.389   2.246   8.051
 2037SOL     OW 6484   1.705   3.349   8.552
 2037SOL    HW1 6485   1.612   3.324   8.525
 2037SOL    HW2 6486   1.731   3.299   8.634
 2038SOL     OW 6487   0.317   2.409   8.728
 2038SOL    HW1 6488   0.355   2.350   8.800
 2038SOL    HW2 6489   0.357   2.383   8.640
 2039SOL     OW 6490   0.812   3.448   8.135
 2039SOL    HW1 6491   0.844   3.458   8.041
 2039SOL    HW2 6492   0.733   3.386   8.137
 2040SOL     OW 6493   1.424   2.076   8.560
 2040SOL    HW1 6494   1.476   2.011   8.615
 2040SOL    HW2 6495   1.375   2.139   8.621
 2041SOL     OW 6496   1.001   1.896   8.602
 2041SOL    HW1 6497   0.938   1.824   8.571
 2041SOL    HW2 6498   1.094   1.860   8.602
 2042SOL     OW 6499   0.770   3.192   7.749
 2042SOL    HW1 6500   0.724   3.105   7.766
 2042SOL    HW2 6501   0.861   3.189   7.790
 2043SOL     OW 6502   0.618   3.429   8.732
 2043SOL    HW1 6503   0.613   3.511   8.789
 2043SOL    HW2 6504   0.707   3.426   8.687
 2044SOL     OW 6505   1.352   1.914   7.616
 2044SOL    HW1 6506   1.387   1.873   7.532
 2044SOL    HW2 6507   1.262   1.876   7.636
 2045SOL     OW 6508   1.300   2.315   8.139
 2045SOL    HW1 6509   1.241   2.395   8.143
 2045SOL    HW2 6510   1.315   2.280   8.232
 2046SOL     OW 6511   1.593   2.083   8.330
 2046SOL    HW1 6512   1.509   2.082   8.384
 2046SOL    HW2 6513   1.595   2.166   8.274
 2047SOL     OW 6514   0.039   2.939   7.748
 2047SOL    HW1 6515   0.138   2.928   7.739
 2047SOL    HW2 6516  -0.001   2.853   7.780
 2048SOL     OW 6517   0.875   3.508   7.785
 2048SOL    HW1 6518   0.798   3.473   7.731
 2048SOL    HW2 6519   0.843   3.579   7.847
 2049SOL     OW 6520   0.230   4.352   0.113
 2049SOL    HW1 6521   0.137   4.350   0.150
 2049SOL    HW2 6522   0.231   4.313   0.021
 2050SOL     OW 6523   0.225   3.999   0.996
 2050SOL    HW1 6524   0.260   3.982   1.088
 2050SOL    HW2 6525   0.137   3.954   0.984
 2051SOL     OW 6526   0.019   4.092   0.647
 2051SOL    HW1 6527  -0.063   4.135   0.686
 2051SOL    HW2 6528  -0.009   4.019   0.584
 2052SOL     OW 6529   1.135   4.427   0.717
 2052SOL    HW1 6530   1.192   4.505   0.692
 2052SOL    HW2 6531   1.075   4.453   0.793
 2053SOL     OW 6532   1.755   4.331   0.231
 2053SOL    HW1 6533   1.743   4.318   0.132
 2053SOL    HW2 6534   1.725   4.250   0.280
 2054SOL     OW 6535   0.768   4.868   1.023
 2054SOL    HW1 6536   0.690   4.885   1.083
 2054SOL    HW2 6537   0.802   4.955   0.987
 2055SOL     OW 6538   0.850   4.522   1.823
 2055SOL    HW1 6539   0.846   4.598   1.888
 2055SOL    HW2 6540   0.872   4.558   1.732
 2056SOL     OW 6541   0.685   4.736   0.665
 2056SOL    HW1 6542   0.754   4.720   0.735
 2056SOL    HW2 6543   0.612   4.793   0.703
 2057SOL     OW 6544   0.686   4.885   1.803
 2057SOL    HW1 6545   0.746   4.964   1.817
 2057SOL    HW2 6546   0.600   4.916   1.762
 2058SOL     OW 6547   0.438   4.116   1.499
 2058SOL    HW1 6548   0.520   4.060   1.508
 2058SOL    HW2 6549   0.357   4.058   1.503
 2059SOL     OW 6550   1.603   4.171   0.737
 2059SOL    HW1 6551   1.529   4.217   0.687
 2059SOL    HW2 6552   1.654   4.239   0.790
 2060SOL     OW 6553   0.240   4.815   0.886
 2060SOL    HW1 6554   0.254   4.731   0.938
 2060SOL    HW2 6555   0.185   4.879   0.941
 2061SOL     OW 6556   0.606   4.688   0.123
 2061SOL    HW1 6557   0.613   4.772   0.069
 2061SOL    HW2 6558   0.652   4.701   0.211
 2062SOL     OW 6559   1.594   3.838   1.480
 2062SOL    HW1 6560   1.576   3.905   1.408
 2062SOL    HW2 6561   1.591   3.884   1.569
 2063SOL     OW 6562   0.122   4.367   0.563
 2063SOL    HW1 6563   0.077   4.279   0.580
 2063SOL    HW2 6564   0.121   4.421   0.647
 2064SOL     OW 6565   1.689   4.646   0.612
 2064SOL    HW1 6566   1.784   4.617   0.620
 2064SOL    HW2 6567   1.681   4.711   0.537
 2065SOL     OW 6568   1.641   4.832   0.432
 2065SOL    HW1 6569   1.727   4.834   0.380
 2065SOL    HW2 6570   1.655   4.879   0.520
 2066SOL     OW 6571   0.113   4.461   1.597
 2066SOL    HW1 6572   0.201   4.448   1.642
 2066SOL    HW2 6573   0.100   4.558   1.575
 2067SOL     OW 6574   1.293   4.952   1.423
 2067SOL    HW1 6575   1.330   4.879   1.365
 2067SOL    HW2 6576   1.345   4.957   1.508
 2068SOL     OW 6577   0.809   3.728   0.502
 2068SOL    HW1 6578   0.849   3.819   0.493
 2068SOL    HW2 6579   0.709   3.736   0.508
 2069SOL     OW 6580   0.197   4.700   1.264
 2069SOL    HW1 6581   0.286   4.655   1.250
 2069SOL    HW2 6582   0.124   4.635   1.245
 2070SOL     OW 6583   1.525   4.723   0.190
 2070SOL    HW1 6584   1.462   4.647   0.203
 2070SOL    HW2 6585   1.573   4.741   0.276
 2071SOL     OW 6586   0.317   3.975   1.801
 2071SOL    HW1 6587   0.388   4.046   1.807
 2071SOL    HW2 6588   0.229   4.014   1.829
 2072SOL     OW 6589   0.598   4.453   0.270
 2072SOL    HW1 6590   0.622   4.522   0.202
 2072SOL    HW2 6591   0.520   4.486   0.324
 2073SOL     OW 6592   1.281   4.069   0.944
 2073SOL    HW1 6593   1.195   4.019   0.931
 2073SOL    HW2 6594   1.343   4.015   1.000
 2074SOL     OW 6595   0.807   4.329   1.465
 2074SOL    HW1 6596   0.760   4.326   1.554
 2074SOL    HW2 6597   0.756   4.274   1.399
 2075SOL     OW 6598   1.394   4.193   1.674
 2075SOL    HW1 6599   1.374   4.236   1.762
 2075SOL    HW2 6600   1.472   4.131   1.683
 2076SOL     OW 6601   0.973   4.614   1.572
 2076SOL    HW1 6602   1.019   4.530   1.543
 2076SOL    HW2 6603   0.917   4.648   1.497
 2077SOL     OW 6604   0.991   4.134   1.242
 2077SOL    HW1 6605   0.914   4.168   1.296
 2077SOL    HW2 6606   0.957   4.083   1.163
 2078SOL     OW 6607   1.041   4.425   0.429
 2078SOL    HW1 6608   1.067   4.421   0.525
 2078SOL    HW2 6609   0.956   4.374   0.415
 2079SOL     OW 6610   0.076   4.535   0.789
 2079SOL    HW1 6611   0.175   4.523   0.798
 2079SOL    HW2 6612   0.052   4.630   0.810
 2080SOL     OW 6613   0.865   4.072   0.195
 2080SOL    HW1 6614   0.924   4.135   0.146
 2080SOL    HW2 6615   0.884   3.978   0.166
 2081SOL     OW 6616   1.719   4.309   1.831
 2081SOL    HW1 6617   1.693   4.398   1.795
 2081SOL    HW2 6618   1.717   4.241   1.758
 2082SOL     OW 6619   1.362   4.868   0.545
 2082SOL    HW1 6620   1.445   4.839   0.497
 2082SOL    HW2 6621   1.313   4.935   0.489
 2083SOL     OW 6622   0.550   3.920   0.885
 2083SOL    HW1 6623   0.545   3.915   0.985
 2083SOL    HW2 6624   0.552   4.016   0.856
 2084SOL     OW 6625   1.795   4.790   0.873
 2084SOL    HW1 6626   1.733   4.775   0.797
 2084SOL    HW2 6627   1.743   4.801   0.958
 2085SOL     OW 6628   0.321   4.667   0.242
 2085SOL    HW1 6629   0.403   4.706   0.200
 2085SOL    HW2 6630   0.294   4.585   0.193
 2086SOL     OW 6631   1.458   4.459   0.728
 2086SOL    HW1 6632   1.453   4.394   0.803
 2086SOL    HW2 6633   1.538   4.518   0.741
 2087SOL     OW 6634   0.202   4.009   1.498
 2087SOL    HW1 6635   0.122   4.069   1.485
 2087SOL    HW2 6636   0.192   3.960   1.584
 2088SOL     OW 6637   1.400   3.831   0.426
 2088SOL    HW1 6638   1.376   3.794   0.336
 2088SOL    HW2 6639   1.499   3.847   0.430
 2089SOL     OW 6640   0.382   4.424   0.480
 2089SOL    HW1 6641   0.427   4.334   0.477
 2089SOL    HW2 6642   0.288   4.413   0.513
 2090SOL     OW 6643   1.547   3.946   1.729
 2090SOL    HW1 6644   1.542   3.983   1.821
 2090SOL    HW2 6645   1.475   3.877   1.717
 2091SOL     OW 6646   0.614   3.846   0.117
 2091SOL    HW1 6647   0.712   3.824   0.124
 2091SOL    HW2 6648   0.583   3.829   0.024
 2092SOL     OW 6649   0.781   3.988   1.749
 2092SOL    HW1 6650   0.848   3.927   1.792
 2092SOL    HW2 6651   0.708   4.007   1.814
 2093SOL     OW 6652   1.351   4.314   1.433
 2093SOL    HW1 6653   1.379   4.271   1.518
 2093SOL    HW2 6654   1.376   4.410   1.434
 2094SOL     OW 6655   0.922   4.227   0.899
 2094SOL    HW1 6656   0.897   4.218   0.803
 2094SOL    HW2 6657   0.970   4.145   0.930
 2095SOL     OW 6658   0.539   3.788   0.512
 2095SOL    HW1 6659   0.458   3.789   0.570
 2095SOL    HW2 6660   0.542   3.871   0.457
 2096SOL     OW 6661   0.297   3.759   0.171
 2096SOL    HW1 6662   0.346   3.843   0.150
 2096SOL    HW2 6663   0.359   3.694   0.216
 2097SOL     OW 6664   0.935   3.960   0.480
 2097SOL    HW1 6665   0.887   4.001   0.402
 2097SOL    HW2 6666   1.034   3.958   0.461
 2098SOL     OW 6667   1.076   4.407   1.464
 2098SOL    HW1 6668   0.996   4.346   1.467
 2098SOL    HW2 6669   1.157   4.354   1.440
 2099SOL     OW 6670   0.459   4.876   0.741
 2099SOL    HW1 6671   0.388   4.849   0.806
 2099SOL    HW2 6672   0.433   4.848   0.648
 2100SOL     OW 6673   1.032   4.273   0.016
 2100SOL    HW1 6674   0.991   4.355  -0.023
 2100SOL    HW2 6675   1.096   4.299   0.089
 2101SOL     OW 6676   0.078   4.280   1.386
 2101SOL    HW1 6677   0.170   4.279   1.345
 2101SOL    HW2 6678   0.072   4.354   1.453
 2102SOL     OW 6679   0.561   3.946   1.147
 2102SOL    HW1 6680   0.599   3.862   1.184
 2102SOL    HW2 6681   0.473   3.965   1.191
 2103SOL     OW 6682   0.866   4.178   0.642
 2103SOL    HW1 6683   0.834   4.250   0.580
 2103SOL    HW2 6684   0.890   4.097   0.589
 2104SOL     OW 6685   1.017   3.763   0.753
 2104SOL    HW1 6686   0.945   3.768   0.684
 2104SOL    HW2 6687   0.993   3.694   0.822
 2105SOL     OW 6688   1.429   4.897   0.867
 2105SOL    HW1 6689   1.374   4.813   0.860
 2105SOL    HW2 6690   1.455   4.926   0.775
 2106SOL     OW 6691   1.466   4.314   0.992
 2106SOL    HW1 6692   1.436   4.219   0.999
 2106SOL    HW2 6693   1.539   4.330   1.058
 2107SOL     OW 6694   1.857   4.557   0.377
 2107SOL    HW1 6695   1.899   4.493   0.441
 2107SOL    HW2 6696   1.819   4.506   0.299
 2108SOL     OW 6697   1.390   4.299   0.078
 2108SOL    HW1 6698   1.336   4.278   0.159
 2108SOL    HW2 6699   1.481   4.258   0.087
 2109SOL     OW 6700   0.527   3.980   0.328
 2109SOL    HW1 6701   0.554   3.921   0.253
 2109SOL    HW2 6702   0.527   4.075   0.297
 2110SOL     OW 6703   1.754   4.947   1.588
 2110SOL    HW1 6704   1.845   4.908   1.575
 2110SOL    HW2 6705   1.762   5.043   1.612
 2111SOL     OW 6706   1.638   4.823   1.079
 2111SOL    HW1 6707   1.643   4.904   1.138
 2111SOL    HW2 6708   1.552   4.825   1.028
 2112SOL     OW 6709   0.915   3.813   1.402
 2112SOL    HW1 6710   0.940   3.793   1.307
 2112SOL    HW2 6711   0.987   3.869   1.444
 2113SOL     OW 6712   0.980   4.840   1.719
 2113SOL    HW1 6713   0.881   4.846   1.729
 2113SOL    HW2 6714   1.003   4.760   1.663
 2114SOL     OW 6715   0.705   4.774   0.368
 2114SOL    HW1 6716   0.691   4.781   0.467
 2114SOL    HW2 6717   0.789   4.723   0.350
 2115SOL     OW 6718   0.410   4.537   1.251
 2115SOL    HW1 6719   0.496   4.549   1.301
 2115SOL    HW2 6720   0.368   4.450   1.278
 2116SOL     OW 6721   1.274   4.110   1.262
 2116SOL    HW1 6722   1.295   4.184   1.326
 2116SOL    HW2 6723   1.185   4.127   1.219
 2117SOL     OW 6724   0.367   4.824   0.501
 2117SOL    HW1 6725   0.360   4.907   0.445
 2117SOL    HW2 6726   0.371   4.744   0.441
 2118SOL     OW 6727   0.566   4.261   0.865
 2118SOL    HW1 6728   0.578   4.327   0.791
 2118SOL    HW2 6729   0.612   4.295   0.948
 2119SOL     OW 6730   1.582   4.363   0.472
 2119SOL    HW1 6731   1.551   4.424   0.545
 2119SOL    HW2 6732   1.632   4.415   0.403
 2120SOL     OW 6733   0.402   4.475   1.598
 2120SOL    HW1 6734   0.470   4.530   1.551
 2120SOL    HW2 6735   0.442   4.387   1.625
 2121SOL     OW 6736   1.587   4.503   1.670
 2121SOL    HW1 6737   1.495   4.541   1.665
 2121SOL    HW2 6738   1.647   4.550   1.605
 2122SOL     OW 6739   1.013   3.829   1.770
 2122SOL    HW1 6740   1.019   3.914   1.718
 2122SOL    HW2 6741   1.045   3.753   1.713
 2123SOL     OW 6742   0.504   3.774   1.740
 2123SOL    HW1 6743   0.462   3.717   1.670
 2123SOL    HW2 6744   0.438   3.843   1.772
 2124SOL     OW 6745   0.573   4.594   1.029
 2124SOL    HW1 6746   0.617   4.683   1.020
 2124SOL    HW2 6747   0.510   4.594   1.106
 2125SOL     OW 6748   1.360   4.586   1.045
 2125SOL    HW1 6749   1.285   4.586   0.979
 2125SOL    HW2 6750   1.397   4.494   1.054
 2126SOL     OW 6751   1.209   4.249   0.275
 2126SOL    HW1 6752   1.222   4.165   0.329
 2126SOL    HW2 6753   1.180   4.323   0.335
 2127SOL     OW 6754   0.307   3.937   1.231
 2127SOL    HW1 6755   0.284   3.974   1.321
 2127SOL    HW2 6756   0.277   3.842   1.225
 2128SOL     OW 6757   0.037   5.034   1.282
 2128SOL    HW1 6758   0.090   4.985   1.350
 2128SOL    HW2 6759   0.059   5.132   1.287
 2129SOL     OW 6760   0.732   4.358   1.064
 2129SOL    HW1 6761   0.791   4.332   0.988
 2129SOL    HW2 6762   0.704   4.454   1.053
 2130SOL     OW 6763   1.728   4.659   1.854
 2130SOL    HW1 6764   1.682   4.652   1.765
 2130SOL    HW2 6765   1.666   4.703   1.920
 2131SOL     OW 6766   0.307   3.787   0.618
 2131SOL    HW1 6767   0.296   3.881   0.651
 2131SOL    HW2 6768   0.302   3.724   0.695
 2132SOL     OW 6769   1.622   4.091   0.374
 2132SOL    HW1 6770   1.624   4.015   0.438
 2132SOL    HW2 6771   1.574   4.168   0.414
 2133SOL     OW 6772   1.023   4.490   0.966
 2133SOL    HW1 6773   1.038   4.511   1.062
 2133SOL    HW2 6774   0.993   4.395   0.957
 2134SOL     OW 6775   0.350   4.622   1.804
 2134SOL    HW1 6776   0.426   4.666   1.852
 2134SOL    HW2 6777   0.385   4.575   1.722
 2135SOL     OW 6778   1.540   3.998   0.125
 2135SOL    HW1 6779   1.479   3.923   0.148
 2135SOL    HW2 6780   1.562   4.050   0.208
 2136SOL     OW 6781   1.303   4.562   0.042
 2136SOL    HW1 6782   1.337   4.469   0.057
 2136SOL    HW2 6783   1.321   4.589  -0.053
 2137SOL     OW 6784   0.319   4.534   0.949
 2137SOL    HW1 6785   0.412   4.570   0.954
 2137SOL    HW2 6786   0.313   4.449   1.001
 2138SOL     OW 6787   0.339   4.233   1.006
 2138SOL    HW1 6788   0.287   4.150   0.989
 2138SOL    HW2 6789   0.416   4.238   0.942
 2139SOL     OW 6790   1.138   4.104   1.678
 2139SOL    HW1 6791   1.093   4.167   1.742
 2139SOL    HW2 6792   1.231   4.135   1.661
 2140SOL     OW 6793   1.160   3.931   1.477
 2140SOL    HW1 6794   1.160   3.995   1.554
 2140SOL    HW2 6795   1.188   3.979   1.394
 2141SOL     OW 6796   0.008   5.050   0.200
 2141SOL    HW1 6797  -0.085   5.071   0.169
 2141SOL    HW2 6798   0.018   4.951   0.213
 2142SOL     OW 6799   1.002   4.520   1.238
 2142SOL    HW1 6800   1.043   4.488   1.324
 2142SOL    HW2 6801   0.906   4.493   1.235
 2143SOL     OW 6802   0.040   4.268   1.114
 2143SOL    HW1 6803   0.125   4.235   1.073
 2143SOL    HW2 6804   0.053   4.283   1.212
 2144SOL     OW 6805   0.189   4.244   1.722
 2144SOL    HW1 6806   0.248   4.204   1.652
 2144SOL    HW2 6807   0.131   4.315   1.681
 2145SOL     OW 6808   1.369   4.674   1.660
 2145SOL    HW1 6809   1.408   4.763   1.680
 2145SOL    HW2 6810   1.379   4.654   1.563
 2146SOL     OW 6811   0.815   4.296   0.325
 2146SOL    HW1 6812   0.822   4.207   0.279
 2146SOL    HW2 6813   0.721   4.330   0.317
 2147SOL     OW 6814   1.657   4.328   1.206
 2147SOL    HW1 6815   1.619   4.259   1.268
 2147SOL    HW2 6816   1.739   4.292   1.162
 2148SOL     OW 6817   0.671   4.188   1.269
 2148SOL    HW1 6818   0.637   4.099   1.239
 2148SOL    HW2 6819   0.697   4.242   1.189
 2149SOL     OW 6820   0.473   4.224   0.191
 2149SOL    HW1 6821   0.534   4.304   0.195
 2149SOL    HW2 6822   0.378   4.255   0.198
 2150SOL     OW 6823   0.159   4.861   1.466
 2150SOL    HW1 6824   0.181   4.800   1.542
 2150SOL    HW2 6825   0.169   4.812   1.380
 2151SOL     OW 6826   1.347   4.783   1.234
 2151SOL    HW1 6827   1.371   4.720   1.160
 2151SOL    HW2 6828   1.257   4.823   1.216
 2152SOL     OW 6829   1.302   4.579   0.309
 2152SOL    HW1 6830   1.216   4.548   0.351
 2152SOL    HW2 6831   1.298   4.565   0.210
 2153SOL     OW 6832   0.083   4.982   1.022
 2153SOL    HW1 6833   0.078   4.981   1.122
 2153SOL    HW2 6834   0.000   4.941   0.984
 2154SOL     OW 6835   0.903   3.810   0.133
 2154SOL    HW1 6836   0.954   3.811   0.047
 2154SOL    HW2 6837   0.959   3.768   0.204
 2155SOL     OW 6838   1.726   3.859   0.523
 2155SOL    HW1 6839   1.799   3.842   0.456
 2155SOL    HW2 6840   1.695   3.772   0.561
 2156SOL     OW 6841   1.280   4.651   0.672
 2156SOL    HW1 6842   1.340   4.570   0.674
 2156SOL    HW2 6843   1.320   4.720   0.612
 2157SOL     OW 6844   1.841   3.899   0.963
 2157SOL    HW1 6845   1.880   3.814   0.927
 2157SOL    HW2 6846   1.743   3.901   0.944
 2158SOL     OW 6847   0.263   4.050   0.720
 2158SOL    HW1 6848   0.184   4.101   0.686
 2158SOL    HW2 6849   0.254   4.035   0.818
 2159SOL     OW 6850   0.822   4.726   1.372
 2159SOL    HW1 6851   0.862   4.725   1.280
 2159SOL    HW2 6852   0.832   4.818   1.412
 2160SOL     OW 6853   0.916   4.634   0.291
 2160SOL    HW1 6854   0.979   4.672   0.223
 2160SOL    HW2 6855   0.956   4.551   0.330
 2161SOL     OW 6856   0.372   5.012   1.490
 2161SOL    HW1 6857   0.359   5.105   1.456
 2161SOL    HW2 6858   0.288   4.960   1.477
 2162SOL     OW 6859   1.614   5.016   1.289
 2162SOL    HW1 6860   1.674   5.019   1.369
 2162SOL    HW2 6861   1.539   5.080   1.302
 2163SOL     OW 6862   1.039   4.822   0.696
 2163SOL    HW1 6863   0.969   4.775   0.750
 2163SOL    HW2 6864   1.098   4.754   0.653
 2164SOL     OW 6865   1.014   3.960   0.971
 2164SOL    HW1 6866   1.006   3.924   0.878
 2164SOL    HW2 6867   1.012   3.884   1.036
 2165SOL     OW 6868   1.709   4.109   1.381
 2165SOL    HW1 6869   1.782   4.178   1.385
 2165SOL    HW2 6870   1.737   4.034   1.322
 2166SOL     OW 6871   0.105   4.737   1.726
 2166SOL    HW1 6872   0.028   4.704   1.780
 2166SOL    HW2 6873   0.190   4.707   1.768
 2167SOL     OW 6874   0.672   3.927   1.489
 2167SOL    HW1 6875   0.762   3.911   1.449
 2167SOL    HW2 6876   0.680   3.932   1.588
 2168SOL     OW 6877   0.075   4.069   0.033
 2168SOL    HW1 6878  -0.017   4.041   0.004
 2168SOL    HW2 6879   0.106   4.146  -0.023
 2169SOL     OW 6880   1.440   4.580   1.398
 2169SOL    HW1 6881   1.383   4.632   1.335
 2169SOL    HW2 6882   1.536   4.592   1.374
 2170SOL     OW 6883   0.072   3.890   0.318
 2170SOL    HW1 6884   0.055   3.973   0.264
 2170SOL    HW2 6885   0.162   3.853   0.296
 2171SOL     OW 6886   0.613   4.566   1.431
 2171SOL    HW1 6887   0.669   4.647   1.414
 2171SOL    HW2 6888   0.672   4.486   1.434
 2172SOL     OW 6889   0.716   4.289   1.708
 2172SOL    HW1 6890   0.735   4.354   1.782
 2172SOL    HW2 6891   0.776   4.209   1.717
 2173SOL     OW 6892   1.450   4.944   1.633
 2173SOL    HW1 6893   1.441   4.934   1.732
 2173SOL    HW2 6894   1.546   4.937   1.607
 2174SOL     OW 6895   1.674   4.607   1.254
 2174SOL    HW1 6896   1.647   4.518   1.217
 2174SOL    HW2 6897   1.675   4.675   1.181
 2175SOL     OW 6898   1.225   4.049   0.449
 2175SOL    HW1 6899   1.290   3.975   0.438
 2175SOL    HW2 6900   1.245   4.099   0.533
 2176SOL     OW 6901   0.594   4.469   0.652
 2176SOL    HW1 6902   0.644   4.554   0.633
 2176SOL    HW2 6903   0.506   4.471   0.604
 2177SOL     OW 6904   1.777   4.066   1.642
 2177SOL    HW1 6905   1.760   4.097   1.548
 2177SOL    HW2 6906   1.693   4.029   1.680
 2178SOL     OW 6907   1.730   4.658   1.517
 2178SOL    HW1 6908   1.768   4.749   1.532
 2178SOL    HW2 6909   1.722   4.641   1.418
 2179SOL     OW 6910   0.859   4.680   0.861
 2179SOL    HW1 6911   0.913   4.611   0.909
 2179SOL    HW2 6912   0.827   4.749   0.927
 2180SOL     OW 6913   1.083   4.708   0.087
 2180SOL    HW1 6914   1.060   4.761   0.005
 2180SOL    HW2 6915   1.164   4.652   0.068
 2181SOL     OW 6916   0.079   4.964   0.653
 2181SOL    HW1 6917   0.078   4.917   0.741
 2181SOL    HW2 6918   0.161   4.936   0.602
 2182SOL     OW 6919   1.824   3.916   1.227
 2182SOL    HW1 6920   1.820   3.826   1.271
 2182SOL    HW2 6921   1.827   3.905   1.128
 2183SOL     OW 6922   0.428   4.148   0.520
 2183SOL    HW1 6923   0.458   4.076   0.458
 2183SOL    HW2 6924   0.389   4.108   0.603
 2184SOL     OW 6925   0.317   4.271   1.280
 2184SOL    HW1 6926   0.355   4.212   1.352
 2184SOL    HW2 6927   0.357   4.245   1.192
 2185SOL     OW 6928   1.424   3.938   1.112
 2185SOL    HW1 6929   1.476   3.873   1.167
 2185SOL    HW2 6930   1.375   4.001   1.173
 2186SOL     OW 6931   1.001   3.758   1.154
 2186SOL    HW1 6932   0.938   3.686   1.123
 2186SOL    HW2 6933   1.094   3.722   1.154
 2187SOL     OW 6934   0.770   5.054   0.301
 2187SOL    HW1 6935   0.724   4.967   0.318
 2187SOL    HW2 6936   0.861   5.051   0.342
 2188SOL     OW 6937   1.352   3.776   0.168
 2188SOL    HW1 6938   1.387   3.735   0.084
 2188SOL    HW2 6939   1.262   3.738   0.188
 2189SOL     OW 6940   1.300   4.177   0.691
 2189SOL    HW1 6941   1.241   4.257   0.695
 2189SOL    HW2 6942   1.315   4.142   0.784
 2190SOL     OW 6943   1.593   3.945   0.882
 2190SOL    HW1 6944   1.509   3.944   0.936
 2190SOL    HW2 6945   1.595   4.028   0.826
 2191SOL     OW 6946   0.039   4.801   0.300
 2191SOL    HW1 6947   0.138   4.790   0.291
 2191SOL    HW2 6948  -0.001   4.715   0.332
 2192SOL     OW 6949   0.230   4.352   1.975
 2192SOL    HW1 6950   0.137   4.350   2.012
 2192SOL    HW2 6951   0.231   4.313   1.883
 2193SOL     OW 6952   0.225   3.999   2.858
 2193SOL    HW1 6953   0.260   3.982   2.950
 2193SOL    HW2 6954   0.137   3.954   2.846
 2194SOL     OW 6955   0.019   4.092   2.509
 2194SOL    HW1 6956  -0.063   4.135   2.548
 2194SOL    HW2 6957  -0.009   4.019   2.446
 2195SOL     OW 6958   1.135   4.427   2.579
 2195SOL    HW1 6959   1.192   4.505   2.554
 2195SOL    HW2 6960   1.075   4.453   2.655
 2196SOL     OW 6961   1.755   4.331   2.093
 2196SOL    HW1 6962   1.743   4.318   1.994
 2196SOL    HW2 6963   1.725   4.250   2.142
 2197SOL     OW 6964   0.768   4.868   2.885
 2197SOL    HW1 6965   0.690   4.885   2.945
 2197SOL    HW2 6966   0.802   4.955   2.849
 2198SOL     OW 6967   0.850   4.522   3.685
 2198SOL    HW1 6968   0.846   4.598   3.750
 2198SOL    HW2 6969   0.872   4.558   3.594
 2199SOL     OW 6970   0.685   4.736   2.527
 2199SOL    HW1 6971   0.754   4.720   2.597
 2199SOL    HW2 6972   0.612   4.793   2.565
 2200SOL     OW 6973   0.686   4.885   3.665
 2200SOL    HW1 6974   0.746   4.964   3.679
 2200SOL    HW2 6975   0.600   4.916   3.624
 2201SOL     OW 6976   0.438   4.116   3.361
 2201SOL    HW1 6977   0.520   4.060   3.370
 2201SOL    HW2 6978   0.357   4.058   3.365
 2202SOL     OW 6979   1.603   4.171   2.599
 2202SOL    HW1 6980   1.529   4.217   2.549
 2202SOL    HW2 6981   1.654   4.239   2.652
 2203SOL     OW 6982   0.240   4.815   2.748
 2203SOL    HW1 6983   0.254   4.731   2.800
 2203SOL    HW2 6984   0.185   4.879   2.803
 2204SOL     OW 6985   0.606   4.688   1.985
 2204SOL    HW1 6986   0.613   4.772   1.931
 2204SOL    HW2 6987   0.652   4.701   2.073
 2205SOL     OW 6988   1.594   3.838   3.342
 2205SOL    HW1 6989   1.576   3.905   3.270
 2205SOL    HW2 6990   1.591   3.884   3.431
 2206SOL     OW 6991   0.122   4.367   2.425
 2206SOL    HW1 6992   0.077   4.279   2.442
 2206SOL    HW2 6993   0.121   4.421   2.509
 2207SOL     OW 6994   1.689   4.646   2.474
 2207SOL    HW1 6995   1.784   4.617   2.482
 2207SOL    HW2 6996   1.681   4.711   2.399
 2208SOL     OW 6997   1.641   4.832   2.294
 2208SOL    HW1 6998   1.727   4.834   2.242
 2208SOL    HW2 6999   1.655   4.879   2.382
 2209SOL     OW 7000   0.113   4.461   3.459
 2209SOL    HW1 7001   0.201   4.448   3.504
 2209SOL    HW2 7002   0.100   4.558   3.437
 2210SOL     OW 7003   1.293   4.952   3.285
 2210SOL    HW1 7004   1.330   4.879   3.227
 2210SOL    HW2 7005   1.345   4.957   3.370
 2211SOL     OW 7006   0.809   3.728   2.364
 2211SOL    HW1 7007   0.849   3.819   2.355
 2211SOL    HW2 7008   0.709   3.736   2.370
 2212SOL     OW 7009   0.197   4.700   3.126
 2212SOL    HW1 7010   0.286   4.655   3.112
 2212SOL    HW2 7011   0.124   4.635   3.107
 2213SOL     OW 7012   1.525   4.723   2.052
 2213SOL    HW1 7013   1.462   4.647   2.065
 2213SOL    HW2 7014   1.573   4.741   2.138
 2214SOL     OW 7015   0.317   3.975   3.663
 2214SOL    HW1 7016   0.388   4.046   3.669
 2214SOL    HW2 7017   0.229   4.014   3.691
 2215SOL     OW 7018   0.598   4.453   2.132
 2215SOL    HW1 7019   0.622   4.522   2.064
 2215SOL    HW2 7020   0.520   4.486   2.186
 2216SOL     OW 7021   1.281   4.069   2.806
 2216SOL    HW1 7022   1.195   4.019   2.793
 2216SOL    HW2 7023   1.343   4.015   2.862
 2217SOL     OW 7024   0.807   4.329   3.327
 2217SOL    HW1 7025   0.760   4.326   3.416
 2217SOL    HW2 7026   0.756   4.274   3.261
 2218SOL     OW 7027   1.394   4.193   3.536
 2218SOL    HW1 7028   1.374   4.236   3.624
 2218SOL    HW2 7029   1.472   4.131   3.545
 2219SOL     OW 7030   0.973   4.614   3.434
 2219SOL    HW1 7031   1.019   4.530   3.405
 2219SOL    HW2 7032   0.917   4.648   3.359
 2220SOL     OW 7033   0.991   4.134   3.104
 2220SOL    HW1 7034   0.914   4.168   3.158
 2220SOL    HW2 7035   0.957   4.083   3.025
 2221SOL     OW 7036   1.041   4.425   2.291
 2221SOL    HW1 7037   1.067   4.421   2.387
 2221SOL    HW2 7038   0.956   4.374   2.277
 2222SOL     OW 7039   0.076   4.535   2.651
 2222SOL    HW1 7040   0.175   4.523   2.660
 2222SOL    HW2 7041   0.052   4.630   2.672
 2223SOL     OW 7042   0.865   4.072   2.057
 2223SOL    HW1 7043   0.924   4.135   2.008
 2223SOL    HW2 7044   0.884   3.978   2.028
 2224SOL     OW 7045   1.719   4.309   3.693
 2224SOL    HW1 7046   1.693   4.398   3.657
 2224SOL    HW2 7047   1.717   4.241   3.620
 2225SOL     OW 7048   1.362   4.868   2.407
 2225SOL    HW1 7049   1.445   4.839   2.359
 2225SOL    HW2 7050   1.313   4.935   2.351
 2226SOL     OW 7051   0.550   3.920   2.747
 2226SOL    HW1 7052   0.545   3.915   2.847
 2226SOL    HW2 7053   0.552   4.016   2.718
 2227SOL     OW 7054   1.795   4.790   2.735
 2227SOL    HW1 7055   1.733   4.775   2.659
 2227SOL    HW2 7056   1.743   4.801   2.820
 2228SOL     OW 7057   0.321   4.667   2.104
 2228SOL    HW1 7058   0.403   4.706   2.062
 2228SOL    HW2 7059   0.294   4.585   2.055
 2229SOL     OW 7060   1.458   4.459   2.590
 2229SOL    HW1 7061   1.453   4.394   2.665
 2229SOL    HW2 7062   1.538   4.518   2.603
 2230SOL     OW 7063   0.202   4.009   3.360
 2230SOL    HW1 7064   0.122   4.069   3.347
 2230SOL    HW2 7065   0.192   3.960   3.446
 2231SOL     OW 7066   1.400   3.831   2.288
 2231SOL    HW1 7067   1.376   3.794   2.198
 2231SOL    HW2 7068   1.499   3.847   2.292
 2232SOL     OW 7069   0.382   4.424   2.342
 2232SOL    HW1 7070   0.427   4.334   2.339
 2232SOL    HW2 7071   0.288   4.413   2.375
 2233SOL     OW 7072   1.547   3.946   3.591
 2233SOL    HW1 7073   1.542   3.983   3.683
 2233SOL    HW2 7074   1.475   3.877   3.579
 2234SOL     OW 7075   0.614   3.846   1.979
 2234SOL    HW1 7076   0.712   3.824   1.986
 2234SOL    HW2 7077   0.583   3.829   1.886
 2235SOL     OW 7078   0.781   3.988   3.611
 2235SOL    HW1 7079   0.848   3.927   3.654
 2235SOL    HW2 7080   0.708   4.007   3.676
 2236SOL     OW 7081   1.351   4.314   3.295
 2236SOL    HW1 7082   1.379   4.271   3.380
 2236SOL    HW2 7083   1.376   4.410   3.296
 2237SOL     OW 7084   0.922   4.227   2.761
 2237SOL    HW1 7085   0.897   4.218   2.665
 2237SOL    HW2 7086   0.970   4.145   2.792
 2238SOL     OW 7087   0.539   3.788   2.374
 2238SOL    HW1 7088   0.458   3.789   2.432
 2238SOL    HW2 7089   0.542   3.871   2.319
 2239SOL     OW 7090   0.297   3.759   2.033
 2239SOL    HW1 7091   0.346   3.843   2.012
 2239SOL    HW2 7092   0.359   3.694   2.078
 2240SOL     OW 7093   0.935   3.960   2.342
 2240SOL    HW1 7094   0.887   4.001   2.264
 2240SOL    HW2 7095   1.034   3.958   2.323
 2241SOL     OW 7096   1.076   4.407   3.326
 2241SOL    HW1 7097   0.996   4.346   3.329
 2241SOL    HW2 7098   1.157   4.354   3.302
 2242SOL     OW 7099   0.459   4.876   2.603
 2242SOL    HW1 7100   0.388   4.849   2.668
 2242SOL    HW2 7101   0.433   4.848   2.510
 2243SOL     OW 7102   1.032   4.273   1.878
 2243SOL    HW1 7103   0.991   4.355   1.839
 2243SOL    HW2 7104   1.096   4.299   1.951
 2244SOL     OW 7105   0.078   4.280   3.248
 2244SOL    HW1 7106   0.170   4.279   3.207
 2244SOL    HW2 7107   0.072   4.354   3.315
 2245SOL     OW 7108   0.561   3.946   3.009
 2245SOL    HW1 7109   0.599   3.862   3.046
 2245SOL    HW2 7110   0.473   3.965   3.053
 2246SOL     OW 7111   0.866   4.178   2.504
 2246SOL    HW1 7112   0.834   4.250   2.442
 2246SOL    HW2 7113   0.890   4.097   2.451
 2247SOL     OW 7114   1.017   3.763   2.615
 2247SOL    HW1 7115   0.945   3.768   2.546
 2247SOL    HW2 7116   0.993   3.694   2.684
 2248SOL     OW 7117   1.429   4.897   2.729
 2248SOL    HW1 7118   1.374   4.813   2.722
 2248SOL    HW2 7119   1.455   4.926   2.637
 2249SOL     OW 7120   1.466   4.314   2.854
 2249SOL    HW1 7121   1.436   4.219   2.861
 2249SOL    HW2 7122   1.539   4.330   2.920
 2250SOL     OW 7123   1.857   4.557   2.239
 2250SOL    HW1 7124   1.899   4.493   2.303
 2250SOL    HW2 7125   1.819   4.506   2.161
 2251SOL     OW 7126   1.390   4.299   1.940
 2251SOL    HW1 7127   1.336   4.278   2.021
 2251SOL    HW2 7128   1.481   4.258   1.949
 2252SOL     OW 7129   0.527   3.980   2.190
 2252SOL    HW1 7130   0.554   3.921   2.115
 2252SOL    HW2 7131   0.527   4.075   2.159
 2253SOL     OW 7132   1.754   4.947   3.450
 2253SOL    HW1 7133   1.845   4.908   3.437
 2253SOL    HW2 7134   1.762   5.043   3.474
 2254SOL     OW 7135   1.638   4.823   2.941
 2254SOL    HW1 7136   1.643   4.904   3.000
 2254SOL    HW2 7137   1.552   4.825   2.890
 2255SOL     OW 7138   0.915   3.813   3.264
 2255SOL    HW1 7139   0.940   3.793   3.169
 2255SOL    HW2 7140   0.987   3.869   3.306
 2256SOL     OW 7141   0.980   4.840   3.581
 2256SOL    HW1 7142   0.881   4.846   3.591
 2256SOL    HW2 7143   1.003   4.760   3.525
 2257SOL     OW 7144   0.705   4.774   2.230
 2257SOL    HW1 7145   0.691   4.781   2.329
 2257SOL    HW2 7146   0.789   4.723   2.212
 2258SOL     OW 7147   0.410   4.537   3.113
 2258SOL    HW1 7148   0.496   4.549   3.163
 2258SOL    HW2 7149   0.368   4.450   3.140
 2259SOL     OW 7150   1.274   4.110   3.124
 2259SOL    HW1 7151   1.295   4.184   3.188
 2259SOL    HW2 7152   1.185   4.127   3.081
 2260SOL     OW 7153   0.367   4.824   2.363
 2260SOL    HW1 7154   0.360   4.907   2.307
 2260SOL    HW2 7155   0.371   4.744   2.303
 2261SOL     OW 7156   0.566   4.261   2.727
 2261SOL    HW1 7157   0.578   4.327   2.653
 2261SOL    HW2 7158   0.612   4.295   2.810
 2262SOL     OW 7159   1.582   4.363   2.334
 2262SOL    HW1 7160   1.551   4.424   2.407
 2262SOL    HW2 7161   1.632   4.415   2.265
 2263SOL     OW 7162   0.402   4.475   3.460
 2263SOL    HW1 7163   0.470   4.530   3.413
 2263SOL    HW2 7164   0.442   4.387   3.487
 2264SOL     OW 7165   1.587   4.503   3.532
 2264SOL    HW1 7166   1.495   4.541   3.527
 2264SOL    HW2 7167   1.647   4.550   3.467
 2265SOL     OW 7168   1.013   3.829   3.632
 2265SOL    HW1 7169   1.019   3.914   3.580
 2265SOL    HW2 7170   1.045   3.753   3.575
 2266SOL     OW 7171   0.504   3.774   3.602
 2266SOL    HW1 7172   0.462   3.717   3.532
 2266SOL    HW2 7173   0.438   3.843   3.634
 2267SOL     OW 7174   0.573   4.594   2.891
 2267SOL    HW1 7175   0.617   4.683   2.882
 2267SOL    HW2 7176   0.510   4.594   2.968
 2268SOL     OW 7177   1.360   4.586   2.907
 2268SOL    HW1 7178   1.285   4.586   2.841
 2268SOL    HW2 7179   1.397   4.494   2.916
 2269SOL     OW 7180   1.209   4.249   2.137
 2269SOL    HW1 7181   1.222   4.165   2.191
 2269SOL    HW2 7182   1.180   4.323   2.197
 2270SOL     OW 7183   0.307   3.937   3.093
 2270SOL    HW1 7184   0.284   3.974   3.183
 2270SOL    HW2 7185   0.277   3.842   3.087
 2271SOL     OW 7186   0.037   5.034   3.144
 2271SOL    HW1 7187   0.090   4.985   3.212
 2271SOL    HW2 7188   0.059   5.132   3.149
 2272SOL     OW 7189   0.732   4.358   2.926
 2272SOL    HW1 7190   0.791   4.332   2.850
 2272SOL    HW2 7191   0.704   4.454   2.915
 2273SOL     OW 7192   1.728   4.659   3.716
 2273SOL    HW1 7193   1.682   4.652   3.627
 2273SOL    HW2 7194   1.666   4.703   3.782
 2274SOL     OW 7195   0.307   3.787   2.480
 2274SOL    HW1 7196   0.296   3.881   2.513
 2274SOL    HW2 7197   0.302   3.724   2.557
 2275SOL     OW 7198   1.622   4.091   2.236
 2275SOL    HW1 7199   1.624   4.015   2.300
 2275SOL    HW2 7200   1.574   4.168   2.276
 2276SOL     OW 7201   1.023   4.490   2.828
 2276SOL    HW1 7202   1.038   4.511   2.924
 2276SOL    HW2 7203   0.993   4.395   2.819
 2277SOL     OW 7204   0.350   4.622   3.666
 2277SOL    HW1 7205   0.426   4.666   3.714
 2277SOL    HW2 7206   0.385   4.575   3.584
 2278SOL     OW 7207   1.540   3.998   1.987
 2278SOL    HW1 7208   1.479   3.923   2.010
 2278SOL    HW2 7209   1.562   4.050   2.070
 2279SOL     OW 7210   1.303   4.562   1.904
 2279SOL    HW1 7211   1.337   4.469   1.919
 2279SOL    HW2 7212   1.321   4.589   1.809
 2280SOL     OW 7213   0.319   4.534   2.811
 2280SOL    HW1 7214   0.412   4.570   2.816
 2280SOL    HW2 7215   0.313   4.449   2.863
 2281SOL     OW 7216   0.339   4.233   2.868
 2281SOL    HW1 7217   0.287   4.150   2.851
 2281SOL    HW2 7218   0.416   4.238   2.804
 2282SOL     OW 7219   1.138   4.104   3.540
 2282SOL    HW1 7220   1.093   4.167   3.604
 2282SOL    HW2 7221   1.231   4.135   3.523
 2283SOL     OW 7222   1.160   3.931   3.339
 2283SOL    HW1 7223   1.160   3.995   3.416
 2283SOL    HW2 7224   1.188   3.979   3.256
 2284SOL     OW 7225   0.008   5.050   2.062
 2284SOL    HW1 7226  -0.085   5.071   2.031
 2284SOL    HW2 7227   0.018   4.951   2.075
 2285SOL     OW 7228   1.002   4.520   3.100
 2285SOL    HW1 7229   1.043   4.488   3.186
 2285SOL    HW2 7230   0.906   4.493   3.097
 2286SOL     OW 7231   0.040   4.268   2.976
 2286SOL    HW1 7232   0.125   4.235   2.935
 2286SOL    HW2 7233   0.053   4.283   3.074
 2287SOL     OW 7234   0.189   4.244   3.584
 2287SOL    HW1 7235   0.248   4.204   3.514
 2287SOL    HW2 7236   0.131   4.315   3.543
 2288SOL     OW 7237   1.369   4.674   3.522
 2288SOL    HW1 7238   1.408   4.763   3.542
 2288SOL    HW2 7239   1.379   4.654   3.425
 2289SOL     OW 7240   0.815   4.296   2.187
 2289SOL    HW1 7241   0.822   4.207   2.141
 2289SOL    HW2 7242   0.721   4.330   2.179
 2290SOL     OW 7243   1.657   4.328   3.068
 2290SOL    HW1 7244   1.619   4.259   3.130
 2290SOL    HW2 7245   1.739   4.292   3.024
 2291SOL     OW 7246   0.671   4.188   3.131
 2291SOL    HW1 7247   0.637   4.099   3.101
 2291SOL    HW2 7248   0.697   4.242   3.051
 2292SOL     OW 7249   0.473   4.224   2.053
 2292SOL    HW1 7250   0.534   4.304   2.057
 2292SOL    HW2 7251   0.378   4.255   2.060
 2293SOL     OW 7252   0.159   4.861   3.328
 2293SOL    HW1 7253   0.181   4.800   3.404
 2293SOL    HW2 7254   0.169   4.812   3.242
 2294SOL     OW 7255   1.347   4.783   3.096
 2294SOL    HW1 7256   1.371   4.720   3.022
 2294SOL    HW2 7257   1.257   4.823   3.078
 2295SOL     OW 7258   1.302   4.579   2.171
 2295SOL    HW1 7259   1.216   4.548   2.213
 2295SOL    HW2 7260   1.298   4.565   2.072
 2296SOL     OW 7261   0.083   4.982   2.884
 2296SOL    HW1 7262   0.078   4.981   2.984
 2296SOL    HW2 7263   0.000   4.941   2.846
 2297SOL     OW 7264   1.726   3.859   2.385
 2297SOL    HW1 7265   1.799   3.842   2.318
 2297SOL    HW2 7266   1.695   3.772   2.423
 2298SOL     OW 7267   1.280   4.651   2.534
 2298SOL    HW1 7268   1.340   4.570   2.536
 2298SOL    HW2 7269   1.320   4.720   2.474
 2299SOL     OW 7270   1.841   3.899   2.825
 2299SOL    HW1 7271   1.880   3.814   2.789
 2299SOL    HW2 7272   1.743   3.901   2.806
 2300SOL     OW 7273   0.263   4.050   2.582
 2300SOL    HW1 7274   0.184   4.101   2.548
 2300SOL    HW2 7275   0.254   4.035   2.680
 2301SOL     OW 7276   0.822   4.726   3.234
 2301SOL    HW1 7277   0.862   4.725   3.142
 2301SOL    HW2 7278   0.832   4.818   3.274
 2302SOL     OW 7279   0.916   4.634   2.153
 2302SOL    HW1 7280   0.979   4.672   2.085
 2302SOL    HW2 7281   0.956   4.551   2.192
 2303SOL     OW 7282   0.372   5.012   3.352
 2303SOL    HW1 7283   0.359   5.105   3.318
 2303SOL    HW2 7284   0.288   4.960   3.339
 2304SOL     OW 7285   1.614   5.016   3.151
 2304SOL    HW1 7286   1.674   5.019   3.231
 2304SOL    HW2 7287   1.539   5.080   3.164
 2305SOL     OW 7288   1.039   4.822   2.558
 2305SOL    HW1 7289   0.969   4.775   2.612
 2305SOL    HW2 7290   1.098   4.754   2.515
 2306SOL     OW 7291   1.014   3.960   2.833
 2306SOL    HW1 7292   1.006   3.924   2.740
 2306SOL    HW2 7293   1.012   3.884   2.898
 2307SOL     OW 7294   1.709   4.109   3.243
 2307SOL    HW1 7295   1.782   4.178   3.247
 2307SOL    HW2 7296   1.737   4.034   3.184
 2308SOL     OW 7297   0.105   4.737   3.588
 2308SOL    HW1 7298   0.028   4.704   3.642
 2308SOL    HW2 7299   0.190   4.707   3.630
 2309SOL     OW 7300   0.672   3.927   3.351
 2309SOL    HW1 7301   0.762   3.911   3.311
 2309SOL    HW2 7302   0.680   3.932   3.450
 2310SOL     OW 7303   0.075   4.069   1.895
 2310SOL    HW1 7304  -0.017   4.041   1.866
 2310SOL    HW2 7305   0.106   4.146   1.839
 2311SOL     OW 7306   1.440   4.580   3.260
 2311SOL    HW1 7307   1.383   4.632   3.197
 2311SOL    HW2 7308   1.536   4.592   3.236
 2312SOL     OW 7309   0.072   3.890   2.180
 2312SOL    HW1 7310   0.055   3.973   2.126
 2312SOL    HW2 7311   0.162   3.853   2.158
 2313SOL     OW 7312   0.613   4.566   3.293
 2313SOL    HW1 7313   0.669   4.647   3.276
 2313SOL    HW2 7314   0.672   4.486   3.296
 2314SOL     OW 7315   0.716   4.289   3.570
 2314SOL    HW1 7316   0.735   4.354   3.644
 2314SOL    HW2 7317   0.776   4.209   3.579
 2315SOL     OW 7318   1.450   4.944   3.495
 2315SOL    HW1 7319   1.441   4.934   3.594
 2315SOL    HW2 7320   1.546   4.937   3.469
 2316SOL     OW 7321   1.674   4.607   3.116
 2316SOL    HW1 7322   1.647   4.518   3.079
 2316SOL    HW2 7323   1.675   4.675   3.043
 2317SOL     OW 7324   1.225   4.049   2.311
 2317SOL    HW1 7325   1.290   3.975   2.300
 2317SOL    HW2 7326   1.245   4.099   2.395
 2318SOL     OW 7327   0.594   4.469   2.514
 2318SOL    HW1 7328   0.644   4.554   2.495
 2318SOL    HW2 7329   0.506   4.471   2.466
 2319SOL     OW 7330   1.777   4.066   3.504
 2319SOL    HW1 7331   1.760   4.097   3.410
 2319SOL    HW2 7332   1.693   4.029   3.542
 2320SOL     OW 7333   1.730   4.658   3.379
 2320SOL    HW1 7334   1.768   4.749   3.394
 2320SOL    HW2 7335   1.722   4.641   3.280
 2321SOL     OW 7336   0.859   4.680   2.723
 2321SOL    HW1 7337   0.913   4.611   2.771
 2321SOL    HW2 7338   0.827   4.749   2.789
 2322SOL     OW 7339   1.083   4.708   1.949
 2322SOL    HW1 7340   1.060   4.761   1.867
 2322SOL    HW2 7341   1.164   4.652   1.930
 2323SOL     OW 7342   0.079   4.964   2.515
 2323SOL    HW1 7343   0.078   4.917   2.603
 2323SOL    HW2 7344   0.161   4.936   2.464
 2324SOL     OW 7345   1.824   3.916   3.089
 2324SOL    HW1 7346   1.820   3.826   3.133
 2324SOL    HW2 7347   1.827   3.905   2.990
 2325SOL     OW 7348   0.428   4.148   2.382
 2325SOL    HW1 7349   0.458   4.076   2.320
 2325SOL    HW2 7350   0.389   4.108   2.465
 2326SOL     OW 7351   0.317   4.271   3.142
 2326SOL    HW1 7352   0.355   4.212   3.214
 2326SOL    HW2 7353   0.357   4.245   3.054
 2327SOL     OW 7354   1.424   3.938   2.974
 2327SOL    HW1 7355   1.476   3.873   3.029
 2327SOL    HW2 7356   1.375   4.001   3.035
 2328SOL     OW 7357   1.001   3.758   3.016
 2328SOL    HW1 7358   0.938   3.686   2.985
 2328SOL    HW2 7359   1.094   3.722   3.016
 2329SOL     OW 7360   0.770   5.054   2.163
 2329SOL    HW1 7361   0.724   4.967   2.180
 2329SOL    HW2 7362   0.861   5.051   2.204
 2330SOL     OW 7363   1.352   3.776   2.030
 2330SOL    HW1 7364   1.387   3.735   1.946
 2330SOL    HW2 7365   1.262   3.738   2.050
 2331SOL     OW 7366   1.300   4.177   2.553
 2331SOL    HW1 7367   1.241   4.257   2.557
 2331SOL    HW2 7368   1.315   4.142   2.646
 2332SOL     OW 7369   1.593   3.945   2.744
 2332SOL    HW1 7370   1.509   3.944   2.798
 2332SOL    HW2 7371   1.595   4.028   2.688
 2333SOL     OW 7372   0.039   4.801   2.162
 2333SOL    HW1 7373   0.138   4.790   2.153
 2333SOL    HW2 7374  -0.001   4.715   2.194
 2334SOL     OW 7375   0.230   4.352   3.837
 2334SOL    HW1 7376   0.137   4.350   3.874
 2334SOL    HW2 7377   0.231   4.313   3.745
 2335SOL     OW 7378   0.225   3.999   4.720
 2335SOL    HW1 7379   0.260   3.982   4.812
 2335SOL    HW2 7380   0.137   3.954   4.708
 2336SOL     OW 7381   0.019   4.092   4.371
 2336SOL    HW1 7382  -0.063   4.135   4.410
 2336SOL    HW2 7383  -0.009   4.019   4.308
 2337SOL     OW 7384   1.135   4.427   4.441
 2337SOL    HW1 7385   1.192   4.505   4.416
 2337SOL    HW2 7386   1.075   4.453   4.517
 2338SOL     OW 7387   1.755   4.331   3.955
 2338SOL    HW1 7388   1.743   4.318   3.856
 2338SOL    HW2 7389   1.725   4.250   4.004
 2339SOL     OW 7390   0.768   4.868   4.747
 2339SOL    HW1 7391   0.690   4.885   4.807
 2339SOL    HW2 7392   0.802   4.955   4.711
 2340SOL     OW 7393   0.850   4.522   5.547
 2340SOL    HW1 7394   0.846   4.598   5.612
 2340SOL    HW2 7395   0.872   4.558   5.456
 2341SOL     OW 7396   0.685   4.736   4.389
 2341SOL    HW1 7397   0.754   4.720   4.459
 2341SOL    HW2 7398   0.612   4.793   4.427
 2342SOL     OW 7399   0.686   4.885   5.527
 2342SOL    HW1 7400   0.746   4.964   5.541
 2342SOL    HW2 7401   0.600   4.916   5.486
 2343SOL     OW 7402   0.438   4.116   5.223
 2343SOL    HW1 7403   0.520   4.060   5.232
 2343SOL    HW2 7404   0.357   4.058   5.227
 2344SOL     OW 7405   1.603   4.171   4.461
 2344SOL    HW1 7406   1.529   4.217   4.411
 2344SOL    HW2 7407   1.654   4.239   4.514
 2345SOL     OW 7408   0.240   4.815   4.610
 2345SOL    HW1 7409   0.254   4.731   4.662
 2345SOL    HW2 7410   0.185   4.879   4.665
 2346SOL     OW 7411   0.606   4.688   3.847
 2346SOL    HW1 7412   0.613   4.772   3.793
 2346SOL    HW2 7413   0.652   4.701   3.935
 2347SOL     OW 7414   1.594   3.838   5.204
 2347SOL    HW1 7415   1.576   3.905   5.132
 2347SOL    HW2 7416   1.591   3.884   5.293
 2348SOL     OW 7417   0.122   4.367   4.287
 2348SOL    HW1 7418   0.077   4.279   4.304
 2348SOL    HW2 7419   0.121   4.421   4.371
 2349SOL     OW 7420   1.689   4.646   4.336
 2349SOL    HW1 7421   1.784   4.617   4.344
 2349SOL    HW2 7422   1.681   4.711   4.261
 2350SOL     OW 7423   1.641   4.832   4.156
 2350SOL    HW1 7424   1.727   4.834   4.104
 2350SOL    HW2 7425   1.655   4.879   4.244
 2351SOL     OW 7426   0.113   4.461   5.321
 2351SOL    HW1 7427   0.201   4.448   5.366
 2351SOL    HW2 7428   0.100   4.558   5.299
 2352SOL     OW 7429   1.293   4.952   5.147
 2352SOL    HW1 7430   1.330   4.879   5.089
 2352SOL    HW2 7431   1.345   4.957   5.232
 2353SOL     OW 7432   0.809   3.728   4.226
 2353SOL    HW1 7433   0.849   3.819   4.217
 2353SOL    HW2 7434   0.709   3.736   4.232
 2354SOL     OW 7435   0.197   4.700   4.988
 2354SOL    HW1 7436   0.286   4.655   4.974
 2354SOL    HW2 7437   0.124   4.635   4.969
 2355SOL     OW 7438   1.525   4.723   3.914
 2355SOL    HW1 7439   1.462   4.647   3.927
 2355SOL    HW2 7440   1.573   4.741   4.000
 2356SOL     OW 7441   0.317   3.975   5.525
 2356SOL    HW1 7442   0.388   4.046   5.531
 2356SOL    HW2 7443   0.229   4.014   5.553
 2357SOL     OW 7444   0.598   4.453   3.994
 2357SOL    HW1 7445   0.622   4.522   3.926
 2357SOL    HW2 7446   0.520   4.486   4.048
 2358SOL     OW 7447   1.281   4.069   4.668
 2358SOL    HW1 7448   1.195   4.019   4.655
 2358SOL    HW2 7449   1.343   4.015   4.724
 2359SOL     OW 7450   0.807   4.329   5.189
 2359SOL    HW1 7451   0.760   4.326   5.278
 2359SOL    HW2 7452   0.756   4.274   5.123
 2360SOL     OW 7453   1.394   4.193   5.398
 2360SOL    HW1 7454   1.374   4.236   5.486
 2360SOL    HW2 7455   1.472   4.131   5.407
 2361SOL     OW 7456   0.973   4.614   5.296
 2361SOL    HW1 7457   1.019   4.530   5.267
 2361SOL    HW2 7458   0.917   4.648   5.221
 2362SOL     OW 7459   0.991   4.134   4.966
 2362SOL    HW1 7460   0.914   4.168   5.020
 2362SOL    HW2 7461   0.957   4.083   4.887
 2363SOL     OW 7462   1.041   4.425   4.153
 2363SOL    HW1 7463   1.067   4.421   4.249
 2363SOL    HW2 7464   0.956   4.374   4.139
 2364SOL     OW 7465   0.076   4.535   4.513
 2364SOL    HW1 7466   0.175   4.523   4.522
 2364SOL    HW2 7467   0.052   4.630   4.534
 2365SOL     OW 7468   0.865   4.072   3.919
 2365SOL    HW1 7469   0.924   4.135   3.870
 2365SOL    HW2 7470   0.884   3.978   3.890
 2366SOL     OW 7471   1.719   4.309   5.555
 2366SOL    HW1 7472   1.693   4.398   5.519
 2366SOL    HW2 7473   1.717   4.241   5.482
 2367SOL     OW 7474   1.362   4.868   4.269
 2367SOL    HW1 7475   1.445   4.839   4.221
 2367SOL    HW2 7476   1.313   4.935   4.213
 2368SOL     OW 7477   0.550   3.920   4.609
 2368SOL    HW1 7478   0.545   3.915   4.709
 2368SOL    HW2 7479   0.552   4.016   4.580
 2369SOL     OW 7480   1.795   4.790   4.597
 2369SOL    HW1 7481   1.733   4.775   4.521
 2369SOL    HW2 7482   1.743   4.801   4.682
 2370SOL     OW 7483   0.321   4.667   3.966
 2370SOL    HW1 7484   0.403   4.706   3.924
 2370SOL    HW2 7485   0.294   4.585   3.917
 2371SOL     OW 7486   1.458   4.459   4.452
 2371SOL    HW1 7487   1.453   4.394   4.527
 2371SOL    HW2 7488   1.538   4.518   4.465
 2372SOL     OW 7489   0.202   4.009   5.222
 2372SOL    HW1 7490   0.122   4.069   5.209
 2372SOL    HW2 7491   0.192   3.960   5.308
 2373SOL     OW 7492   1.400   3.831   4.150
 2373SOL    HW1 7493   1.376   3.794   4.060
 2373SOL    HW2 7494   1.499   3.847   4.154
 2374SOL     OW 7495   0.382   4.424   4.204
 2374SOL    HW1 7496   0.427   4.334   4.201
 2374SOL    HW2 7497   0.288   4.413   4.237
 2375SOL     OW 7498   1.547   3.946   5.453
 2375SOL    HW1 7499   1.542   3.983   5.545
 2375SOL    HW2 7500   1.475   3.877   5.441
 2376SOL     OW 7501   0.614   3.846   3.841
 2376SOL    HW1 7502   0.712   3.824   3.848
 2376SOL    HW2 7503   0.583   3.829   3.748
 2377SOL     OW 7504   0.781   3.988   5.473
 2377SOL    HW1 7505   0.848   3.927   5.516
 2377SOL    HW2 7506   0.708   4.007   5.538
 2378SOL     OW 7507   1.351   4.314   5.157
 2378SOL    HW1 7508   1.379   4.271   5.242
 2378SOL    HW2 7509   1.376   4.410   5.158
 2379SOL     OW 7510   0.922   4.227   4.623
 2379SOL    HW1 7511   0.897   4.218   4.527
 2379SOL    HW2 7512   0.970   4.145   4.654
 2380SOL     OW 7513   0.539   3.788   4.236
 2380SOL    HW1 7514   0.458   3.789   4.294
 2380SOL    HW2 7515   0.542   3.871   4.181
 2381SOL     OW 7516   0.297   3.759   3.895
 2381SOL    HW1 7517   0.346   3.843   3.874
 2381SOL    HW2 7518   0.359   3.694   3.940
 2382SOL     OW 7519   0.935   3.960   4.204
 2382SOL    HW1 7520   0.887   4.001   4.126
 2382SOL    HW2 7521   1.034   3.958   4.185
 2383SOL     OW 7522   1.076   4.407   5.188
 2383SOL    HW1 7523   0.996   4.346   5.191
 2383SOL    HW2 7524   1.157   4.354   5.164
 2384SOL     OW 7525   0.459   4.876   4.465
 2384SOL    HW1 7526   0.388   4.849   4.530
 2384SOL    HW2 7527   0.433   4.848   4.372
 2385SOL     OW 7528   1.032   4.273   3.740
 2385SOL    HW1 7529   0.991   4.355   3.701
 2385SOL    HW2 7530   1.096   4.299   3.813
 2386SOL     OW 7531   0.078   4.280   5.110
 2386SOL    HW1 7532   0.170   4.279   5.069
 2386SOL    HW2 7533   0.072   4.354   5.177
 2387SOL     OW 7534   0.561   3.946   4.871
 2387SOL    HW1 7535   0.599   3.862   4.908
 2387SOL    HW2 7536   0.473   3.965   4.915
 2388SOL     OW 7537   0.866   4.178   4.366
 2388SOL    HW1 7538   0.834   4.250   4.304
 2388SOL    HW2 7539   0.890   4.097   4.313
 2389SOL     OW 7540   1.017   3.763   4.477
 2389SOL    HW1 7541   0.945   3.768   4.408
 2389SOL    HW2 7542   0.993   3.694   4.546
 2390SOL     OW 7543   1.429   4.897   4.591
 2390SOL    HW1 7544   1.374   4.813   4.584
 2390SOL    HW2 7545   1.455   4.926   4.499
 2391SOL     OW 7546   1.466   4.314   4.716
 2391SOL    HW1 7547   1.436   4.219   4.723
 2391SOL    HW2 7548   1.539   4.330   4.782
 2392SOL     OW 7549   1.857   4.557   4.101
 2392SOL    HW1 7550   1.899   4.493   4.165
 2392SOL    HW2 7551   1.819   4.506   4.023
 2393SOL     OW 7552   1.390   4.299   3.802
 2393SOL    HW1 7553   1.336   4.278   3.883
 2393SOL    HW2 7554   1.481   4.258   3.811
 2394SOL     OW 7555   0.527   3.980   4.052
 2394SOL    HW1 7556   0.554   3.921   3.977
 2394SOL    HW2 7557   0.527   4.075   4.021
 2395SOL     OW 7558   1.754   4.947   5.312
 2395SOL    HW1 7559   1.845   4.908   5.299
 2395SOL    HW2 7560   1.762   5.043   5.336
 2396SOL     OW 7561   1.638   4.823   4.803
 2396SOL    HW1 7562   1.643   4.904   4.862
 2396SOL    HW2 7563   1.552   4.825   4.752
 2397SOL     OW 7564   0.915   3.813   5.126
 2397SOL    HW1 7565   0.940   3.793   5.031
 2397SOL    HW2 7566   0.987   3.869   5.168
 2398SOL     OW 7567   0.980   4.840   5.443
 2398SOL    HW1 7568   0.881   4.846   5.453
 2398SOL    HW2 7569   1.003   4.760   5.387
 2399SOL     OW 7570   0.705   4.774   4.092
 2399SOL    HW1 7571   0.691   4.781   4.191
 2399SOL    HW2 7572   0.789   4.723   4.074
 2400SOL     OW 7573   0.410   4.537   4.975
 2400SOL    HW1 7574   0.496   4.549   5.025
 2400SOL    HW2 7575   0.368   4.450   5.002
 2401SOL     OW 7576   1.274   4.110   4.986
 2401SOL    HW1 7577   1.295   4.184   5.050
 2401SOL    HW2 7578   1.185   4.127   4.943
 2402SOL     OW 7579   0.367   4.824   4.225
 2402SOL    HW1 7580   0.360   4.907   4.169
 2402SOL    HW2 7581   0.371   4.744   4.165
 2403SOL     OW 7582   0.566   4.261   4.589
 2403SOL    HW1 7583   0.578   4.327   4.515
 2403SOL    HW2 7584   0.612   4.295   4.672
 2404SOL     OW 7585   1.582   4.363   4.196
 2404SOL    HW1 7586   1.551   4.424   4.269
 2404SOL    HW2 7587   1.632   4.415   4.127
 2405SOL     OW 7588   0.402   4.475   5.322
 2405SOL    HW1 7589   0.470   4.530   5.275
 2405SOL    HW2 7590   0.442   4.387   5.349
 2406SOL     OW 7591   1.587   4.503   5.394
 2406SOL    HW1 7592   1.495   4.541   5.389
 2406SOL    HW2 7593   1.647   4.550   5.329
 2407SOL     OW 7594   1.013   3.829   5.494
 2407SOL    HW1 7595   1.019   3.914   5.442
 2407SOL    HW2 7596   1.045   3.753   5.437
 2408SOL     OW 7597   0.504   3.774   5.464
 2408SOL    HW1 7598   0.462   3.717   5.394
 2408SOL    HW2 7599   0.438   3.843   5.496
 2409SOL     OW 7600   0.573   4.594   4.753
 2409SOL    HW1 7601   0.617   4.683   4.744
 2409SOL    HW2 7602   0.510   4.594   4.830
 2410SOL     OW 7603   1.360   4.586   4.769
 2410SOL    HW1 7604   1.285   4.586   4.703
 2410SOL    HW2 7605   1.397   4.494   4.778
 2411SOL     OW 7606   1.209   4.249   3.999
 2411SOL    HW1 7607   1.222   4.165   4.053
 2411SOL    HW2 7608   1.180   4.323   4.059
 2412SOL     OW 7609   0.307   3.937   4.955
 2412SOL    HW1 7610   0.284   3.974   5.045
 2412SOL    HW2 7611   0.277   3.842   4.949
 2413SOL     OW 7612   0.037   5.034   5.006
 2413SOL    HW1 7613   0.090   4.985   5.074
 2413SOL    HW2 7614   0.059   5.132   5.011
 2414SOL     OW 7615   0.732   4.358   4.788
 2414SOL    HW1 7616   0.791   4.332   4.712
 2414SOL    HW2 7617   0.704   4.454   4.777
 2415SOL     OW 7618   1.728   4.659   5.578
 2415SOL    HW1 7619   1.682   4.652   5.489
 2415SOL    HW2 7620   1.666   4.703   5.644
 2416SOL     OW 7621   0.307   3.787   4.342
 2416SOL    HW1 7622   0.296   3.881   4.375
 2416SOL    HW2 7623   0.302   3.724   4.419
 2417SOL     OW 7624   1.622   4.091   4.098
 2417SOL    HW1 7625   1.624   4.015   4.162
 2417SOL    HW2 7626   1.574   4.168   4.138
 2418SOL     OW 7627   1.023   4.490   4.690
 2418SOL    HW1 7628   1.038   4.511   4.786
 2418SOL    HW2 7629   0.993   4.395   4.681
 2419SOL     OW 7630   0.350   4.622   5.528
 2419SOL    HW1 7631   0.426   4.666   5.576
 2419SOL    HW2 7632   0.385   4.575   5.446
 2420SOL     OW 7633   1.540   3.998   3.849
 2420SOL    HW1 7634   1.479   3.923   3.872
 2420SOL    HW2 7635   1.562   4.050   3.932
 2421SOL     OW 7636   1.303   4.562   3.766
 2421SOL    HW1 7637   1.337   4.469   3.781
 2421SOL    HW2 7638   1.321   4.589   3.671
 2422SOL     OW 7639   0.319   4.534   4.673
 2422SOL    HW1 7640   0.412   4.570   4.678
 2422SOL    HW2 7641   0.313   4.449   4.725
 2423SOL     OW 7642   0.339   4.233   4.730
 2423SOL    HW1 7643   0.287   4.150   4.713
 2423SOL    HW2 7644   0.416   4.238   4.666
 2424SOL     OW 7645   1.138   4.104   5.402
 2424SOL    HW1 7646   1.093   4.167   5.466
 2424SOL    HW2 7647   1.231   4.135   5.385
 2425SOL     OW 7648   1.160   3.931   5.201
 2425SOL    HW1 7649   1.160   3.995   5.278
 2425SOL    HW2 7650   1.188   3.979   5.118
 2426SOL     OW 7651   0.008   5.050   3.924
 2426SOL    HW1 7652  -0.085   5.071   3.893
 2426SOL    HW2 7653   0.018   4.951   3.937
 2427SOL     OW 7654   1.002   4.520   4.962
 2427SOL    HW1 7655   1.043   4.488   5.048
 2427SOL    HW2 7656   0.906   4.493   4.959
 2428SOL     OW 7657   0.040   4.268   4.838
 2428SOL    HW1 7658   0.125   4.235   4.797
 2428SOL    HW2 7659   0.053   4.283   4.936
 2429SOL     OW 7660   0.189   4.244   5.446
 2429SOL    HW1 7661   0.248   4.204   5.376
 2429SOL    HW2 7662   0.131   4.315   5.405
 2430SOL     OW 7663   1.369   4.674   5.384
 2430SOL    HW1 7664   1.408   4.763   5.404
 2430SOL    HW2 7665   1.379   4.654   5.287
 2431SOL     OW 7666   0.815   4.296   4.049
 2431SOL    HW1 7667   0.822   4.207   4.003
 2431SOL    HW2 7668   0.721   4.330   4.041
 2432SOL     OW 7669   1.657   4.328   4.930
 2432SOL    HW1 7670   1.619   4.259   4.992
 2432SOL    HW2 7671   1.739   4.292   4.886
 2433SOL     OW 7672   0.671   4.188   4.993
 2433SOL    HW1 7673   0.637   4.099   4.963
 2433SOL    HW2 7674   0.697   4.242   4.913
 2434SOL     OW 7675   0.473   4.224   3.915
 2434SOL    HW1 7676   0.534   4.304   3.919
 2434SOL    HW2 7677   0.378   4.255   3.922
 2435SOL     OW 7678   0.159   4.861   5.190
 2435SOL    HW1 7679   0.181   4.800   5.266
 2435SOL    HW2 7680   0.169   4.812   5.104
 2436SOL     OW 7681   1.347   4.783   4.958
 2436SOL    HW1 7682   1.371   4.720   4.884
 2436SOL    HW2 7683   1.257   4.823   4.940
 2437SOL     OW 7684   1.302   4.579   4.033
 2437SOL    HW1 7685   1.216   4.548   4.075
 2437SOL    HW2 7686   1.298   4.565   3.934
 2438SOL     OW 7687   0.083   4.982   4.746
 2438SOL    HW1 7688   0.078   4.981   4.846
 2438SOL    HW2 7689   0.000   4.941   4.708
 2439SOL     OW 7690   1.726   3.859   4.247
 2439SOL    HW1 7691   1.799   3.842   4.180
 2439SOL    HW2 7692   1.695   3.772   4.285
 2440SOL     OW 7693   1.280   4.651   4.396
 2440SOL    HW1 7694   1.340   4.570   4.398
 2440SOL    HW2 7695   1.320   4.720   4.336
 2441SOL     OW 7696   1.841   3.899   4.687
 2441SOL    HW1 7697   1.880   3.814   4.651
 2441SOL    HW2 7698   1.743   3.901   4.668
 2442SOL     OW 7699   0.263   4.050   4.444
 2442SOL    HW1 7700   0.184   4.101   4.410
 2442SOL    HW2 7701   0.254   4.035   4.542
 2443SOL     OW 7702   0.822   4.726   5.096
 2443SOL    HW1 7703   0.862   4.725   5.004
 2443SOL    HW2 7704   0.832   4.818   5.136
 2444SOL     OW 7705   0.916   4.634   4.015
 2444SOL    HW1 7706   0.979   4.672   3.947
 2444SOL    HW2 7707   0.956   4.551   4.054
 2445SOL     OW 7708   0.372   5.012   5.214
 2445SOL    HW1 7709   0.359   5.105   5.180
 2445SOL    HW2 7710   0.288   4.960   5.201
 2446SOL     OW 7711   1.614   5.016   5.013
 2446SOL    HW1 7712   1.674   5.019   5.093
 2446SOL    HW2 7713   1.539   5.080   5.026
 2447SOL     OW 7714   1.039   4.822   4.420
 2447SOL    HW1 7715   0.969   4.775   4.474
 2447SOL    HW2 7716   1.098   4.754   4.377
 2448SOL     OW 7717   1.014   3.960   4.695
 2448SOL    HW1 7718   1.006   3.924   4.602
 2448SOL    HW2 7719   1.012   3.884   4.760
 2449SOL     OW 7720   1.709   4.109   5.105
 2449SOL    HW1 7721   1.782   4.178   5.109
 2449SOL    HW2 7722   1.737   4.034   5.046
 2450SOL     OW 7723   0.105   4.737   5.450
 2450SOL    HW1 7724   0.028   4.704   5.504
 2450SOL    HW2 7725   0.190   4.707   5.492
 2451SOL     OW 7726   0.672   3.927   5.213
 2451SOL    HW1 7727   0.762   3.911   5.173
 2451SOL    HW2 7728   0.680   3.932   5.312
 2452SOL     OW 7729   0.075   4.069   3.757
 2452SOL    HW1 7730  -0.017   4.041   3.728
 2452SOL    HW2 7731   0.106   4.146   3.701
 2453SOL     OW 7732   1.440   4.580   5.122
 2453SOL    HW1 7733   1.383   4.632   5.059
 2453SOL    HW2 7734   1.536   4.592   5.098
 2454SOL     OW 7735   0.072   3.890   4.042
 2454SOL    HW1 7736   0.055   3.973   3.988
 2454SOL    HW2 7737   0.162   3.853   4.020
 2455SOL     OW 7738   0.613   4.566   5.155
 2455SOL    HW1 7739   0.669   4.647   5.138
 2455SOL    HW2 7740   0.672   4.486   5.158
 2456SOL     OW 7741   0.716   4.289   5.432
 2456SOL    HW1 7742   0.735   4.354   5.506
 2456SOL    HW2 7743   0.776   4.209   5.441
 2457SOL     OW 7744   1.450   4.944   5.357
 2457SOL    HW1 7745   1.441   4.934   5.456
 2457SOL    HW2 7746   1.546   4.937   5.331
 2458SOL     OW 7747   1.674   4.607   4.978
 2458SOL    HW1 7748   1.647   4.518   4.941
 2458SOL    HW2 7749   1.675   4.675   4.905
 2459SOL     OW 7750   1.225   4.049   4.173
 2459SOL    HW1 7751   1.290   3.975   4.162
 2459SOL    HW2 7752   1.245   4.099   4.257
 2460SOL     OW 7753   0.594   4.469   4.376
 2460SOL    HW1 7754   0.644   4.554   4.357
 2460SOL    HW2 7755   0.506   4.471   4.328
 2461SOL     OW 7756   1.777   4.066   5.366
 2461SOL    HW1 7757   1.760   4.097   5.272
 2461SOL    HW2 7758   1.693   4.029   5.404
 2462SOL     OW 7759   1.730   4.658   5.241
 2462SOL    HW1 7760   1.768   4.749   5.256
 2462SOL    HW2 7761   1.722   4.641   5.142
 2463SOL     OW 7762   0.859   4.680   4.585
 2463SOL    HW1 7763   0.913   4.611   4.633
 2463SOL    HW2 7764   0.827   4.749   4.651
 2464SOL     OW 7765   1.083   4.708   3.811
 2464SOL    HW1 7766   1.060   4.761   3.729
 2464SOL    HW2 7767   1.164   4.652   3.792
 2465SOL     OW 7768   0.079   4.964   4.377
 2465SOL    HW1 7769   0.078   4.917   4.465
 2465SOL    HW2 7770   0.161   4.936   4.326
 2466SOL     OW 7771   1.824   3.916   4.951
 2466SOL    HW1 7772   1.820   3.826   4.995
 2466SOL    HW2 7773   1.827   3.905   4.852
 2467SOL     OW 7774   0.428   4.148   4.244
 2467SOL    HW1 7775   0.458   4.076   4.182
 2467SOL    HW2 7776   0.389   4.108   4.327
 2468SOL     OW 7777   0.317   4.271   5.004
 2468SOL    HW1 7778   0.355   4.212   5.076
 2468SOL    HW2 7779   0.357   4.245   4.916
 2469SOL     OW 7780   1.424   3.938   4.836
 2469SOL    HW1 7781   1.476   3.873   4.891
 2469SOL    HW2 7782   1.375   4.001   4.897
 2470SOL     OW 7783   1.001   3.758   4.878
 2470SOL    HW1 7784   0.938   3.686   4.847
 2470SOL    HW2 7785   1.094   3.722   4.878
 2471SOL     OW 7786   0.770   5.054   4.025
 2471SOL    HW1 7787   0.724   4.967   4.042
 2471SOL    HW2 7788   0.861   5.051   4.066
 2472SOL     OW 7789   1.352   3.776   3.892
 2472SOL    HW1 7790   1.387   3.735   3.808
 2472SOL    HW2 7791   1.262   3.738   3.912
 2473SOL     OW 7792   1.300   4.177   4.415
 2473SOL    HW1 7793   1.241   4.257   4.419
 2473SOL    HW2 7794   1.315   4.142   4.508
 2474SOL     OW 7795   1.593   3.945   4.606
 2474SOL    HW1 7796   1.509   3.944   4.660
 2474SOL    HW2 7797   1.595   4.028   4.550
 2475SOL     OW 7798   0.039   4.801   4.024
 2475SOL    HW1 7799   0.138   4.790   4.015
 2475SOL    HW2 7800  -0.001   4.715   4.056
 2476SOL     OW 7801   0.230   4.352   5.699
 2476SOL    HW1 7802   0.137   4.350   5.736
 2476SOL    HW2 7803   0.231   4.313   5.607
 2477SOL     OW 7804   0.225   3.999   6.582
 2477SOL    HW1 7805   0.260   3.982   6.674
 2477SOL    HW2 7806   0.137   3.954   6.570
 2478SOL     OW 7807   0.019   4.092   6.233
 2478SOL    HW1 7808  -0.063   4.135   6.272
 2478SOL    HW2 7809  -0.009   4.019   6.170
 2479SOL     OW 7810   1.135   4.427   6.303
 2479SOL    HW1 7811   1.192   4.505   6.278
 2479SOL    HW2 7812   1.075   4.453   6.379
 2480SOL     OW 7813   1.755   4.331   5.817
 2480SOL    HW1 7814   1.743   4.318   5.718
 2480SOL    HW2 7815   1.725   4.250   5.866
 2481SOL     OW 7816   0.768   4.868   6.609
 2481SOL    HW1 7817   0.690   4.885   6.669
 2481SOL    HW2 7818   0.802   4.955   6.573
 2482SOL     OW 7819   0.850   4.522   7.409
 2482SOL    HW1 7820   0.846   4.598   7.474
 2482SOL    HW2 7821   0.872   4.558   7.318
 2483SOL     OW 7822   0.685   4.736   6.251
 2483SOL    HW1 7823   0.754   4.720   6.321
 2483SOL    HW2 7824   0.612   4.793   6.289
 2484SOL     OW 7825   0.686   4.885   7.389
 2484SOL    HW1 7826   0.746   4.964   7.403
 2484SOL    HW2 7827   0.600   4.916   7.348
 2485SOL     OW 7828   0.438   4.116   7.085
 2485SOL    HW1 7829   0.520   4.060   7.094
 2485SOL    HW2 7830   0.357   4.058   7.089
 2486SOL     OW 7831   1.603   4.171   6.323
 2486SOL    HW1 7832   1.529   4.217   6.273
 2486SOL    HW2 7833   1.654   4.239   6.376
 2487SOL     OW 7834   0.240   4.815   6.472
 2487SOL    HW1 7835   0.254   4.731   6.524
 2487SOL    HW2 7836   0.185   4.879   6.527
 2488SOL     OW 7837   0.606   4.688   5.709
 2488SOL    HW1 7838   0.613   4.772   5.655
 2488SOL    HW2 7839   0.652   4.701   5.797
 2489SOL     OW 7840   1.594   3.838   7.066
 2489SOL    HW1 7841   1.576   3.905   6.994
 2489SOL    HW2 7842   1.591   3.884   7.155
 2490SOL     OW 7843   0.122   4.367   6.149
 2490SOL    HW1 7844   0.077   4.279   6.166
 2490SOL    HW2 7845   0.121   4.421   6.233
 2491SOL     OW 7846   1.689   4.646   6.198
 2491SOL    HW1 7847   1.784   4.617   6.206
 2491SOL    HW2 7848   1.681   4.711   6.123
 2492SOL     OW 7849   1.641   4.832   6.018
 2492SOL    HW1 7850   1.727   4.834   5.966
 2492SOL    HW2 7851   1.655   4.879   6.106
 2493SOL     OW 7852   0.113   4.461   7.183
 2493SOL    HW1 7853   0.201   4.448   7.228
 2493SOL    HW2 7854   0.100   4.558   7.161
 2494SOL     OW 7855   1.293   4.952   7.009
 2494SOL    HW1 7856   1.330   4.879   6.951
 2494SOL    HW2 7857   1.345   4.957   7.094
 2495SOL     OW 7858   0.809   3.728   6.088
 2495SOL    HW1 7859   0.849   3.819   6.079
 2495SOL    HW2 7860   0.709   3.736   6.094
 2496SOL     OW 7861   0.197   4.700   6.850
 2496SOL    HW1 7862   0.286   4.655   6.836
 2496SOL    HW2 7863   0.124   4.635   6.831
 2497SOL     OW 7864   1.525   4.723   5.776
 2497SOL    HW1 7865   1.462   4.647   5.789
 2497SOL    HW2 7866   1.573   4.741   5.862
 2498SOL     OW 7867   0.317   3.975   7.387
 2498SOL    HW1 7868   0.388   4.046   7.393
 2498SOL    HW2 7869   0.229   4.014   7.415
 2499SOL     OW 7870   0.598   4.453   5.856
 2499SOL    HW1 7871   0.622   4.522   5.788
 2499SOL    HW2 7872   0.520   4.486   5.910
 2500SOL     OW 7873   1.281   4.069   6.530
 2500SOL    HW1 7874   1.195   4.019   6.517
 2500SOL    HW2 7875   1.343   4.015   6.586
 2501SOL     OW 7876   0.807   4.329   7.051
 2501SOL    HW1 7877   0.760   4.326   7.140
 2501SOL    HW2 7878   0.756   4.274   6.985
 2502SOL     OW 7879   1.394   4.193   7.260
 2502SOL    HW1 7880   1.374   4.236   7.348
 2502SOL    HW2 7881   1.472   4.131   7.269
 2503SOL     OW 7882   0.973   4.614   7.158
 2503SOL    HW1 7883   1.019   4.530   7.129
 2503SOL    HW2 7884   0.917   4.648   7.083
 2504SOL     OW 7885   0.991   4.134   6.828
 2504SOL    HW1 7886   0.914   4.168   6.882
 2504SOL    HW2 7887   0.957   4.083   6.749
 2505SOL     OW 7888   1.041   4.425   6.015
 2505SOL    HW1 7889   1.067   4.421   6.111
 2505SOL    HW2 7890   0.956   4.374   6.001
 2506SOL     OW 7891   0.076   4.535   6.375
 2506SOL    HW1 7892   0.175   4.523   6.384
 2506SOL    HW2 7893   0.052   4.630   6.396
 2507SOL     OW 7894   0.865   4.072   5.781
 2507SOL    HW1 7895   0.924   4.135   5.732
 2507SOL    HW2 7896   0.884   3.978   5.752
 2508SOL     OW 7897   1.719   4.309   7.417
 2508SOL    HW1 7898   1.693   4.398   7.381
 2508SOL    HW2 7899   1.717   4.241   7.344
 2509SOL     OW 7900   1.362   4.868   6.131
 2509SOL    HW1 7901   1.445   4.839   6.083
 2509SOL    HW2 7902   1.313   4.935   6.075
 2510SOL     OW 7903   0.550   3.920   6.471
 2510SOL    HW1 7904   0.545   3.915   6.571
 2510SOL    HW2 7905   0.552   4.016   6.442
 2511SOL     OW 7906   1.795   4.790   6.459
 2511SOL    HW1 7907   1.733   4.775   6.383
 2511SOL    HW2 7908   1.743   4.801   6.544
 2512SOL     OW 7909   0.321   4.667   5.828
 2512SOL    HW1 7910   0.403   4.706   5.786
 2512SOL    HW2 7911   0.294   4.585   5.779
 2513SOL     OW 7912   1.458   4.459   6.314
 2513SOL    HW1 7913   1.453   4.394   6.389
 2513SOL    HW2 7914   1.538   4.518   6.327
 2514SOL     OW 7915   0.202   4.009   7.084
 2514SOL    HW1 7916   0.122   4.069   7.071
 2514SOL    HW2 7917   0.192   3.960   7.170
 2515SOL     OW 7918   1.400   3.831   6.012
 2515SOL    HW1 7919   1.376   3.794   5.922
 2515SOL    HW2 7920   1.499   3.847   6.016
 2516SOL     OW 7921   0.382   4.424   6.066
 2516SOL    HW1 7922   0.427   4.334   6.063
 2516SOL    HW2 7923   0.288   4.413   6.099
 2517SOL     OW 7924   1.547   3.946   7.315
 2517SOL    HW1 7925   1.542   3.983   7.407
 2517SOL    HW2 7926   1.475   3.877   7.303
 2518SOL     OW 7927   0.614   3.846   5.703
 2518SOL    HW1 7928   0.712   3.824   5.710
 2518SOL    HW2 7929   0.583   3.829   5.610
 2519SOL     OW 7930   0.781   3.988   7.335
 2519SOL    HW1 7931   0.848   3.927   7.378
 2519SOL    HW2 7932   0.708   4.007   7.400
 2520SOL     OW 7933   1.351   4.314   7.019
 2520SOL    HW1 7934   1.379   4.271   7.104
 2520SOL    HW2 7935   1.376   4.410   7.020
 2521SOL     OW 7936   0.922   4.227   6.485
 2521SOL    HW1 7937   0.897   4.218   6.389
 2521SOL    HW2 7938   0.970   4.145   6.516
 2522SOL     OW 7939   0.539   3.788   6.098
 2522SOL    HW1 7940   0.458   3.789   6.156
 2522SOL    HW2 7941   0.542   3.871   6.043
 2523SOL     OW 7942   0.297   3.759   5.757
 2523SOL    HW1 7943   0.346   3.843   5.736
 2523SOL    HW2 7944   0.359   3.694   5.802
 2524SOL     OW 7945   0.935   3.960   6.066
 2524SOL    HW1 7946   0.887   4.001   5.988
 2524SOL    HW2 7947   1.034   3.958   6.047
 2525SOL     OW 7948   1.076   4.407   7.050
 2525SOL    HW1 7949   0.996   4.346   7.053
 2525SOL    HW2 7950   1.157   4.354   7.026
 2526SOL     OW 7951   0.459   4.876   6.327
 2526SOL    HW1 7952   0.388   4.849   6.392
 2526SOL    HW2 7953   0.433   4.848   6.234
 2527SOL     OW 7954   1.032   4.273   5.602
 2527SOL    HW1 7955   0.991   4.355   5.563
 2527SOL    HW2 7956   1.096   4.299   5.675
 2528SOL     OW 7957   0.078   4.280   6.972
 2528SOL    HW1 7958   0.170   4.279   6.931
 2528SOL    HW2 7959   0.072   4.354   7.039
 2529SOL     OW 7960   0.561   3.946   6.733
 2529SOL    HW1 7961   0.599   3.862   6.770
 2529SOL    HW2 7962   0.473   3.965   6.777
 2530SOL     OW 7963   0.866   4.178   6.228
 2530SOL    HW1 7964   0.834   4.250   6.166
 2530SOL    HW2 7965   0.890   4.097   6.175
 2531SOL     OW 7966   1.017   3.763   6.339
 2531SOL    HW1 7967   0.945   3.768   6.270
 2531SOL    HW2 7968   0.993   3.694   6.408
 2532SOL     OW 7969   1.429   4.897   6.453
 2532SOL    HW1 7970   1.374   4.813   6.446
 2532SOL    HW2 7971   1.455   4.926   6.361
 2533SOL     OW 7972   1.466   4.314   6.578
 2533SOL    HW1 7973   1.436   4.219   6.585
 2533SOL    HW2 7974   1.539   4.330   6.644
 2534SOL     OW 7975   1.857   4.557   5.963
 2534SOL    HW1 7976   1.899   4.493   6.027
 2534SOL    HW2 7977   1.819   4.506   5.885
 2535SOL     OW 7978   1.390   4.299   5.664
 2535SOL    HW1 7979   1.336   4.278   5.745
 2535SOL    HW2 7980   1.481   4.258   5.673
 2536SOL     OW 7981   0.527   3.980   5.914
 2536SOL    HW1 7982   0.554   3.921   5.839
 2536SOL    HW2 7983   0.527   4.075   5.883
 2537SOL     OW 7984   1.754   4.947   7.174
 2537SOL    HW1 7985   1.845   4.908   7.161
 2537SOL    HW2 7986   1.762   5.043   7.198
 2538SOL     OW 7987   1.638   4.823   6.665
 2538SOL    HW1 7988   1.643   4.904   6.724
 2538SOL    HW2 7989   1.552   4.825   6.614
 2539SOL     OW 7990   0.915   3.813   6.988
 2539SOL    HW1 7991   0.940   3.793   6.893
 2539SOL    HW2 7992   0.987   3.869   7.030
 2540SOL     OW 7993   0.980   4.840   7.305
 2540SOL    HW1 7994   0.881   4.846   7.315
 2540SOL    HW2 7995   1.003   4.760   7.249
 2541SOL     OW 7996   0.705   4.774   5.954
 2541SOL    HW1 7997   0.691   4.781   6.053
 2541SOL    HW2 7998   0.789   4.723   5.936
 2542SOL     OW 7999   0.410   4.537   6.837
 2542SOL    HW1 8000   0.496   4.549   6.887
 2542SOL    HW2 8001   0.368   4.450   6.864
 2543SOL     OW 8002   1.274   4.110   6.848
 2543SOL    HW1 8003   1.295   4.184   6.912
 2543SOL    HW2 8004   1.185   4.127   6.805
 2544SOL     OW 8005   0.367   4.824   6.087
 2544SOL    HW1 8006   0.360   4.907   6.031
 2544SOL    HW2 8007   0.371   4.744   6.027
 2545SOL     OW 8008   0.566   4.261   6.451
 2545SOL    HW1 8009   0.578   4.327   6.377
 2545SOL    HW2 8010   0.612   4.295   6.534
 2546SOL     OW 8011   1.582   4.363   6.058
 2546SOL    HW1 8012   1.551   4.424   6.131
 2546SOL    HW2 8013   1.632   4.415   5.989
 2547SOL     OW 8014   0.402   4.475   7.184
 2547SOL    HW1 8015   0.470   4.530   7.137
 2547SOL    HW2 8016   0.442   4.387   7.211
 2548SOL     OW 8017   1.587   4.503   7.256
 2548SOL    HW1 8018   1.495   4.541   7.251
 2548SOL    HW2 8019   1.647   4.550   7.191
 2549SOL     OW 8020   1.013   3.829   7.356
 2549SOL    HW1 8021   1.019   3.914   7.304
 2549SOL    HW2 8022   1.045   3.753   7.299
 2550SOL     OW 8023   0.504   3.774   7.326
 2550SOL    HW1 8024   0.462   3.717   7.256
 2550SOL    HW2 8025   0.438   3.843   7.358
 2551SOL     OW 8026   0.573   4.594   6.615
 2551SOL    HW1 8027   0.617   4.683   6.606
 2551SOL    HW2 8028   0.510   4.594   6.692
 2552SOL     OW 8029   1.360   4.586   6.631
 2552SOL    HW1 8030   1.285   4.586   6.565
 2552SOL    HW2 8031   1.397   4.494   6.640
 2553SOL     OW 8032   1.209   4.249   5.861
 2553SOL    HW1 8033   1.222   4.165   5.915
 2553SOL    HW2 8034   1.180   4.323   5.921
 2554SOL     OW 8035   0.307   3.937   6.817
 2554SOL    HW1 8036   0.284   3.974   6.907
 2554SOL    HW2 8037   0.277   3.842   6.811
 2555SOL     OW 8038   0.037   5.034   6.868
 2555SOL    HW1 8039   0.090   4.985   6.936
 2555SOL    HW2 8040   0.059   5.132   6.873
 2556SOL     OW 8041   0.732   4.358   6.650
 2556SOL    HW1 8042   0.791   4.332   6.574
 2556SOL    HW2 8043   0.704   4.454   6.639
 2557SOL     OW 8044   1.728   4.659   7.440
 2557SOL    HW1 8045   1.682   4.652   7.351
 2557SOL    HW2 8046   1.666   4.703   7.506
 2558SOL     OW 8047   0.307   3.787   6.204
 2558SOL    HW1 8048   0.296   3.881   6.237
 2558SOL    HW2 8049   0.302   3.724   6.281
 2559SOL     OW 8050   1.622   4.091   5.960
 2559SOL    HW1 8051   1.624   4.015   6.024
 2559SOL    HW2 8052   1.574   4.168   6.000
 2560SOL     OW 8053   1.023   4.490   6.552
 2560SOL    HW1 8054   1.038   4.511   6.648
 2560SOL    HW2 8055   0.993   4.395   6.543
 2561SOL     OW 8056   0.350   4.622   7.390
 2561SOL    HW1 8057   0.426   4.666   7.438
 2561SOL    HW2 8058   0.385   4.575   7.308
 2562SOL     OW 8059   1.540   3.998   5.711
 2562SOL    HW1 8060   1.479   3.923   5.734
 2562SOL    HW2 8061   1.562   4.050   5.794
 2563SOL     OW 8062   1.303   4.562   5.628
 2563SOL    HW1 8063   1.337   4.469   5.643
 2563SOL    HW2 8064   1.321   4.589   5.533
 2564SOL     OW 8065   0.319   4.534   6.535
 2564SOL    HW1 8066   0.412   4.570   6.540
 2564SOL    HW2 8067   0.313   4.449   6.587
 2565SOL     OW 8068   0.339   4.233   6.592
 2565SOL    HW1 8069   0.287   4.150   6.575
 2565SOL    HW2 8070   0.416   4.238   6.528
 2566SOL     OW 8071   1.138   4.104   7.264
 2566SOL    HW1 8072   1.093   4.167   7.328
 2566SOL    HW2 8073   1.231   4.135   7.247
 2567SOL     OW 8074   1.160   3.931   7.063
 2567SOL    HW1 8075   1.160   3.995   7.140
 2567SOL    HW2 8076   1.188   3.979   6.980
 2568SOL     OW 8077   0.008   5.050   5.786
 2568SOL    HW1 8078  -0.085   5.071   5.755
 2568SOL    HW2 8079   0.018   4.951   5.799
 2569SOL     OW 8080   1.002   4.520   6.824
 2569SOL    HW1 8081   1.043   4.488   6.910
 2569SOL    HW2 8082   0.906   4.493   6.821
 2570SOL     OW 8083   0.040   4.268   6.700
 2570SOL    HW1 8084   0.125   4.235   6.659
 2570SOL    HW2 8085   0.053   4.283   6.798
 2571SOL     OW 8086   0.189   4.244   7.308
 2571SOL    HW1 8087   0.248   4.204   7.238
 2571SOL    HW2 8088   0.131   4.315   7.267
 2572SOL     OW 8089   1.369   4.674   7.246
 2572SOL    HW1 8090   1.408   4.763   7.266
 2572SOL    HW2 8091   1.379   4.654   7.149
 2573SOL     OW 8092   0.815   4.296   5.911
 2573SOL    HW1 8093   0.822   4.207   5.865
 2573SOL    HW2 8094   0.721   4.330   5.903
 2574SOL     OW 8095   1.657   4.328   6.792
 2574SOL    HW1 8096   1.619   4.259   6.854
 2574SOL    HW2 8097   1.739   4.292   6.748
 2575SOL     OW 8098   0.671   4.188   6.855
 2575SOL    HW1 8099   0.637   4.099   6.825
 2575SOL    HW2 8100   0.697   4.242   6.775
 2576SOL     OW 8101   0.473   4.224   5.777
 2576SOL    HW1 8102   0.534   4.304   5.781
 2576SOL    HW2 8103   0.378   4.255   5.784
 2577SOL     OW 8104   0.159   4.861   7.052
 2577SOL    HW1 8105   0.181   4.800   7.128
 2577SOL    HW2 8106   0.169   4.812   6.966
 2578SOL     OW 8107   1.347   4.783   6.820
 2578SOL    HW1 8108   1.371   4.720   6.746
 2578SOL    HW2 8109   1.257   4.823   6.802
 2579SOL     OW 8110   1.302   4.579   5.895
 2579SOL    HW1 8111   1.216   4.548   5.937
 2579SOL    HW2 8112   1.298   4.565   5.796
 2580SOL     OW 8113   0.083   4.982   6.608
 2580SOL    HW1 8114   0.078   4.981   6.708
 2580SOL    HW2 8115   0.000   4.941   6.570
 2581SOL     OW 8116   1.726   3.859   6.109
 2581SOL    HW1 8117   1.799   3.842   6.042
 2581SOL    HW2 8118   1.695   3.772   6.147
 2582SOL     OW 8119   1.280   4.651   6.258
 2582SOL    HW1 8120   1.340   4.570   6.260
 2582SOL    HW2 8121   1.320   4.720   6.198
 2583SOL     OW 8122   1.841   3.899   6.549
 2583SOL    HW1 8123   1.880   3.814   6.513
 2583SOL    HW2 8124   1.743   3.901   6.530
 2584SOL     OW 8125   0.263   4.050   6.306
 2584SOL    HW1 8126   0.184   4.101   6.272
 2584SOL    HW2 8127   0.254   4.035   6.404
 2585SOL     OW 8128   0.822   4.726   6.958
 2585SOL    HW1 8129   0.862   4.725   6.866
 2585SOL    HW2 8130   0.832   4.818   6.998
 2586SOL     OW 8131   0.916   4.634   5.877
 2586SOL    HW1 8132   0.979   4.672   5.809
 2586SOL    HW2 8133   0.956   4.551   5.916
 2587SOL     OW 8134   0.372   5.012   7.076
 2587SOL    HW1 8135   0.359   5.105   7.042
 2587SOL    HW2 8136   0.288   4.960   7.063
 2588SOL     OW 8137   1.614   5.016   6.875
 2588SOL    HW1 8138   1.674   5.019   6.955
 2588SOL    HW2 8139   1.539   5.080   6.888
 2589SOL     OW 8140   1.039   4.822   6.282
 2589SOL    HW1 8141   0.969   4.775   6.336
 2589SOL    HW2 8142   1.098   4.754   6.239
 2590SOL     OW 8143   1.014   3.960   6.557
 2590SOL    HW1 8144   1.006   3.924   6.464
 2590SOL    HW2 8145   1.012   3.884   6.622
 2591SOL     OW 8146   1.709   4.109   6.967
 2591SOL    HW1 8147   1.782   4.178   6.971
 2591SOL    HW2 8148   1.737   4.034   6.908
 2592SOL     OW 8149   0.105   4.737   7.312
 2592SOL    HW1 8150   0.028   4.704   7.366
 2592SOL    HW2 8151   0.190   4.707   7.354
 2593SOL     OW 8152   0.672   3.927   7.075
 2593SOL    HW1 8153   0.762   3.911   7.035
 2593SOL    HW2 8154   0.680   3.932   7.174
 2594SOL     OW 8155   0.075   4.069   5.619
 2594SOL    HW1 8156  -0.017   4.041   5.590
 2594SOL    HW2 8157   0.106   4.146   5.563
 2595SOL     OW 8158   1.440   4.580   6.984
 2595SOL    HW1 8159   1.383   4.632   6.921
 2595SOL    HW2 8160   1.536   4.592   6.960
 2596SOL     OW 8161   0.072   3.890   5.904
 2596SOL    HW1 8162   0.055   3.973   5.850
 2596SOL    HW2 8163   0.162   3.853   5.882
 2597SOL     OW 8164   0.613   4.566   7.017
 2597SOL    HW1 8165   0.669   4.647   7.000
 2597SOL    HW2 8166   0.672   4.486   7.020
 2598SOL     OW 8167   0.716   4.289   7.294
 2598SOL    HW1 8168   0.735   4.354   7.368
 2598SOL    HW2 8169   0.776   4.209   7.303
 2599SOL     OW 8170   1.450   4.944   7.219
 2599SOL    HW1 8171   1.441   4.934   7.318
 2599SOL    HW2 8172   1.546   4.937   7.193
 2600SOL     OW 8173   1.674   4.607   6.840
 2600SOL    HW1 8174   1.647   4.518   6.803
 2600SOL    HW2 8175   1.675   4.675   6.767
 2601SOL     OW 8176   1.225   4.049   6.035
 2601SOL    HW1 8177   1.290   3.975   6.024
 2601SOL    HW2 8178   1.245   4.099   6.119
 2602SOL     OW 8179   0.594   4.469   6.238
 2602SOL    HW1 8180   0.644   4.554   6.219
 2602SOL    HW2 8181   0.506   4.471   6.190
 2603SOL     OW 8182   1.777   4.066   7.228
 2603SOL    HW1 8183   1.760   4.097   7.134
 2603SOL    HW2 8184   1.693   4.029   7.266
 2604SOL     OW 8185   1.730   4.658   7.103
 2604SOL    HW1 8186   1.768   4.749   7.118
 2604SOL    HW2 8187   1.722   4.641   7.004
 2605SOL     OW 8188   0.859   4.680   6.447
 2605SOL    HW1 8189   0.913   4.611   6.495
 2605SOL    HW2 8190   0.827   4.749   6.513
 2606SOL     OW 8191   1.083   4.708   5.673
 2606SOL    HW1 8192   1.060   4.761   5.591
 2606SOL    HW2 8193   1.164   4.652   5.654
 2607SOL     OW 8194   0.079   4.964   6.239
 2607SOL    HW1 8195   0.078   4.917   6.327
 2607SOL    HW2 8196   0.161   4.936   6.188
 2608SOL     OW 8197   1.824   3.916   6.813
 2608SOL    HW1 8198   1.820   3.826   6.857
 2608SOL    HW2 8199   1.827   3.905   6.714
 2609SOL     OW 8200   0.428   4.148   6.106
 2609SOL    HW1 8201   0.458   4.076   6.044
 2609SOL    HW2 8202   0.389   4.108   6.189
 2610SOL     OW 8203   0.317   4.271   6.866
 2610SOL    HW1 8204   0.355   4.212   6.938
 2610SOL    HW2 8205   0.357   4.245   6.778
 2611SOL     OW 8206   1.424   3.938   6.698
 2611SOL    HW1 8207   1.476   3.873   6.753
 2611SOL    HW2 8208   1.375   4.001   6.759
 2612SOL     OW 8209   1.001   3.758   6.740
 2612SOL    HW1 8210   0.938   3.686   6.709
 2612SOL    HW2 8211   1.094   3.722   6.740
 2613SOL     OW 8212   0.770   5.054   5.887
 2613SOL    HW1 8213   0.724   4.967   5.904
 2613SOL    HW2 8214   0.861   5.051   5.928
 2614SOL     OW 8215   1.352   3.776   5.754
 2614SOL    HW1 8216   1.387   3.735   5.670
 2614SOL    HW2 8217   1.262   3.738   5.774
 2615SOL     OW 8218   1.300   4.177   6.277
 2615SOL    HW1 8219   1.241   4.257   6.281
 2615SOL    HW2 8220   1.315   4.142   6.370
 2616SOL     OW 8221   1.593   3.945   6.468
 2616SOL    HW1 8222   1.509   3.944   6.522
 2616SOL    HW2 8223   1.595   4.028   6.412
 2617SOL     OW 8224   0.039   4.801   5.886
 2617SOL    HW1 8225   0.138   4.790   5.877
 2617SOL    HW2 8226  -0.001   4.715   5.918
 2618SOL     OW 8227   0.230   4.352   7.561
 2618SOL    HW1 8228   0.137   4.350   7.598
 2618SOL    HW2 8229   0.231   4.313   7.469
 2619SOL     OW 8230   0.225   3.999   8.444
 2619SOL    HW1 8231   0.260   3.982   8.536
 2619SOL    HW2 8232   0.137   3.954   8.432
 2620SOL     OW 8233   0.019   4.092   8.095
 2620SOL    HW1 8234  -0.063   4.135   8.134
 2620SOL    HW2 8235  -0.009   4.019   8.032
 2621SOL     OW 8236   1.135   4.427   8.165
 2621SOL    HW1 8237   1.192   4.505   8.140
 2621SOL    HW2 8238   1.075   4.453   8.241
 2622SOL     OW 8239   1.755   4.331   7.679
 2622SOL    HW1 8240   1.743   4.318   7.580
 2622SOL    HW2 8241   1.725   4.250   7.728
 2623SOL     OW 8242   0.768   4.868   8.471
 2623SOL    HW1 8243   0.690   4.885   8.531
 2623SOL    HW2 8244   0.802   4.955   8.435
 2624SOL     OW 8245   0.685   4.736   8.113
 2624SOL    HW1 8246   0.754   4.720   8.183
 2624SOL    HW2 8247   0.612   4.793   8.151
 2625SOL     OW 8248   0.438   4.116   8.947
 2625SOL    HW1 8249   0.520   4.060   8.956
 2625SOL    HW2 8250   0.357   4.058   8.951
 2626SOL     OW 8251   1.603   4.171   8.185
 2626SOL    HW1 8252   1.529   4.217   8.135
 2626SOL    HW2 8253   1.654   4.239   8.238
 2627SOL     OW 8254   0.240   4.815   8.334
 2627SOL    HW1 8255   0.254   4.731   8.386
 2627SOL    HW2 8256   0.185   4.879   8.389
 2628SOL     OW 8257   0.606   4.688   7.571
 2628SOL    HW1 8258   0.613   4.772   7.517
 2628SOL    HW2 8259   0.652   4.701   7.659
 2629SOL     OW 8260   1.594   3.838   8.928
 2629SOL    HW1 8261   1.576   3.905   8.856
 2629SOL    HW2 8262   1.591   3.884   9.017
 2630SOL     OW 8263   0.122   4.367   8.011
 2630SOL    HW1 8264   0.077   4.279   8.028
 2630SOL    HW2 8265   0.121   4.421   8.095
 2631SOL     OW 8266   1.689   4.646   8.060
 2631SOL    HW1 8267   1.784   4.617   8.068
 2631SOL    HW2 8268   1.681   4.711   7.985
 2632SOL     OW 8269   1.641   4.832   7.880
 2632SOL    HW1 8270   1.727   4.834   7.828
 2632SOL    HW2 8271   1.655   4.879   7.968
 2633SOL     OW 8272   1.293   4.952   8.871
 2633SOL    HW1 8273   1.330   4.879   8.813
 2633SOL    HW2 8274   1.345   4.957   8.956
 2634SOL     OW 8275   0.809   3.728   7.950
 2634SOL    HW1 8276   0.849   3.819   7.941
 2634SOL    HW2 8277   0.709   3.736   7.956
 2635SOL     OW 8278   0.197   4.700   8.712
 2635SOL    HW1 8279   0.286   4.655   8.698
 2635SOL    HW2 8280   0.124   4.635   8.693
 2636SOL     OW 8281   1.525   4.723   7.638
 2636SOL    HW1 8282   1.462   4.647   7.651
 2636SOL    HW2 8283   1.573   4.741   7.724
 2637SOL     OW 8284   0.317   3.975   9.249
 2637SOL    HW1 8285   0.388   4.046   9.255
 2637SOL    HW2 8286   0.229   4.014   9.277
 2638SOL     OW 8287   0.598   4.453   7.718
 2638SOL    HW1 8288   0.622   4.522   7.650
 2638SOL    HW2 8289   0.520   4.486   7.772
 2639SOL     OW 8290   1.281   4.069   8.392
 2639SOL    HW1 8291   1.195   4.019   8.379
 2639SOL    HW2 8292   1.343   4.015   8.448
 2640SOL     OW 8293   0.807   4.329   8.913
 2640SOL    HW1 8294   0.760   4.326   9.002
 2640SOL    HW2 8295   0.756   4.274   8.847
 2641SOL     OW 8296   0.991   4.134   8.690
 2641SOL    HW1 8297   0.914   4.168   8.744
 2641SOL    HW2 8298   0.957   4.083   8.611
 2642SOL     OW 8299   1.041   4.425   7.877
 2642SOL    HW1 8300   1.067   4.421   7.973
 2642SOL    HW2 8301   0.956   4.374   7.863
 2643SOL     OW 8302   0.076   4.535   8.237
 2643SOL    HW1 8303   0.175   4.523   8.246
 2643SOL    HW2 8304   0.052   4.630   8.258
 2644SOL     OW 8305   0.865   4.072   7.643
 2644SOL    HW1 8306   0.924   4.135   7.594
 2644SOL    HW2 8307   0.884   3.978   7.614
 2645SOL     OW 8308   1.362   4.868   7.993
 2645SOL    HW1 8309   1.445   4.839   7.945
 2645SOL    HW2 8310   1.313   4.935   7.937
 2646SOL     OW 8311   0.550   3.920   8.333
 2646SOL    HW1 8312   0.545   3.915   8.433
 2646SOL    HW2 8313   0.552   4.016   8.304
 2647SOL     OW 8314   1.795   4.790   8.321
 2647SOL    HW1 8315   1.733   4.775   8.245
 2647SOL    HW2 8316   1.743   4.801   8.406
 2648SOL     OW 8317   0.321   4.667   7.690
 2648SOL    HW1 8318   0.403   4.706   7.648
 2648SOL    HW2 8319   0.294   4.585   7.641
 2649SOL     OW 8320   1.458   4.459   8.176
 2649SOL    HW1 8321   1.453   4.394   8.251
 2649SOL    HW2 8322   1.538   4.518   8.189
 2650SOL     OW 8323   1.400   3.831   7.874
 2650SOL    HW1 8324   1.376   3.794   7.784
 2650SOL    HW2 8325   1.499   3.847   7.878
 2651SOL     OW 8326   0.382   4.424   7.928
 2651SOL    HW1 8327   0.427   4.334   7.925
 2651SOL    HW2 8328   0.288   4.413   7.961
 2652SOL     OW 8329   0.614   3.846   7.565
 2652SOL    HW1 8330   0.712   3.824   7.572
 2652SOL    HW2 8331   0.583   3.829   7.472
 2653SOL     OW 8332   0.922   4.227   8.347
 2653SOL    HW1 8333   0.897   4.218   8.251
 2653SOL    HW2 8334   0.970   4.145   8.378
 2654SOL     OW 8335   0.539   3.788   7.960
 2654SOL    HW1 8336   0.458   3.789   8.018
 2654SOL    HW2 8337   0.542   3.871   7.905
 2655SOL     OW 8338   0.297   3.759   7.619
 2655SOL    HW1 8339   0.346   3.843   7.598
 2655SOL    HW2 8340   0.359   3.694   7.664
 2656SOL     OW 8341   0.935   3.960   7.928
 2656SOL    HW1 8342   0.887   4.001   7.850
 2656SOL    HW2 8343   1.034   3.958   7.909
 2657SOL     OW 8344   0.459   4.876   8.189
 2657SOL    HW1 8345   0.388   4.849   8.254
 2657SOL    HW2 8346   0.433   4.848   8.096
 2658SOL     OW 8347   1.032   4.273   7.464
 2658SOL    HW1 8348   0.991   4.355   7.425
 2658SOL    HW2 8349   1.096   4.299   7.537
 2659SOL     OW 8350   0.078   4.280   8.834
 2659SOL    HW1 8351   0.170   4.279   8.793
 2659SOL    HW2 8352   0.072   4.354   8.901
 2660SOL     OW 8353   0.561   3.946   8.595
 2660SOL    HW1 8354   0.599   3.862   8.632
 2660SOL    HW2 8355   0.473   3.965   8.639
 2661SOL     OW 8356   0.866   4.178   8.090
 2661SOL    HW1 8357   0.834   4.250   8.028
 2661SOL    HW2 8358   0.890   4.097   8.037
 2662SOL     OW 8359   1.017   3.763   8.201
 2662SOL    HW1 8360   0.945   3.768   8.132
 2662SOL    HW2 8361   0.993   3.694   8.270
 2663SOL     OW 8362   1.429   4.897   8.315
 2663SOL    HW1 8363   1.374   4.813   8.308
 2663SOL    HW2 8364   1.455   4.926   8.223
 2664SOL     OW 8365   1.466   4.314   8.440
 2664SOL    HW1 8366   1.436   4.219   8.447
 2664SOL    HW2 8367   1.539   4.330   8.506
 2665SOL     OW 8368   1.857   4.557   7.825
 2665SOL    HW1 8369   1.899   4.493   7.889
 2665SOL    HW2 8370   1.819   4.506   7.747
 2666SOL     OW 8371   1.390   4.299   7.526
 2666SOL    HW1 8372   1.336   4.278   7.607
 2666SOL    HW2 8373   1.481   4.258   7.535
 2667SOL     OW 8374   0.527   3.980   7.776
 2667SOL    HW1 8375   0.554   3.921   7.701
 2667SOL    HW2 8376   0.527   4.075   7.745
 2668SOL     OW 8377   1.638   4.823   8.527
 2668SOL    HW1 8378   1.643   4.904   8.586
 2668SOL    HW2 8379   1.552   4.825   8.476
 2669SOL     OW 8380   0.915   3.813   8.850
 2669SOL    HW1 8381   0.940   3.793   8.755
 2669SOL    HW2 8382   0.987   3.869   8.892
 2670SOL     OW 8383   0.705   4.774   7.816
 2670SOL    HW1 8384   0.691   4.781   7.915
 2670SOL    HW2 8385   0.789   4.723   7.798
 2671SOL     OW 8386   0.410   4.537   8.699
 2671SOL    HW1 8387   0.496   4.549   8.749
 2671SOL    HW2 8388   0.368   4.450   8.726
 2672SOL     OW 8389   1.274   4.110   8.710
 2672SOL    HW1 8390   1.295   4.184   8.774
 2672SOL    HW2 8391   1.185   4.127   8.667
 2673SOL     OW 8392   0.367   4.824   7.949
 2673SOL    HW1 8393   0.360   4.907   7.893
 2673SOL    HW2 8394   0.371   4.744   7.889
 2674SOL     OW 8395   0.566   4.261   8.313
 2674SOL    HW1 8396   0.578   4.327   8.239
 2674SOL    HW2 8397   0.612   4.295   8.396
 2675SOL     OW 8398   1.582   4.363   7.920
 2675SOL    HW1 8399   1.551   4.424   7.993
 2675SOL    HW2 8400   1.632   4.415   7.851
 2676SOL     OW 8401   0.402   4.475   9.046
 2676SOL    HW1 8402   0.470   4.530   8.999
 2676SOL    HW2 8403   0.442   4.387   9.073
 2677SOL     OW 8404   1.587   4.503   9.118
 2677SOL    HW1 8405   1.495   4.541   9.113
 2677SOL    HW2 8406   1.647   4.550   9.053
 2678SOL     OW 8407   0.573   4.594   8.477
 2678SOL    HW1 8408   0.617   4.683   8.468
 2678SOL    HW2 8409   0.510   4.594   8.554
 2679SOL     OW 8410   1.360   4.586   8.493
 2679SOL    HW1 8411   1.285   4.586   8.427
 2679SOL    HW2 8412   1.397   4.494   8.502
 2680SOL     OW 8413   1.209   4.249   7.723
 2680SOL    HW1 8414   1.222   4.165   7.777
 2680SOL    HW2 8415   1.180   4.323   7.783
 2681SOL     OW 8416   0.307   3.937   8.679
 2681SOL    HW1 8417   0.284   3.974   8.769
 2681SOL    HW2 8418   0.277   3.842   8.673
 2682SOL     OW 8419   0.037   5.034   8.730
 2682SOL    HW1 8420   0.090   4.985   8.798
 2682SOL    HW2 8421   0.059   5.132   8.735
 2683SOL     OW 8422   0.732   4.358   8.512
 2683SOL    HW1 8423   0.791   4.332   8.436
 2683SOL    HW2 8424   0.704   4.454   8.501
 2684SOL     OW 8425   0.307   3.787   8.066
 2684SOL    HW1 8426   0.296   3.881   8.099
 2684SOL    HW2 8427   0.302   3.724   8.143
 2685SOL     OW 8428   1.622   4.091   7.822
 2685SOL    HW1 8429   1.624   4.015   7.886
 2685SOL    HW2 8430   1.574   4.168   7.862
 2686SOL     OW 8431   1.023   4.490   8.414
 2686SOL    HW1 8432   1.038   4.511   8.510
 2686SOL    HW2 8433   0.993   4.395   8.405
 2687SOL     OW 8434   1.540   3.998   7.573
 2687SOL    HW1 8435   1.479   3.923   7.596
 2687SOL    HW2 8436   1.562   4.050   7.656
 2688SOL     OW 8437   1.303   4.562   7.490
 2688SOL    HW1 8438   1.337   4.469   7.505
 2688SOL    HW2 8439   1.321   4.589   7.395
 2689SOL     OW 8440   0.319   4.534   8.397
 2689SOL    HW1 8441   0.412   4.570   8.402
 2689SOL    HW2 8442   0.313   4.449   8.449
 2690SOL     OW 8443   0.339   4.233   8.454
 2690SOL    HW1 8444   0.287   4.150   8.437
 2690SOL    HW2 8445   0.416   4.238   8.390
 2691SOL     OW 8446   1.138   4.104   9.126
 2691SOL    HW1 8447   1.093   4.167   9.190
 2691SOL    HW2 8448   1.231   4.135   9.109
 2692SOL     OW 8449   1.160   3.931   8.925
 2692SOL    HW1 8450   1.160   3.995   9.002
 2692SOL    HW2 8451   1.188   3.979   8.842
 2693SOL     OW 8452   0.008   5.050   7.648
 2693SOL    HW1 8453  -0.085   5.071   7.617
 2693SOL    HW2 8454   0.018   4.951   7.661
 2694SOL     OW 8455   1.002   4.520   8.686
 2694SOL    HW1 8456   1.043   4.488   8.772
 2694SOL    HW2 8457   0.906   4.493   8.683
 2695SOL     OW 8458   0.040   4.268   8.562
 2695SOL    HW1 8459   0.125   4.235   8.521
 2695SOL    HW2 8460   0.053   4.283   8.660
 2696SOL     OW 8461   0.815   4.296   7.773
 2696SOL    HW1 8462   0.822   4.207   7.727
 2696SOL    HW2 8463   0.721   4.330   7.765
 2697SOL     OW 8464   1.657   4.328   8.654
 2697SOL    HW1 8465   1.619   4.259   8.716
 2697SOL    HW2 8466   1.739   4.292   8.610
 2698SOL     OW 8467   0.671   4.188   8.717
 2698SOL    HW1 8468   0.637   4.099   8.687
 2698SOL    HW2 8469   0.697   4.242   8.637
 2699SOL     OW 8470   0.473   4.224   7.639
 2699SOL    HW1 8471   0.534   4.304   7.643
 2699SOL    HW2 8472   0.378   4.255   7.646
 2700SOL     OW 8473   0.159   4.861   8.914
 2700SOL    HW1 8474   0.181   4.800   8.990
 2700SOL    HW2 8475   0.169   4.812   8.828
 2701SOL     OW 8476   1.347   4.783   8.682
 2701SOL    HW1 8477   1.371   4.720   8.608
 2701SOL    HW2 8478   1.257   4.823   8.664
 2702SOL     OW 8479   1.302   4.579   7.757
 2702SOL    HW1 8480   1.216   4.548   7.799
 2702SOL    HW2 8481   1.298   4.565   7.658
 2703SOL     OW 8482   0.083   4.982   8.470
 2703SOL    HW1 8483   0.078   4.981   8.570
 2703SOL    HW2 8484   0.000   4.941   8.432
 2704SOL     OW 8485   1.726   3.859   7.971
 2704SOL    HW1 8486   1.799   3.842   7.904
 2704SOL    HW2 8487   1.695   3.772   8.009
 2705SOL     OW 8488   1.280   4.651   8.120
 2705SOL    HW1 8489   1.340   4.570   8.122
 2705SOL    HW2 8490   1.320   4.720   8.060
 2706SOL     OW 8491   1.841   3.899   8.411
 2706SOL    HW1 8492   1.880   3.814   8.375
 2706SOL    HW2 8493   1.743   3.901   8.392
 2707SOL     OW 8494   0.263   4.050   8.168
 2707SOL    HW1 8495   0.184   4.101   8.134
 2707SOL    HW2 8496   0.254   4.035   8.266
 2708SOL     OW 8497   0.822   4.726   8.820
 2708SOL    HW1 8498   0.862   4.725   8.728
 2708SOL    HW2 8499   0.832   4.818   8.860
 2709SOL     OW 8500   0.916   4.634   7.739
 2709SOL    HW1 8501   0.979   4.672   7.671
 2709SOL    HW2 8502   0.956   4.551   7.778
 2710SOL     OW 8503   0.372   5.012   8.938
 2710SOL    HW1 8504   0.359   5.105   8.904
 2710SOL    HW2 8505   0.288   4.960   8.925
 2711SOL     OW 8506   1.614   5.016   8.737
 2711SOL    HW1 8507   1.674   5.019   8.817
 2711SOL    HW2 8508   1.539   5.080   8.750
 2712SOL     OW 8509   1.039   4.822   8.144
 2712SOL    HW1 8510   0.969   4.775   8.198
 2712SOL    HW2 8511   1.098   4.754   8.101
 2713SOL     OW 8512   1.014   3.960   8.419
 2713SOL    HW1 8513   1.006   3.924   8.326
 2713SOL    HW2 8514   1.012   3.884   8.484
 2714SOL     OW 8515   1.709   4.109   8.829
 2714SOL    HW1 8516   1.782   4.178   8.833
 2714SOL    HW2 8517   1.737   4.034   8.770
 2715SOL     OW 8518   0.075   4.069   7.481
 2715SOL    HW1 8519  -0.017   4.041   7.452
 2715SOL    HW2 8520   0.106   4.146   7.425
 2716SOL     OW 8521   1.440   4.580   8.846
 2716SOL    HW1 8522   1.383   4.632   8.783
 2716SOL    HW2 8523   1.536   4.592   8.822
 2717SOL     OW 8524   0.072   3.890   7.766
 2717SOL    HW1 8525   0.055   3.973   7.712
 2717SOL    HW2 8526   0.162   3.853   7.744
 2718SOL     OW 8527   0.613   4.566   8.879
 2718SOL    HW1 8528   0.669   4.647   8.862
 2718SOL    HW2 8529   0.672   4.486   8.882
 2719SOL     OW 8530   1.674   4.607   8.702
 2719SOL    HW1 8531   1.647   4.518   8.665
 2719SOL    HW2 8532   1.675   4.675   8.629
 2720SOL     OW 8533   1.225   4.049   7.897
 2720SOL    HW1 8534   1.290   3.975   7.886
 2720SOL    HW2 8535   1.245   4.099   7.981
 2721SOL     OW 8536   0.594   4.469   8.100
 2721SOL    HW1 8537   0.644   4.554   8.081
 2721SOL    HW2 8538   0.506   4.471   8.052
 2722SOL     OW 8539   1.777   4.066   9.090
 2722SOL    HW1 8540   1.760   4.097   8.996
 2722SOL    HW2 8541   1.693   4.029   9.128
 2723SOL     OW 8542   1.730   4.658   8.965
 2723SOL    HW1 8543   1.768   4.749   8.980
 2723SOL    HW2 8544   1.722   4.641   8.866
 2724SOL     OW 8545   0.859   4.680   8.309
 2724SOL    HW1 8546   0.913   4.611   8.357
 2724SOL    HW2 8547   0.827   4.749   8.375
 2725SOL     OW 8548   1.083   4.708   7.535
 2725SOL    HW1 8549   1.060   4.761   7.453
 2725SOL    HW2 8550   1.164   4.652   7.516
 2726SOL     OW 8551   0.079   4.964   8.101
 2726SOL    HW1 8552   0.078   4.917   8.189
 2726SOL    HW2 8553   0.161   4.936   8.050
 2727SOL     OW 8554   1.824   3.916   8.675
 2727SOL    HW1 8555   1.820   3.826   8.719
 2727SOL    HW2 8556   1.827   3.905   8.576
 2728SOL     OW 8557   0.428   4.148   7.968
 2728SOL    HW1 8558   0.458   4.076   7.906
 2728SOL    HW2 8559   0.389   4.108   8.051
 2729SOL     OW 8560   0.317   4.271   8.728
 2729SOL    HW1 8561   0.355   4.212   8.800
 2729SOL    HW2 8562   0.357   4.245   8.640
 2730SOL     OW 8563   1.424   3.938   8.560
 2730SOL    HW1 8564   1.476   3.873   8.615
 2730SOL    HW2 8565   1.375   4.001   8.621
 2731SOL     OW 8566   1.001   3.758   8.602
 2731SOL    HW1 8567   0.938   3.686   8.571
 2731SOL    HW2 8568   1.094   3.722   8.602
 2732SOL     OW 8569   0.770   5.054   7.749
 2732SOL    HW1 8570   0.724   4.967   7.766
 2732SOL    HW2 8571   0.861   5.051   7.790
 2733SOL     OW 8572   1.352   3.776   7.616
 2733SOL    HW1 8573   1.387   3.735   7.532
 2733SOL    HW2 8574   1.262   3.738   7.636
 2734SOL     OW 8575   1.300   4.177   8.139
 2734SOL    HW1 8576   1.241   4.257   8.143
 2734SOL    HW2 8577   1.315   4.142   8.232
 2735SOL     OW 8578   1.593   3.945   8.330
 2735SOL    HW1 8579   1.509   3.944   8.384
 2735SOL    HW2 8580   1.595   4.028   8.274
 2736SOL     OW 8581   0.039   4.801   7.748
 2736SOL    HW1 8582   0.138   4.790   7.739
 2736SOL    HW2 8583  -0.001   4.715   7.780
 2737SOL     OW 8584   2.092   0.628   0.113
 2737SOL    HW1 8585   1.999   0.626   0.150
 2737SOL    HW2 8586   2.093   0.589   0.021
 2738SOL     OW 8587   2.087   0.275   0.996
 2738SOL    HW1 8588   2.122   0.258   1.088
 2738SOL    HW2 8589   1.999   0.230   0.984
 2739SOL     OW 8590   1.881   0.368   0.647
 2739SOL    HW1 8591   1.799   0.411   0.686
 2739SOL    HW2 8592   1.853   0.295   0.584
 2740SOL     OW 8593   2.431   1.275   1.165
 2740SOL    HW1 8594   2.338   1.268   1.128
 2740SOL    HW2 8595   2.442   1.364   1.209
 2741SOL     OW 8596   3.417   1.511   0.703
 2741SOL    HW1 8597   3.360   1.495   0.784
 2741SOL    HW2 8598   3.358   1.521   0.623
 2742SOL     OW 8599   2.997   0.703   0.717
 2742SOL    HW1 8600   3.054   0.781   0.692
 2742SOL    HW2 8601   2.937   0.729   0.793
 2743SOL     OW 8602   3.617   0.607   0.231
 2743SOL    HW1 8603   3.605   0.594   0.132
 2743SOL    HW2 8604   3.587   0.526   0.280
 2744SOL     OW 8605   2.630   1.144   1.023
 2744SOL    HW1 8606   2.552   1.161   1.083
 2744SOL    HW2 8607   2.664   1.231   0.987
 2745SOL     OW 8608   2.712   0.798   1.823
 2745SOL    HW1 8609   2.708   0.874   1.888
 2745SOL    HW2 8610   2.734   0.834   1.732
 2746SOL     OW 8611   2.547   1.012   0.665
 2746SOL    HW1 8612   2.616   0.996   0.735
 2746SOL    HW2 8613   2.474   1.069   0.703
 2747SOL     OW 8614   2.548   1.161   1.803
 2747SOL    HW1 8615   2.608   1.240   1.817
 2747SOL    HW2 8616   2.462   1.192   1.762
 2748SOL     OW 8617   2.197   1.435   1.061
 2748SOL    HW1 8618   2.119   1.404   1.008
 2748SOL    HW2 8619   2.255   1.493   1.004
 2749SOL     OW 8620   3.322   1.505   1.339
 2749SOL    HW1 8621   3.346   1.599   1.365
 2749SOL    HW2 8622   3.306   1.451   1.421
 2750SOL     OW 8623   2.300   0.392   1.499
 2750SOL    HW1 8624   2.382   0.336   1.508
 2750SOL    HW2 8625   2.219   0.334   1.503
 2751SOL     OW 8626   3.465   0.447   0.737
 2751SOL    HW1 8627   3.391   0.493   0.687
 2751SOL    HW2 8628   3.516   0.515   0.790
 2752SOL     OW 8629   2.093   1.713   0.483
 2752SOL    HW1 8630   2.127   1.790   0.537
 2752SOL    HW2 8631   2.137   1.713   0.393
 2753SOL     OW 8632   2.989   1.341   1.690
 2753SOL    HW1 8633   3.036   1.341   1.778
 2753SOL    HW2 8634   2.941   1.254   1.679
 2754SOL     OW 8635   2.092   1.434   0.538
 2754SOL    HW1 8636   2.066   1.530   0.538
 2754SOL    HW2 8637   2.021   1.380   0.583
 2755SOL     OW 8638   2.102   1.091   0.886
 2755SOL    HW1 8639   2.116   1.007   0.938
 2755SOL    HW2 8640   2.047   1.155   0.941
 2756SOL     OW 8641   2.482   1.786   1.439
 2756SOL    HW1 8642   2.390   1.769   1.474
 2756SOL    HW2 8643   2.510   1.878   1.465
 2757SOL     OW 8644   2.468   0.964   0.123
 2757SOL    HW1 8645   2.475   1.048   0.069
 2757SOL    HW2 8646   2.514   0.977   0.211
 2758SOL     OW 8647   3.456   0.114   1.480
 2758SOL    HW1 8648   3.438   0.181   1.408
 2758SOL    HW2 8649   3.453   0.160   1.569
 2759SOL     OW 8650   1.984   0.643   0.563
 2759SOL    HW1 8651   1.939   0.555   0.580
 2759SOL    HW2 8652   1.983   0.697   0.647
 2760SOL     OW 8653   3.704   1.767   0.359
 2760SOL    HW1 8654   3.758   1.738   0.439
 2760SOL    HW2 8655   3.734   1.857   0.330
 2761SOL     OW 8656   1.889   1.596   0.117
 2761SOL    HW1 8657   1.870   1.500   0.138
 2761SOL    HW2 8658   1.856   1.654   0.192
 2762SOL     OW 8659   3.551   0.922   0.612
 2762SOL    HW1 8660   3.646   0.893   0.620
 2762SOL    HW2 8661   3.543   0.987   0.537
 2763SOL     OW 8662   3.503   1.108   0.432
 2763SOL    HW1 8663   3.589   1.110   0.380
 2763SOL    HW2 8664   3.517   1.155   0.520
 2764SOL     OW 8665   1.975   0.737   1.597
 2764SOL    HW1 8666   2.063   0.724   1.642
 2764SOL    HW2 8667   1.962   0.834   1.575
 2765SOL     OW 8668   2.475   1.365   0.726
 2765SOL    HW1 8669   2.426   1.278   0.735
 2765SOL    HW2 8670   2.452   1.408   0.639
 2766SOL     OW 8671   3.155   1.228   1.423
 2766SOL    HW1 8672   3.192   1.155   1.365
 2766SOL    HW2 8673   3.207   1.233   1.508
 2767SOL     OW 8674   2.671   0.004   0.502
 2767SOL    HW1 8675   2.711   0.095   0.493
 2767SOL    HW2 8676   2.571   0.012   0.508
 2768SOL     OW 8677   2.059   0.976   1.264
 2768SOL    HW1 8678   2.148   0.931   1.250
 2768SOL    HW2 8679   1.986   0.911   1.245
 2769SOL     OW 8680   3.387   0.999   0.190
 2769SOL    HW1 8681   3.324   0.923   0.203
 2769SOL    HW2 8682   3.435   1.017   0.276
 2770SOL     OW 8683   3.049   1.792   1.616
 2770SOL    HW1 8684   3.073   1.852   1.540
 2770SOL    HW2 8685   3.056   1.697   1.586
 2771SOL     OW 8686   2.179   0.251   1.801
 2771SOL    HW1 8687   2.250   0.322   1.807
 2771SOL    HW2 8688   2.091   0.290   1.829
 2772SOL     OW 8689   3.328   1.417   0.953
 2772SOL    HW1 8690   3.269   1.423   1.033
 2772SOL    HW2 8691   3.313   1.329   0.907
 2773SOL     OW 8692   3.529   1.714   0.572
 2773SOL    HW1 8693   3.488   1.691   0.484
 2773SOL    HW2 8694   3.511   1.640   0.637
 2774SOL     OW 8695   2.460   0.729   0.270
 2774SOL    HW1 8696   2.484   0.798   0.202
 2774SOL    HW2 8697   2.382   0.762   0.324
 2775SOL     OW 8698   3.143   0.345   0.944
 2775SOL    HW1 8699   3.057   0.295   0.931
 2775SOL    HW2 8700   3.205   0.291   1.000
 2776SOL     OW 8701   3.438   1.662   0.307
 2776SOL    HW1 8702   3.527   1.708   0.310
 2776SOL    HW2 8703   3.417   1.638   0.212
 2777SOL     OW 8704   2.669   0.605   1.465
 2777SOL    HW1 8705   2.622   0.602   1.554
 2777SOL    HW2 8706   2.618   0.550   1.399
 2778SOL     OW 8707   3.256   0.469   1.674
 2778SOL    HW1 8708   3.236   0.512   1.762
 2778SOL    HW2 8709   3.334   0.407   1.683
 2779SOL     OW 8710   2.835   0.890   1.572
 2779SOL    HW1 8711   2.881   0.806   1.543
 2779SOL    HW2 8712   2.779   0.924   1.497
 2780SOL     OW 8713   2.853   0.410   1.242
 2780SOL    HW1 8714   2.776   0.444   1.296
 2780SOL    HW2 8715   2.819   0.359   1.163
 2781SOL     OW 8716   2.903   0.701   0.429
 2781SOL    HW1 8717   2.929   0.697   0.525
 2781SOL    HW2 8718   2.818   0.650   0.415
 2782SOL     OW 8719   1.938   0.811   0.789
 2782SOL    HW1 8720   2.037   0.799   0.798
 2782SOL    HW2 8721   1.914   0.906   0.810
 2783SOL     OW 8722   1.992   1.821   1.571
 2783SOL    HW1 8723   1.982   1.806   1.670
 2783SOL    HW2 8724   1.906   1.857   1.535
 2784SOL     OW 8725   2.727   0.348   0.195
 2784SOL    HW1 8726   2.786   0.411   0.146
 2784SOL    HW2 8727   2.746   0.254   0.166
 2785SOL     OW 8728   3.581   0.585   1.831
 2785SOL    HW1 8729   3.555   0.674   1.795
 2785SOL    HW2 8730   3.579   0.517   1.758
 2786SOL     OW 8731   3.224   1.144   0.545
 2786SOL    HW1 8732   3.307   1.115   0.497
 2786SOL    HW2 8733   3.175   1.211   0.489
 2787SOL     OW 8734   2.412   0.196   0.885
 2787SOL    HW1 8735   2.407   0.191   0.985
 2787SOL    HW2 8736   2.414   0.292   0.856
 2788SOL     OW 8737   2.870   1.456   0.477
 2788SOL    HW1 8738   2.824   1.528   0.425
 2788SOL    HW2 8739   2.866   1.476   0.575
 2789SOL     OW 8740   2.213   1.801   0.853
 2789SOL    HW1 8741   2.263   1.715   0.859
 2789SOL    HW2 8742   2.278   1.878   0.850
 2790SOL     OW 8743   3.657   1.066   0.873
 2790SOL    HW1 8744   3.595   1.051   0.797
 2790SOL    HW2 8745   3.605   1.077   0.958
 2791SOL     OW 8746   3.089   1.550   1.506
 2791SOL    HW1 8747   3.095   1.473   1.570
 2791SOL    HW2 8748   3.037   1.524   1.426
 2792SOL     OW 8749   2.183   0.943   0.242
 2792SOL    HW1 8750   2.265   0.982   0.200
 2792SOL    HW2 8751   2.156   0.861   0.193
 2793SOL     OW 8752   3.320   0.735   0.728
 2793SOL    HW1 8753   3.315   0.670   0.803
 2793SOL    HW2 8754   3.400   0.794   0.741
 2794SOL     OW 8755   2.323   1.266   1.727
 2794SOL    HW1 8756   2.273   1.267   1.641
 2794SOL    HW2 8757   2.260   1.248   1.803
 2795SOL     OW 8758   2.973   1.776   0.237
 2795SOL    HW1 8759   2.913   1.714   0.287
 2795SOL    HW2 8760   3.004   1.732   0.152
 2796SOL     OW 8761   2.064   0.285   1.498
 2796SOL    HW1 8762   1.984   0.345   1.485
 2796SOL    HW2 8763   2.054   0.236   1.584
 2797SOL     OW 8764   3.494   1.377   0.081
 2797SOL    HW1 8765   3.462   1.471   0.071
 2797SOL    HW2 8766   3.418   1.314   0.069
 2798SOL     OW 8767   2.326   1.743   0.323
 2798SOL    HW1 8768   2.359   1.782   0.409
 2798SOL    HW2 8769   2.402   1.736   0.258
 2799SOL     OW 8770   3.262   0.107   0.426
 2799SOL    HW1 8771   3.238   0.070   0.336
 2799SOL    HW2 8772   3.361   0.123   0.430
 2800SOL     OW 8773   2.111   1.785   1.241
 2800SOL    HW1 8774   2.168   1.720   1.291
 2800SOL    HW2 8775   2.095   1.752   1.148
 2801SOL     OW 8776   2.802   1.698   0.904
 2801SOL    HW1 8777   2.882   1.641   0.925
 2801SOL    HW2 8778   2.753   1.658   0.827
 2802SOL     OW 8779   2.244   0.700   0.480
 2802SOL    HW1 8780   2.289   0.610   0.477
 2802SOL    HW2 8781   2.150   0.689   0.513
 2803SOL     OW 8782   3.409   0.222   1.729
 2803SOL    HW1 8783   3.404   0.259   1.821
 2803SOL    HW2 8784   3.337   0.153   1.717
 2804SOL     OW 8785   2.476   0.122   0.117
 2804SOL    HW1 8786   2.574   0.100   0.124
 2804SOL    HW2 8787   2.445   0.105   0.024
 2805SOL     OW 8788   2.643   0.264   1.749
 2805SOL    HW1 8789   2.710   0.203   1.792
 2805SOL    HW2 8790   2.570   0.283   1.814
 2806SOL     OW 8791   2.750   1.514   1.195
 2806SOL    HW1 8792   2.727   1.489   1.101
 2806SOL    HW2 8793   2.811   1.445   1.234
 2807SOL     OW 8794   3.213   0.590   1.433
 2807SOL    HW1 8795   3.241   0.547   1.518
 2807SOL    HW2 8796   3.238   0.686   1.434
 2808SOL     OW 8797   2.665   1.402   0.924
 2808SOL    HW1 8798   2.755   1.416   0.882
 2808SOL    HW2 8799   2.594   1.404   0.853
 2809SOL     OW 8800   2.784   0.503   0.899
 2809SOL    HW1 8801   2.759   0.494   0.803
 2809SOL    HW2 8802   2.832   0.421   0.930
 2810SOL     OW 8803   2.401   0.064   0.512
 2810SOL    HW1 8804   2.320   0.065   0.570
 2810SOL    HW2 8805   2.404   0.147   0.457
 2811SOL     OW 8806   3.296   1.188   0.041
 2811SOL    HW1 8807   3.328   1.112   0.098
 2811SOL    HW2 8808   3.204   1.215   0.071
 2812SOL     OW 8809   2.159   0.035   0.171
 2812SOL    HW1 8810   2.208   0.119   0.150
 2812SOL    HW2 8811   2.221  -0.030   0.216
 2813SOL     OW 8812   2.797   0.236   0.480
 2813SOL    HW1 8813   2.749   0.277   0.402
 2813SOL    HW2 8814   2.896   0.234   0.461
 2814SOL     OW 8815   2.938   0.683   1.464
 2814SOL    HW1 8816   2.858   0.622   1.467
 2814SOL    HW2 8817   3.019   0.630   1.440
 2815SOL     OW 8818   3.089   1.570   0.793
 2815SOL    HW1 8819   3.110   1.644   0.728
 2815SOL    HW2 8820   3.157   1.570   0.866
 2816SOL     OW 8821   2.321   1.152   0.741
 2816SOL    HW1 8822   2.250   1.125   0.806
 2816SOL    HW2 8823   2.295   1.124   0.648
 2817SOL     OW 8824   3.133   1.797   0.591
 2817SOL    HW1 8825   3.177   1.861   0.527
 2817SOL    HW2 8826   3.083   1.849   0.661
 2818SOL     OW 8827   2.894   0.549   0.016
 2818SOL    HW1 8828   2.853   0.631  -0.023
 2818SOL    HW2 8829   2.958   0.575   0.089
 2819SOL     OW 8830   1.940   0.556   1.386
 2819SOL    HW1 8831   2.032   0.555   1.345
 2819SOL    HW2 8832   1.934   0.630   1.453
 2820SOL     OW 8833   2.423   0.222   1.147
 2820SOL    HW1 8834   2.461   0.138   1.184
 2820SOL    HW2 8835   2.335   0.241   1.191
 2821SOL     OW 8836   2.728   0.454   0.642
 2821SOL    HW1 8837   2.696   0.526   0.580
 2821SOL    HW2 8838   2.752   0.373   0.589
 2822SOL     OW 8839   2.879   0.039   0.753
 2822SOL    HW1 8840   2.807   0.044   0.684
 2822SOL    HW2 8841   2.855  -0.030   0.822
 2823SOL     OW 8842   3.291   1.173   0.867
 2823SOL    HW1 8843   3.236   1.089   0.860
 2823SOL    HW2 8844   3.317   1.202   0.775
 2824SOL     OW 8845   3.328   0.590   0.992
 2824SOL    HW1 8846   3.298   0.495   0.999
 2824SOL    HW2 8847   3.401   0.606   1.058
 2825SOL     OW 8848   3.719   0.833   0.377
 2825SOL    HW1 8849   3.761   0.769   0.441
 2825SOL    HW2 8850   3.681   0.782   0.299
 2826SOL     OW 8851   2.350   1.385   0.174
 2826SOL    HW1 8852   2.263   1.370   0.221
 2826SOL    HW2 8853   2.333   1.411   0.079
 2827SOL     OW 8854   3.526   1.280   0.657
 2827SOL    HW1 8855   3.625   1.288   0.671
 2827SOL    HW2 8856   3.481   1.364   0.688
 2828SOL     OW 8857   3.252   0.575   0.078
 2828SOL    HW1 8858   3.198   0.554   0.159
 2828SOL    HW2 8859   3.343   0.534   0.087
 2829SOL     OW 8860   2.389   0.256   0.328
 2829SOL    HW1 8861   2.416   0.197   0.253
 2829SOL    HW2 8862   2.389   0.351   0.297
 2830SOL     OW 8863   3.616   1.223   1.588
 2830SOL    HW1 8864   3.707   1.184   1.575
 2830SOL    HW2 8865   3.624   1.319   1.612
 2831SOL     OW 8866   2.926   1.347   1.340
 2831SOL    HW1 8867   2.846   1.324   1.395
 2831SOL    HW2 8868   3.009   1.321   1.389
 2832SOL     OW 8869   3.454   1.629   1.625
 2832SOL    HW1 8870   3.481   1.663   1.535
 2832SOL    HW2 8871   3.533   1.591   1.671
 2833SOL     OW 8872   2.973   1.195   1.100
 2833SOL    HW1 8873   2.933   1.239   1.181
 2833SOL    HW2 8874   2.932   1.232   1.017
 2834SOL     OW 8875   3.500   1.099   1.079
 2834SOL    HW1 8876   3.505   1.180   1.138
 2834SOL    HW2 8877   3.414   1.101   1.028
 2835SOL     OW 8878   2.777   0.089   1.402
 2835SOL    HW1 8879   2.802   0.069   1.307
 2835SOL    HW2 8880   2.849   0.145   1.444
 2836SOL     OW 8881   2.842   1.116   1.719
 2836SOL    HW1 8882   2.743   1.122   1.729
 2836SOL    HW2 8883   2.865   1.036   1.663
 2837SOL     OW 8884   2.567   1.050   0.368
 2837SOL    HW1 8885   2.553   1.057   0.467
 2837SOL    HW2 8886   2.651   0.999   0.350
 2838SOL     OW 8887   2.272   0.813   1.251
 2838SOL    HW1 8888   2.358   0.825   1.301
 2838SOL    HW2 8889   2.230   0.726   1.278
 2839SOL     OW 8890   3.136   0.386   1.262
 2839SOL    HW1 8891   3.157   0.460   1.326
 2839SOL    HW2 8892   3.047   0.403   1.219
 2840SOL     OW 8893   1.926   1.564   1.331
 2840SOL    HW1 8894   1.880   1.646   1.297
 2840SOL    HW2 8895   2.024   1.583   1.340
 2841SOL     OW 8896   2.229   1.100   0.501
 2841SOL    HW1 8897   2.222   1.183   0.445
 2841SOL    HW2 8898   2.233   1.020   0.441
 2842SOL     OW 8899   2.428   0.537   0.865
 2842SOL    HW1 8900   2.440   0.603   0.791
 2842SOL    HW2 8901   2.474   0.571   0.948
 2843SOL     OW 8902   3.114   1.348   0.388
 2843SOL    HW1 8903   3.164   1.425   0.428
 2843SOL    HW2 8904   3.019   1.350   0.420
 2844SOL     OW 8905   3.134   1.445   1.142
 2844SOL    HW1 8906   3.181   1.458   1.229
 2844SOL    HW2 8907   3.068   1.371   1.151
 2845SOL     OW 8908   3.444   0.639   0.472
 2845SOL    HW1 8909   3.413   0.700   0.545
 2845SOL    HW2 8910   3.494   0.691   0.403
 2846SOL     OW 8911   2.216   1.510   1.329
 2846SOL    HW1 8912   2.195   1.466   1.242
 2846SOL    HW2 8913   2.313   1.536   1.332
 2847SOL     OW 8914   2.264   0.751   1.598
 2847SOL    HW1 8915   2.332   0.806   1.551
 2847SOL    HW2 8916   2.304   0.663   1.625
 2848SOL     OW 8917   3.449   0.779   1.670
 2848SOL    HW1 8918   3.357   0.817   1.665
 2848SOL    HW2 8919   3.509   0.826   1.605
 2849SOL     OW 8920   2.875   0.105   1.770
 2849SOL    HW1 8921   2.881   0.190   1.718
 2849SOL    HW2 8922   2.907   0.029   1.713
 2850SOL     OW 8923   2.366   0.050   1.740
 2850SOL    HW1 8924   2.324  -0.007   1.670
 2850SOL    HW2 8925   2.300   0.119   1.772
 2851SOL     OW 8926   2.435   0.870   1.029
 2851SOL    HW1 8927   2.479   0.959   1.020
 2851SOL    HW2 8928   2.372   0.870   1.106
 2852SOL     OW 8929   3.222   0.862   1.045
 2852SOL    HW1 8930   3.147   0.862   0.979
 2852SOL    HW2 8931   3.259   0.770   1.054
 2853SOL     OW 8932   3.071   0.525   0.275
 2853SOL    HW1 8933   3.084   0.441   0.329
 2853SOL    HW2 8934   3.042   0.599   0.335
 2854SOL     OW 8935   2.169   0.213   1.231
 2854SOL    HW1 8936   2.146   0.250   1.321
 2854SOL    HW2 8937   2.139   0.118   1.225
 2855SOL     OW 8938   1.899   1.310   1.282
 2855SOL    HW1 8939   1.952   1.261   1.350
 2855SOL    HW2 8940   1.921   1.408   1.287
 2856SOL     OW 8941   2.594   0.634   1.064
 2856SOL    HW1 8942   2.653   0.608   0.988
 2856SOL    HW2 8943   2.566   0.730   1.053
 2857SOL     OW 8944   3.590   0.935   1.854
 2857SOL    HW1 8945   3.544   0.928   1.765
 2857SOL    HW2 8946   3.528   0.979   1.920
 2858SOL     OW 8947   2.169   0.063   0.618
 2858SOL    HW1 8948   2.158   0.157   0.651
 2858SOL    HW2 8949   2.164   0.000   0.695
 2859SOL     OW 8950   3.484   0.367   0.374
 2859SOL    HW1 8951   3.486   0.291   0.438
 2859SOL    HW2 8952   3.436   0.444   0.414
 2860SOL     OW 8953   2.885   0.766   0.966
 2860SOL    HW1 8954   2.900   0.787   1.062
 2860SOL    HW2 8955   2.855   0.671   0.957
 2861SOL     OW 8956   2.842   1.573   1.700
 2861SOL    HW1 8957   2.822   1.617   1.612
 2861SOL    HW2 8958   2.881   1.482   1.684
 2862SOL     OW 8959   3.721   1.518   1.605
 2862SOL    HW1 8960   3.735   1.545   1.510
 2862SOL    HW2 8961   3.804   1.540   1.658
 2863SOL     OW 8962   2.212   0.898   1.804
 2863SOL    HW1 8963   2.288   0.942   1.852
 2863SOL    HW2 8964   2.247   0.851   1.722
 2864SOL     OW 8965   3.402   0.274   0.125
 2864SOL    HW1 8966   3.341   0.199   0.148
 2864SOL    HW2 8967   3.424   0.326   0.208
 2865SOL     OW 8968   3.165   0.838   0.042
 2865SOL    HW1 8969   3.199   0.745   0.057
 2865SOL    HW2 8970   3.183   0.865  -0.053
 2866SOL     OW 8971   2.930   1.333   0.849
 2866SOL    HW1 8972   2.937   1.249   0.794
 2866SOL    HW2 8973   2.992   1.402   0.813
 2867SOL     OW 8974   2.181   0.810   0.949
 2867SOL    HW1 8975   2.274   0.846   0.954
 2867SOL    HW2 8976   2.175   0.725   1.001
 2868SOL     OW 8977   2.201   0.509   1.006
 2868SOL    HW1 8978   2.149   0.426   0.989
 2868SOL    HW2 8979   2.278   0.514   0.942
 2869SOL     OW 8980   3.000   0.380   1.678
 2869SOL    HW1 8981   2.955   0.443   1.742
 2869SOL    HW2 8982   3.093   0.411   1.661
 2870SOL     OW 8983   3.022   0.207   1.477
 2870SOL    HW1 8984   3.022   0.271   1.554
 2870SOL    HW2 8985   3.050   0.255   1.394
 2871SOL     OW 8986   1.870   1.326   0.200
 2871SOL    HW1 8987   1.777   1.347   0.169
 2871SOL    HW2 8988   1.880   1.227   0.213
 2872SOL     OW 8989   1.950   1.801   0.927
 2872SOL    HW1 8990   1.908   1.715   0.900
 2872SOL    HW2 8991   2.044   1.804   0.893
 2873SOL     OW 8992   2.366   1.568   0.910
 2873SOL    HW1 8993   2.432   1.642   0.919
 2873SOL    HW2 8994   2.410   1.489   0.868
 2874SOL     OW 8995   2.864   0.796   1.238
 2874SOL    HW1 8996   2.905   0.764   1.324
 2874SOL    HW2 8997   2.768   0.769   1.235
 2875SOL     OW 8998   1.902   0.544   1.114
 2875SOL    HW1 8999   1.987   0.511   1.073
 2875SOL    HW2 9000   1.915   0.559   1.212
 2876SOL     OW 9001   2.051   0.520   1.722
 2876SOL    HW1 9002   2.110   0.480   1.652
 2876SOL    HW2 9003   1.993   0.591   1.681
 2877SOL     OW 9004   3.231   0.950   1.660
 2877SOL    HW1 9005   3.270   1.039   1.680
 2877SOL    HW2 9006   3.241   0.930   1.563
 2878SOL     OW 9007   2.677   0.572   0.325
 2878SOL    HW1 9008   2.684   0.483   0.279
 2878SOL    HW2 9009   2.583   0.606   0.317
 2879SOL     OW 9010   3.519   0.604   1.206
 2879SOL    HW1 9011   3.481   0.535   1.268
 2879SOL    HW2 9012   3.601   0.568   1.162
 2880SOL     OW 9013   2.114   1.564   1.744
 2880SOL    HW1 9014   2.084   1.621   1.820
 2880SOL    HW2 9015   2.107   1.467   1.770
 2881SOL     OW 9016   2.533   0.464   1.269
 2881SOL    HW1 9017   2.499   0.375   1.239
 2881SOL    HW2 9018   2.559   0.518   1.189
 2882SOL     OW 9019   2.792   1.678   1.465
 2882SOL    HW1 9020   2.768   1.660   1.370
 2882SOL    HW2 9021   2.822   1.772   1.475
 2883SOL     OW 9022   2.335   0.500   0.191
 2883SOL    HW1 9023   2.396   0.580   0.195
 2883SOL    HW2 9024   2.240   0.531   0.198
 2884SOL     OW 9025   2.021   1.137   1.466
 2884SOL    HW1 9026   2.043   1.076   1.542
 2884SOL    HW2 9027   2.031   1.088   1.380
 2885SOL     OW 9028   3.209   1.059   1.234
 2885SOL    HW1 9029   3.233   0.996   1.160
 2885SOL    HW2 9030   3.119   1.099   1.216
 2886SOL     OW 9031   3.164   0.855   0.309
 2886SOL    HW1 9032   3.078   0.824   0.351
 2886SOL    HW2 9033   3.160   0.841   0.210
 2887SOL     OW 9034   3.621   1.747   1.154
 2887SOL    HW1 9035   3.682   1.777   1.081
 2887SOL    HW2 9036   3.583   1.658   1.132
 2888SOL     OW 9037   3.114   1.731   1.128
 2888SOL    HW1 9038   3.198   1.736   1.074
 2888SOL    HW2 9039   3.091   1.635   1.146
 2889SOL     OW 9040   1.945   1.258   1.022
 2889SOL    HW1 9041   1.940   1.257   1.122
 2889SOL    HW2 9042   1.862   1.217   0.984
 2890SOL     OW 9043   2.550   1.662   1.716
 2890SOL    HW1 9044   2.494   1.743   1.725
 2890SOL    HW2 9045   2.602   1.666   1.630
 2891SOL     OW 9046   2.765   0.086   0.133
 2891SOL    HW1 9047   2.816   0.087   0.047
 2891SOL    HW2 9048   2.821   0.044   0.204
 2892SOL     OW 9049   3.588   0.135   0.523
 2892SOL    HW1 9050   3.661   0.118   0.456
 2892SOL    HW2 9051   3.557   0.048   0.561
 2893SOL     OW 9052   3.250   1.573   0.477
 2893SOL    HW1 9053   3.317   1.585   0.403
 2893SOL    HW2 9054   3.210   1.662   0.500
 2894SOL     OW 9055   1.992   1.794   1.851
 2894SOL    HW1 9056   1.951   1.720   1.904
 2894SOL    HW2 9057   2.056   1.845   1.909
 2895SOL     OW 9058   3.142   0.927   0.672
 2895SOL    HW1 9059   3.202   0.846   0.674
 2895SOL    HW2 9060   3.182   0.996   0.612
 2896SOL     OW 9061   2.692   1.273   1.422
 2896SOL    HW1 9062   2.687   1.306   1.517
 2896SOL    HW2 9063   2.606   1.292   1.376
 2897SOL     OW 9064   2.534   1.616   0.154
 2897SOL    HW1 9065   2.543   1.626   0.055
 2897SOL    HW2 9066   2.494   1.527   0.175
 2898SOL     OW 9067   3.512   1.720   1.394
 2898SOL    HW1 9068   3.565   1.730   1.310
 2898SOL    HW2 9069   3.485   1.810   1.428
 2899SOL     OW 9070   3.703   0.175   0.963
 2899SOL    HW1 9071   3.742   0.090   0.927
 2899SOL    HW2 9072   3.605   0.177   0.944
 2900SOL     OW 9073   2.125   0.326   0.720
 2900SOL    HW1 9074   2.046   0.377   0.686
 2900SOL    HW2 9075   2.116   0.311   0.818
 2901SOL     OW 9076   3.056   1.612   0.031
 2901SOL    HW1 9077   3.062   1.519   0.068
 2901SOL    HW2 9078   2.997   1.612  -0.049
 2902SOL     OW 9079   2.684   1.002   1.372
 2902SOL    HW1 9080   2.724   1.001   1.280
 2902SOL    HW2 9081   2.694   1.094   1.412
 2903SOL     OW 9082   2.778   0.910   0.291
 2903SOL    HW1 9083   2.841   0.948   0.223
 2903SOL    HW2 9084   2.818   0.827   0.330
 2904SOL     OW 9085   3.366   1.607   0.044
 2904SOL    HW1 9086   3.274   1.644   0.051
 2904SOL    HW2 9087   3.404   1.627  -0.046
 2905SOL     OW 9088   2.234   1.288   1.490
 2905SOL    HW1 9089   2.221   1.381   1.456
 2905SOL    HW2 9090   2.150   1.236   1.477
 2906SOL     OW 9091   3.476   1.292   1.289
 2906SOL    HW1 9092   3.536   1.295   1.369
 2906SOL    HW2 9093   3.401   1.356   1.302
 2907SOL     OW 9094   2.901   1.098   0.696
 2907SOL    HW1 9095   2.831   1.051   0.750
 2907SOL    HW2 9096   2.960   1.030   0.653
 2908SOL     OW 9097   2.876   0.236   0.971
 2908SOL    HW1 9098   2.868   0.200   0.878
 2908SOL    HW2 9099   2.874   0.160   1.036
 2909SOL     OW 9100   2.452   1.487   0.491
 2909SOL    HW1 9101   2.494   1.429   0.421
 2909SOL    HW2 9102   2.408   1.566   0.447
 2910SOL     OW 9103   3.571   0.385   1.381
 2910SOL    HW1 9104   3.644   0.454   1.385
 2910SOL    HW2 9105   3.599   0.310   1.322
 2911SOL     OW 9106   2.117   1.348   0.290
 2911SOL    HW1 9107   2.021   1.349   0.263
 2911SOL    HW2 9108   2.129   1.401   0.374
 2912SOL     OW 9109   1.967   1.013   1.726
 2912SOL    HW1 9110   1.890   0.980   1.780
 2912SOL    HW2 9111   2.052   0.983   1.768
 2913SOL     OW 9112   2.534   0.203   1.489
 2913SOL    HW1 9113   2.624   0.187   1.449
 2913SOL    HW2 9114   2.542   0.208   1.588
 2914SOL     OW 9115   3.302   0.856   1.398
 2914SOL    HW1 9116   3.245   0.908   1.335
 2914SOL    HW2 9117   3.398   0.868   1.374
 2915SOL     OW 9118   1.934   0.166   0.318
 2915SOL    HW1 9119   1.917   0.249   0.264
 2915SOL    HW2 9120   2.024   0.129   0.296
 2916SOL     OW 9121   3.045   1.335   0.119
 2916SOL    HW1 9122   2.946   1.324   0.121
 2916SOL    HW2 9123   3.079   1.350   0.212
 2917SOL     OW 9124   2.475   0.842   1.431
 2917SOL    HW1 9125   2.531   0.923   1.414
 2917SOL    HW2 9126   2.534   0.762   1.434
 2918SOL     OW 9127   3.355   1.767   0.959
 2918SOL    HW1 9128   3.388   1.831   0.890
 2918SOL    HW2 9129   3.421   1.761   1.034
 2919SOL     OW 9130   2.578   0.565   1.708
 2919SOL    HW1 9131   2.597   0.630   1.782
 2919SOL    HW2 9132   2.638   0.485   1.717
 2920SOL     OW 9133   3.312   1.220   1.633
 2920SOL    HW1 9134   3.303   1.210   1.732
 2920SOL    HW2 9135   3.408   1.213   1.607
 2921SOL     OW 9136   2.252   1.741   1.560
 2921SOL    HW1 9137   2.161   1.782   1.558
 2921SOL    HW2 9138   2.245   1.647   1.592
 2922SOL     OW 9139   3.536   0.883   1.254
 2922SOL    HW1 9140   3.509   0.794   1.217
 2922SOL    HW2 9141   3.537   0.951   1.181
 2923SOL     OW 9142   3.087   0.325   0.449
 2923SOL    HW1 9143   3.152   0.251   0.438
 2923SOL    HW2 9144   3.107   0.375   0.533
 2924SOL     OW 9145   2.456   0.745   0.652
 2924SOL    HW1 9146   2.506   0.830   0.633
 2924SOL    HW2 9147   2.368   0.747   0.604
 2925SOL     OW 9148   3.639   0.342   1.642
 2925SOL    HW1 9149   3.622   0.373   1.548
 2925SOL    HW2 9150   3.555   0.305   1.680
 2926SOL     OW 9151   3.592   0.934   1.517
 2926SOL    HW1 9152   3.630   1.025   1.532
 2926SOL    HW2 9153   3.584   0.917   1.418
 2927SOL     OW 9154   2.721   1.374   0.016
 2927SOL    HW1 9155   2.675   1.389   0.104
 2927SOL    HW2 9156   2.765   1.459  -0.014
 2928SOL     OW 9157   2.523   1.790   0.953
 2928SOL    HW1 9158   2.477   1.878   0.940
 2928SOL    HW2 9159   2.622   1.802   0.946
 2929SOL     OW 9160   2.721   0.956   0.861
 2929SOL    HW1 9161   2.775   0.887   0.909
 2929SOL    HW2 9162   2.689   1.025   0.927
 2930SOL     OW 9163   2.945   0.984   0.087
 2930SOL    HW1 9164   2.922   1.037   0.005
 2930SOL    HW2 9165   3.026   0.928   0.068
 2931SOL     OW 9166   3.723   1.569   0.851
 2931SOL    HW1 9167   3.652   1.557   0.781
 2931SOL    HW2 9168   3.724   1.490   0.911
 2932SOL     OW 9169   2.083   1.314   1.844
 2932SOL    HW1 9170   2.018   1.241   1.823
 2932SOL    HW2 9171   2.087   1.328   1.942
 2933SOL     OW 9172   1.941   1.240   0.653
 2933SOL    HW1 9173   1.940   1.193   0.741
 2933SOL    HW2 9174   2.023   1.212   0.602
 2934SOL     OW 9175   2.534   1.391   1.624
 2934SOL    HW1 9176   2.456   1.341   1.662
 2934SOL    HW2 9177   2.531   1.486   1.655
 2935SOL     OW 9178   3.686   0.192   1.227
 2935SOL    HW1 9179   3.682   0.102   1.271
 2935SOL    HW2 9180   3.689   0.181   1.128
 2936SOL     OW 9181   2.290   0.424   0.520
 2936SOL    HW1 9182   2.320   0.352   0.458
 2936SOL    HW2 9183   2.251   0.384   0.603
 2937SOL     OW 9184   3.567   1.487   1.104
 2937SOL    HW1 9185   3.474   1.462   1.077
 2937SOL    HW2 9186   3.593   1.437   1.186
 2938SOL     OW 9187   2.179   0.547   1.280
 2938SOL    HW1 9188   2.217   0.488   1.352
 2938SOL    HW2 9189   2.219   0.521   1.192
 2939SOL     OW 9190   2.674   1.586   0.687
 2939SOL    HW1 9191   2.706   1.596   0.593
 2939SOL    HW2 9192   2.595   1.524   0.689
 2940SOL     OW 9193   3.286   0.214   1.112
 2940SOL    HW1 9194   3.338   0.149   1.167
 2940SOL    HW2 9195   3.237   0.277   1.173
 2941SOL     OW 9196   2.863   0.034   1.154
 2941SOL    HW1 9197   2.800  -0.038   1.123
 2941SOL    HW2 9198   2.956  -0.002   1.154
 2942SOL     OW 9199   2.632   1.330   0.301
 2942SOL    HW1 9200   2.586   1.243   0.318
 2942SOL    HW2 9201   2.723   1.327   0.342
 2943SOL     OW 9202   2.480   1.567   1.284
 2943SOL    HW1 9203   2.475   1.649   1.341
 2943SOL    HW2 9204   2.569   1.564   1.239
 2944SOL     OW 9205   3.214   0.052   0.168
 2944SOL    HW1 9206   3.249   0.011   0.084
 2944SOL    HW2 9207   3.124   0.014   0.188
 2945SOL     OW 9208   3.162   0.453   0.691
 2945SOL    HW1 9209   3.103   0.533   0.695
 2945SOL    HW2 9210   3.177   0.418   0.784
 2946SOL     OW 9211   3.455   0.221   0.882
 2946SOL    HW1 9212   3.371   0.220   0.936
 2946SOL    HW2 9213   3.457   0.304   0.826
 2947SOL     OW 9214   1.901   1.077   0.300
 2947SOL    HW1 9215   2.000   1.066   0.291
 2947SOL    HW2 9216   1.861   0.991   0.332
 2948SOL     OW 9217   2.737   1.646   0.337
 2948SOL    HW1 9218   2.660   1.611   0.283
 2948SOL    HW2 9219   2.705   1.717   0.399
 2949SOL     OW 9220   2.092   0.628   1.975
 2949SOL    HW1 9221   1.999   0.626   2.012
 2949SOL    HW2 9222   2.093   0.589   1.883
 2950SOL     OW 9223   2.087   0.275   2.858
 2950SOL    HW1 9224   2.122   0.258   2.950
 2950SOL    HW2 9225   1.999   0.230   2.846
 2951SOL     OW 9226   1.881   0.368   2.509
 2951SOL    HW1 9227   1.799   0.411   2.548
 2951SOL    HW2 9228   1.853   0.295   2.446
 2952SOL     OW 9229   2.431   1.275   3.027
 2952SOL    HW1 9230   2.338   1.268   2.990
 2952SOL    HW2 9231   2.442   1.364   3.071
 2953SOL     OW 9232   3.417   1.511   2.565
 2953SOL    HW1 9233   3.360   1.495   2.646
 2953SOL    HW2 9234   3.358   1.521   2.485
 2954SOL     OW 9235   2.997   0.703   2.579
 2954SOL    HW1 9236   3.054   0.781   2.554
 2954SOL    HW2 9237   2.937   0.729   2.655
 2955SOL     OW 9238   3.617   0.607   2.093
 2955SOL    HW1 9239   3.605   0.594   1.994
 2955SOL    HW2 9240   3.587   0.526   2.142
 2956SOL     OW 9241   2.630   1.144   2.885
 2956SOL    HW1 9242   2.552   1.161   2.945
 2956SOL    HW2 9243   2.664   1.231   2.849
 2957SOL     OW 9244   2.712   0.798   3.685
 2957SOL    HW1 9245   2.708   0.874   3.750
 2957SOL    HW2 9246   2.734   0.834   3.594
 2958SOL     OW 9247   2.547   1.012   2.527
 2958SOL    HW1 9248   2.616   0.996   2.597
 2958SOL    HW2 9249   2.474   1.069   2.565
 2959SOL     OW 9250   2.548   1.161   3.665
 2959SOL    HW1 9251   2.608   1.240   3.679
 2959SOL    HW2 9252   2.462   1.192   3.624
 2960SOL     OW 9253   2.197   1.435   2.923
 2960SOL    HW1 9254   2.119   1.404   2.870
 2960SOL    HW2 9255   2.255   1.493   2.866
 2961SOL     OW 9256   3.322   1.505   3.201
 2961SOL    HW1 9257   3.346   1.599   3.227
 2961SOL    HW2 9258   3.306   1.451   3.283
 2962SOL     OW 9259   2.300   0.392   3.361
 2962SOL    HW1 9260   2.382   0.336   3.370
 2962SOL    HW2 9261   2.219   0.334   3.365
 2963SOL     OW 9262   3.465   0.447   2.599
 2963SOL    HW1 9263   3.391   0.493   2.549
 2963SOL    HW2 9264   3.516   0.515   2.652
 2964SOL     OW 9265   2.093   1.713   2.345
 2964SOL    HW1 9266   2.127   1.790   2.399
 2964SOL    HW2 9267   2.137   1.713   2.255
 2965SOL     OW 9268   2.989   1.341   3.552
 2965SOL    HW1 9269   3.036   1.341   3.640
 2965SOL    HW2 9270   2.941   1.254   3.541
 2966SOL     OW 9271   2.092   1.434   2.400
 2966SOL    HW1 9272   2.066   1.530   2.400
 2966SOL    HW2 9273   2.021   1.380   2.445
 2967SOL     OW 9274   2.102   1.091   2.748
 2967SOL    HW1 9275   2.116   1.007   2.800
 2967SOL    HW2 9276   2.047   1.155   2.803
 2968SOL     OW 9277   2.482   1.786   3.301
 2968SOL    HW1 9278   2.390   1.769   3.336
 2968SOL    HW2 9279   2.510   1.878   3.327
 2969SOL     OW 9280   2.468   0.964   1.985
 2969SOL    HW1 9281   2.475   1.048   1.931
 2969SOL    HW2 9282   2.514   0.977   2.073
 2970SOL     OW 9283   3.456   0.114   3.342
 2970SOL    HW1 9284   3.438   0.181   3.270
 2970SOL    HW2 9285   3.453   0.160   3.431
 2971SOL     OW 9286   1.984   0.643   2.425
 2971SOL    HW1 9287   1.939   0.555   2.442
 2971SOL    HW2 9288   1.983   0.697   2.509
 2972SOL     OW 9289   3.704   1.767   2.221
 2972SOL    HW1 9290   3.758   1.738   2.301
 2972SOL    HW2 9291   3.734   1.857   2.192
 2973SOL     OW 9292   1.889   1.596   1.979
 2973SOL    HW1 9293   1.870   1.500   2.000
 2973SOL    HW2 9294   1.856   1.654   2.054
 2974SOL     OW 9295   3.551   0.922   2.474
 2974SOL    HW1 9296   3.646   0.893   2.482
 2974SOL    HW2 9297   3.543   0.987   2.399
 2975SOL     OW 9298   3.503   1.108   2.294
 2975SOL    HW1 9299   3.589   1.110   2.242
 2975SOL    HW2 9300   3.517   1.155   2.382
 2976SOL     OW 9301   1.975   0.737   3.459
 2976SOL    HW1 9302   2.063   0.724   3.504
 2976SOL    HW2 9303   1.962   0.834   3.437
 2977SOL     OW 9304   2.475   1.365   2.588
 2977SOL    HW1 9305   2.426   1.278   2.597
 2977SOL    HW2 9306   2.452   1.408   2.501
 2978SOL     OW 9307   3.155   1.228   3.285
 2978SOL    HW1 9308   3.192   1.155   3.227
 2978SOL    HW2 9309   3.207   1.233   3.370
 2979SOL     OW 9310   2.671   0.004   2.364
 2979SOL    HW1 9311   2.711   0.095   2.355
 2979SOL    HW2 9312   2.571   0.012   2.370
 2980SOL     OW 9313   2.059   0.976   3.126
 2980SOL    HW1 9314   2.148   0.931   3.112
 2980SOL    HW2 9315   1.986   0.911   3.107
 2981SOL     OW 9316   3.387   0.999   2.052
 2981SOL    HW1 9317   3.324   0.923   2.065
 2981SOL    HW2 9318   3.435   1.017   2.138
 2982SOL     OW 9319   3.049   1.792   3.478
 2982SOL    HW1 9320   3.073   1.852   3.402
 2982SOL    HW2 9321   3.056   1.697   3.448
 2983SOL     OW 9322   2.179   0.251   3.663
 2983SOL    HW1 9323   2.250   0.322   3.669
 2983SOL    HW2 9324   2.091   0.290   3.691
 2984SOL     OW 9325   3.328   1.417   2.815
 2984SOL    HW1 9326   3.269   1.423   2.895
 2984SOL    HW2 9327   3.313   1.329   2.769
 2985SOL     OW 9328   3.529   1.714   2.434
 2985SOL    HW1 9329   3.488   1.691   2.346
 2985SOL    HW2 9330   3.511   1.640   2.499
 2986SOL     OW 9331   2.460   0.729   2.132
 2986SOL    HW1 9332   2.484   0.798   2.064
 2986SOL    HW2 9333   2.382   0.762   2.186
 2987SOL     OW 9334   3.143   0.345   2.806
 2987SOL    HW1 9335   3.057   0.295   2.793
 2987SOL    HW2 9336   3.205   0.291   2.862
 2988SOL     OW 9337   3.438   1.662   2.169
 2988SOL    HW1 9338   3.527   1.708   2.172
 2988SOL    HW2 9339   3.417   1.638   2.074
 2989SOL     OW 9340   2.669   0.605   3.327
 2989SOL    HW1 9341   2.622   0.602   3.416
 2989SOL    HW2 9342   2.618   0.550   3.261
 2990SOL     OW 9343   3.256   0.469   3.536
 2990SOL    HW1 9344   3.236   0.512   3.624
 2990SOL    HW2 9345   3.334   0.407   3.545
 2991SOL     OW 9346   2.835   0.890   3.434
 2991SOL    HW1 9347   2.881   0.806   3.405
 2991SOL    HW2 9348   2.779   0.924   3.359
 2992SOL     OW 9349   2.853   0.410   3.104
 2992SOL    HW1 9350   2.776   0.444   3.158
 2992SOL    HW2 9351   2.819   0.359   3.025
 2993SOL     OW 9352   2.903   0.701   2.291
 2993SOL    HW1 9353   2.929   0.697   2.387
 2993SOL    HW2 9354   2.818   0.650   2.277
 2994SOL     OW 9355   1.938   0.811   2.651
 2994SOL    HW1 9356   2.037   0.799   2.660
 2994SOL    HW2 9357   1.914   0.906   2.672
 2995SOL     OW 9358   1.992   1.821   3.433
 2995SOL    HW1 9359   1.982   1.806   3.532
 2995SOL    HW2 9360   1.906   1.857   3.397
 2996SOL     OW 9361   2.727   0.348   2.057
 2996SOL    HW1 9362   2.786   0.411   2.008
 2996SOL    HW2 9363   2.746   0.254   2.028
 2997SOL     OW 9364   3.581   0.585   3.693
 2997SOL    HW1 9365   3.555   0.674   3.657
 2997SOL    HW2 9366   3.579   0.517   3.620
 2998SOL     OW 9367   3.224   1.144   2.407
 2998SOL    HW1 9368   3.307   1.115   2.359
 2998SOL    HW2 9369   3.175   1.211   2.351
 2999SOL     OW 9370   2.412   0.196   2.747
 2999SOL    HW1 9371   2.407   0.191   2.847
 2999SOL    HW2 9372   2.414   0.292   2.718
 3000SOL     OW 9373   2.870   1.456   2.339
 3000SOL    HW1 9374   2.824   1.528   2.287
 3000SOL    HW2 9375   2.866   1.476   2.437
 3001SOL     OW 9376   2.213   1.801   2.715
 3001SOL    HW1 9377   2.263   1.715   2.721
 3001SOL    HW2 9378   2.278   1.878   2.712
 3002SOL     OW 9379   3.657   1.066   2.735
 3002SOL    HW1 9380   3.595   1.051   2.659
 3002SOL    HW2 9381   3.605   1.077   2.820
 3003SOL     OW 9382   3.089   1.550   3.368
 3003SOL    HW1 9383   3.095   1.473   3.432
 3003SOL    HW2 9384   3.037   1.524   3.288
 3004SOL     OW 9385   2.183   0.943   2.104
 3004SOL    HW1 9386   2.265   0.982   2.062
 3004SOL    HW2 9387   2.156   0.861   2.055
 3005SOL     OW 9388   3.320   0.735   2.590
 3005SOL    HW1 9389   3.315   0.670   2.665
 3005SOL    HW2 9390   3.400   0.794   2.603
 3006SOL     OW 9391   2.323   1.266   3.589
 3006SOL    HW1 9392   2.273   1.267   3.503
 3006SOL    HW2 9393   2.260   1.248   3.665
 3007SOL     OW 9394   2.973   1.776   2.099
 3007SOL    HW1 9395   2.913   1.714   2.149
 3007SOL    HW2 9396   3.004   1.732   2.014
 3008SOL     OW 9397   2.064   0.285   3.360
 3008SOL    HW1 9398   1.984   0.345   3.347
 3008SOL    HW2 9399   2.054   0.236   3.446
 3009SOL     OW 9400   3.494   1.377   1.943
 3009SOL    HW1 9401   3.462   1.471   1.933
 3009SOL    HW2 9402   3.418   1.314   1.931
 3010SOL     OW 9403   2.326   1.743   2.185
 3010SOL    HW1 9404   2.359   1.782   2.271
 3010SOL    HW2 9405   2.402   1.736   2.120
 3011SOL     OW 9406   3.262   0.107   2.288
 3011SOL    HW1 9407   3.238   0.070   2.198
 3011SOL    HW2 9408   3.361   0.123   2.292
 3012SOL     OW 9409   2.111   1.785   3.103
 3012SOL    HW1 9410   2.168   1.720   3.153
 3012SOL    HW2 9411   2.095   1.752   3.010
 3013SOL     OW 9412   2.802   1.698   2.766
 3013SOL    HW1 9413   2.882   1.641   2.787
 3013SOL    HW2 9414   2.753   1.658   2.689
 3014SOL     OW 9415   2.244   0.700   2.342
 3014SOL    HW1 9416   2.289   0.610   2.339
 3014SOL    HW2 9417   2.150   0.689   2.375
 3015SOL     OW 9418   3.409   0.222   3.591
 3015SOL    HW1 9419   3.404   0.259   3.683
 3015SOL    HW2 9420   3.337   0.153   3.579
 3016SOL     OW 9421   2.476   0.122   1.979
 3016SOL    HW1 9422   2.574   0.100   1.986
 3016SOL    HW2 9423   2.445   0.105   1.886
 3017SOL     OW 9424   2.643   0.264   3.611
 3017SOL    HW1 9425   2.710   0.203   3.654
 3017SOL    HW2 9426   2.570   0.283   3.676
 3018SOL     OW 9427   2.750   1.514   3.057
 3018SOL    HW1 9428   2.727   1.489   2.963
 3018SOL    HW2 9429   2.811   1.445   3.096
 3019SOL     OW 9430   3.213   0.590   3.295
 3019SOL    HW1 9431   3.241   0.547   3.380
 3019SOL    HW2 9432   3.238   0.686   3.296
 3020SOL     OW 9433   2.665   1.402   2.786
 3020SOL    HW1 9434   2.755   1.416   2.744
 3020SOL    HW2 9435   2.594   1.404   2.715
 3021SOL     OW 9436   2.784   0.503   2.761
 3021SOL    HW1 9437   2.759   0.494   2.665
 3021SOL    HW2 9438   2.832   0.421   2.792
 3022SOL     OW 9439   2.401   0.064   2.374
 3022SOL    HW1 9440   2.320   0.065   2.432
 3022SOL    HW2 9441   2.404   0.147   2.319
 3023SOL     OW 9442   3.296   1.188   1.903
 3023SOL    HW1 9443   3.328   1.112   1.960
 3023SOL    HW2 9444   3.204   1.215   1.933
 3024SOL     OW 9445   2.159   0.035   2.033
 3024SOL    HW1 9446   2.208   0.119   2.012
 3024SOL    HW2 9447   2.221  -0.030   2.078
 3025SOL     OW 9448   2.797   0.236   2.342
 3025SOL    HW1 9449   2.749   0.277   2.264
 3025SOL    HW2 9450   2.896   0.234   2.323
 3026SOL     OW 9451   2.938   0.683   3.326
 3026SOL    HW1 9452   2.858   0.622   3.329
 3026SOL    HW2 9453   3.019   0.630   3.302
 3027SOL     OW 9454   3.089   1.570   2.655
 3027SOL    HW1 9455   3.110   1.644   2.590
 3027SOL    HW2 9456   3.157   1.570   2.728
 3028SOL     OW 9457   2.321   1.152   2.603
 3028SOL    HW1 9458   2.250   1.125   2.668
 3028SOL    HW2 9459   2.295   1.124   2.510
 3029SOL     OW 9460   3.133   1.797   2.453
 3029SOL    HW1 9461   3.177   1.861   2.389
 3029SOL    HW2 9462   3.083   1.849   2.523
 3030SOL     OW 9463   2.894   0.549   1.878
 3030SOL    HW1 9464   2.853   0.631   1.839
 3030SOL    HW2 9465   2.958   0.575   1.951
 3031SOL     OW 9466   1.940   0.556   3.248
 3031SOL    HW1 9467   2.032   0.555   3.207
 3031SOL    HW2 9468   1.934   0.630   3.315
 3032SOL     OW 9469   2.423   0.222   3.009
 3032SOL    HW1 9470   2.461   0.138   3.046
 3032SOL    HW2 9471   2.335   0.241   3.053
 3033SOL     OW 9472   2.728   0.454   2.504
 3033SOL    HW1 9473   2.696   0.526   2.442
 3033SOL    HW2 9474   2.752   0.373   2.451
 3034SOL     OW 9475   2.879   0.039   2.615
 3034SOL    HW1 9476   2.807   0.044   2.546
 3034SOL    HW2 9477   2.855  -0.030   2.684
 3035SOL     OW 9478   3.291   1.173   2.729
 3035SOL    HW1 9479   3.236   1.089   2.722
 3035SOL    HW2 9480   3.317   1.202   2.637
 3036SOL     OW 9481   3.328   0.590   2.854
 3036SOL    HW1 9482   3.298   0.495   2.861
 3036SOL    HW2 9483   3.401   0.606   2.920
 3037SOL     OW 9484   3.719   0.833   2.239
 3037SOL    HW1 9485   3.761   0.769   2.303
 3037SOL    HW2 9486   3.681   0.782   2.161
 3038SOL     OW 9487   2.350   1.385   2.036
 3038SOL    HW1 9488   2.263   1.370   2.083
 3038SOL    HW2 9489   2.333   1.411   1.941
 3039SOL     OW 9490   3.526   1.280   2.519
 3039SOL    HW1 9491   3.625   1.288   2.533
 3039SOL    HW2 9492   3.481   1.364   2.550
 3040SOL     OW 9493   3.252   0.575   1.940
 3040SOL    HW1 9494   3.198   0.554   2.021
 3040SOL    HW2 9495   3.343   0.534   1.949
 3041SOL     OW 9496   2.389   0.256   2.190
 3041SOL    HW1 9497   2.416   0.197   2.115
 3041SOL    HW2 9498   2.389   0.351   2.159
 3042SOL     OW 9499   3.616   1.223   3.450
 3042SOL    HW1 9500   3.707   1.184   3.437
 3042SOL    HW2 9501   3.624   1.319   3.474
 3043SOL     OW 9502   2.926   1.347   3.202
 3043SOL    HW1 9503   2.846   1.324   3.257
 3043SOL    HW2 9504   3.009   1.321   3.251
 3044SOL     OW 9505   3.454   1.629   3.487
 3044SOL    HW1 9506   3.481   1.663   3.397
 3044SOL    HW2 9507   3.533   1.591   3.533
 3045SOL     OW 9508   2.973   1.195   2.962
 3045SOL    HW1 9509   2.933   1.239   3.043
 3045SOL    HW2 9510   2.932   1.232   2.879
 3046SOL     OW 9511   3.500   1.099   2.941
 3046SOL    HW1 9512   3.505   1.180   3.000
 3046SOL    HW2 9513   3.414   1.101   2.890
 3047SOL     OW 9514   2.777   0.089   3.264
 3047SOL    HW1 9515   2.802   0.069   3.169
 3047SOL    HW2 9516   2.849   0.145   3.306
 3048SOL     OW 9517   2.842   1.116   3.581
 3048SOL    HW1 9518   2.743   1.122   3.591
 3048SOL    HW2 9519   2.865   1.036   3.525
 3049SOL     OW 9520   2.567   1.050   2.230
 3049SOL    HW1 9521   2.553   1.057   2.329
 3049SOL    HW2 9522   2.651   0.999   2.212
 3050SOL     OW 9523   2.272   0.813   3.113
 3050SOL    HW1 9524   2.358   0.825   3.163
 3050SOL    HW2 9525   2.230   0.726   3.140
 3051SOL     OW 9526   3.136   0.386   3.124
 3051SOL    HW1 9527   3.157   0.460   3.188
 3051SOL    HW2 9528   3.047   0.403   3.081
 3052SOL     OW 9529   1.926   1.564   3.193
 3052SOL    HW1 9530   1.880   1.646   3.159
 3052SOL    HW2 9531   2.024   1.583   3.202
 3053SOL     OW 9532   2.229   1.100   2.363
 3053SOL    HW1 9533   2.222   1.183   2.307
 3053SOL    HW2 9534   2.233   1.020   2.303
 3054SOL     OW 9535   2.428   0.537   2.727
 3054SOL    HW1 9536   2.440   0.603   2.653
 3054SOL    HW2 9537   2.474   0.571   2.810
 3055SOL     OW 9538   3.114   1.348   2.250
 3055SOL    HW1 9539   3.164   1.425   2.290
 3055SOL    HW2 9540   3.019   1.350   2.282
 3056SOL     OW 9541   3.134   1.445   3.004
 3056SOL    HW1 9542   3.181   1.458   3.091
 3056SOL    HW2 9543   3.068   1.371   3.013
 3057SOL     OW 9544   3.444   0.639   2.334
 3057SOL    HW1 9545   3.413   0.700   2.407
 3057SOL    HW2 9546   3.494   0.691   2.265
 3058SOL     OW 9547   2.216   1.510   3.191
 3058SOL    HW1 9548   2.195   1.466   3.104
 3058SOL    HW2 9549   2.313   1.536   3.194
 3059SOL     OW 9550   2.264   0.751   3.460
 3059SOL    HW1 9551   2.332   0.806   3.413
 3059SOL    HW2 9552   2.304   0.663   3.487
 3060SOL     OW 9553   3.449   0.779   3.532
 3060SOL    HW1 9554   3.357   0.817   3.527
 3060SOL    HW2 9555   3.509   0.826   3.467
 3061SOL     OW 9556   2.875   0.105   3.632
 3061SOL    HW1 9557   2.881   0.190   3.580
 3061SOL    HW2 9558   2.907   0.029   3.575
 3062SOL     OW 9559   2.366   0.050   3.602
 3062SOL    HW1 9560   2.324  -0.007   3.532
 3062SOL    HW2 9561   2.300   0.119   3.634
 3063SOL     OW 9562   2.435   0.870   2.891
 3063SOL    HW1 9563   2.479   0.959   2.882
 3063SOL    HW2 9564   2.372   0.870   2.968
 3064SOL     OW 9565   3.222   0.862   2.907
 3064SOL    HW1 9566   3.147   0.862   2.841
 3064SOL    HW2 9567   3.259   0.770   2.916
 3065SOL     OW 9568   3.071   0.525   2.137
 3065SOL    HW1 9569   3.084   0.441   2.191
 3065SOL    HW2 9570   3.042   0.599   2.197
 3066SOL     OW 9571   2.169   0.213   3.093
 3066SOL    HW1 9572   2.146   0.250   3.183
 3066SOL    HW2 9573   2.139   0.118   3.087
 3067SOL     OW 9574   1.899   1.310   3.144
 3067SOL    HW1 9575   1.952   1.261   3.212
 3067SOL    HW2 9576   1.921   1.408   3.149
 3068SOL     OW 9577   2.594   0.634   2.926
 3068SOL    HW1 9578   2.653   0.608   2.850
 3068SOL    HW2 9579   2.566   0.730   2.915
 3069SOL     OW 9580   3.590   0.935   3.716
 3069SOL    HW1 9581   3.544   0.928   3.627
 3069SOL    HW2 9582   3.528   0.979   3.782
 3070SOL     OW 9583   2.169   0.063   2.480
 3070SOL    HW1 9584   2.158   0.157   2.513
 3070SOL    HW2 9585   2.164   0.000   2.557
 3071SOL     OW 9586   3.484   0.367   2.236
 3071SOL    HW1 9587   3.486   0.291   2.300
 3071SOL    HW2 9588   3.436   0.444   2.276
 3072SOL     OW 9589   2.885   0.766   2.828
 3072SOL    HW1 9590   2.900   0.787   2.924
 3072SOL    HW2 9591   2.855   0.671   2.819
 3073SOL     OW 9592   2.842   1.573   3.562
 3073SOL    HW1 9593   2.822   1.617   3.474
 3073SOL    HW2 9594   2.881   1.482   3.546
 3074SOL     OW 9595   3.721   1.518   3.467
 3074SOL    HW1 9596   3.735   1.545   3.372
 3074SOL    HW2 9597   3.804   1.540   3.520
 3075SOL     OW 9598   2.212   0.898   3.666
 3075SOL    HW1 9599   2.288   0.942   3.714
 3075SOL    HW2 9600   2.247   0.851   3.584
 3076SOL     OW 9601   3.402   0.274   1.987
 3076SOL    HW1 9602   3.341   0.199   2.010
 3076SOL    HW2 9603   3.424   0.326   2.070
 3077SOL     OW 9604   3.165   0.838   1.904
 3077SOL    HW1 9605   3.199   0.745   1.919
 3077SOL    HW2 9606   3.183   0.865   1.809
 3078SOL     OW 9607   2.930   1.333   2.711
 3078SOL    HW1 9608   2.937   1.249   2.656
 3078SOL    HW2 9609   2.992   1.402   2.675
 3079SOL     OW 9610   2.181   0.810   2.811
 3079SOL    HW1 9611   2.274   0.846   2.816
 3079SOL    HW2 9612   2.175   0.725   2.863
 3080SOL     OW 9613   2.201   0.509   2.868
 3080SOL    HW1 9614   2.149   0.426   2.851
 3080SOL    HW2 9615   2.278   0.514   2.804
 3081SOL     OW 9616   3.000   0.380   3.540
 3081SOL    HW1 9617   2.955   0.443   3.604
 3081SOL    HW2 9618   3.093   0.411   3.523
 3082SOL     OW 9619   3.022   0.207   3.339
 3082SOL    HW1 9620   3.022   0.271   3.416
 3082SOL    HW2 9621   3.050   0.255   3.256
 3083SOL     OW 9622   1.870   1.326   2.062
 3083SOL    HW1 9623   1.777   1.347   2.031
 3083SOL    HW2 9624   1.880   1.227   2.075
 3084SOL     OW 9625   1.950   1.801   2.789
 3084SOL    HW1 9626   1.908   1.715   2.762
 3084SOL    HW2 9627   2.044   1.804   2.755
 3085SOL     OW 9628   2.366   1.568   2.772
 3085SOL    HW1 9629   2.432   1.642   2.781
 3085SOL    HW2 9630   2.410   1.489   2.730
 3086SOL     OW 9631   2.864   0.796   3.100
 3086SOL    HW1 9632   2.905   0.764   3.186
 3086SOL    HW2 9633   2.768   0.769   3.097
 3087SOL     OW 9634   1.902   0.544   2.976
 3087SOL    HW1 9635   1.987   0.511   2.935
 3087SOL    HW2 9636   1.915   0.559   3.074
 3088SOL     OW 9637   2.051   0.520   3.584
 3088SOL    HW1 9638   2.110   0.480   3.514
 3088SOL    HW2 9639   1.993   0.591   3.543
 3089SOL     OW 9640   3.231   0.950   3.522
 3089SOL    HW1 9641   3.270   1.039   3.542
 3089SOL    HW2 9642   3.241   0.930   3.425
 3090SOL     OW 9643   2.677   0.572   2.187
 3090SOL    HW1 9644   2.684   0.483   2.141
 3090SOL    HW2 9645   2.583   0.606   2.179
 3091SOL     OW 9646   3.519   0.604   3.068
 3091SOL    HW1 9647   3.481   0.535   3.130
 3091SOL    HW2 9648   3.601   0.568   3.024
 3092SOL     OW 9649   2.114   1.564   3.606
 3092SOL    HW1 9650   2.084   1.621   3.682
 3092SOL    HW2 9651   2.107   1.467   3.632
 3093SOL     OW 9652   2.533   0.464   3.131
 3093SOL    HW1 9653   2.499   0.375   3.101
 3093SOL    HW2 9654   2.559   0.518   3.051
 3094SOL     OW 9655   2.792   1.678   3.327
 3094SOL    HW1 9656   2.768   1.660   3.232
 3094SOL    HW2 9657   2.822   1.772   3.337
 3095SOL     OW 9658   2.335   0.500   2.053
 3095SOL    HW1 9659   2.396   0.580   2.057
 3095SOL    HW2 9660   2.240   0.531   2.060
 3096SOL     OW 9661   2.021   1.137   3.328
 3096SOL    HW1 9662   2.043   1.076   3.404
 3096SOL    HW2 9663   2.031   1.088   3.242
 3097SOL     OW 9664   3.209   1.059   3.096
 3097SOL    HW1 9665   3.233   0.996   3.022
 3097SOL    HW2 9666   3.119   1.099   3.078
 3098SOL     OW 9667   3.164   0.855   2.171
 3098SOL    HW1 9668   3.078   0.824   2.213
 3098SOL    HW2 9669   3.160   0.841   2.072
 3099SOL     OW 9670   3.621   1.747   3.016
 3099SOL    HW1 9671   3.682   1.777   2.943
 3099SOL    HW2 9672   3.583   1.658   2.994
 3100SOL     OW 9673   3.114   1.731   2.990
 3100SOL    HW1 9674   3.198   1.736   2.936
 3100SOL    HW2 9675   3.091   1.635   3.008
 3101SOL     OW 9676   1.945   1.258   2.884
 3101SOL    HW1 9677   1.940   1.257   2.984
 3101SOL    HW2 9678   1.862   1.217   2.846
 3102SOL     OW 9679   2.550   1.662   3.578
 3102SOL    HW1 9680   2.494   1.743   3.587
 3102SOL    HW2 9681   2.602   1.666   3.492
 3103SOL     OW 9682   3.588   0.135   2.385
 3103SOL    HW1 9683   3.661   0.118   2.318
 3103SOL    HW2 9684   3.557   0.048   2.423
 3104SOL     OW 9685   3.250   1.573   2.339
 3104SOL    HW1 9686   3.317   1.585   2.265
 3104SOL    HW2 9687   3.210   1.662   2.362
 3105SOL     OW 9688   1.992   1.794   3.713
 3105SOL    HW1 9689   1.951   1.720   3.766
 3105SOL    HW2 9690   2.056   1.845   3.771
 3106SOL     OW 9691   3.142   0.927   2.534
 3106SOL    HW1 9692   3.202   0.846   2.536
 3106SOL    HW2 9693   3.182   0.996   2.474
 3107SOL     OW 9694   2.692   1.273   3.284
 3107SOL    HW1 9695   2.687   1.306   3.379
 3107SOL    HW2 9696   2.606   1.292   3.238
 3108SOL     OW 9697   2.534   1.616   2.016
 3108SOL    HW1 9698   2.543   1.626   1.917
 3108SOL    HW2 9699   2.494   1.527   2.037
 3109SOL     OW 9700   3.512   1.720   3.256
 3109SOL    HW1 9701   3.565   1.730   3.172
 3109SOL    HW2 9702   3.485   1.810   3.290
 3110SOL     OW 9703   3.703   0.175   2.825
 3110SOL    HW1 9704   3.742   0.090   2.789
 3110SOL    HW2 9705   3.605   0.177   2.806
 3111SOL     OW 9706   2.125   0.326   2.582
 3111SOL    HW1 9707   2.046   0.377   2.548
 3111SOL    HW2 9708   2.116   0.311   2.680
 3112SOL     OW 9709   3.056   1.612   1.893
 3112SOL    HW1 9710   3.062   1.519   1.930
 3112SOL    HW2 9711   2.997   1.612   1.813
 3113SOL     OW 9712   2.684   1.002   3.234
 3113SOL    HW1 9713   2.724   1.001   3.142
 3113SOL    HW2 9714   2.694   1.094   3.274
 3114SOL     OW 9715   2.778   0.910   2.153
 3114SOL    HW1 9716   2.841   0.948   2.085
 3114SOL    HW2 9717   2.818   0.827   2.192
 3115SOL     OW 9718   3.366   1.607   1.906
 3115SOL    HW1 9719   3.274   1.644   1.913
 3115SOL    HW2 9720   3.404   1.627   1.816
 3116SOL     OW 9721   2.234   1.288   3.352
 3116SOL    HW1 9722   2.221   1.381   3.318
 3116SOL    HW2 9723   2.150   1.236   3.339
 3117SOL     OW 9724   3.476   1.292   3.151
 3117SOL    HW1 9725   3.536   1.295   3.231
 3117SOL    HW2 9726   3.401   1.356   3.164
 3118SOL     OW 9727   2.901   1.098   2.558
 3118SOL    HW1 9728   2.831   1.051   2.612
 3118SOL    HW2 9729   2.960   1.030   2.515
 3119SOL     OW 9730   2.876   0.236   2.833
 3119SOL    HW1 9731   2.868   0.200   2.740
 3119SOL    HW2 9732   2.874   0.160   2.898
 3120SOL     OW 9733   2.452   1.487   2.353
 3120SOL    HW1 9734   2.494   1.429   2.283
 3120SOL    HW2 9735   2.408   1.566   2.309
 3121SOL     OW 9736   3.571   0.385   3.243
 3121SOL    HW1 9737   3.644   0.454   3.247
 3121SOL    HW2 9738   3.599   0.310   3.184
 3122SOL     OW 9739   2.117   1.348   2.152
 3122SOL    HW1 9740   2.021   1.349   2.125
 3122SOL    HW2 9741   2.129   1.401   2.236
 3123SOL     OW 9742   1.967   1.013   3.588
 3123SOL    HW1 9743   1.890   0.980   3.642
 3123SOL    HW2 9744   2.052   0.983   3.630
 3124SOL     OW 9745   2.534   0.203   3.351
 3124SOL    HW1 9746   2.624   0.187   3.311
 3124SOL    HW2 9747   2.542   0.208   3.450
 3125SOL     OW 9748   1.937   0.345   1.895
 3125SOL    HW1 9749   1.845   0.317   1.866
 3125SOL    HW2 9750   1.968   0.422   1.839
 3126SOL     OW 9751   3.302   0.856   3.260
 3126SOL    HW1 9752   3.245   0.908   3.197
 3126SOL    HW2 9753   3.398   0.868   3.236
 3127SOL     OW 9754   1.934   0.166   2.180
 3127SOL    HW1 9755   1.917   0.249   2.126
 3127SOL    HW2 9756   2.024   0.129   2.158
 3128SOL     OW 9757   3.045   1.335   1.981
 3128SOL    HW1 9758   2.946   1.324   1.983
 3128SOL    HW2 9759   3.079   1.350   2.074
 3129SOL     OW 9760   2.475   0.842   3.293
 3129SOL    HW1 9761   2.531   0.923   3.276
 3129SOL    HW2 9762   2.534   0.762   3.296
 3130SOL     OW 9763   3.355   1.767   2.821
 3130SOL    HW1 9764   3.388   1.831   2.752
 3130SOL    HW2 9765   3.421   1.761   2.896
 3131SOL     OW 9766   2.578   0.565   3.570
 3131SOL    HW1 9767   2.597   0.630   3.644
 3131SOL    HW2 9768   2.638   0.485   3.579
 3132SOL     OW 9769   3.312   1.220   3.495
 3132SOL    HW1 9770   3.303   1.210   3.594
 3132SOL    HW2 9771   3.408   1.213   3.469
 3133SOL     OW 9772   2.252   1.741   3.422
 3133SOL    HW1 9773   2.161   1.782   3.420
 3133SOL    HW2 9774   2.245   1.647   3.454
 3134SOL     OW 9775   3.536   0.883   3.116
 3134SOL    HW1 9776   3.509   0.794   3.079
 3134SOL    HW2 9777   3.537   0.951   3.043
 3135SOL     OW 9778   3.087   0.325   2.311
 3135SOL    HW1 9779   3.152   0.251   2.300
 3135SOL    HW2 9780   3.107   0.375   2.395
 3136SOL     OW 9781   2.456   0.745   2.514
 3136SOL    HW1 9782   2.506   0.830   2.495
 3136SOL    HW2 9783   2.368   0.747   2.466
 3137SOL     OW 9784   3.639   0.342   3.504
 3137SOL    HW1 9785   3.622   0.373   3.410
 3137SOL    HW2 9786   3.555   0.305   3.542
 3138SOL     OW 9787   3.592   0.934   3.379
 3138SOL    HW1 9788   3.630   1.025   3.394
 3138SOL    HW2 9789   3.584   0.917   3.280
 3139SOL     OW 9790   2.721   1.374   1.878
 3139SOL    HW1 9791   2.675   1.389   1.966
 3139SOL    HW2 9792   2.765   1.459   1.848
 3140SOL     OW 9793   2.523   1.790   2.815
 3140SOL    HW1 9794   2.477   1.878   2.802
 3140SOL    HW2 9795   2.622   1.802   2.808
 3141SOL     OW 9796   2.721   0.956   2.723
 3141SOL    HW1 9797   2.775   0.887   2.771
 3141SOL    HW2 9798   2.689   1.025   2.789
 3142SOL     OW 9799   2.945   0.984   1.949
 3142SOL    HW1 9800   2.922   1.037   1.867
 3142SOL    HW2 9801   3.026   0.928   1.930
 3143SOL     OW 9802   3.723   1.569   2.713
 3143SOL    HW1 9803   3.652   1.557   2.643
 3143SOL    HW2 9804   3.724   1.490   2.773
 3144SOL     OW 9805   2.083   1.314   3.706
 3144SOL    HW1 9806   2.018   1.241   3.685
 3144SOL    HW2 9807   2.087   1.328   3.804
 3145SOL     OW 9808   1.941   1.240   2.515
 3145SOL    HW1 9809   1.940   1.193   2.603
 3145SOL    HW2 9810   2.023   1.212   2.464
 3146SOL     OW 9811   2.534   1.391   3.486
 3146SOL    HW1 9812   2.456   1.341   3.524
 3146SOL    HW2 9813   2.531   1.486   3.517
 3147SOL     OW 9814   3.686   0.192   3.089
 3147SOL    HW1 9815   3.682   0.102   3.133
 3147SOL    HW2 9816   3.689   0.181   2.990
 3148SOL     OW 9817   2.290   0.424   2.382
 3148SOL    HW1 9818   2.320   0.352   2.320
 3148SOL    HW2 9819   2.251   0.384   2.465
 3149SOL     OW 9820   3.567   1.487   2.966
 3149SOL    HW1 9821   3.474   1.462   2.939
 3149SOL    HW2 9822   3.593   1.437   3.048
 3150SOL     OW 9823   2.179   0.547   3.142
 3150SOL    HW1 9824   2.217   0.488   3.214
 3150SOL    HW2 9825   2.219   0.521   3.054
 3151SOL     OW 9826   2.674   1.586   2.549
 3151SOL    HW1 9827   2.706   1.596   2.455
 3151SOL    HW2 9828   2.595   1.524   2.551
 3152SOL     OW 9829   3.286   0.214   2.974
 3152SOL    HW1 9830   3.338   0.149   3.029
 3152SOL    HW2 9831   3.237   0.277   3.035
 3153SOL     OW 9832   2.863   0.034   3.016
 3153SOL    HW1 9833   2.800  -0.038   2.985
 3153SOL    HW2 9834   2.956  -0.002   3.016
 3154SOL     OW 9835   2.632   1.330   2.163
 3154SOL    HW1 9836   2.586   1.243   2.180
 3154SOL    HW2 9837   2.723   1.327   2.204
 3155SOL     OW 9838   2.480   1.567   3.146
 3155SOL    HW1 9839   2.475   1.649   3.203
 3155SOL    HW2 9840   2.569   1.564   3.101
 3156SOL     OW 9841   3.214   0.052   2.030
 3156SOL    HW1 9842   3.249   0.011   1.946
 3156SOL    HW2 9843   3.124   0.014   2.050
 3157SOL     OW 9844   3.162   0.453   2.553
 3157SOL    HW1 9845   3.103   0.533   2.557
 3157SOL    HW2 9846   3.177   0.418   2.646
 3158SOL     OW 9847   3.455   0.221   2.744
 3158SOL    HW1 9848   3.371   0.220   2.798
 3158SOL    HW2 9849   3.457   0.304   2.688
 3159SOL     OW 9850   1.901   1.077   2.162
 3159SOL    HW1 9851   2.000   1.066   2.153
 3159SOL    HW2 9852   1.861   0.991   2.194
 3160SOL     OW 9853   2.737   1.646   2.199
 3160SOL    HW1 9854   2.660   1.611   2.145
 3160SOL    HW2 9855   2.705   1.717   2.261
 3161SOL     OW 9856   2.092   0.628   3.837
 3161SOL    HW1 9857   1.999   0.626   3.874
 3161SOL    HW2 9858   2.093   0.589   3.745
 3162SOL     OW 9859   2.087   0.275   4.720
 3162SOL    HW1 9860   2.122   0.258   4.812
 3162SOL    HW2 9861   1.999   0.230   4.708
 3163SOL     OW 9862   1.881   0.368   4.371
 3163SOL    HW1 9863   1.799   0.411   4.410
 3163SOL    HW2 9864   1.853   0.295   4.308
 3164SOL     OW 9865   2.431   1.275   4.889
 3164SOL    HW1 9866   2.338   1.268   4.852
 3164SOL    HW2 9867   2.442   1.364   4.933
 3165SOL     OW 9868   3.417   1.511   4.427
 3165SOL    HW1 9869   3.360   1.495   4.508
 3165SOL    HW2 9870   3.358   1.521   4.347
 3166SOL     OW 9871   2.997   0.703   4.441
 3166SOL    HW1 9872   3.054   0.781   4.416
 3166SOL    HW2 9873   2.937   0.729   4.517
 3167SOL     OW 9874   3.617   0.607   3.955
 3167SOL    HW1 9875   3.605   0.594   3.856
 3167SOL    HW2 9876   3.587   0.526   4.004
 3168SOL     OW 9877   2.630   1.144   4.747
 3168SOL    HW1 9878   2.552   1.161   4.807
 3168SOL    HW2 9879   2.664   1.231   4.711
 3169SOL     OW 9880   2.712   0.798   5.547
 3169SOL    HW1 9881   2.708   0.874   5.612
 3169SOL    HW2 9882   2.734   0.834   5.456
 3170SOL     OW 9883   2.547   1.012   4.389
 3170SOL    HW1 9884   2.616   0.996   4.459
 3170SOL    HW2 9885   2.474   1.069   4.427
 3171SOL     OW 9886   2.548   1.161   5.527
 3171SOL    HW1 9887   2.608   1.240   5.541
 3171SOL    HW2 9888   2.462   1.192   5.486
 3172SOL     OW 9889   2.197   1.435   4.785
 3172SOL    HW1 9890   2.119   1.404   4.732
 3172SOL    HW2 9891   2.255   1.493   4.728
 3173SOL     OW 9892   3.322   1.505   5.063
 3173SOL    HW1 9893   3.346   1.599   5.089
 3173SOL    HW2 9894   3.306   1.451   5.145
 3174SOL     OW 9895   2.300   0.392   5.223
 3174SOL    HW1 9896   2.382   0.336   5.232
 3174SOL    HW2 9897   2.219   0.334   5.227
 3175SOL     OW 9898   3.465   0.447   4.461
 3175SOL    HW1 9899   3.391   0.493   4.411
 3175SOL    HW2 9900   3.516   0.515   4.514
 3176SOL     OW 9901   2.989   1.341   5.414
 3176SOL    HW1 9902   3.036   1.341   5.502
 3176SOL    HW2 9903   2.941   1.254   5.403
 3177SOL     OW 9904   2.092   1.434   4.262
 3177SOL    HW1 9905   2.066   1.530   4.262
 3177SOL    HW2 9906   2.021   1.380   4.307
 3178SOL     OW 9907   2.102   1.091   4.610
 3178SOL    HW1 9908   2.116   1.007   4.662
 3178SOL    HW2 9909   2.047   1.155   4.665
 3179SOL     OW 9910   2.482   1.786   5.163
 3179SOL    HW1 9911   2.390   1.769   5.198
 3179SOL    HW2 9912   2.510   1.878   5.189
 3180SOL     OW 9913   2.468   0.964   3.847
 3180SOL    HW1 9914   2.475   1.048   3.793
 3180SOL    HW2 9915   2.514   0.977   3.935
 3181SOL     OW 9916   3.456   0.114   5.204
 3181SOL    HW1 9917   3.438   0.181   5.132
 3181SOL    HW2 9918   3.453   0.160   5.293
 3182SOL     OW 9919   1.984   0.643   4.287
 3182SOL    HW1 9920   1.939   0.555   4.304
 3182SOL    HW2 9921   1.983   0.697   4.371
 3183SOL     OW 9922   3.704   1.767   4.083
 3183SOL    HW1 9923   3.758   1.738   4.163
 3183SOL    HW2 9924   3.734   1.857   4.054
 3184SOL     OW 9925   1.889   1.596   3.841
 3184SOL    HW1 9926   1.870   1.500   3.862
 3184SOL    HW2 9927   1.856   1.654   3.916
 3185SOL     OW 9928   3.551   0.922   4.336
 3185SOL    HW1 9929   3.646   0.893   4.344
 3185SOL    HW2 9930   3.543   0.987   4.261
 3186SOL     OW 9931   3.503   1.108   4.156
 3186SOL    HW1 9932   3.589   1.110   4.104
 3186SOL    HW2 9933   3.517   1.155   4.244
 3187SOL     OW 9934   1.975   0.737   5.321
 3187SOL    HW1 9935   2.063   0.724   5.366
 3187SOL    HW2 9936   1.962   0.834   5.299
 3188SOL     OW 9937   2.475   1.365   4.450
 3188SOL    HW1 9938   2.426   1.278   4.459
 3188SOL    HW2 9939   2.452   1.408   4.363
 3189SOL     OW 9940   3.155   1.228   5.147
 3189SOL    HW1 9941   3.192   1.155   5.089
 3189SOL    HW2 9942   3.207   1.233   5.232
 3190SOL     OW 9943   2.671   0.004   4.226
 3190SOL    HW1 9944   2.711   0.095   4.217
 3190SOL    HW2 9945   2.571   0.012   4.232
 3191SOL     OW 9946   2.059   0.976   4.988
 3191SOL    HW1 9947   2.148   0.931   4.974
 3191SOL    HW2 9948   1.986   0.911   4.969
 3192SOL     OW 9949   3.387   0.999   3.914
 3192SOL    HW1 9950   3.324   0.923   3.927
 3192SOL    HW2 9951   3.435   1.017   4.000
 3193SOL     OW 9952   3.049   1.792   5.340
 3193SOL    HW1 9953   3.073   1.852   5.264
 3193SOL    HW2 9954   3.056   1.697   5.310
 3194SOL     OW 9955   2.179   0.251   5.525
 3194SOL    HW1 9956   2.250   0.322   5.531
 3194SOL    HW2 9957   2.091   0.290   5.553
 3195SOL     OW 9958   3.328   1.417   4.677
 3195SOL    HW1 9959   3.269   1.423   4.757
 3195SOL    HW2 9960   3.313   1.329   4.631
 3196SOL     OW 9961   3.529   1.714   4.296
 3196SOL    HW1 9962   3.488   1.691   4.208
 3196SOL    HW2 9963   3.511   1.640   4.361
 3197SOL     OW 9964   2.460   0.729   3.994
 3197SOL    HW1 9965   2.484   0.798   3.926
 3197SOL    HW2 9966   2.382   0.762   4.048
 3198SOL     OW 9967   3.143   0.345   4.668
 3198SOL    HW1 9968   3.057   0.295   4.655
 3198SOL    HW2 9969   3.205   0.291   4.724
 3199SOL     OW 9970   3.438   1.662   4.031
 3199SOL    HW1 9971   3.527   1.708   4.034
 3199SOL    HW2 9972   3.417   1.638   3.936
 3200SOL     OW 9973   2.669   0.605   5.189
 3200SOL    HW1 9974   2.622   0.602   5.278
 3200SOL    HW2 9975   2.618   0.550   5.123
 3201SOL     OW 9976   3.256   0.469   5.398
 3201SOL    HW1 9977   3.236   0.512   5.486
 3201SOL    HW2 9978   3.334   0.407   5.407
 3202SOL     OW 9979   2.835   0.890   5.296
 3202SOL    HW1 9980   2.881   0.806   5.267
 3202SOL    HW2 9981   2.779   0.924   5.221
 3203SOL     OW 9982   2.853   0.410   4.966
 3203SOL    HW1 9983   2.776   0.444   5.020
 3203SOL    HW2 9984   2.819   0.359   4.887
 3204SOL     OW 9985   2.903   0.701   4.153
 3204SOL    HW1 9986   2.929   0.697   4.249
 3204SOL    HW2 9987   2.818   0.650   4.139
 3205SOL     OW 9988   1.938   0.811   4.513
 3205SOL    HW1 9989   2.037   0.799   4.522
 3205SOL    HW2 9990   1.914   0.906   4.534
 3206SOL     OW 9991   1.992   1.821   5.295
 3206SOL    HW1 9992   1.982   1.806   5.394
 3206SOL    HW2 9993   1.906   1.857   5.259
 3207SOL     OW 9994   2.727   0.348   3.919
 3207SOL    HW1 9995   2.786   0.411   3.870
 3207SOL    HW2 9996   2.746   0.254   3.890
 3208SOL     OW 9997   3.581   0.585   5.555
 3208SOL    HW1 9998   3.555   0.674   5.519
 3208SOL    HW2 9999   3.579   0.517   5.482
 3209SOL     OW10000   3.224   1.144   4.269
 3209SOL    HW110001   3.307   1.115   4.221
 3209SOL    HW210002   3.175   1.211   4.213
 3210SOL     OW10003   2.412   0.196   4.609
 3210SOL    HW110004   2.407   0.191   4.709
 3210SOL    HW210005   2.414   0.292   4.580
 3211SOL     OW10006   2.870   1.456   4.201
 3211SOL    HW110007   2.824   1.528   4.149
 3211SOL    HW210008   2.866   1.476   4.299
 3212SOL     OW10009   3.657   1.066   4.597
 3212SOL    HW110010   3.595   1.051   4.521
 3212SOL    HW210011   3.605   1.077   4.682
 3213SOL     OW10012   3.089   1.550   5.230
 3213SOL    HW110013   3.095   1.473   5.294
 3213SOL    HW210014   3.037   1.524   5.150
 3214SOL     OW10015   2.183   0.943   3.966
 3214SOL    HW110016   2.265   0.982   3.924
 3214SOL    HW210017   2.156   0.861   3.917
 3215SOL     OW10018   3.320   0.735   4.452
 3215SOL    HW110019   3.315   0.670   4.527
 3215SOL    HW210020   3.400   0.794   4.465
 3216SOL     OW10021   2.323   1.266   5.451
 3216SOL    HW110022   2.273   1.267   5.365
 3216SOL    HW210023   2.260   1.248   5.527
 3217SOL     OW10024   2.973   1.776   3.961
 3217SOL    HW110025   2.913   1.714   4.011
 3217SOL    HW210026   3.004   1.732   3.876
 3218SOL     OW10027   2.064   0.285   5.222
 3218SOL    HW110028   1.984   0.345   5.209
 3218SOL    HW210029   2.054   0.236   5.308
 3219SOL     OW10030   3.494   1.377   3.805
 3219SOL    HW110031   3.462   1.471   3.795
 3219SOL    HW210032   3.418   1.314   3.793
 3220SOL     OW10033   3.262   0.107   4.150
 3220SOL    HW110034   3.238   0.070   4.060
 3220SOL    HW210035   3.361   0.123   4.154
 3221SOL     OW10036   2.111   1.785   4.965
 3221SOL    HW110037   2.168   1.720   5.015
 3221SOL    HW210038   2.095   1.752   4.872
 3222SOL     OW10039   2.244   0.700   4.204
 3222SOL    HW110040   2.289   0.610   4.201
 3222SOL    HW210041   2.150   0.689   4.237
 3223SOL     OW10042   3.409   0.222   5.453
 3223SOL    HW110043   3.404   0.259   5.545
 3223SOL    HW210044   3.337   0.153   5.441
 3224SOL     OW10045   2.476   0.122   3.841
 3224SOL    HW110046   2.574   0.100   3.848
 3224SOL    HW210047   2.445   0.105   3.748
 3225SOL     OW10048   2.643   0.264   5.473
 3225SOL    HW110049   2.710   0.203   5.516
 3225SOL    HW210050   2.570   0.283   5.538
 3226SOL     OW10051   2.750   1.514   4.919
 3226SOL    HW110052   2.727   1.489   4.825
 3226SOL    HW210053   2.811   1.445   4.958
 3227SOL     OW10054   3.213   0.590   5.157
 3227SOL    HW110055   3.241   0.547   5.242
 3227SOL    HW210056   3.238   0.686   5.158
 3228SOL     OW10057   2.665   1.402   4.648
 3228SOL    HW110058   2.755   1.416   4.606
 3228SOL    HW210059   2.594   1.404   4.577
 3229SOL     OW10060   2.784   0.503   4.623
 3229SOL    HW110061   2.759   0.494   4.527
 3229SOL    HW210062   2.832   0.421   4.654
 3230SOL     OW10063   2.401   0.064   4.236
 3230SOL    HW110064   2.320   0.065   4.294
 3230SOL    HW210065   2.404   0.147   4.181
 3231SOL     OW10066   3.296   1.188   3.765
 3231SOL    HW110067   3.328   1.112   3.822
 3231SOL    HW210068   3.204   1.215   3.795
 3232SOL     OW10069   2.159   0.035   3.895
 3232SOL    HW110070   2.208   0.119   3.874
 3232SOL    HW210071   2.221  -0.030   3.940
 3233SOL     OW10072   2.797   0.236   4.204
 3233SOL    HW110073   2.749   0.277   4.126
 3233SOL    HW210074   2.896   0.234   4.185
 3234SOL     OW10075   2.938   0.683   5.188
 3234SOL    HW110076   2.858   0.622   5.191
 3234SOL    HW210077   3.019   0.630   5.164
 3235SOL     OW10078   3.089   1.570   4.517
 3235SOL    HW110079   3.110   1.644   4.452
 3235SOL    HW210080   3.157   1.570   4.590
 3236SOL     OW10081   2.321   1.152   4.465
 3236SOL    HW110082   2.250   1.125   4.530
 3236SOL    HW210083   2.295   1.124   4.372
 3237SOL     OW10084   3.133   1.797   4.315
 3237SOL    HW110085   3.177   1.861   4.251
 3237SOL    HW210086   3.083   1.849   4.385
 3238SOL     OW10087   2.894   0.549   3.740
 3238SOL    HW110088   2.853   0.631   3.701
 3238SOL    HW210089   2.958   0.575   3.813
 3239SOL     OW10090   1.940   0.556   5.110
 3239SOL    HW110091   2.032   0.555   5.069
 3239SOL    HW210092   1.934   0.630   5.177
 3240SOL     OW10093   2.423   0.222   4.871
 3240SOL    HW110094   2.461   0.138   4.908
 3240SOL    HW210095   2.335   0.241   4.915
 3241SOL     OW10096   2.728   0.454   4.366
 3241SOL    HW110097   2.696   0.526   4.304
 3241SOL    HW210098   2.752   0.373   4.313
 3242SOL     OW10099   2.879   0.039   4.477
 3242SOL    HW110100   2.807   0.044   4.408
 3242SOL    HW210101   2.855  -0.030   4.546
 3243SOL     OW10102   3.291   1.173   4.591
 3243SOL    HW110103   3.236   1.089   4.584
 3243SOL    HW210104   3.317   1.202   4.499
 3244SOL     OW10105   3.328   0.590   4.716
 3244SOL    HW110106   3.298   0.495   4.723
 3244SOL    HW210107   3.401   0.606   4.782
 3245SOL     OW10108   3.719   0.833   4.101
 3245SOL    HW110109   3.761   0.769   4.165
 3245SOL    HW210110   3.681   0.782   4.023
 3246SOL     OW10111   2.350   1.385   3.898
 3246SOL    HW110112   2.263   1.370   3.945
 3246SOL    HW210113   2.333   1.411   3.803
 3247SOL     OW10114   3.526   1.280   4.381
 3247SOL    HW110115   3.625   1.288   4.395
 3247SOL    HW210116   3.481   1.364   4.412
 3248SOL     OW10117   3.252   0.575   3.802
 3248SOL    HW110118   3.198   0.554   3.883
 3248SOL    HW210119   3.343   0.534   3.811
 3249SOL     OW10120   2.389   0.256   4.052
 3249SOL    HW110121   2.416   0.197   3.977
 3249SOL    HW210122   2.389   0.351   4.021
 3250SOL     OW10123   3.616   1.223   5.312
 3250SOL    HW110124   3.707   1.184   5.299
 3250SOL    HW210125   3.624   1.319   5.336
 3251SOL     OW10126   2.926   1.347   5.064
 3251SOL    HW110127   2.846   1.324   5.119
 3251SOL    HW210128   3.009   1.321   5.113
 3252SOL     OW10129   3.454   1.629   5.349
 3252SOL    HW110130   3.481   1.663   5.259
 3252SOL    HW210131   3.533   1.591   5.395
 3253SOL     OW10132   2.973   1.195   4.824
 3253SOL    HW110133   2.933   1.239   4.905
 3253SOL    HW210134   2.932   1.232   4.741
 3254SOL     OW10135   3.500   1.099   4.803
 3254SOL    HW110136   3.505   1.180   4.862
 3254SOL    HW210137   3.414   1.101   4.752
 3255SOL     OW10138   2.777   0.089   5.126
 3255SOL    HW110139   2.802   0.069   5.031
 3255SOL    HW210140   2.849   0.145   5.168
 3256SOL     OW10141   2.842   1.116   5.443
 3256SOL    HW110142   2.743   1.122   5.453
 3256SOL    HW210143   2.865   1.036   5.387
 3257SOL     OW10144   2.567   1.050   4.092
 3257SOL    HW110145   2.553   1.057   4.191
 3257SOL    HW210146   2.651   0.999   4.074
 3258SOL     OW10147   2.272   0.813   4.975
 3258SOL    HW110148   2.358   0.825   5.025
 3258SOL    HW210149   2.230   0.726   5.002
 3259SOL     OW10150   3.136   0.386   4.986
 3259SOL    HW110151   3.157   0.460   5.050
 3259SOL    HW210152   3.047   0.403   4.943
 3260SOL     OW10153   1.926   1.564   5.055
 3260SOL    HW110154   1.880   1.646   5.021
 3260SOL    HW210155   2.024   1.583   5.064
 3261SOL     OW10156   2.229   1.100   4.225
 3261SOL    HW110157   2.222   1.183   4.169
 3261SOL    HW210158   2.233   1.020   4.165
 3262SOL     OW10159   2.428   0.537   4.589
 3262SOL    HW110160   2.440   0.603   4.515
 3262SOL    HW210161   2.474   0.571   4.672
 3263SOL     OW10162   3.114   1.348   4.112
 3263SOL    HW110163   3.164   1.425   4.152
 3263SOL    HW210164   3.019   1.350   4.144
 3264SOL     OW10165   3.134   1.445   4.866
 3264SOL    HW110166   3.181   1.458   4.953
 3264SOL    HW210167   3.068   1.371   4.875
 3265SOL     OW10168   3.444   0.639   4.196
 3265SOL    HW110169   3.413   0.700   4.269
 3265SOL    HW210170   3.494   0.691   4.127
 3266SOL     OW10171   2.216   1.510   5.053
 3266SOL    HW110172   2.195   1.466   4.966
 3266SOL    HW210173   2.313   1.536   5.056
 3267SOL     OW10174   2.264   0.751   5.322
 3267SOL    HW110175   2.332   0.806   5.275
 3267SOL    HW210176   2.304   0.663   5.349
 3268SOL     OW10177   3.449   0.779   5.394
 3268SOL    HW110178   3.357   0.817   5.389
 3268SOL    HW210179   3.509   0.826   5.329
 3269SOL     OW10180   2.875   0.105   5.494
 3269SOL    HW110181   2.881   0.190   5.442
 3269SOL    HW210182   2.907   0.029   5.437
 3270SOL     OW10183   2.366   0.050   5.464
 3270SOL    HW110184   2.324  -0.007   5.394
 3270SOL    HW210185   2.300   0.119   5.496
 3271SOL     OW10186   2.435   0.870   4.753
 3271SOL    HW110187   2.479   0.959   4.744
 3271SOL    HW210188   2.372   0.870   4.830
 3272SOL     OW10189   3.222   0.862   4.769
 3272SOL    HW110190   3.147   0.862   4.703
 3272SOL    HW210191   3.259   0.770   4.778
 3273SOL     OW10192   3.071   0.525   3.999
 3273SOL    HW110193   3.084   0.441   4.053
 3273SOL    HW210194   3.042   0.599   4.059
 3274SOL     OW10195   2.169   0.213   4.955
 3274SOL    HW110196   2.146   0.250   5.045
 3274SOL    HW210197   2.139   0.118   4.949
 3275SOL     OW10198   1.899   1.310   5.006
 3275SOL    HW110199   1.952   1.261   5.074
 3275SOL    HW210200   1.921   1.408   5.011
 3276SOL     OW10201   2.594   0.634   4.788
 3276SOL    HW110202   2.653   0.608   4.712
 3276SOL    HW210203   2.566   0.730   4.777
 3277SOL     OW10204   3.590   0.935   5.578
 3277SOL    HW110205   3.544   0.928   5.489
 3277SOL    HW210206   3.528   0.979   5.644
 3278SOL     OW10207   2.169   0.063   4.342
 3278SOL    HW110208   2.158   0.157   4.375
 3278SOL    HW210209   2.164   0.000   4.419
 3279SOL     OW10210   3.484   0.367   4.098
 3279SOL    HW110211   3.486   0.291   4.162
 3279SOL    HW210212   3.436   0.444   4.138
 3280SOL     OW10213   2.885   0.766   4.690
 3280SOL    HW110214   2.900   0.787   4.786
 3280SOL    HW210215   2.855   0.671   4.681
 3281SOL     OW10216   2.842   1.573   5.424
 3281SOL    HW110217   2.822   1.617   5.336
 3281SOL    HW210218   2.881   1.482   5.408
 3282SOL     OW10219   3.721   1.518   5.329
 3282SOL    HW110220   3.735   1.545   5.234
 3282SOL    HW210221   3.804   1.540   5.382
 3283SOL     OW10222   2.212   0.898   5.528
 3283SOL    HW110223   2.288   0.942   5.576
 3283SOL    HW210224   2.247   0.851   5.446
 3284SOL     OW10225   3.402   0.274   3.849
 3284SOL    HW110226   3.341   0.199   3.872
 3284SOL    HW210227   3.424   0.326   3.932
 3285SOL     OW10228   3.165   0.838   3.766
 3285SOL    HW110229   3.199   0.745   3.781
 3285SOL    HW210230   3.183   0.865   3.671
 3286SOL     OW10231   2.930   1.333   4.573
 3286SOL    HW110232   2.937   1.249   4.518
 3286SOL    HW210233   2.992   1.402   4.537
 3287SOL     OW10234   2.181   0.810   4.673
 3287SOL    HW110235   2.274   0.846   4.678
 3287SOL    HW210236   2.175   0.725   4.725
 3288SOL     OW10237   2.201   0.509   4.730
 3288SOL    HW110238   2.149   0.426   4.713
 3288SOL    HW210239   2.278   0.514   4.666
 3289SOL     OW10240   3.000   0.380   5.402
 3289SOL    HW110241   2.955   0.443   5.466
 3289SOL    HW210242   3.093   0.411   5.385
 3290SOL     OW10243   3.022   0.207   5.201
 3290SOL    HW110244   3.022   0.271   5.278
 3290SOL    HW210245   3.050   0.255   5.118
 3291SOL     OW10246   1.870   1.326   3.924
 3291SOL    HW110247   1.777   1.347   3.893
 3291SOL    HW210248   1.880   1.227   3.937
 3292SOL     OW10249   1.950   1.801   4.651
 3292SOL    HW110250   1.908   1.715   4.624
 3292SOL    HW210251   2.044   1.804   4.617
 3293SOL     OW10252   2.366   1.568   4.634
 3293SOL    HW110253   2.432   1.642   4.643
 3293SOL    HW210254   2.410   1.489   4.592
 3294SOL     OW10255   2.864   0.796   4.962
 3294SOL    HW110256   2.905   0.764   5.048
 3294SOL    HW210257   2.768   0.769   4.959
 3295SOL     OW10258   1.902   0.544   4.838
 3295SOL    HW110259   1.987   0.511   4.797
 3295SOL    HW210260   1.915   0.559   4.936
 3296SOL     OW10261   2.051   0.520   5.446
 3296SOL    HW110262   2.110   0.480   5.376
 3296SOL    HW210263   1.993   0.591   5.405
 3297SOL     OW10264   3.231   0.950   5.384
 3297SOL    HW110265   3.270   1.039   5.404
 3297SOL    HW210266   3.241   0.930   5.287
 3298SOL     OW10267   2.677   0.572   4.049
 3298SOL    HW110268   2.684   0.483   4.003
 3298SOL    HW210269   2.583   0.606   4.041
 3299SOL     OW10270   3.519   0.604   4.930
 3299SOL    HW110271   3.481   0.535   4.992
 3299SOL    HW210272   3.601   0.568   4.886
 3300SOL     OW10273   2.114   1.564   5.468
 3300SOL    HW110274   2.084   1.621   5.544
 3300SOL    HW210275   2.107   1.467   5.494
 3301SOL     OW10276   2.533   0.464   4.993
 3301SOL    HW110277   2.499   0.375   4.963
 3301SOL    HW210278   2.559   0.518   4.913
 3302SOL     OW10279   2.792   1.678   5.189
 3302SOL    HW110280   2.768   1.660   5.094
 3302SOL    HW210281   2.822   1.772   5.199
 3303SOL     OW10282   2.335   0.500   3.915
 3303SOL    HW110283   2.396   0.580   3.919
 3303SOL    HW210284   2.240   0.531   3.922
 3304SOL     OW10285   2.021   1.137   5.190
 3304SOL    HW110286   2.043   1.076   5.266
 3304SOL    HW210287   2.031   1.088   5.104
 3305SOL     OW10288   3.209   1.059   4.958
 3305SOL    HW110289   3.233   0.996   4.884
 3305SOL    HW210290   3.119   1.099   4.940
 3306SOL     OW10291   3.164   0.855   4.033
 3306SOL    HW110292   3.078   0.824   4.075
 3306SOL    HW210293   3.160   0.841   3.934
 3307SOL     OW10294   3.621   1.747   4.878
 3307SOL    HW110295   3.682   1.777   4.805
 3307SOL    HW210296   3.583   1.658   4.856
 3308SOL     OW10297   3.114   1.731   4.852
 3308SOL    HW110298   3.198   1.736   4.798
 3308SOL    HW210299   3.091   1.635   4.870
 3309SOL     OW10300   1.945   1.258   4.746
 3309SOL    HW110301   1.940   1.257   4.846
 3309SOL    HW210302   1.862   1.217   4.708
 3310SOL     OW10303   2.550   1.662   5.440
 3310SOL    HW110304   2.494   1.743   5.449
 3310SOL    HW210305   2.602   1.666   5.354
 3311SOL     OW10306   3.588   0.135   4.247
 3311SOL    HW110307   3.661   0.118   4.180
 3311SOL    HW210308   3.557   0.048   4.285
 3312SOL     OW10309   3.250   1.573   4.201
 3312SOL    HW110310   3.317   1.585   4.127
 3312SOL    HW210311   3.210   1.662   4.224
 3313SOL     OW10312   1.992   1.794   5.575
 3313SOL    HW110313   1.951   1.720   5.628
 3313SOL    HW210314   2.056   1.845   5.633
 3314SOL     OW10315   3.142   0.927   4.396
 3314SOL    HW110316   3.202   0.846   4.398
 3314SOL    HW210317   3.182   0.996   4.336
 3315SOL     OW10318   2.692   1.273   5.146
 3315SOL    HW110319   2.687   1.306   5.241
 3315SOL    HW210320   2.606   1.292   5.100
 3316SOL     OW10321   2.534   1.616   3.878
 3316SOL    HW110322   2.543   1.626   3.779
 3316SOL    HW210323   2.494   1.527   3.899
 3317SOL     OW10324   3.512   1.720   5.118
 3317SOL    HW110325   3.565   1.730   5.034
 3317SOL    HW210326   3.485   1.810   5.152
 3318SOL     OW10327   3.703   0.175   4.687
 3318SOL    HW110328   3.742   0.090   4.651
 3318SOL    HW210329   3.605   0.177   4.668
 3319SOL     OW10330   2.125   0.326   4.444
 3319SOL    HW110331   2.046   0.377   4.410
 3319SOL    HW210332   2.116   0.311   4.542
 3320SOL     OW10333   3.056   1.612   3.755
 3320SOL    HW110334   3.062   1.519   3.792
 3320SOL    HW210335   2.997   1.612   3.675
 3321SOL     OW10336   2.684   1.002   5.096
 3321SOL    HW110337   2.724   1.001   5.004
 3321SOL    HW210338   2.694   1.094   5.136
 3322SOL     OW10339   2.778   0.910   4.015
 3322SOL    HW110340   2.841   0.948   3.947
 3322SOL    HW210341   2.818   0.827   4.054
 3323SOL     OW10342   3.366   1.607   3.768
 3323SOL    HW110343   3.274   1.644   3.775
 3323SOL    HW210344   3.404   1.627   3.678
 3324SOL     OW10345   2.234   1.288   5.214
 3324SOL    HW110346   2.221   1.381   5.180
 3324SOL    HW210347   2.150   1.236   5.201
 3325SOL     OW10348   3.476   1.292   5.013
 3325SOL    HW110349   3.536   1.295   5.093
 3325SOL    HW210350   3.401   1.356   5.026
 3326SOL     OW10351   2.901   1.098   4.420
 3326SOL    HW110352   2.831   1.051   4.474
 3326SOL    HW210353   2.960   1.030   4.377
 3327SOL     OW10354   2.876   0.236   4.695
 3327SOL    HW110355   2.868   0.200   4.602
 3327SOL    HW210356   2.874   0.160   4.760
 3328SOL     OW10357   2.452   1.487   4.215
 3328SOL    HW110358   2.494   1.429   4.145
 3328SOL    HW210359   2.408   1.566   4.171
 3329SOL     OW10360   3.571   0.385   5.105
 3329SOL    HW110361   3.644   0.454   5.109
 3329SOL    HW210362   3.599   0.310   5.046
 3330SOL     OW10363   2.117   1.348   4.014
 3330SOL    HW110364   2.021   1.349   3.987
 3330SOL    HW210365   2.129   1.401   4.098
 3331SOL     OW10366   1.967   1.013   5.450
 3331SOL    HW110367   1.890   0.980   5.504
 3331SOL    HW210368   2.052   0.983   5.492
 3332SOL     OW10369   2.534   0.203   5.213
 3332SOL    HW110370   2.624   0.187   5.173
 3332SOL    HW210371   2.542   0.208   5.312
 3333SOL     OW10372   1.937   0.345   3.757
 3333SOL    HW110373   1.845   0.317   3.728
 3333SOL    HW210374   1.968   0.422   3.701
 3334SOL     OW10375   3.302   0.856   5.122
 3334SOL    HW110376   3.245   0.908   5.059
 3334SOL    HW210377   3.398   0.868   5.098
 3335SOL     OW10378   1.934   0.166   4.042
 3335SOL    HW110379   1.917   0.249   3.988
 3335SOL    HW210380   2.024   0.129   4.020
 3336SOL     OW10381   3.045   1.335   3.843
 3336SOL    HW110382   2.946   1.324   3.845
 3336SOL    HW210383   3.079   1.350   3.936
 3337SOL     OW10384   2.475   0.842   5.155
 3337SOL    HW110385   2.531   0.923   5.138
 3337SOL    HW210386   2.534   0.762   5.158
 3338SOL     OW10387   3.355   1.767   4.683
 3338SOL    HW110388   3.388   1.831   4.614
 3338SOL    HW210389   3.421   1.761   4.758
 3339SOL     OW10390   2.578   0.565   5.432
 3339SOL    HW110391   2.597   0.630   5.506
 3339SOL    HW210392   2.638   0.485   5.441
 3340SOL     OW10393   3.312   1.220   5.357
 3340SOL    HW110394   3.303   1.210   5.456
 3340SOL    HW210395   3.408   1.213   5.331
 3341SOL     OW10396   2.252   1.741   5.284
 3341SOL    HW110397   2.161   1.782   5.282
 3341SOL    HW210398   2.245   1.647   5.316
 3342SOL     OW10399   3.536   0.883   4.978
 3342SOL    HW110400   3.509   0.794   4.941
 3342SOL    HW210401   3.537   0.951   4.905
 3343SOL     OW10402   3.087   0.325   4.173
 3343SOL    HW110403   3.152   0.251   4.162
 3343SOL    HW210404   3.107   0.375   4.257
 3344SOL     OW10405   2.456   0.745   4.376
 3344SOL    HW110406   2.506   0.830   4.357
 3344SOL    HW210407   2.368   0.747   4.328
 3345SOL     OW10408   3.639   0.342   5.366
 3345SOL    HW110409   3.622   0.373   5.272
 3345SOL    HW210410   3.555   0.305   5.404
 3346SOL     OW10411   3.592   0.934   5.241
 3346SOL    HW110412   3.630   1.025   5.256
 3346SOL    HW210413   3.584   0.917   5.142
 3347SOL     OW10414   2.721   1.374   3.740
 3347SOL    HW110415   2.675   1.389   3.828
 3347SOL    HW210416   2.765   1.459   3.710
 3348SOL     OW10417   2.721   0.956   4.585
 3348SOL    HW110418   2.775   0.887   4.633
 3348SOL    HW210419   2.689   1.025   4.651
 3349SOL     OW10420   2.945   0.984   3.811
 3349SOL    HW110421   2.922   1.037   3.729
 3349SOL    HW210422   3.026   0.928   3.792
 3350SOL     OW10423   3.723   1.569   4.575
 3350SOL    HW110424   3.652   1.557   4.505
 3350SOL    HW210425   3.724   1.490   4.635
 3351SOL     OW10426   2.083   1.314   5.568
 3351SOL    HW110427   2.018   1.241   5.547
 3351SOL    HW210428   2.087   1.328   5.666
 3352SOL     OW10429   1.941   1.240   4.377
 3352SOL    HW110430   1.940   1.193   4.465
 3352SOL    HW210431   2.023   1.212   4.326
 3353SOL     OW10432   2.534   1.391   5.348
 3353SOL    HW110433   2.456   1.341   5.386
 3353SOL    HW210434   2.531   1.486   5.379
 3354SOL     OW10435   3.686   0.192   4.951
 3354SOL    HW110436   3.682   0.102   4.995
 3354SOL    HW210437   3.689   0.181   4.852
 3355SOL     OW10438   2.290   0.424   4.244
 3355SOL    HW110439   2.320   0.352   4.182
 3355SOL    HW210440   2.251   0.384   4.327
 3356SOL     OW10441   3.567   1.487   4.828
 3356SOL    HW110442   3.474   1.462   4.801
 3356SOL    HW210443   3.593   1.437   4.910
 3357SOL     OW10444   2.179   0.547   5.004
 3357SOL    HW110445   2.217   0.488   5.076
 3357SOL    HW210446   2.219   0.521   4.916
 3358SOL     OW10447   2.674   1.586   4.411
 3358SOL    HW110448   2.706   1.596   4.317
 3358SOL    HW210449   2.595   1.524   4.413
 3359SOL     OW10450   3.286   0.214   4.836
 3359SOL    HW110451   3.338   0.149   4.891
 3359SOL    HW210452   3.237   0.277   4.897
 3360SOL     OW10453   2.863   0.034   4.878
 3360SOL    HW110454   2.800  -0.038   4.847
 3360SOL    HW210455   2.956  -0.002   4.878
 3361SOL     OW10456   2.632   1.330   4.025
 3361SOL    HW110457   2.586   1.243   4.042
 3361SOL    HW210458   2.723   1.327   4.066
 3362SOL     OW10459   2.480   1.567   5.008
 3362SOL    HW110460   2.475   1.649   5.065
 3362SOL    HW210461   2.569   1.564   4.963
 3363SOL     OW10462   3.214   0.052   3.892
 3363SOL    HW110463   3.249   0.011   3.808
 3363SOL    HW210464   3.124   0.014   3.912
 3364SOL     OW10465   3.162   0.453   4.415
 3364SOL    HW110466   3.103   0.533   4.419
 3364SOL    HW210467   3.177   0.418   4.508
 3365SOL     OW10468   3.455   0.221   4.606
 3365SOL    HW110469   3.371   0.220   4.660
 3365SOL    HW210470   3.457   0.304   4.550
 3366SOL     OW10471   1.901   1.077   4.024
 3366SOL    HW110472   2.000   1.066   4.015
 3366SOL    HW210473   1.861   0.991   4.056
 3367SOL     OW10474   2.737   1.646   4.061
 3367SOL    HW110475   2.660   1.611   4.007
 3367SOL    HW210476   2.705   1.717   4.123
 3368SOL     OW10477   2.092   0.628   5.699
 3368SOL    HW110478   1.999   0.626   5.736
 3368SOL    HW210479   2.093   0.589   5.607
 3369SOL     OW10480   2.087   0.275   6.582
 3369SOL    HW110481   2.122   0.258   6.674
 3369SOL    HW210482   1.999   0.230   6.570
 3370SOL     OW10483   1.881   0.368   6.233
 3370SOL    HW110484   1.799   0.411   6.272
 3370SOL    HW210485   1.853   0.295   6.170
 3371SOL     OW10486   2.431   1.275   6.751
 3371SOL    HW110487   2.338   1.268   6.714
 3371SOL    HW210488   2.442   1.364   6.795
 3372SOL     OW10489   3.417   1.511   6.289
 3372SOL    HW110490   3.360   1.495   6.370
 3372SOL    HW210491   3.358   1.521   6.209
 3373SOL     OW10492   2.997   0.703   6.303
 3373SOL    HW110493   3.054   0.781   6.278
 3373SOL    HW210494   2.937   0.729   6.379
 3374SOL     OW10495   3.617   0.607   5.817
 3374SOL    HW110496   3.605   0.594   5.718
 3374SOL    HW210497   3.587   0.526   5.866
 3375SOL     OW10498   2.630   1.144   6.609
 3375SOL    HW110499   2.552   1.161   6.669
 3375SOL    HW210500   2.664   1.231   6.573
 3376SOL     OW10501   2.712   0.798   7.409
 3376SOL    HW110502   2.708   0.874   7.474
 3376SOL    HW210503   2.734   0.834   7.318
 3377SOL     OW10504   2.547   1.012   6.251
 3377SOL    HW110505   2.616   0.996   6.321
 3377SOL    HW210506   2.474   1.069   6.289
 3378SOL     OW10507   2.548   1.161   7.389
 3378SOL    HW110508   2.608   1.240   7.403
 3378SOL    HW210509   2.462   1.192   7.348
 3379SOL     OW10510   2.197   1.435   6.647
 3379SOL    HW110511   2.119   1.404   6.594
 3379SOL    HW210512   2.255   1.493   6.590
 3380SOL     OW10513   3.322   1.505   6.925
 3380SOL    HW110514   3.346   1.599   6.951
 3380SOL    HW210515   3.306   1.451   7.007
 3381SOL     OW10516   2.300   0.392   7.085
 3381SOL    HW110517   2.382   0.336   7.094
 3381SOL    HW210518   2.219   0.334   7.089
 3382SOL     OW10519   3.465   0.447   6.323
 3382SOL    HW110520   3.391   0.493   6.273
 3382SOL    HW210521   3.516   0.515   6.376
 3383SOL     OW10522   2.093   1.713   6.069
 3383SOL    HW110523   2.127   1.790   6.123
 3383SOL    HW210524   2.137   1.713   5.979
 3384SOL     OW10525   2.989   1.341   7.276
 3384SOL    HW110526   3.036   1.341   7.364
 3384SOL    HW210527   2.941   1.254   7.265
 3385SOL     OW10528   2.092   1.434   6.124
 3385SOL    HW110529   2.066   1.530   6.124
 3385SOL    HW210530   2.021   1.380   6.169
 3386SOL     OW10531   2.102   1.091   6.472
 3386SOL    HW110532   2.116   1.007   6.524
 3386SOL    HW210533   2.047   1.155   6.527
 3387SOL     OW10534   2.482   1.786   7.025
 3387SOL    HW110535   2.390   1.769   7.060
 3387SOL    HW210536   2.510   1.878   7.051
 3388SOL     OW10537   2.468   0.964   5.709
 3388SOL    HW110538   2.475   1.048   5.655
 3388SOL    HW210539   2.514   0.977   5.797
 3389SOL     OW10540   3.456   0.114   7.066
 3389SOL    HW110541   3.438   0.181   6.994
 3389SOL    HW210542   3.453   0.160   7.155
 3390SOL     OW10543   1.984   0.643   6.149
 3390SOL    HW110544   1.939   0.555   6.166
 3390SOL    HW210545   1.983   0.697   6.233
 3391SOL     OW10546   3.704   1.767   5.945
 3391SOL    HW110547   3.758   1.738   6.025
 3391SOL    HW210548   3.734   1.857   5.916
 3392SOL     OW10549   1.889   1.596   5.703
 3392SOL    HW110550   1.870   1.500   5.724
 3392SOL    HW210551   1.856   1.654   5.778
 3393SOL     OW10552   3.551   0.922   6.198
 3393SOL    HW110553   3.646   0.893   6.206
 3393SOL    HW210554   3.543   0.987   6.123
 3394SOL     OW10555   3.503   1.108   6.018
 3394SOL    HW110556   3.589   1.110   5.966
 3394SOL    HW210557   3.517   1.155   6.106
 3395SOL     OW10558   1.975   0.737   7.183
 3395SOL    HW110559   2.063   0.724   7.228
 3395SOL    HW210560   1.962   0.834   7.161
 3396SOL     OW10561   2.475   1.365   6.312
 3396SOL    HW110562   2.426   1.278   6.321
 3396SOL    HW210563   2.452   1.408   6.225
 3397SOL     OW10564   3.155   1.228   7.009
 3397SOL    HW110565   3.192   1.155   6.951
 3397SOL    HW210566   3.207   1.233   7.094
 3398SOL     OW10567   2.671   0.004   6.088
 3398SOL    HW110568   2.711   0.095   6.079
 3398SOL    HW210569   2.571   0.012   6.094
 3399SOL     OW10570   2.059   0.976   6.850
 3399SOL    HW110571   2.148   0.931   6.836
 3399SOL    HW210572   1.986   0.911   6.831
 3400SOL     OW10573   3.387   0.999   5.776
 3400SOL    HW110574   3.324   0.923   5.789
 3400SOL    HW210575   3.435   1.017   5.862
 3401SOL     OW10576   3.049   1.792   7.202
 3401SOL    HW110577   3.073   1.852   7.126
 3401SOL    HW210578   3.056   1.697   7.172
 3402SOL     OW10579   2.179   0.251   7.387
 3402SOL    HW110580   2.250   0.322   7.393
 3402SOL    HW210581   2.091   0.290   7.415
 3403SOL     OW10582   3.328   1.417   6.539
 3403SOL    HW110583   3.269   1.423   6.619
 3403SOL    HW210584   3.313   1.329   6.493
 3404SOL     OW10585   3.529   1.714   6.158
 3404SOL    HW110586   3.488   1.691   6.070
 3404SOL    HW210587   3.511   1.640   6.223
 3405SOL     OW10588   2.460   0.729   5.856
 3405SOL    HW110589   2.484   0.798   5.788
 3405SOL    HW210590   2.382   0.762   5.910
 3406SOL     OW10591   3.143   0.345   6.530
 3406SOL    HW110592   3.057   0.295   6.517
 3406SOL    HW210593   3.205   0.291   6.586
 3407SOL     OW10594   3.438   1.662   5.893
 3407SOL    HW110595   3.527   1.708   5.896
 3407SOL    HW210596   3.417   1.638   5.798
 3408SOL     OW10597   2.669   0.605   7.051
 3408SOL    HW110598   2.622   0.602   7.140
 3408SOL    HW210599   2.618   0.550   6.985
 3409SOL     OW10600   3.256   0.469   7.260
 3409SOL    HW110601   3.236   0.512   7.348
 3409SOL    HW210602   3.334   0.407   7.269
 3410SOL     OW10603   2.835   0.890   7.158
 3410SOL    HW110604   2.881   0.806   7.129
 3410SOL    HW210605   2.779   0.924   7.083
 3411SOL     OW10606   2.853   0.410   6.828
 3411SOL    HW110607   2.776   0.444   6.882
 3411SOL    HW210608   2.819   0.359   6.749
 3412SOL     OW10609   2.903   0.701   6.015
 3412SOL    HW110610   2.929   0.697   6.111
 3412SOL    HW210611   2.818   0.650   6.001
 3413SOL     OW10612   1.938   0.811   6.375
 3413SOL    HW110613   2.037   0.799   6.384
 3413SOL    HW210614   1.914   0.906   6.396
 3414SOL     OW10615   1.992   1.821   7.157
 3414SOL    HW110616   1.982   1.806   7.256
 3414SOL    HW210617   1.906   1.857   7.121
 3415SOL     OW10618   2.727   0.348   5.781
 3415SOL    HW110619   2.786   0.411   5.732
 3415SOL    HW210620   2.746   0.254   5.752
 3416SOL     OW10621   3.581   0.585   7.417
 3416SOL    HW110622   3.555   0.674   7.381
 3416SOL    HW210623   3.579   0.517   7.344
 3417SOL     OW10624   3.224   1.144   6.131
 3417SOL    HW110625   3.307   1.115   6.083
 3417SOL    HW210626   3.175   1.211   6.075
 3418SOL     OW10627   2.412   0.196   6.471
 3418SOL    HW110628   2.407   0.191   6.571
 3418SOL    HW210629   2.414   0.292   6.442
 3419SOL     OW10630   2.870   1.456   6.063
 3419SOL    HW110631   2.824   1.528   6.011
 3419SOL    HW210632   2.866   1.476   6.161
 3420SOL     OW10633   2.213   1.801   6.439
 3420SOL    HW110634   2.263   1.715   6.445
 3420SOL    HW210635   2.278   1.878   6.436
 3421SOL     OW10636   3.657   1.066   6.459
 3421SOL    HW110637   3.595   1.051   6.383
 3421SOL    HW210638   3.605   1.077   6.544
 3422SOL     OW10639   3.089   1.550   7.092
 3422SOL    HW110640   3.095   1.473   7.156
 3422SOL    HW210641   3.037   1.524   7.012
 3423SOL     OW10642   2.183   0.943   5.828
 3423SOL    HW110643   2.265   0.982   5.786
 3423SOL    HW210644   2.156   0.861   5.779
 3424SOL     OW10645   3.320   0.735   6.314
 3424SOL    HW110646   3.315   0.670   6.389
 3424SOL    HW210647   3.400   0.794   6.327
 3425SOL     OW10648   2.323   1.266   7.313
 3425SOL    HW110649   2.273   1.267   7.227
 3425SOL    HW210650   2.260   1.248   7.389
 3426SOL     OW10651   2.973   1.776   5.823
 3426SOL    HW110652   2.913   1.714   5.873
 3426SOL    HW210653   3.004   1.732   5.738
 3427SOL     OW10654   2.064   0.285   7.084
 3427SOL    HW110655   1.984   0.345   7.071
 3427SOL    HW210656   2.054   0.236   7.170
 3428SOL     OW10657   3.494   1.377   5.667
 3428SOL    HW110658   3.462   1.471   5.657
 3428SOL    HW210659   3.418   1.314   5.655
 3429SOL     OW10660   2.326   1.743   5.909
 3429SOL    HW110661   2.359   1.782   5.995
 3429SOL    HW210662   2.402   1.736   5.844
 3430SOL     OW10663   3.262   0.107   6.012
 3430SOL    HW110664   3.238   0.070   5.922
 3430SOL    HW210665   3.361   0.123   6.016
 3431SOL     OW10666   2.111   1.785   6.827
 3431SOL    HW110667   2.168   1.720   6.877
 3431SOL    HW210668   2.095   1.752   6.734
 3432SOL     OW10669   2.802   1.698   6.490
 3432SOL    HW110670   2.882   1.641   6.511
 3432SOL    HW210671   2.753   1.658   6.413
 3433SOL     OW10672   2.244   0.700   6.066
 3433SOL    HW110673   2.289   0.610   6.063
 3433SOL    HW210674   2.150   0.689   6.099
 3434SOL     OW10675   3.409   0.222   7.315
 3434SOL    HW110676   3.404   0.259   7.407
 3434SOL    HW210677   3.337   0.153   7.303
 3435SOL     OW10678   2.476   0.122   5.703
 3435SOL    HW110679   2.574   0.100   5.710
 3435SOL    HW210680   2.445   0.105   5.610
 3436SOL     OW10681   2.643   0.264   7.335
 3436SOL    HW110682   2.710   0.203   7.378
 3436SOL    HW210683   2.570   0.283   7.400
 3437SOL     OW10684   2.750   1.514   6.781
 3437SOL    HW110685   2.727   1.489   6.687
 3437SOL    HW210686   2.811   1.445   6.820
 3438SOL     OW10687   3.213   0.590   7.019
 3438SOL    HW110688   3.241   0.547   7.104
 3438SOL    HW210689   3.238   0.686   7.020
 3439SOL     OW10690   2.665   1.402   6.510
 3439SOL    HW110691   2.755   1.416   6.468
 3439SOL    HW210692   2.594   1.404   6.439
 3440SOL     OW10693   2.784   0.503   6.485
 3440SOL    HW110694   2.759   0.494   6.389
 3440SOL    HW210695   2.832   0.421   6.516
 3441SOL     OW10696   2.401   0.064   6.098
 3441SOL    HW110697   2.320   0.065   6.156
 3441SOL    HW210698   2.404   0.147   6.043
 3442SOL     OW10699   3.296   1.188   5.627
 3442SOL    HW110700   3.328   1.112   5.684
 3442SOL    HW210701   3.204   1.215   5.657
 3443SOL     OW10702   2.159   0.035   5.757
 3443SOL    HW110703   2.208   0.119   5.736
 3443SOL    HW210704   2.221  -0.030   5.802
 3444SOL     OW10705   2.797   0.236   6.066
 3444SOL    HW110706   2.749   0.277   5.988
 3444SOL    HW210707   2.896   0.234   6.047
 3445SOL     OW10708   2.938   0.683   7.050
 3445SOL    HW110709   2.858   0.622   7.053
 3445SOL    HW210710   3.019   0.630   7.026
 3446SOL     OW10711   3.089   1.570   6.379
 3446SOL    HW110712   3.110   1.644   6.314
 3446SOL    HW210713   3.157   1.570   6.452
 3447SOL     OW10714   2.321   1.152   6.327
 3447SOL    HW110715   2.250   1.125   6.392
 3447SOL    HW210716   2.295   1.124   6.234
 3448SOL     OW10717   3.133   1.797   6.177
 3448SOL    HW110718   3.177   1.861   6.113
 3448SOL    HW210719   3.083   1.849   6.247
 3449SOL     OW10720   2.894   0.549   5.602
 3449SOL    HW110721   2.853   0.631   5.563
 3449SOL    HW210722   2.958   0.575   5.675
 3450SOL     OW10723   1.940   0.556   6.972
 3450SOL    HW110724   2.032   0.555   6.931
 3450SOL    HW210725   1.934   0.630   7.039
 3451SOL     OW10726   2.423   0.222   6.733
 3451SOL    HW110727   2.461   0.138   6.770
 3451SOL    HW210728   2.335   0.241   6.777
 3452SOL     OW10729   2.728   0.454   6.228
 3452SOL    HW110730   2.696   0.526   6.166
 3452SOL    HW210731   2.752   0.373   6.175
 3453SOL     OW10732   2.879   0.039   6.339
 3453SOL    HW110733   2.807   0.044   6.270
 3453SOL    HW210734   2.855  -0.030   6.408
 3454SOL     OW10735   3.291   1.173   6.453
 3454SOL    HW110736   3.236   1.089   6.446
 3454SOL    HW210737   3.317   1.202   6.361
 3455SOL     OW10738   3.328   0.590   6.578
 3455SOL    HW110739   3.298   0.495   6.585
 3455SOL    HW210740   3.401   0.606   6.644
 3456SOL     OW10741   3.719   0.833   5.963
 3456SOL    HW110742   3.761   0.769   6.027
 3456SOL    HW210743   3.681   0.782   5.885
 3457SOL     OW10744   2.350   1.385   5.760
 3457SOL    HW110745   2.263   1.370   5.807
 3457SOL    HW210746   2.333   1.411   5.665
 3458SOL     OW10747   3.526   1.280   6.243
 3458SOL    HW110748   3.625   1.288   6.257
 3458SOL    HW210749   3.481   1.364   6.274
 3459SOL     OW10750   3.252   0.575   5.664
 3459SOL    HW110751   3.198   0.554   5.745
 3459SOL    HW210752   3.343   0.534   5.673
 3460SOL     OW10753   2.389   0.256   5.914
 3460SOL    HW110754   2.416   0.197   5.839
 3460SOL    HW210755   2.389   0.351   5.883
 3461SOL     OW10756   3.616   1.223   7.174
 3461SOL    HW110757   3.707   1.184   7.161
 3461SOL    HW210758   3.624   1.319   7.198
 3462SOL     OW10759   2.926   1.347   6.926
 3462SOL    HW110760   2.846   1.324   6.981
 3462SOL    HW210761   3.009   1.321   6.975
 3463SOL     OW10762   3.454   1.629   7.211
 3463SOL    HW110763   3.481   1.663   7.121
 3463SOL    HW210764   3.533   1.591   7.257
 3464SOL     OW10765   2.973   1.195   6.686
 3464SOL    HW110766   2.933   1.239   6.767
 3464SOL    HW210767   2.932   1.232   6.603
 3465SOL     OW10768   3.500   1.099   6.665
 3465SOL    HW110769   3.505   1.180   6.724
 3465SOL    HW210770   3.414   1.101   6.614
 3466SOL     OW10771   2.777   0.089   6.988
 3466SOL    HW110772   2.802   0.069   6.893
 3466SOL    HW210773   2.849   0.145   7.030
 3467SOL     OW10774   2.842   1.116   7.305
 3467SOL    HW110775   2.743   1.122   7.315
 3467SOL    HW210776   2.865   1.036   7.249
 3468SOL     OW10777   2.567   1.050   5.954
 3468SOL    HW110778   2.553   1.057   6.053
 3468SOL    HW210779   2.651   0.999   5.936
 3469SOL     OW10780   2.272   0.813   6.837
 3469SOL    HW110781   2.358   0.825   6.887
 3469SOL    HW210782   2.230   0.726   6.864
 3470SOL     OW10783   3.136   0.386   6.848
 3470SOL    HW110784   3.157   0.460   6.912
 3470SOL    HW210785   3.047   0.403   6.805
 3471SOL     OW10786   1.926   1.564   6.917
 3471SOL    HW110787   1.880   1.646   6.883
 3471SOL    HW210788   2.024   1.583   6.926
 3472SOL     OW10789   2.229   1.100   6.087
 3472SOL    HW110790   2.222   1.183   6.031
 3472SOL    HW210791   2.233   1.020   6.027
 3473SOL     OW10792   2.428   0.537   6.451
 3473SOL    HW110793   2.440   0.603   6.377
 3473SOL    HW210794   2.474   0.571   6.534
 3474SOL     OW10795   3.114   1.348   5.974
 3474SOL    HW110796   3.164   1.425   6.014
 3474SOL    HW210797   3.019   1.350   6.006
 3475SOL     OW10798   3.134   1.445   6.728
 3475SOL    HW110799   3.181   1.458   6.815
 3475SOL    HW210800   3.068   1.371   6.737
 3476SOL     OW10801   3.444   0.639   6.058
 3476SOL    HW110802   3.413   0.700   6.131
 3476SOL    HW210803   3.494   0.691   5.989
 3477SOL     OW10804   2.216   1.510   6.915
 3477SOL    HW110805   2.195   1.466   6.828
 3477SOL    HW210806   2.313   1.536   6.918
 3478SOL     OW10807   2.264   0.751   7.184
 3478SOL    HW110808   2.332   0.806   7.137
 3478SOL    HW210809   2.304   0.663   7.211
 3479SOL     OW10810   3.449   0.779   7.256
 3479SOL    HW110811   3.357   0.817   7.251
 3479SOL    HW210812   3.509   0.826   7.191
 3480SOL     OW10813   2.875   0.105   7.356
 3480SOL    HW110814   2.881   0.190   7.304
 3480SOL    HW210815   2.907   0.029   7.299
 3481SOL     OW10816   2.366   0.050   7.326
 3481SOL    HW110817   2.324  -0.007   7.256
 3481SOL    HW210818   2.300   0.119   7.358
 3482SOL     OW10819   2.435   0.870   6.615
 3482SOL    HW110820   2.479   0.959   6.606
 3482SOL    HW210821   2.372   0.870   6.692
 3483SOL     OW10822   3.222   0.862   6.631
 3483SOL    HW110823   3.147   0.862   6.565
 3483SOL    HW210824   3.259   0.770   6.640
 3484SOL     OW10825   3.071   0.525   5.861
 3484SOL    HW110826   3.084   0.441   5.915
 3484SOL    HW210827   3.042   0.599   5.921
 3485SOL     OW10828   2.169   0.213   6.817
 3485SOL    HW110829   2.146   0.250   6.907
 3485SOL    HW210830   2.139   0.118   6.811
 3486SOL     OW10831   1.899   1.310   6.868
 3486SOL    HW110832   1.952   1.261   6.936
 3486SOL    HW210833   1.921   1.408   6.873
 3487SOL     OW10834   2.594   0.634   6.650
 3487SOL    HW110835   2.653   0.608   6.574
 3487SOL    HW210836   2.566   0.730   6.639
 3488SOL     OW10837   3.590   0.935   7.440
 3488SOL    HW110838   3.544   0.928   7.351
 3488SOL    HW210839   3.528   0.979   7.506
 3489SOL     OW10840   2.169   0.063   6.204
 3489SOL    HW110841   2.158   0.157   6.237
 3489SOL    HW210842   2.164   0.000   6.281
 3490SOL     OW10843   3.484   0.367   5.960
 3490SOL    HW110844   3.486   0.291   6.024
 3490SOL    HW210845   3.436   0.444   6.000
 3491SOL     OW10846   2.885   0.766   6.552
 3491SOL    HW110847   2.900   0.787   6.648
 3491SOL    HW210848   2.855   0.671   6.543
 3492SOL     OW10849   2.842   1.573   7.286
 3492SOL    HW110850   2.822   1.617   7.198
 3492SOL    HW210851   2.881   1.482   7.270
 3493SOL     OW10852   3.721   1.518   7.191
 3493SOL    HW110853   3.735   1.545   7.096
 3493SOL    HW210854   3.804   1.540   7.244
 3494SOL     OW10855   2.212   0.898   7.390
 3494SOL    HW110856   2.288   0.942   7.438
 3494SOL    HW210857   2.247   0.851   7.308
 3495SOL     OW10858   3.402   0.274   5.711
 3495SOL    HW110859   3.341   0.199   5.734
 3495SOL    HW210860   3.424   0.326   5.794
 3496SOL     OW10861   3.165   0.838   5.628
 3496SOL    HW110862   3.199   0.745   5.643
 3496SOL    HW210863   3.183   0.865   5.533
 3497SOL     OW10864   2.930   1.333   6.435
 3497SOL    HW110865   2.937   1.249   6.380
 3497SOL    HW210866   2.992   1.402   6.399
 3498SOL     OW10867   2.181   0.810   6.535
 3498SOL    HW110868   2.274   0.846   6.540
 3498SOL    HW210869   2.175   0.725   6.587
 3499SOL     OW10870   2.201   0.509   6.592
 3499SOL    HW110871   2.149   0.426   6.575
 3499SOL    HW210872   2.278   0.514   6.528
 3500SOL     OW10873   3.000   0.380   7.264
 3500SOL    HW110874   2.955   0.443   7.328
 3500SOL    HW210875   3.093   0.411   7.247
 3501SOL     OW10876   3.022   0.207   7.063
 3501SOL    HW110877   3.022   0.271   7.140
 3501SOL    HW210878   3.050   0.255   6.980
 3502SOL     OW10879   1.870   1.326   5.786
 3502SOL    HW110880   1.777   1.347   5.755
 3502SOL    HW210881   1.880   1.227   5.799
 3503SOL     OW10882   1.950   1.801   6.513
 3503SOL    HW110883   1.908   1.715   6.486
 3503SOL    HW210884   2.044   1.804   6.479
 3504SOL     OW10885   2.366   1.568   6.496
 3504SOL    HW110886   2.432   1.642   6.505
 3504SOL    HW210887   2.410   1.489   6.454
 3505SOL     OW10888   2.864   0.796   6.824
 3505SOL    HW110889   2.905   0.764   6.910
 3505SOL    HW210890   2.768   0.769   6.821
 3506SOL     OW10891   1.902   0.544   6.700
 3506SOL    HW110892   1.987   0.511   6.659
 3506SOL    HW210893   1.915   0.559   6.798
 3507SOL     OW10894   2.051   0.520   7.308
 3507SOL    HW110895   2.110   0.480   7.238
 3507SOL    HW210896   1.993   0.591   7.267
 3508SOL     OW10897   3.231   0.950   7.246
 3508SOL    HW110898   3.270   1.039   7.266
 3508SOL    HW210899   3.241   0.930   7.149
 3509SOL     OW10900   2.677   0.572   5.911
 3509SOL    HW110901   2.684   0.483   5.865
 3509SOL    HW210902   2.583   0.606   5.903
 3510SOL     OW10903   3.519   0.604   6.792
 3510SOL    HW110904   3.481   0.535   6.854
 3510SOL    HW210905   3.601   0.568   6.748
 3511SOL     OW10906   2.114   1.564   7.330
 3511SOL    HW110907   2.084   1.621   7.406
 3511SOL    HW210908   2.107   1.467   7.356
 3512SOL     OW10909   2.533   0.464   6.855
 3512SOL    HW110910   2.499   0.375   6.825
 3512SOL    HW210911   2.559   0.518   6.775
 3513SOL     OW10912   2.792   1.678   7.051
 3513SOL    HW110913   2.768   1.660   6.956
 3513SOL    HW210914   2.822   1.772   7.061
 3514SOL     OW10915   2.335   0.500   5.777
 3514SOL    HW110916   2.396   0.580   5.781
 3514SOL    HW210917   2.240   0.531   5.784
 3515SOL     OW10918   2.021   1.137   7.052
 3515SOL    HW110919   2.043   1.076   7.128
 3515SOL    HW210920   2.031   1.088   6.966
 3516SOL     OW10921   3.209   1.059   6.820
 3516SOL    HW110922   3.233   0.996   6.746
 3516SOL    HW210923   3.119   1.099   6.802
 3517SOL     OW10924   3.164   0.855   5.895
 3517SOL    HW110925   3.078   0.824   5.937
 3517SOL    HW210926   3.160   0.841   5.796
 3518SOL     OW10927   3.621   1.747   6.740
 3518SOL    HW110928   3.682   1.777   6.667
 3518SOL    HW210929   3.583   1.658   6.718
 3519SOL     OW10930   3.114   1.731   6.714
 3519SOL    HW110931   3.198   1.736   6.660
 3519SOL    HW210932   3.091   1.635   6.732
 3520SOL     OW10933   1.945   1.258   6.608
 3520SOL    HW110934   1.940   1.257   6.708
 3520SOL    HW210935   1.862   1.217   6.570
 3521SOL     OW10936   2.550   1.662   7.302
 3521SOL    HW110937   2.494   1.743   7.311
 3521SOL    HW210938   2.602   1.666   7.216
 3522SOL     OW10939   3.588   0.135   6.109
 3522SOL    HW110940   3.661   0.118   6.042
 3522SOL    HW210941   3.557   0.048   6.147
 3523SOL     OW10942   3.250   1.573   6.063
 3523SOL    HW110943   3.317   1.585   5.989
 3523SOL    HW210944   3.210   1.662   6.086
 3524SOL     OW10945   1.992   1.794   7.437
 3524SOL    HW110946   1.951   1.720   7.490
 3524SOL    HW210947   2.056   1.845   7.495
 3525SOL     OW10948   3.142   0.927   6.258
 3525SOL    HW110949   3.202   0.846   6.260
 3525SOL    HW210950   3.182   0.996   6.198
 3526SOL     OW10951   2.692   1.273   7.008
 3526SOL    HW110952   2.687   1.306   7.103
 3526SOL    HW210953   2.606   1.292   6.962
 3527SOL     OW10954   2.534   1.616   5.740
 3527SOL    HW110955   2.543   1.626   5.641
 3527SOL    HW210956   2.494   1.527   5.761
 3528SOL     OW10957   3.512   1.720   6.980
 3528SOL    HW110958   3.565   1.730   6.896
 3528SOL    HW210959   3.485   1.810   7.014
 3529SOL     OW10960   3.703   0.175   6.549
 3529SOL    HW110961   3.742   0.090   6.513
 3529SOL    HW210962   3.605   0.177   6.530
 3530SOL     OW10963   2.125   0.326   6.306
 3530SOL    HW110964   2.046   0.377   6.272
 3530SOL    HW210965   2.116   0.311   6.404
 3531SOL     OW10966   3.056   1.612   5.617
 3531SOL    HW110967   3.062   1.519   5.654
 3531SOL    HW210968   2.997   1.612   5.537
 3532SOL     OW10969   2.684   1.002   6.958
 3532SOL    HW110970   2.724   1.001   6.866
 3532SOL    HW210971   2.694   1.094   6.998
 3533SOL     OW10972   2.778   0.910   5.877
 3533SOL    HW110973   2.841   0.948   5.809
 3533SOL    HW210974   2.818   0.827   5.916
 3534SOL     OW10975   3.366   1.607   5.630
 3534SOL    HW110976   3.274   1.644   5.637
 3534SOL    HW210977   3.404   1.627   5.540
 3535SOL     OW10978   2.234   1.288   7.076
 3535SOL    HW110979   2.221   1.381   7.042
 3535SOL    HW210980   2.150   1.236   7.063
 3536SOL     OW10981   3.476   1.292   6.875
 3536SOL    HW110982   3.536   1.295   6.955
 3536SOL    HW210983   3.401   1.356   6.888
 3537SOL     OW10984   2.901   1.098   6.282
 3537SOL    HW110985   2.831   1.051   6.336
 3537SOL    HW210986   2.960   1.030   6.239
 3538SOL     OW10987   2.876   0.236   6.557
 3538SOL    HW110988   2.868   0.200   6.464
 3538SOL    HW210989   2.874   0.160   6.622
 3539SOL     OW10990   2.452   1.487   6.077
 3539SOL    HW110991   2.494   1.429   6.007
 3539SOL    HW210992   2.408   1.566   6.033
 3540SOL     OW10993   3.571   0.385   6.967
 3540SOL    HW110994   3.644   0.454   6.971
 3540SOL    HW210995   3.599   0.310   6.908
 3541SOL     OW10996   2.117   1.348   5.876
 3541SOL    HW110997   2.021   1.349   5.849
 3541SOL    HW210998   2.129   1.401   5.960
 3542SOL     OW10999   1.967   1.013   7.312
 3542SOL    HW111000   1.890   0.980   7.366
 3542SOL    HW211001   2.052   0.983   7.354
 3543SOL     OW11002   2.534   0.203   7.075
 3543SOL    HW111003   2.624   0.187   7.035
 3543SOL    HW211004   2.542   0.208   7.174
 3544SOL     OW11005   1.937   0.345   5.619
 3544SOL    HW111006   1.845   0.317   5.590
 3544SOL    HW211007   1.968   0.422   5.563
 3545SOL     OW11008   3.302   0.856   6.984
 3545SOL    HW111009   3.245   0.908   6.921
 3545SOL    HW211010   3.398   0.868   6.960
 3546SOL     OW11011   1.934   0.166   5.904
 3546SOL    HW111012   1.917   0.249   5.850
 3546SOL    HW211013   2.024   0.129   5.882
 3547SOL     OW11014   3.045   1.335   5.705
 3547SOL    HW111015   2.946   1.324   5.707
 3547SOL    HW211016   3.079   1.350   5.798
 3548SOL     OW11017   2.475   0.842   7.017
 3548SOL    HW111018   2.531   0.923   7.000
 3548SOL    HW211019   2.534   0.762   7.020
 3549SOL     OW11020   3.355   1.767   6.545
 3549SOL    HW111021   3.388   1.831   6.476
 3549SOL    HW211022   3.421   1.761   6.620
 3550SOL     OW11023   2.578   0.565   7.294
 3550SOL    HW111024   2.597   0.630   7.368
 3550SOL    HW211025   2.638   0.485   7.303
 3551SOL     OW11026   3.312   1.220   7.219
 3551SOL    HW111027   3.303   1.210   7.318
 3551SOL    HW211028   3.408   1.213   7.193
 3552SOL     OW11029   2.252   1.741   7.146
 3552SOL    HW111030   2.161   1.782   7.144
 3552SOL    HW211031   2.245   1.647   7.178
 3553SOL     OW11032   3.536   0.883   6.840
 3553SOL    HW111033   3.509   0.794   6.803
 3553SOL    HW211034   3.537   0.951   6.767
 3554SOL     OW11035   3.087   0.325   6.035
 3554SOL    HW111036   3.152   0.251   6.024
 3554SOL    HW211037   3.107   0.375   6.119
 3555SOL     OW11038   2.456   0.745   6.238
 3555SOL    HW111039   2.506   0.830   6.219
 3555SOL    HW211040   2.368   0.747   6.190
 3556SOL     OW11041   3.639   0.342   7.228
 3556SOL    HW111042   3.622   0.373   7.134
 3556SOL    HW211043   3.555   0.305   7.266
 3557SOL     OW11044   3.592   0.934   7.103
 3557SOL    HW111045   3.630   1.025   7.118
 3557SOL    HW211046   3.584   0.917   7.004
 3558SOL     OW11047   2.721   1.374   5.602
 3558SOL    HW111048   2.675   1.389   5.690
 3558SOL    HW211049   2.765   1.459   5.572
 3559SOL     OW11050   2.523   1.790   6.539
 3559SOL    HW111051   2.477   1.878   6.526
 3559SOL    HW211052   2.622   1.802   6.532
 3560SOL     OW11053   2.721   0.956   6.447
 3560SOL    HW111054   2.775   0.887   6.495
 3560SOL    HW211055   2.689   1.025   6.513
 3561SOL     OW11056   2.945   0.984   5.673
 3561SOL    HW111057   2.922   1.037   5.591
 3561SOL    HW211058   3.026   0.928   5.654
 3562SOL     OW11059   3.723   1.569   6.437
 3562SOL    HW111060   3.652   1.557   6.367
 3562SOL    HW211061   3.724   1.490   6.497
 3563SOL     OW11062   2.083   1.314   7.430
 3563SOL    HW111063   2.018   1.241   7.409
 3563SOL    HW211064   2.087   1.328   7.528
 3564SOL     OW11065   1.941   1.240   6.239
 3564SOL    HW111066   1.940   1.193   6.327
 3564SOL    HW211067   2.023   1.212   6.188
 3565SOL     OW11068   2.534   1.391   7.210
 3565SOL    HW111069   2.456   1.341   7.248
 3565SOL    HW211070   2.531   1.486   7.241
 3566SOL     OW11071   3.686   0.192   6.813
 3566SOL    HW111072   3.682   0.102   6.857
 3566SOL    HW211073   3.689   0.181   6.714
 3567SOL     OW11074   2.290   0.424   6.106
 3567SOL    HW111075   2.320   0.352   6.044
 3567SOL    HW211076   2.251   0.384   6.189
 3568SOL     OW11077   3.567   1.487   6.690
 3568SOL    HW111078   3.474   1.462   6.663
 3568SOL    HW211079   3.593   1.437   6.772
 3569SOL     OW11080   2.179   0.547   6.866
 3569SOL    HW111081   2.217   0.488   6.938
 3569SOL    HW211082   2.219   0.521   6.778
 3570SOL     OW11083   2.674   1.586   6.273
 3570SOL    HW111084   2.706   1.596   6.179
 3570SOL    HW211085   2.595   1.524   6.275
 3571SOL     OW11086   3.286   0.214   6.698
 3571SOL    HW111087   3.338   0.149   6.753
 3571SOL    HW211088   3.237   0.277   6.759
 3572SOL     OW11089   2.863   0.034   6.740
 3572SOL    HW111090   2.800  -0.038   6.709
 3572SOL    HW211091   2.956  -0.002   6.740
 3573SOL     OW11092   2.632   1.330   5.887
 3573SOL    HW111093   2.586   1.243   5.904
 3573SOL    HW211094   2.723   1.327   5.928
 3574SOL     OW11095   2.480   1.567   6.870
 3574SOL    HW111096   2.475   1.649   6.927
 3574SOL    HW211097   2.569   1.564   6.825
 3575SOL     OW11098   3.214   0.052   5.754
 3575SOL    HW111099   3.249   0.011   5.670
 3575SOL    HW211100   3.124   0.014   5.774
 3576SOL     OW11101   3.162   0.453   6.277
 3576SOL    HW111102   3.103   0.533   6.281
 3576SOL    HW211103   3.177   0.418   6.370
 3577SOL     OW11104   3.455   0.221   6.468
 3577SOL    HW111105   3.371   0.220   6.522
 3577SOL    HW211106   3.457   0.304   6.412
 3578SOL     OW11107   1.901   1.077   5.886
 3578SOL    HW111108   2.000   1.066   5.877
 3578SOL    HW211109   1.861   0.991   5.918
 3579SOL     OW11110   2.737   1.646   5.923
 3579SOL    HW111111   2.660   1.611   5.869
 3579SOL    HW211112   2.705   1.717   5.985
 3580SOL     OW11113   2.092   0.628   7.561
 3580SOL    HW111114   1.999   0.626   7.598
 3580SOL    HW211115   2.093   0.589   7.469
 3581SOL     OW11116   2.087   0.275   8.444
 3581SOL    HW111117   2.122   0.258   8.536
 3581SOL    HW211118   1.999   0.230   8.432
 3582SOL     OW11119   1.881   0.368   8.095
 3582SOL    HW111120   1.799   0.411   8.134
 3582SOL    HW211121   1.853   0.295   8.032
 3583SOL     OW11122   2.431   1.275   8.613
 3583SOL    HW111123   2.338   1.268   8.576
 3583SOL    HW211124   2.442   1.364   8.657
 3584SOL     OW11125   3.417   1.511   8.151
 3584SOL    HW111126   3.360   1.495   8.232
 3584SOL    HW211127   3.358   1.521   8.071
 3585SOL     OW11128   2.997   0.703   8.165
 3585SOL    HW111129   3.054   0.781   8.140
 3585SOL    HW211130   2.937   0.729   8.241
 3586SOL     OW11131   3.617   0.607   7.679
 3586SOL    HW111132   3.605   0.594   7.580
 3586SOL    HW211133   3.587   0.526   7.728
 3587SOL     OW11134   2.630   1.144   8.471
 3587SOL    HW111135   2.552   1.161   8.531
 3587SOL    HW211136   2.664   1.231   8.435
 3588SOL     OW11137   2.547   1.012   8.113
 3588SOL    HW111138   2.616   0.996   8.183
 3588SOL    HW211139   2.474   1.069   8.151
 3589SOL     OW11140   2.197   1.435   8.509
 3589SOL    HW111141   2.119   1.404   8.456
 3589SOL    HW211142   2.255   1.493   8.452
 3590SOL     OW11143   3.322   1.505   8.787
 3590SOL    HW111144   3.346   1.599   8.813
 3590SOL    HW211145   3.306   1.451   8.869
 3591SOL     OW11146   2.300   0.392   8.947
 3591SOL    HW111147   2.382   0.336   8.956
 3591SOL    HW211148   2.219   0.334   8.951
 3592SOL     OW11149   3.465   0.447   8.185
 3592SOL    HW111150   3.391   0.493   8.135
 3592SOL    HW211151   3.516   0.515   8.238
 3593SOL     OW11152   2.093   1.713   7.931
 3593SOL    HW111153   2.127   1.790   7.985
 3593SOL    HW211154   2.137   1.713   7.841
 3594SOL     OW11155   2.092   1.434   7.986
 3594SOL    HW111156   2.066   1.530   7.986
 3594SOL    HW211157   2.021   1.380   8.031
 3595SOL     OW11158   2.102   1.091   8.334
 3595SOL    HW111159   2.116   1.007   8.386
 3595SOL    HW211160   2.047   1.155   8.389
 3596SOL     OW11161   2.482   1.786   8.887
 3596SOL    HW111162   2.390   1.769   8.922
 3596SOL    HW211163   2.510   1.878   8.913
 3597SOL     OW11164   2.468   0.964   7.571
 3597SOL    HW111165   2.475   1.048   7.517
 3597SOL    HW211166   2.514   0.977   7.659
 3598SOL     OW11167   3.456   0.114   8.928
 3598SOL    HW111168   3.438   0.181   8.856
 3598SOL    HW211169   3.453   0.160   9.017
 3599SOL     OW11170   1.984   0.643   8.011
 3599SOL    HW111171   1.939   0.555   8.028
 3599SOL    HW211172   1.983   0.697   8.095
 3600SOL     OW11173   3.704   1.767   7.807
 3600SOL    HW111174   3.758   1.738   7.887
 3600SOL    HW211175   3.734   1.857   7.778
 3601SOL     OW11176   1.889   1.596   7.565
 3601SOL    HW111177   1.870   1.500   7.586
 3601SOL    HW211178   1.856   1.654   7.640
 3602SOL     OW11179   3.551   0.922   8.060
 3602SOL    HW111180   3.646   0.893   8.068
 3602SOL    HW211181   3.543   0.987   7.985
 3603SOL     OW11182   3.503   1.108   7.880
 3603SOL    HW111183   3.589   1.110   7.828
 3603SOL    HW211184   3.517   1.155   7.968
 3604SOL     OW11185   2.475   1.365   8.174
 3604SOL    HW111186   2.426   1.278   8.183
 3604SOL    HW211187   2.452   1.408   8.087
 3605SOL     OW11188   2.671   0.004   7.950
 3605SOL    HW111189   2.711   0.095   7.941
 3605SOL    HW211190   2.571   0.012   7.956
 3606SOL     OW11191   2.059   0.976   8.712
 3606SOL    HW111192   2.148   0.931   8.698
 3606SOL    HW211193   1.986   0.911   8.693
 3607SOL     OW11194   3.387   0.999   7.638
 3607SOL    HW111195   3.324   0.923   7.651
 3607SOL    HW211196   3.435   1.017   7.724
 3608SOL     OW11197   2.179   0.251   9.249
 3608SOL    HW111198   2.250   0.322   9.255
 3608SOL    HW211199   2.091   0.290   9.277
 3609SOL     OW11200   3.328   1.417   8.401
 3609SOL    HW111201   3.269   1.423   8.481
 3609SOL    HW211202   3.313   1.329   8.355
 3610SOL     OW11203   3.529   1.714   8.020
 3610SOL    HW111204   3.488   1.691   7.932
 3610SOL    HW211205   3.511   1.640   8.085
 3611SOL     OW11206   2.460   0.729   7.718
 3611SOL    HW111207   2.484   0.798   7.650
 3611SOL    HW211208   2.382   0.762   7.772
 3612SOL     OW11209   3.143   0.345   8.392
 3612SOL    HW111210   3.057   0.295   8.379
 3612SOL    HW211211   3.205   0.291   8.448
 3613SOL     OW11212   3.438   1.662   7.755
 3613SOL    HW111213   3.527   1.708   7.758
 3613SOL    HW211214   3.417   1.638   7.660
 3614SOL     OW11215   2.669   0.605   8.913
 3614SOL    HW111216   2.622   0.602   9.002
 3614SOL    HW211217   2.618   0.550   8.847
 3615SOL     OW11218   2.853   0.410   8.690
 3615SOL    HW111219   2.776   0.444   8.744
 3615SOL    HW211220   2.819   0.359   8.611
 3616SOL     OW11221   2.903   0.701   7.877
 3616SOL    HW111222   2.929   0.697   7.973
 3616SOL    HW211223   2.818   0.650   7.863
 3617SOL     OW11224   1.938   0.811   8.237
 3617SOL    HW111225   2.037   0.799   8.246
 3617SOL    HW211226   1.914   0.906   8.258
 3618SOL     OW11227   1.992   1.821   9.019
 3618SOL    HW111228   1.982   1.806   9.118
 3618SOL    HW211229   1.906   1.857   8.983
 3619SOL     OW11230   2.727   0.348   7.643
 3619SOL    HW111231   2.786   0.411   7.594
 3619SOL    HW211232   2.746   0.254   7.614
 3620SOL     OW11233   3.224   1.144   7.993
 3620SOL    HW111234   3.307   1.115   7.945
 3620SOL    HW211235   3.175   1.211   7.937
 3621SOL     OW11236   2.412   0.196   8.333
 3621SOL    HW111237   2.407   0.191   8.433
 3621SOL    HW211238   2.414   0.292   8.304
 3622SOL     OW11239   2.870   1.456   7.925
 3622SOL    HW111240   2.824   1.528   7.873
 3622SOL    HW211241   2.866   1.476   8.023
 3623SOL     OW11242   2.213   1.801   8.301
 3623SOL    HW111243   2.263   1.715   8.307
 3623SOL    HW211244   2.278   1.878   8.298
 3624SOL     OW11245   3.657   1.066   8.321
 3624SOL    HW111246   3.595   1.051   8.245
 3624SOL    HW211247   3.605   1.077   8.406
 3625SOL     OW11248   2.183   0.943   7.690
 3625SOL    HW111249   2.265   0.982   7.648
 3625SOL    HW211250   2.156   0.861   7.641
 3626SOL     OW11251   3.320   0.735   8.176
 3626SOL    HW111252   3.315   0.670   8.251
 3626SOL    HW211253   3.400   0.794   8.189
 3627SOL     OW11254   2.973   1.776   7.685
 3627SOL    HW111255   2.913   1.714   7.735
 3627SOL    HW211256   3.004   1.732   7.600
 3628SOL     OW11257   2.064   0.285   8.946
 3628SOL    HW111258   1.984   0.345   8.933
 3628SOL    HW211259   2.054   0.236   9.032
 3629SOL     OW11260   3.494   1.377   7.529
 3629SOL    HW111261   3.462   1.471   7.519
 3629SOL    HW211262   3.418   1.314   7.517
 3630SOL     OW11263   2.326   1.743   7.771
 3630SOL    HW111264   2.359   1.782   7.857
 3630SOL    HW211265   2.402   1.736   7.706
 3631SOL     OW11266   3.262   0.107   7.874
 3631SOL    HW111267   3.238   0.070   7.784
 3631SOL    HW211268   3.361   0.123   7.878
 3632SOL     OW11269   2.111   1.785   8.689
 3632SOL    HW111270   2.168   1.720   8.739
 3632SOL    HW211271   2.095   1.752   8.596
 3633SOL     OW11272   2.802   1.698   8.352
 3633SOL    HW111273   2.882   1.641   8.373
 3633SOL    HW211274   2.753   1.658   8.275
 3634SOL     OW11275   2.244   0.700   7.928
 3634SOL    HW111276   2.289   0.610   7.925
 3634SOL    HW211277   2.150   0.689   7.961
 3635SOL     OW11278   2.476   0.122   7.565
 3635SOL    HW111279   2.574   0.100   7.572
 3635SOL    HW211280   2.445   0.105   7.472
 3636SOL     OW11281   2.750   1.514   8.643
 3636SOL    HW111282   2.727   1.489   8.549
 3636SOL    HW211283   2.811   1.445   8.682
 3637SOL     OW11284   2.665   1.402   8.372
 3637SOL    HW111285   2.755   1.416   8.330
 3637SOL    HW211286   2.594   1.404   8.301
 3638SOL     OW11287   2.784   0.503   8.347
 3638SOL    HW111288   2.759   0.494   8.251
 3638SOL    HW211289   2.832   0.421   8.378
 3639SOL     OW11290   2.401   0.064   7.960
 3639SOL    HW111291   2.320   0.065   8.018
 3639SOL    HW211292   2.404   0.147   7.905
 3640SOL     OW11293   3.296   1.188   7.489
 3640SOL    HW111294   3.328   1.112   7.546
 3640SOL    HW211295   3.204   1.215   7.519
 3641SOL     OW11296   2.159   0.035   7.619
 3641SOL    HW111297   2.208   0.119   7.598
 3641SOL    HW211298   2.221  -0.030   7.664
 3642SOL     OW11299   2.797   0.236   7.928
 3642SOL    HW111300   2.749   0.277   7.850
 3642SOL    HW211301   2.896   0.234   7.909
 3643SOL     OW11302   3.089   1.570   8.241
 3643SOL    HW111303   3.110   1.644   8.176
 3643SOL    HW211304   3.157   1.570   8.314
 3644SOL     OW11305   2.321   1.152   8.189
 3644SOL    HW111306   2.250   1.125   8.254
 3644SOL    HW211307   2.295   1.124   8.096
 3645SOL     OW11308   3.133   1.797   8.039
 3645SOL    HW111309   3.177   1.861   7.975
 3645SOL    HW211310   3.083   1.849   8.109
 3646SOL     OW11311   2.894   0.549   7.464
 3646SOL    HW111312   2.853   0.631   7.425
 3646SOL    HW211313   2.958   0.575   7.537
 3647SOL     OW11314   1.940   0.556   8.834
 3647SOL    HW111315   2.032   0.555   8.793
 3647SOL    HW211316   1.934   0.630   8.901
 3648SOL     OW11317   2.423   0.222   8.595
 3648SOL    HW111318   2.461   0.138   8.632
 3648SOL    HW211319   2.335   0.241   8.639
 3649SOL     OW11320   2.728   0.454   8.090
 3649SOL    HW111321   2.696   0.526   8.028
 3649SOL    HW211322   2.752   0.373   8.037
 3650SOL     OW11323   2.879   0.039   8.201
 3650SOL    HW111324   2.807   0.044   8.132
 3650SOL    HW211325   2.855  -0.030   8.270
 3651SOL     OW11326   3.291   1.173   8.315
 3651SOL    HW111327   3.236   1.089   8.308
 3651SOL    HW211328   3.317   1.202   8.223
 3652SOL     OW11329   3.328   0.590   8.440
 3652SOL    HW111330   3.298   0.495   8.447
 3652SOL    HW211331   3.401   0.606   8.506
 3653SOL     OW11332   3.719   0.833   7.825
 3653SOL    HW111333   3.761   0.769   7.889
 3653SOL    HW211334   3.681   0.782   7.747
 3654SOL     OW11335   2.350   1.385   7.622
 3654SOL    HW111336   2.263   1.370   7.669
 3654SOL    HW211337   2.333   1.411   7.527
 3655SOL     OW11338   3.526   1.280   8.105
 3655SOL    HW111339   3.625   1.288   8.119
 3655SOL    HW211340   3.481   1.364   8.136
 3656SOL     OW11341   3.252   0.575   7.526
 3656SOL    HW111342   3.198   0.554   7.607
 3656SOL    HW211343   3.343   0.534   7.535
 3657SOL     OW11344   2.389   0.256   7.776
 3657SOL    HW111345   2.416   0.197   7.701
 3657SOL    HW211346   2.389   0.351   7.745
 3658SOL     OW11347   2.926   1.347   8.788
 3658SOL    HW111348   2.846   1.324   8.843
 3658SOL    HW211349   3.009   1.321   8.837
 3659SOL     OW11350   2.973   1.195   8.548
 3659SOL    HW111351   2.933   1.239   8.629
 3659SOL    HW211352   2.932   1.232   8.465
 3660SOL     OW11353   3.500   1.099   8.527
 3660SOL    HW111354   3.505   1.180   8.586
 3660SOL    HW211355   3.414   1.101   8.476
 3661SOL     OW11356   2.777   0.089   8.850
 3661SOL    HW111357   2.802   0.069   8.755
 3661SOL    HW211358   2.849   0.145   8.892
 3662SOL     OW11359   2.567   1.050   7.816
 3662SOL    HW111360   2.553   1.057   7.915
 3662SOL    HW211361   2.651   0.999   7.798
 3663SOL     OW11362   2.272   0.813   8.699
 3663SOL    HW111363   2.358   0.825   8.749
 3663SOL    HW211364   2.230   0.726   8.726
 3664SOL     OW11365   3.136   0.386   8.710
 3664SOL    HW111366   3.157   0.460   8.774
 3664SOL    HW211367   3.047   0.403   8.667
 3665SOL     OW11368   1.926   1.564   8.779
 3665SOL    HW111369   1.880   1.646   8.745
 3665SOL    HW211370   2.024   1.583   8.788
 3666SOL     OW11371   2.229   1.100   7.949
 3666SOL    HW111372   2.222   1.183   7.893
 3666SOL    HW211373   2.233   1.020   7.889
 3667SOL     OW11374   2.428   0.537   8.313
 3667SOL    HW111375   2.440   0.603   8.239
 3667SOL    HW211376   2.474   0.571   8.396
 3668SOL     OW11377   3.114   1.348   7.836
 3668SOL    HW111378   3.164   1.425   7.876
 3668SOL    HW211379   3.019   1.350   7.868
 3669SOL     OW11380   3.134   1.445   8.590
 3669SOL    HW111381   3.181   1.458   8.677
 3669SOL    HW211382   3.068   1.371   8.599
 3670SOL     OW11383   3.444   0.639   7.920
 3670SOL    HW111384   3.413   0.700   7.993
 3670SOL    HW211385   3.494   0.691   7.851
 3671SOL     OW11386   2.216   1.510   8.777
 3671SOL    HW111387   2.195   1.466   8.690
 3671SOL    HW211388   2.313   1.536   8.780
 3672SOL     OW11389   2.264   0.751   9.046
 3672SOL    HW111390   2.332   0.806   8.999
 3672SOL    HW211391   2.304   0.663   9.073
 3673SOL     OW11392   3.449   0.779   9.118
 3673SOL    HW111393   3.357   0.817   9.113
 3673SOL    HW211394   3.509   0.826   9.053
 3674SOL     OW11395   2.435   0.870   8.477
 3674SOL    HW111396   2.479   0.959   8.468
 3674SOL    HW211397   2.372   0.870   8.554
 3675SOL     OW11398   3.222   0.862   8.493
 3675SOL    HW111399   3.147   0.862   8.427
 3675SOL    HW211400   3.259   0.770   8.502
 3676SOL     OW11401   3.071   0.525   7.723
 3676SOL    HW111402   3.084   0.441   7.777
 3676SOL    HW211403   3.042   0.599   7.783
 3677SOL     OW11404   2.169   0.213   8.679
 3677SOL    HW111405   2.146   0.250   8.769
 3677SOL    HW211406   2.139   0.118   8.673
 3678SOL     OW11407   1.899   1.310   8.730
 3678SOL    HW111408   1.952   1.261   8.798
 3678SOL    HW211409   1.921   1.408   8.735
 3679SOL     OW11410   2.594   0.634   8.512
 3679SOL    HW111411   2.653   0.608   8.436
 3679SOL    HW211412   2.566   0.730   8.501
 3680SOL     OW11413   2.169   0.063   8.066
 3680SOL    HW111414   2.158   0.157   8.099
 3680SOL    HW211415   2.164   0.000   8.143
 3681SOL     OW11416   3.484   0.367   7.822
 3681SOL    HW111417   3.486   0.291   7.886
 3681SOL    HW211418   3.436   0.444   7.862
 3682SOL     OW11419   2.885   0.766   8.414
 3682SOL    HW111420   2.900   0.787   8.510
 3682SOL    HW211421   2.855   0.671   8.405
 3683SOL     OW11422   2.842   1.573   9.148
 3683SOL    HW111423   2.822   1.617   9.060
 3683SOL    HW211424   2.881   1.482   9.132
 3684SOL     OW11425   3.402   0.274   7.573
 3684SOL    HW111426   3.341   0.199   7.596
 3684SOL    HW211427   3.424   0.326   7.656
 3685SOL     OW11428   3.165   0.838   7.490
 3685SOL    HW111429   3.199   0.745   7.505
 3685SOL    HW211430   3.183   0.865   7.395
 3686SOL     OW11431   2.930   1.333   8.297
 3686SOL    HW111432   2.937   1.249   8.242
 3686SOL    HW211433   2.992   1.402   8.261
 3687SOL     OW11434   2.181   0.810   8.397
 3687SOL    HW111435   2.274   0.846   8.402
 3687SOL    HW211436   2.175   0.725   8.449
 3688SOL     OW11437   2.201   0.509   8.454
 3688SOL    HW111438   2.149   0.426   8.437
 3688SOL    HW211439   2.278   0.514   8.390
 3689SOL     OW11440   3.000   0.380   9.126
 3689SOL    HW111441   2.955   0.443   9.190
 3689SOL    HW211442   3.093   0.411   9.109
 3690SOL     OW11443   3.022   0.207   8.925
 3690SOL    HW111444   3.022   0.271   9.002
 3690SOL    HW211445   3.050   0.255   8.842
 3691SOL     OW11446   1.870   1.326   7.648
 3691SOL    HW111447   1.777   1.347   7.617
 3691SOL    HW211448   1.880   1.227   7.661
 3692SOL     OW11449   1.950   1.801   8.375
 3692SOL    HW111450   1.908   1.715   8.348
 3692SOL    HW211451   2.044   1.804   8.341
 3693SOL     OW11452   2.366   1.568   8.358
 3693SOL    HW111453   2.432   1.642   8.367
 3693SOL    HW211454   2.410   1.489   8.316
 3694SOL     OW11455   2.864   0.796   8.686
 3694SOL    HW111456   2.905   0.764   8.772
 3694SOL    HW211457   2.768   0.769   8.683
 3695SOL     OW11458   1.902   0.544   8.562
 3695SOL    HW111459   1.987   0.511   8.521
 3695SOL    HW211460   1.915   0.559   8.660
 3696SOL     OW11461   2.677   0.572   7.773
 3696SOL    HW111462   2.684   0.483   7.727
 3696SOL    HW211463   2.583   0.606   7.765
 3697SOL     OW11464   3.519   0.604   8.654
 3697SOL    HW111465   3.481   0.535   8.716
 3697SOL    HW211466   3.601   0.568   8.610
 3698SOL     OW11467   2.533   0.464   8.717
 3698SOL    HW111468   2.499   0.375   8.687
 3698SOL    HW211469   2.559   0.518   8.637
 3699SOL     OW11470   2.792   1.678   8.913
 3699SOL    HW111471   2.768   1.660   8.818
 3699SOL    HW211472   2.822   1.772   8.923
 3700SOL     OW11473   2.335   0.500   7.639
 3700SOL    HW111474   2.396   0.580   7.643
 3700SOL    HW211475   2.240   0.531   7.646
 3701SOL     OW11476   2.021   1.137   8.914
 3701SOL    HW111477   2.043   1.076   8.990
 3701SOL    HW211478   2.031   1.088   8.828
 3702SOL     OW11479   3.209   1.059   8.682
 3702SOL    HW111480   3.233   0.996   8.608
 3702SOL    HW211481   3.119   1.099   8.664
 3703SOL     OW11482   3.164   0.855   7.757
 3703SOL    HW111483   3.078   0.824   7.799
 3703SOL    HW211484   3.160   0.841   7.658
 3704SOL     OW11485   3.621   1.747   8.602
 3704SOL    HW111486   3.682   1.777   8.529
 3704SOL    HW211487   3.583   1.658   8.580
 3705SOL     OW11488   3.114   1.731   8.576
 3705SOL    HW111489   3.198   1.736   8.522
 3705SOL    HW211490   3.091   1.635   8.594
 3706SOL     OW11491   1.945   1.258   8.470
 3706SOL    HW111492   1.940   1.257   8.570
 3706SOL    HW211493   1.862   1.217   8.432
 3707SOL     OW11494   3.588   0.135   7.971
 3707SOL    HW111495   3.661   0.118   7.904
 3707SOL    HW211496   3.557   0.048   8.009
 3708SOL     OW11497   3.250   1.573   7.925
 3708SOL    HW111498   3.317   1.585   7.851
 3708SOL    HW211499   3.210   1.662   7.948
 3709SOL     OW11500   3.142   0.927   8.120
 3709SOL    HW111501   3.202   0.846   8.122
 3709SOL    HW211502   3.182   0.996   8.060
 3710SOL     OW11503   2.534   1.616   7.602
 3710SOL    HW111504   2.543   1.626   7.503
 3710SOL    HW211505   2.494   1.527   7.623
 3711SOL     OW11506   3.512   1.720   8.842
 3711SOL    HW111507   3.565   1.730   8.758
 3711SOL    HW211508   3.485   1.810   8.876
 3712SOL     OW11509   3.703   0.175   8.411
 3712SOL    HW111510   3.742   0.090   8.375
 3712SOL    HW211511   3.605   0.177   8.392
 3713SOL     OW11512   2.125   0.326   8.168
 3713SOL    HW111513   2.046   0.377   8.134
 3713SOL    HW211514   2.116   0.311   8.266
 3714SOL     OW11515   3.056   1.612   7.479
 3714SOL    HW111516   3.062   1.519   7.516
 3714SOL    HW211517   2.997   1.612   7.399
 3715SOL     OW11518   2.684   1.002   8.820
 3715SOL    HW111519   2.724   1.001   8.728
 3715SOL    HW211520   2.694   1.094   8.860
 3716SOL     OW11521   2.778   0.910   7.739
 3716SOL    HW111522   2.841   0.948   7.671
 3716SOL    HW211523   2.818   0.827   7.778
 3717SOL     OW11524   3.366   1.607   7.492
 3717SOL    HW111525   3.274   1.644   7.499
 3717SOL    HW211526   3.404   1.627   7.402
 3718SOL     OW11527   2.234   1.288   8.938
 3718SOL    HW111528   2.221   1.381   8.904
 3718SOL    HW211529   2.150   1.236   8.925
 3719SOL     OW11530   3.476   1.292   8.737
 3719SOL    HW111531   3.536   1.295   8.817
 3719SOL    HW211532   3.401   1.356   8.750
 3720SOL     OW11533   2.901   1.098   8.144
 3720SOL    HW111534   2.831   1.051   8.198
 3720SOL    HW211535   2.960   1.030   8.101
 3721SOL     OW11536   2.876   0.236   8.419
 3721SOL    HW111537   2.868   0.200   8.326
 3721SOL    HW211538   2.874   0.160   8.484
 3722SOL     OW11539   2.452   1.487   7.939
 3722SOL    HW111540   2.494   1.429   7.869
 3722SOL    HW211541   2.408   1.566   7.895
 3723SOL     OW11542   3.571   0.385   8.829
 3723SOL    HW111543   3.644   0.454   8.833
 3723SOL    HW211544   3.599   0.310   8.770
 3724SOL     OW11545   2.117   1.348   7.738
 3724SOL    HW111546   2.021   1.349   7.711
 3724SOL    HW211547   2.129   1.401   7.822
 3725SOL     OW11548   1.937   0.345   7.481
 3725SOL    HW111549   1.845   0.317   7.452
 3725SOL    HW211550   1.968   0.422   7.425
 3726SOL     OW11551   3.302   0.856   8.846
 3726SOL    HW111552   3.245   0.908   8.783
 3726SOL    HW211553   3.398   0.868   8.822
 3727SOL     OW11554   1.934   0.166   7.766
 3727SOL    HW111555   1.917   0.249   7.712
 3727SOL    HW211556   2.024   0.129   7.744
 3728SOL     OW11557   3.045   1.335   7.567
 3728SOL    HW111558   2.946   1.324   7.569
 3728SOL    HW211559   3.079   1.350   7.660
 3729SOL     OW11560   2.475   0.842   8.879
 3729SOL    HW111561   2.531   0.923   8.862
 3729SOL    HW211562   2.534   0.762   8.882
 3730SOL     OW11563   3.355   1.767   8.407
 3730SOL    HW111564   3.388   1.831   8.338
 3730SOL    HW211565   3.421   1.761   8.482
 3731SOL     OW11566   2.252   1.741   9.008
 3731SOL    HW111567   2.161   1.782   9.006
 3731SOL    HW211568   2.245   1.647   9.040
 3732SOL     OW11569   3.536   0.883   8.702
 3732SOL    HW111570   3.509   0.794   8.665
 3732SOL    HW211571   3.537   0.951   8.629
 3733SOL     OW11572   3.087   0.325   7.897
 3733SOL    HW111573   3.152   0.251   7.886
 3733SOL    HW211574   3.107   0.375   7.981
 3734SOL     OW11575   2.456   0.745   8.100
 3734SOL    HW111576   2.506   0.830   8.081
 3734SOL    HW211577   2.368   0.747   8.052
 3735SOL     OW11578   3.639   0.342   9.090
 3735SOL    HW111579   3.622   0.373   8.996
 3735SOL    HW211580   3.555   0.305   9.128
 3736SOL     OW11581   3.592   0.934   8.965
 3736SOL    HW111582   3.630   1.025   8.980
 3736SOL    HW211583   3.584   0.917   8.866
 3737SOL     OW11584   2.721   1.374   7.464
 3737SOL    HW111585   2.675   1.389   7.552
 3737SOL    HW211586   2.765   1.459   7.434
 3738SOL     OW11587   2.523   1.790   8.401
 3738SOL    HW111588   2.477   1.878   8.388
 3738SOL    HW211589   2.622   1.802   8.394
 3739SOL     OW11590   2.721   0.956   8.309
 3739SOL    HW111591   2.775   0.887   8.357
 3739SOL    HW211592   2.689   1.025   8.375
 3740SOL     OW11593   2.945   0.984   7.535
 3740SOL    HW111594   2.922   1.037   7.453
 3740SOL    HW211595   3.026   0.928   7.516
 3741SOL     OW11596   3.723   1.569   8.299
 3741SOL    HW111597   3.652   1.557   8.229
 3741SOL    HW211598   3.724   1.490   8.359
 3742SOL     OW11599   1.941   1.240   8.101
 3742SOL    HW111600   1.940   1.193   8.189
 3742SOL    HW211601   2.023   1.212   8.050
 3743SOL     OW11602   3.686   0.192   8.675
 3743SOL    HW111603   3.682   0.102   8.719
 3743SOL    HW211604   3.689   0.181   8.576
 3744SOL     OW11605   2.290   0.424   7.968
 3744SOL    HW111606   2.320   0.352   7.906
 3744SOL    HW211607   2.251   0.384   8.051
 3745SOL     OW11608   3.567   1.487   8.552
 3745SOL    HW111609   3.474   1.462   8.525
 3745SOL    HW211610   3.593   1.437   8.634
 3746SOL     OW11611   2.179   0.547   8.728
 3746SOL    HW111612   2.217   0.488   8.800
 3746SOL    HW211613   2.219   0.521   8.640
 3747SOL     OW11614   2.674   1.586   8.135
 3747SOL    HW111615   2.706   1.596   8.041
 3747SOL    HW211616   2.595   1.524   8.137
 3748SOL     OW11617   3.286   0.214   8.560
 3748SOL    HW111618   3.338   0.149   8.615
 3748SOL    HW211619   3.237   0.277   8.621
 3749SOL     OW11620   2.863   0.034   8.602
 3749SOL    HW111621   2.800  -0.038   8.571
 3749SOL    HW211622   2.956  -0.002   8.602
 3750SOL     OW11623   2.632   1.330   7.749
 3750SOL    HW111624   2.586   1.243   7.766
 3750SOL    HW211625   2.723   1.327   7.790
 3751SOL     OW11626   2.480   1.567   8.732
 3751SOL    HW111627   2.475   1.649   8.789
 3751SOL    HW211628   2.569   1.564   8.687
 3752SOL     OW11629   3.214   0.052   7.616
 3752SOL    HW111630   3.249   0.011   7.532
 3752SOL    HW211631   3.124   0.014   7.636
 3753SOL     OW11632   3.162   0.453   8.139
 3753SOL    HW111633   3.103   0.533   8.143
 3753SOL    HW211634   3.177   0.418   8.232
 3754SOL     OW11635   3.455   0.221   8.330
 3754SOL    HW111636   3.371   0.220   8.384
 3754SOL    HW211637   3.457   0.304   8.274
 3755SOL     OW11638   1.901   1.077   7.748
 3755SOL    HW111639   2.000   1.066   7.739
 3755SOL    HW211640   1.861   0.991   7.780
 3756SOL     OW11641   2.737   1.646   7.785
 3756SOL    HW111642   2.660   1.611   7.731
 3756SOL    HW211643   2.705   1.717   7.847
 3757SOL     OW11644   2.092   2.490   0.113
 3757SOL    HW111645   1.999   2.488   0.150
 3757SOL    HW211646   2.093   2.451   0.021
 3758SOL     OW11647   2.087   2.137   0.996
 3758SOL    HW111648   2.122   2.120   1.088
 3758SOL    HW211649   1.999   2.092   0.984
 3759SOL     OW11650   1.881   2.230   0.647
 3759SOL    HW111651   1.799   2.273   0.686
 3759SOL    HW211652   1.853   2.157   0.584
 3760SOL     OW11653   2.431   3.137   1.165
 3760SOL    HW111654   2.338   3.130   1.128
 3760SOL    HW211655   2.442   3.226   1.209
 3761SOL     OW11656   3.417   3.373   0.703
 3761SOL    HW111657   3.360   3.357   0.784
 3761SOL    HW211658   3.358   3.383   0.623
 3762SOL     OW11659   2.997   2.565   0.717
 3762SOL    HW111660   3.054   2.643   0.692
 3762SOL    HW211661   2.937   2.591   0.793
 3763SOL     OW11662   3.617   2.469   0.231
 3763SOL    HW111663   3.605   2.456   0.132
 3763SOL    HW211664   3.587   2.388   0.280
 3764SOL     OW11665   2.630   3.006   1.023
 3764SOL    HW111666   2.552   3.023   1.083
 3764SOL    HW211667   2.664   3.093   0.987
 3765SOL     OW11668   2.712   2.660   1.823
 3765SOL    HW111669   2.708   2.736   1.888
 3765SOL    HW211670   2.734   2.696   1.732
 3766SOL     OW11671   2.547   2.874   0.665
 3766SOL    HW111672   2.616   2.858   0.735
 3766SOL    HW211673   2.474   2.931   0.703
 3767SOL     OW11674   2.548   3.023   1.803
 3767SOL    HW111675   2.608   3.102   1.817
 3767SOL    HW211676   2.462   3.054   1.762
 3768SOL     OW11677   2.197   3.297   1.061
 3768SOL    HW111678   2.119   3.266   1.008
 3768SOL    HW211679   2.255   3.355   1.004
 3769SOL     OW11680   3.322   3.367   1.339
 3769SOL    HW111681   3.346   3.461   1.365
 3769SOL    HW211682   3.306   3.313   1.421
 3770SOL     OW11683   2.300   2.254   1.499
 3770SOL    HW111684   2.382   2.198   1.508
 3770SOL    HW211685   2.219   2.196   1.503
 3771SOL     OW11686   3.465   2.309   0.737
 3771SOL    HW111687   3.391   2.355   0.687
 3771SOL    HW211688   3.516   2.377   0.790
 3772SOL     OW11689   2.093   3.575   0.483
 3772SOL    HW111690   2.127   3.652   0.537
 3772SOL    HW211691   2.137   3.575   0.393
 3773SOL     OW11692   2.989   3.203   1.690
 3773SOL    HW111693   3.036   3.203   1.778
 3773SOL    HW211694   2.941   3.116   1.679
 3774SOL     OW11695   2.092   3.296   0.538
 3774SOL    HW111696   2.066   3.392   0.538
 3774SOL    HW211697   2.021   3.242   0.583
 3775SOL     OW11698   2.102   2.953   0.886
 3775SOL    HW111699   2.116   2.869   0.938
 3775SOL    HW211700   2.047   3.017   0.941
 3776SOL     OW11701   2.482   3.648   1.439
 3776SOL    HW111702   2.390   3.631   1.474
 3776SOL    HW211703   2.510   3.740   1.465
 3777SOL     OW11704   2.468   2.826   0.123
 3777SOL    HW111705   2.475   2.910   0.069
 3777SOL    HW211706   2.514   2.839   0.211
 3778SOL     OW11707   3.456   1.976   1.480
 3778SOL    HW111708   3.438   2.043   1.408
 3778SOL    HW211709   3.453   2.022   1.569
 3779SOL     OW11710   1.984   2.505   0.563
 3779SOL    HW111711   1.939   2.417   0.580
 3779SOL    HW211712   1.983   2.559   0.647
 3780SOL     OW11713   3.704   3.629   0.359
 3780SOL    HW111714   3.758   3.600   0.439
 3780SOL    HW211715   3.734   3.719   0.330
 3781SOL     OW11716   1.889   3.458   0.117
 3781SOL    HW111717   1.870   3.362   0.138
 3781SOL    HW211718   1.856   3.516   0.192
 3782SOL     OW11719   3.551   2.784   0.612
 3782SOL    HW111720   3.646   2.755   0.620
 3782SOL    HW211721   3.543   2.849   0.537
 3783SOL     OW11722   3.503   2.970   0.432
 3783SOL    HW111723   3.589   2.972   0.380
 3783SOL    HW211724   3.517   3.017   0.520
 3784SOL     OW11725   1.975   2.599   1.597
 3784SOL    HW111726   2.063   2.586   1.642
 3784SOL    HW211727   1.962   2.696   1.575
 3785SOL     OW11728   2.475   3.227   0.726
 3785SOL    HW111729   2.426   3.140   0.735
 3785SOL    HW211730   2.452   3.270   0.639
 3786SOL     OW11731   3.155   3.090   1.423
 3786SOL    HW111732   3.192   3.017   1.365
 3786SOL    HW211733   3.207   3.095   1.508
 3787SOL     OW11734   2.671   1.866   0.502
 3787SOL    HW111735   2.711   1.957   0.493
 3787SOL    HW211736   2.571   1.874   0.508
 3788SOL     OW11737   2.059   2.838   1.264
 3788SOL    HW111738   2.148   2.793   1.250
 3788SOL    HW211739   1.986   2.773   1.245
 3789SOL     OW11740   3.387   2.861   0.190
 3789SOL    HW111741   3.324   2.785   0.203
 3789SOL    HW211742   3.435   2.879   0.276
 3790SOL     OW11743   3.049   3.654   1.616
 3790SOL    HW111744   3.073   3.714   1.540
 3790SOL    HW211745   3.056   3.559   1.586
 3791SOL     OW11746   2.179   2.113   1.801
 3791SOL    HW111747   2.250   2.184   1.807
 3791SOL    HW211748   2.091   2.152   1.829
 3792SOL     OW11749   3.328   3.279   0.953
 3792SOL    HW111750   3.269   3.285   1.033
 3792SOL    HW211751   3.313   3.191   0.907
 3793SOL     OW11752   3.529   3.576   0.572
 3793SOL    HW111753   3.488   3.553   0.484
 3793SOL    HW211754   3.511   3.502   0.637
 3794SOL     OW11755   3.143   2.207   0.944
 3794SOL    HW111756   3.057   2.157   0.931
 3794SOL    HW211757   3.205   2.153   1.000
 3795SOL     OW11758   3.438   3.524   0.307
 3795SOL    HW111759   3.527   3.570   0.310
 3795SOL    HW211760   3.417   3.500   0.212
 3796SOL     OW11761   3.256   2.331   1.674
 3796SOL    HW111762   3.236   2.374   1.762
 3796SOL    HW211763   3.334   2.269   1.683
 3797SOL     OW11764   2.835   2.752   1.572
 3797SOL    HW111765   2.881   2.668   1.543
 3797SOL    HW211766   2.779   2.786   1.497
 3798SOL     OW11767   2.853   2.272   1.242
 3798SOL    HW111768   2.776   2.306   1.296
 3798SOL    HW211769   2.819   2.221   1.163
 3799SOL     OW11770   2.903   2.563   0.429
 3799SOL    HW111771   2.929   2.559   0.525
 3799SOL    HW211772   2.818   2.512   0.415
 3800SOL     OW11773   1.938   2.673   0.789
 3800SOL    HW111774   2.037   2.661   0.798
 3800SOL    HW211775   1.914   2.768   0.810
 3801SOL     OW11776   1.992   3.683   1.571
 3801SOL    HW111777   1.982   3.668   1.670
 3801SOL    HW211778   1.906   3.719   1.535
 3802SOL     OW11779   2.727   2.210   0.195
 3802SOL    HW111780   2.786   2.273   0.146
 3802SOL    HW211781   2.746   2.116   0.166
 3803SOL     OW11782   3.581   2.447   1.831
 3803SOL    HW111783   3.555   2.536   1.795
 3803SOL    HW211784   3.579   2.379   1.758
 3804SOL     OW11785   3.224   3.006   0.545
 3804SOL    HW111786   3.307   2.977   0.497
 3804SOL    HW211787   3.175   3.073   0.489
 3805SOL     OW11788   2.412   2.058   0.885
 3805SOL    HW111789   2.407   2.053   0.985
 3805SOL    HW211790   2.414   2.154   0.856
 3806SOL     OW11791   2.870   3.318   0.477
 3806SOL    HW111792   2.824   3.390   0.425
 3806SOL    HW211793   2.866   3.338   0.575
 3807SOL     OW11794   2.213   3.663   0.853
 3807SOL    HW111795   2.263   3.577   0.859
 3807SOL    HW211796   2.278   3.740   0.850
 3808SOL     OW11797   3.657   2.928   0.873
 3808SOL    HW111798   3.595   2.913   0.797
 3808SOL    HW211799   3.605   2.939   0.958
 3809SOL     OW11800   3.089   3.412   1.506
 3809SOL    HW111801   3.095   3.335   1.570
 3809SOL    HW211802   3.037   3.386   1.426
 3810SOL     OW11803   2.183   2.805   0.242
 3810SOL    HW111804   2.265   2.844   0.200
 3810SOL    HW211805   2.156   2.723   0.193
 3811SOL     OW11806   3.320   2.597   0.728
 3811SOL    HW111807   3.315   2.532   0.803
 3811SOL    HW211808   3.400   2.656   0.741
 3812SOL     OW11809   2.323   3.128   1.727
 3812SOL    HW111810   2.273   3.129   1.641
 3812SOL    HW211811   2.260   3.110   1.803
 3813SOL     OW11812   2.973   3.638   0.237
 3813SOL    HW111813   2.913   3.576   0.287
 3813SOL    HW211814   3.004   3.594   0.152
 3814SOL     OW11815   2.064   2.147   1.498
 3814SOL    HW111816   1.984   2.207   1.485
 3814SOL    HW211817   2.054   2.098   1.584
 3815SOL     OW11818   3.494   3.239   0.081
 3815SOL    HW111819   3.462   3.333   0.071
 3815SOL    HW211820   3.418   3.176   0.069
 3816SOL     OW11821   2.326   3.605   0.323
 3816SOL    HW111822   2.359   3.644   0.409
 3816SOL    HW211823   2.402   3.598   0.258
 3817SOL     OW11824   3.262   1.969   0.426
 3817SOL    HW111825   3.238   1.932   0.336
 3817SOL    HW211826   3.361   1.985   0.430
 3818SOL     OW11827   2.111   3.647   1.241
 3818SOL    HW111828   2.168   3.582   1.291
 3818SOL    HW211829   2.095   3.614   1.148
 3819SOL     OW11830   2.802   3.560   0.904
 3819SOL    HW111831   2.882   3.503   0.925
 3819SOL    HW211832   2.753   3.520   0.827
 3820SOL     OW11833   3.409   2.084   1.729
 3820SOL    HW111834   3.404   2.121   1.821
 3820SOL    HW211835   3.337   2.015   1.717
 3821SOL     OW11836   2.476   1.984   0.117
 3821SOL    HW111837   2.574   1.962   0.124
 3821SOL    HW211838   2.445   1.967   0.024
 3822SOL     OW11839   2.643   2.126   1.749
 3822SOL    HW111840   2.710   2.065   1.792
 3822SOL    HW211841   2.570   2.145   1.814
 3823SOL     OW11842   2.750   3.376   1.195
 3823SOL    HW111843   2.727   3.351   1.101
 3823SOL    HW211844   2.811   3.307   1.234
 3824SOL     OW11845   3.213   2.452   1.433
 3824SOL    HW111846   3.241   2.409   1.518
 3824SOL    HW211847   3.238   2.548   1.434
 3825SOL     OW11848   2.665   3.264   0.924
 3825SOL    HW111849   2.755   3.278   0.882
 3825SOL    HW211850   2.594   3.266   0.853
 3826SOL     OW11851   2.784   2.365   0.899
 3826SOL    HW111852   2.759   2.356   0.803
 3826SOL    HW211853   2.832   2.283   0.930
 3827SOL     OW11854   2.401   1.926   0.512
 3827SOL    HW111855   2.320   1.927   0.570
 3827SOL    HW211856   2.404   2.009   0.457
 3828SOL     OW11857   3.296   3.050   0.041
 3828SOL    HW111858   3.328   2.974   0.098
 3828SOL    HW211859   3.204   3.077   0.071
 3829SOL     OW11860   2.159   1.897   0.171
 3829SOL    HW111861   2.208   1.981   0.150
 3829SOL    HW211862   2.221   1.832   0.216
 3830SOL     OW11863   2.797   2.098   0.480
 3830SOL    HW111864   2.749   2.139   0.402
 3830SOL    HW211865   2.896   2.096   0.461
 3831SOL     OW11866   2.938   2.545   1.464
 3831SOL    HW111867   2.858   2.484   1.467
 3831SOL    HW211868   3.019   2.492   1.440
 3832SOL     OW11869   3.089   3.432   0.793
 3832SOL    HW111870   3.110   3.506   0.728
 3832SOL    HW211871   3.157   3.432   0.866
 3833SOL     OW11872   2.321   3.014   0.741
 3833SOL    HW111873   2.250   2.987   0.806
 3833SOL    HW211874   2.295   2.986   0.648
 3834SOL     OW11875   3.133   3.659   0.591
 3834SOL    HW111876   3.177   3.723   0.527
 3834SOL    HW211877   3.083   3.711   0.661
 3835SOL     OW11878   2.894   2.411   0.016
 3835SOL    HW111879   2.853   2.493  -0.023
 3835SOL    HW211880   2.958   2.437   0.089
 3836SOL     OW11881   1.940   2.418   1.386
 3836SOL    HW111882   2.032   2.417   1.345
 3836SOL    HW211883   1.934   2.492   1.453
 3837SOL     OW11884   2.423   2.084   1.147
 3837SOL    HW111885   2.461   2.000   1.184
 3837SOL    HW211886   2.335   2.103   1.191
 3838SOL     OW11887   2.879   1.901   0.753
 3838SOL    HW111888   2.807   1.906   0.684
 3838SOL    HW211889   2.855   1.832   0.822
 3839SOL     OW11890   3.291   3.035   0.867
 3839SOL    HW111891   3.236   2.951   0.860
 3839SOL    HW211892   3.317   3.064   0.775
 3840SOL     OW11893   3.328   2.452   0.992
 3840SOL    HW111894   3.298   2.357   0.999
 3840SOL    HW211895   3.401   2.468   1.058
 3841SOL     OW11896   3.719   2.695   0.377
 3841SOL    HW111897   3.761   2.631   0.441
 3841SOL    HW211898   3.681   2.644   0.299
 3842SOL     OW11899   2.350   3.247   0.174
 3842SOL    HW111900   2.263   3.232   0.221
 3842SOL    HW211901   2.333   3.273   0.079
 3843SOL     OW11902   3.526   3.142   0.657
 3843SOL    HW111903   3.625   3.150   0.671
 3843SOL    HW211904   3.481   3.226   0.688
 3844SOL     OW11905   3.252   2.437   0.078
 3844SOL    HW111906   3.198   2.416   0.159
 3844SOL    HW211907   3.343   2.396   0.087
 3845SOL     OW11908   2.389   2.118   0.328
 3845SOL    HW111909   2.416   2.059   0.253
 3845SOL    HW211910   2.389   2.213   0.297
 3846SOL     OW11911   3.616   3.085   1.588
 3846SOL    HW111912   3.707   3.046   1.575
 3846SOL    HW211913   3.624   3.181   1.612
 3847SOL     OW11914   2.926   3.209   1.340
 3847SOL    HW111915   2.846   3.186   1.395
 3847SOL    HW211916   3.009   3.183   1.389
 3848SOL     OW11917   3.454   3.491   1.625
 3848SOL    HW111918   3.481   3.525   1.535
 3848SOL    HW211919   3.533   3.453   1.671
 3849SOL     OW11920   2.973   3.057   1.100
 3849SOL    HW111921   2.933   3.101   1.181
 3849SOL    HW211922   2.932   3.094   1.017
 3850SOL     OW11923   3.500   2.961   1.079
 3850SOL    HW111924   3.505   3.042   1.138
 3850SOL    HW211925   3.414   2.963   1.028
 3851SOL     OW11926   2.777   1.951   1.402
 3851SOL    HW111927   2.802   1.931   1.307
 3851SOL    HW211928   2.849   2.007   1.444
 3852SOL     OW11929   2.842   2.978   1.719
 3852SOL    HW111930   2.743   2.984   1.729
 3852SOL    HW211931   2.865   2.898   1.663
 3853SOL     OW11932   2.567   2.912   0.368
 3853SOL    HW111933   2.553   2.919   0.467
 3853SOL    HW211934   2.651   2.861   0.350
 3854SOL     OW11935   2.272   2.675   1.251
 3854SOL    HW111936   2.358   2.687   1.301
 3854SOL    HW211937   2.230   2.588   1.278
 3855SOL     OW11938   3.136   2.248   1.262
 3855SOL    HW111939   3.157   2.322   1.326
 3855SOL    HW211940   3.047   2.265   1.219
 3856SOL     OW11941   1.926   3.426   1.331
 3856SOL    HW111942   1.880   3.508   1.297
 3856SOL    HW211943   2.024   3.445   1.340
 3857SOL     OW11944   2.229   2.962   0.501
 3857SOL    HW111945   2.222   3.045   0.445
 3857SOL    HW211946   2.233   2.882   0.441
 3858SOL     OW11947   3.114   3.210   0.388
 3858SOL    HW111948   3.164   3.287   0.428
 3858SOL    HW211949   3.019   3.212   0.420
 3859SOL     OW11950   3.134   3.307   1.142
 3859SOL    HW111951   3.181   3.320   1.229
 3859SOL    HW211952   3.068   3.233   1.151
 3860SOL     OW11953   3.444   2.501   0.472
 3860SOL    HW111954   3.413   2.562   0.545
 3860SOL    HW211955   3.494   2.553   0.403
 3861SOL     OW11956   2.216   3.372   1.329
 3861SOL    HW111957   2.195   3.328   1.242
 3861SOL    HW211958   2.313   3.398   1.332
 3862SOL     OW11959   3.449   2.641   1.670
 3862SOL    HW111960   3.357   2.679   1.665
 3862SOL    HW211961   3.509   2.688   1.605
 3863SOL     OW11962   2.875   1.967   1.770
 3863SOL    HW111963   2.881   2.052   1.718
 3863SOL    HW211964   2.907   1.891   1.713
 3864SOL     OW11965   2.366   1.912   1.740
 3864SOL    HW111966   2.324   1.855   1.670
 3864SOL    HW211967   2.300   1.981   1.772
 3865SOL     OW11968   2.435   2.732   1.029
 3865SOL    HW111969   2.479   2.821   1.020
 3865SOL    HW211970   2.372   2.732   1.106
 3866SOL     OW11971   3.222   2.724   1.045
 3866SOL    HW111972   3.147   2.724   0.979
 3866SOL    HW211973   3.259   2.632   1.054
 3867SOL     OW11974   3.071   2.387   0.275
 3867SOL    HW111975   3.084   2.303   0.329
 3867SOL    HW211976   3.042   2.461   0.335
 3868SOL     OW11977   2.169   2.075   1.231
 3868SOL    HW111978   2.146   2.112   1.321
 3868SOL    HW211979   2.139   1.980   1.225
 3869SOL     OW11980   1.899   3.172   1.282
 3869SOL    HW111981   1.952   3.123   1.350
 3869SOL    HW211982   1.921   3.270   1.287
 3870SOL     OW11983   3.590   2.797   1.854
 3870SOL    HW111984   3.544   2.790   1.765
 3870SOL    HW211985   3.528   2.841   1.920
 3871SOL     OW11986   2.169   1.925   0.618
 3871SOL    HW111987   2.158   2.019   0.651
 3871SOL    HW211988   2.164   1.862   0.695
 3872SOL     OW11989   3.484   2.229   0.374
 3872SOL    HW111990   3.486   2.153   0.438
 3872SOL    HW211991   3.436   2.306   0.414
 3873SOL     OW11992   2.885   2.628   0.966
 3873SOL    HW111993   2.900   2.649   1.062
 3873SOL    HW211994   2.855   2.533   0.957
 3874SOL     OW11995   2.842   3.435   1.700
 3874SOL    HW111996   2.822   3.479   1.612
 3874SOL    HW211997   2.881   3.344   1.684
 3875SOL     OW11998   3.721   3.380   1.605
 3875SOL    HW111999   3.735   3.407   1.510
 3875SOL    HW212000   3.804   3.402   1.658
 3876SOL     OW12001   2.212   2.760   1.804
 3876SOL    HW112002   2.288   2.804   1.852
 3876SOL    HW212003   2.247   2.713   1.722
 3877SOL     OW12004   3.402   2.136   0.125
 3877SOL    HW112005   3.341   2.061   0.148
 3877SOL    HW212006   3.424   2.188   0.208
 3878SOL     OW12007   3.165   2.700   0.042
 3878SOL    HW112008   3.199   2.607   0.057
 3878SOL    HW212009   3.183   2.727  -0.053
 3879SOL     OW12010   2.930   3.195   0.849
 3879SOL    HW112011   2.937   3.111   0.794
 3879SOL    HW212012   2.992   3.264   0.813
 3880SOL     OW12013   2.181   2.672   0.949
 3880SOL    HW112014   2.274   2.708   0.954
 3880SOL    HW212015   2.175   2.587   1.001
 3881SOL     OW12016   2.201   2.371   1.006
 3881SOL    HW112017   2.149   2.288   0.989
 3881SOL    HW212018   2.278   2.376   0.942
 3882SOL     OW12019   3.000   2.242   1.678
 3882SOL    HW112020   2.955   2.305   1.742
 3882SOL    HW212021   3.093   2.273   1.661
 3883SOL     OW12022   3.022   2.069   1.477
 3883SOL    HW112023   3.022   2.133   1.554
 3883SOL    HW212024   3.050   2.117   1.394
 3884SOL     OW12025   1.870   3.188   0.200
 3884SOL    HW112026   1.777   3.209   0.169
 3884SOL    HW212027   1.880   3.089   0.213
 3885SOL     OW12028   1.950   3.663   0.927
 3885SOL    HW112029   1.908   3.577   0.900
 3885SOL    HW212030   2.044   3.666   0.893
 3886SOL     OW12031   2.366   3.430   0.910
 3886SOL    HW112032   2.432   3.504   0.919
 3886SOL    HW212033   2.410   3.351   0.868
 3887SOL     OW12034   2.864   2.658   1.238
 3887SOL    HW112035   2.905   2.626   1.324
 3887SOL    HW212036   2.768   2.631   1.235
 3888SOL     OW12037   1.902   2.406   1.114
 3888SOL    HW112038   1.987   2.373   1.073
 3888SOL    HW212039   1.915   2.421   1.212
 3889SOL     OW12040   2.051   2.382   1.722
 3889SOL    HW112041   2.110   2.342   1.652
 3889SOL    HW212042   1.993   2.453   1.681
 3890SOL     OW12043   3.231   2.812   1.660
 3890SOL    HW112044   3.270   2.901   1.680
 3890SOL    HW212045   3.241   2.792   1.563
 3891SOL     OW12046   3.519   2.466   1.206
 3891SOL    HW112047   3.481   2.397   1.268
 3891SOL    HW212048   3.601   2.430   1.162
 3892SOL     OW12049   2.114   3.426   1.744
 3892SOL    HW112050   2.084   3.483   1.820
 3892SOL    HW212051   2.107   3.329   1.770
 3893SOL     OW12052   2.792   3.540   1.465
 3893SOL    HW112053   2.768   3.522   1.370
 3893SOL    HW212054   2.822   3.634   1.475
 3894SOL     OW12055   2.021   2.999   1.466
 3894SOL    HW112056   2.043   2.938   1.542
 3894SOL    HW212057   2.031   2.950   1.380
 3895SOL     OW12058   3.209   2.921   1.234
 3895SOL    HW112059   3.233   2.858   1.160
 3895SOL    HW212060   3.119   2.961   1.216
 3896SOL     OW12061   3.164   2.717   0.309
 3896SOL    HW112062   3.078   2.686   0.351
 3896SOL    HW212063   3.160   2.703   0.210
 3897SOL     OW12064   3.621   3.609   1.154
 3897SOL    HW112065   3.682   3.639   1.081
 3897SOL    HW212066   3.583   3.520   1.132
 3898SOL     OW12067   3.114   3.593   1.128
 3898SOL    HW112068   3.198   3.598   1.074
 3898SOL    HW212069   3.091   3.497   1.146
 3899SOL     OW12070   1.945   3.120   1.022
 3899SOL    HW112071   1.940   3.119   1.122
 3899SOL    HW212072   1.862   3.079   0.984
 3900SOL     OW12073   2.550   3.524   1.716
 3900SOL    HW112074   2.494   3.605   1.725
 3900SOL    HW212075   2.602   3.528   1.630
 3901SOL     OW12076   2.765   1.948   0.133
 3901SOL    HW112077   2.816   1.949   0.047
 3901SOL    HW212078   2.821   1.906   0.204
 3902SOL     OW12079   3.588   1.997   0.523
 3902SOL    HW112080   3.661   1.980   0.456
 3902SOL    HW212081   3.557   1.910   0.561
 3903SOL     OW12082   3.250   3.435   0.477
 3903SOL    HW112083   3.317   3.447   0.403
 3903SOL    HW212084   3.210   3.524   0.500
 3904SOL     OW12085   1.992   3.656   1.851
 3904SOL    HW112086   1.951   3.582   1.904
 3904SOL    HW212087   2.056   3.707   1.909
 3905SOL     OW12088   3.142   2.789   0.672
 3905SOL    HW112089   3.202   2.708   0.674
 3905SOL    HW212090   3.182   2.858   0.612
 3906SOL     OW12091   2.692   3.135   1.422
 3906SOL    HW112092   2.687   3.168   1.517
 3906SOL    HW212093   2.606   3.154   1.376
 3907SOL     OW12094   2.534   3.478   0.154
 3907SOL    HW112095   2.543   3.488   0.055
 3907SOL    HW212096   2.494   3.389   0.175
 3908SOL     OW12097   3.512   3.582   1.394
 3908SOL    HW112098   3.565   3.592   1.310
 3908SOL    HW212099   3.485   3.672   1.428
 3909SOL     OW12100   3.703   2.037   0.963
 3909SOL    HW112101   3.742   1.952   0.927
 3909SOL    HW212102   3.605   2.039   0.944
 3910SOL     OW12103   2.125   2.188   0.720
 3910SOL    HW112104   2.046   2.239   0.686
 3910SOL    HW212105   2.116   2.173   0.818
 3911SOL     OW12106   3.056   3.474   0.031
 3911SOL    HW112107   3.062   3.381   0.068
 3911SOL    HW212108   2.997   3.474  -0.049
 3912SOL     OW12109   2.684   2.864   1.372
 3912SOL    HW112110   2.724   2.863   1.280
 3912SOL    HW212111   2.694   2.956   1.412
 3913SOL     OW12112   2.778   2.772   0.291
 3913SOL    HW112113   2.841   2.810   0.223
 3913SOL    HW212114   2.818   2.689   0.330
 3914SOL     OW12115   3.366   3.469   0.044
 3914SOL    HW112116   3.274   3.506   0.051
 3914SOL    HW212117   3.404   3.489  -0.046
 3915SOL     OW12118   2.234   3.150   1.490
 3915SOL    HW112119   2.221   3.243   1.456
 3915SOL    HW212120   2.150   3.098   1.477
 3916SOL     OW12121   3.476   3.154   1.289
 3916SOL    HW112122   3.536   3.157   1.369
 3916SOL    HW212123   3.401   3.218   1.302
 3917SOL     OW12124   2.901   2.960   0.696
 3917SOL    HW112125   2.831   2.913   0.750
 3917SOL    HW212126   2.960   2.892   0.653
 3918SOL     OW12127   2.876   2.098   0.971
 3918SOL    HW112128   2.868   2.062   0.878
 3918SOL    HW212129   2.874   2.022   1.036
 3919SOL     OW12130   2.452   3.349   0.491
 3919SOL    HW112131   2.494   3.291   0.421
 3919SOL    HW212132   2.408   3.428   0.447
 3920SOL     OW12133   3.571   2.247   1.381
 3920SOL    HW112134   3.644   2.316   1.385
 3920SOL    HW212135   3.599   2.172   1.322
 3921SOL     OW12136   2.117   3.210   0.290
 3921SOL    HW112137   2.021   3.211   0.263
 3921SOL    HW212138   2.129   3.263   0.374
 3922SOL     OW12139   1.967   2.875   1.726
 3922SOL    HW112140   1.890   2.842   1.780
 3922SOL    HW212141   2.052   2.845   1.768
 3923SOL     OW12142   2.534   2.065   1.489
 3923SOL    HW112143   2.624   2.049   1.449
 3923SOL    HW212144   2.542   2.070   1.588
 3924SOL     OW12145   3.302   2.718   1.398
 3924SOL    HW112146   3.245   2.770   1.335
 3924SOL    HW212147   3.398   2.730   1.374
 3925SOL     OW12148   1.934   2.028   0.318
 3925SOL    HW112149   1.917   2.111   0.264
 3925SOL    HW212150   2.024   1.991   0.296
 3926SOL     OW12151   3.045   3.197   0.119
 3926SOL    HW112152   2.946   3.186   0.121
 3926SOL    HW212153   3.079   3.212   0.212
 3927SOL     OW12154   3.355   3.629   0.959
 3927SOL    HW112155   3.388   3.693   0.890
 3927SOL    HW212156   3.421   3.623   1.034
 3928SOL     OW12157   3.312   3.082   1.633
 3928SOL    HW112158   3.303   3.072   1.732
 3928SOL    HW212159   3.408   3.075   1.607
 3929SOL     OW12160   2.252   3.603   1.560
 3929SOL    HW112161   2.161   3.644   1.558
 3929SOL    HW212162   2.245   3.509   1.592
 3930SOL     OW12163   3.536   2.745   1.254
 3930SOL    HW112164   3.509   2.656   1.217
 3930SOL    HW212165   3.537   2.813   1.181
 3931SOL     OW12166   3.087   2.187   0.449
 3931SOL    HW112167   3.152   2.113   0.438
 3931SOL    HW212168   3.107   2.237   0.533
 3932SOL     OW12169   3.639   2.204   1.642
 3932SOL    HW112170   3.622   2.235   1.548
 3932SOL    HW212171   3.555   2.167   1.680
 3933SOL     OW12172   3.592   2.796   1.517
 3933SOL    HW112173   3.630   2.887   1.532
 3933SOL    HW212174   3.584   2.779   1.418
 3934SOL     OW12175   2.721   3.236   0.016
 3934SOL    HW112176   2.675   3.251   0.104
 3934SOL    HW212177   2.765   3.321  -0.014
 3935SOL     OW12178   2.523   3.652   0.953
 3935SOL    HW112179   2.477   3.740   0.940
 3935SOL    HW212180   2.622   3.664   0.946
 3936SOL     OW12181   2.721   2.818   0.861
 3936SOL    HW112182   2.775   2.749   0.909
 3936SOL    HW212183   2.689   2.887   0.927
 3937SOL     OW12184   2.945   2.846   0.087
 3937SOL    HW112185   2.922   2.899   0.005
 3937SOL    HW212186   3.026   2.790   0.068
 3938SOL     OW12187   3.723   3.431   0.851
 3938SOL    HW112188   3.652   3.419   0.781
 3938SOL    HW212189   3.724   3.352   0.911
 3939SOL     OW12190   2.083   3.176   1.844
 3939SOL    HW112191   2.018   3.103   1.823
 3939SOL    HW212192   2.087   3.190   1.942
 3940SOL     OW12193   1.941   3.102   0.653
 3940SOL    HW112194   1.940   3.055   0.741
 3940SOL    HW212195   2.023   3.074   0.602
 3941SOL     OW12196   2.534   3.253   1.624
 3941SOL    HW112197   2.456   3.203   1.662
 3941SOL    HW212198   2.531   3.348   1.655
 3942SOL     OW12199   3.686   2.054   1.227
 3942SOL    HW112200   3.682   1.964   1.271
 3942SOL    HW212201   3.689   2.043   1.128
 3943SOL     OW12202   2.290   2.286   0.520
 3943SOL    HW112203   2.320   2.214   0.458
 3943SOL    HW212204   2.251   2.246   0.603
 3944SOL     OW12205   3.567   3.349   1.104
 3944SOL    HW112206   3.474   3.324   1.077
 3944SOL    HW212207   3.593   3.299   1.186
 3945SOL     OW12208   2.179   2.409   1.280
 3945SOL    HW112209   2.217   2.350   1.352
 3945SOL    HW212210   2.219   2.383   1.192
 3946SOL     OW12211   2.674   3.448   0.687
 3946SOL    HW112212   2.706   3.458   0.593
 3946SOL    HW212213   2.595   3.386   0.689
 3947SOL     OW12214   3.286   2.076   1.112
 3947SOL    HW112215   3.338   2.011   1.167
 3947SOL    HW212216   3.237   2.139   1.173
 3948SOL     OW12217   2.863   1.896   1.154
 3948SOL    HW112218   2.800   1.824   1.123
 3948SOL    HW212219   2.956   1.860   1.154
 3949SOL     OW12220   2.632   3.192   0.301
 3949SOL    HW112221   2.586   3.105   0.318
 3949SOL    HW212222   2.723   3.189   0.342
 3950SOL     OW12223   2.480   3.429   1.284
 3950SOL    HW112224   2.475   3.511   1.341
 3950SOL    HW212225   2.569   3.426   1.239
 3951SOL     OW12226   3.214   1.914   0.168
 3951SOL    HW112227   3.249   1.873   0.084
 3951SOL    HW212228   3.124   1.876   0.188
 3952SOL     OW12229   3.162   2.315   0.691
 3952SOL    HW112230   3.103   2.395   0.695
 3952SOL    HW212231   3.177   2.280   0.784
 3953SOL     OW12232   3.455   2.083   0.882
 3953SOL    HW112233   3.371   2.082   0.936
 3953SOL    HW212234   3.457   2.166   0.826
 3954SOL     OW12235   1.901   2.939   0.300
 3954SOL    HW112236   2.000   2.928   0.291
 3954SOL    HW212237   1.861   2.853   0.332
 3955SOL     OW12238   2.737   3.508   0.337
 3955SOL    HW112239   2.660   3.473   0.283
 3955SOL    HW212240   2.705   3.579   0.399
 3956SOL     OW12241   2.092   2.490   1.975
 3956SOL    HW112242   1.999   2.488   2.012
 3956SOL    HW212243   2.093   2.451   1.883
 3957SOL     OW12244   2.087   2.137   2.858
 3957SOL    HW112245   2.122   2.120   2.950
 3957SOL    HW212246   1.999   2.092   2.846
 3958SOL     OW12247   1.881   2.230   2.509
 3958SOL    HW112248   1.799   2.273   2.548
 3958SOL    HW212249   1.853   2.157   2.446
 3959SOL     OW12250   2.431   3.137   3.027
 3959SOL    HW112251   2.338   3.130   2.990
 3959SOL    HW212252   2.442   3.226   3.071
 3960SOL     OW12253   3.417   3.373   2.565
 3960SOL    HW112254   3.360   3.357   2.646
 3960SOL    HW212255   3.358   3.383   2.485
 3961SOL     OW12256   2.997   2.565   2.579
 3961SOL    HW112257   3.054   2.643   2.554
 3961SOL    HW212258   2.937   2.591   2.655
 3962SOL     OW12259   3.617   2.469   2.093
 3962SOL    HW112260   3.605   2.456   1.994
 3962SOL    HW212261   3.587   2.388   2.142
 3963SOL     OW12262   2.630   3.006   2.885
 3963SOL    HW112263   2.552   3.023   2.945
 3963SOL    HW212264   2.664   3.093   2.849
 3964SOL     OW12265   2.712   2.660   3.685
 3964SOL    HW112266   2.708   2.736   3.750
 3964SOL    HW212267   2.734   2.696   3.594
 3965SOL     OW12268   2.547   2.874   2.527
 3965SOL    HW112269   2.616   2.858   2.597
 3965SOL    HW212270   2.474   2.931   2.565
 3966SOL     OW12271   2.548   3.023   3.665
 3966SOL    HW112272   2.608   3.102   3.679
 3966SOL    HW212273   2.462   3.054   3.624
 3967SOL     OW12274   2.197   3.297   2.923
 3967SOL    HW112275   2.119   3.266   2.870
 3967SOL    HW212276   2.255   3.355   2.866
 3968SOL     OW12277   3.322   3.367   3.201
 3968SOL    HW112278   3.346   3.461   3.227
 3968SOL    HW212279   3.306   3.313   3.283
 3969SOL     OW12280   2.300   2.254   3.361
 3969SOL    HW112281   2.382   2.198   3.370
 3969SOL    HW212282   2.219   2.196   3.365
 3970SOL     OW12283   3.465   2.309   2.599
 3970SOL    HW112284   3.391   2.355   2.549
 3970SOL    HW212285   3.516   2.377   2.652
 3971SOL     OW12286   2.093   3.575   2.345
 3971SOL    HW112287   2.127   3.652   2.399
 3971SOL    HW212288   2.137   3.575   2.255
 3972SOL     OW12289   2.989   3.203   3.552
 3972SOL    HW112290   3.036   3.203   3.640
 3972SOL    HW212291   2.941   3.116   3.541
 3973SOL     OW12292   2.092   3.296   2.400
 3973SOL    HW112293   2.066   3.392   2.400
 3973SOL    HW212294   2.021   3.242   2.445
 3974SOL     OW12295   2.102   2.953   2.748
 3974SOL    HW112296   2.116   2.869   2.800
 3974SOL    HW212297   2.047   3.017   2.803
 3975SOL     OW12298   2.482   3.648   3.301
 3975SOL    HW112299   2.390   3.631   3.336
 3975SOL    HW212300   2.510   3.740   3.327
 3976SOL     OW12301   2.468   2.826   1.985
 3976SOL    HW112302   2.475   2.910   1.931
 3976SOL    HW212303   2.514   2.839   2.073
 3977SOL     OW12304   3.456   1.976   3.342
 3977SOL    HW112305   3.438   2.043   3.270
 3977SOL    HW212306   3.453   2.022   3.431
 3978SOL     OW12307   1.984   2.505   2.425
 3978SOL    HW112308   1.939   2.417   2.442
 3978SOL    HW212309   1.983   2.559   2.509
 3979SOL     OW12310   3.704   3.629   2.221
 3979SOL    HW112311   3.758   3.600   2.301
 3979SOL    HW212312   3.734   3.719   2.192
 3980SOL     OW12313   1.889   3.458   1.979
 3980SOL    HW112314   1.870   3.362   2.000
 3980SOL    HW212315   1.856   3.516   2.054
 3981SOL     OW12316   3.551   2.784   2.474
 3981SOL    HW112317   3.646   2.755   2.482
 3981SOL    HW212318   3.543   2.849   2.399
 3982SOL     OW12319   3.503   2.970   2.294
 3982SOL    HW112320   3.589   2.972   2.242
 3982SOL    HW212321   3.517   3.017   2.382
 3983SOL     OW12322   1.975   2.599   3.459
 3983SOL    HW112323   2.063   2.586   3.504
 3983SOL    HW212324   1.962   2.696   3.437
 3984SOL     OW12325   2.475   3.227   2.588
 3984SOL    HW112326   2.426   3.140   2.597
 3984SOL    HW212327   2.452   3.270   2.501
 3985SOL     OW12328   3.155   3.090   3.285
 3985SOL    HW112329   3.192   3.017   3.227
 3985SOL    HW212330   3.207   3.095   3.370
 3986SOL     OW12331   2.671   1.866   2.364
 3986SOL    HW112332   2.711   1.957   2.355
 3986SOL    HW212333   2.571   1.874   2.370
 3987SOL     OW12334   2.059   2.838   3.126
 3987SOL    HW112335   2.148   2.793   3.112
 3987SOL    HW212336   1.986   2.773   3.107
 3988SOL     OW12337   3.387   2.861   2.052
 3988SOL    HW112338   3.324   2.785   2.065
 3988SOL    HW212339   3.435   2.879   2.138
 3989SOL     OW12340   3.049   3.654   3.478
 3989SOL    HW112341   3.073   3.714   3.402
 3989SOL    HW212342   3.056   3.559   3.448
 3990SOL     OW12343   2.179   2.113   3.663
 3990SOL    HW112344   2.250   2.184   3.669
 3990SOL    HW212345   2.091   2.152   3.691
 3991SOL     OW12346   3.328   3.279   2.815
 3991SOL    HW112347   3.269   3.285   2.895
 3991SOL    HW212348   3.313   3.191   2.769
 3992SOL     OW12349   3.529   3.576   2.434
 3992SOL    HW112350   3.488   3.553   2.346
 3992SOL    HW212351   3.511   3.502   2.499
 3993SOL     OW12352   3.143   2.207   2.806
 3993SOL    HW112353   3.057   2.157   2.793
 3993SOL    HW212354   3.205   2.153   2.862
 3994SOL     OW12355   3.438   3.524   2.169
 3994SOL    HW112356   3.527   3.570   2.172
 3994SOL    HW212357   3.417   3.500   2.074
 3995SOL     OW12358   3.256   2.331   3.536
 3995SOL    HW112359   3.236   2.374   3.624
 3995SOL    HW212360   3.334   2.269   3.545
 3996SOL     OW12361   2.835   2.752   3.434
 3996SOL    HW112362   2.881   2.668   3.405
 3996SOL    HW212363   2.779   2.786   3.359
 3997SOL     OW12364   2.853   2.272   3.104
 3997SOL    HW112365   2.776   2.306   3.158
 3997SOL    HW212366   2.819   2.221   3.025
 3998SOL     OW12367   2.903   2.563   2.291
 3998SOL    HW112368   2.929   2.559   2.387
 3998SOL    HW212369   2.818   2.512   2.277
 3999SOL     OW12370   1.938   2.673   2.651
 3999SOL    HW112371   2.037   2.661   2.660
 3999SOL    HW212372   1.914   2.768   2.672
 4000SOL     OW12373   1.992   3.683   3.433
 4000SOL    HW112374   1.982   3.668   3.532
 4000SOL    HW212375   1.906   3.719   3.397
 4001SOL     OW12376   2.727   2.210   2.057
 4001SOL    HW112377   2.786   2.273   2.008
 4001SOL    HW212378   2.746   2.116   2.028
 4002SOL     OW12379   3.581   2.447   3.693
 4002SOL    HW112380   3.555   2.536   3.657
 4002SOL    HW212381   3.579   2.379   3.620
 4003SOL     OW12382   3.224   3.006   2.407
 4003SOL    HW112383   3.307   2.977   2.359
 4003SOL    HW212384   3.175   3.073   2.351
 4004SOL     OW12385   2.412   2.058   2.747
 4004SOL    HW112386   2.407   2.053   2.847
 4004SOL    HW212387   2.414   2.154   2.718
 4005SOL     OW12388   2.870   3.318   2.339
 4005SOL    HW112389   2.824   3.390   2.287
 4005SOL    HW212390   2.866   3.338   2.437
 4006SOL     OW12391   2.213   3.663   2.715
 4006SOL    HW112392   2.263   3.577   2.721
 4006SOL    HW212393   2.278   3.740   2.712
 4007SOL     OW12394   3.657   2.928   2.735
 4007SOL    HW112395   3.595   2.913   2.659
 4007SOL    HW212396   3.605   2.939   2.820
 4008SOL     OW12397   3.089   3.412   3.368
 4008SOL    HW112398   3.095   3.335   3.432
 4008SOL    HW212399   3.037   3.386   3.288
 4009SOL     OW12400   2.183   2.805   2.104
 4009SOL    HW112401   2.265   2.844   2.062
 4009SOL    HW212402   2.156   2.723   2.055
 4010SOL     OW12403   3.320   2.597   2.590
 4010SOL    HW112404   3.315   2.532   2.665
 4010SOL    HW212405   3.400   2.656   2.603
 4011SOL     OW12406   2.323   3.128   3.589
 4011SOL    HW112407   2.273   3.129   3.503
 4011SOL    HW212408   2.260   3.110   3.665
 4012SOL     OW12409   2.973   3.638   2.099
 4012SOL    HW112410   2.913   3.576   2.149
 4012SOL    HW212411   3.004   3.594   2.014
 4013SOL     OW12412   2.064   2.147   3.360
 4013SOL    HW112413   1.984   2.207   3.347
 4013SOL    HW212414   2.054   2.098   3.446
 4014SOL     OW12415   3.494   3.239   1.943
 4014SOL    HW112416   3.462   3.333   1.933
 4014SOL    HW212417   3.418   3.176   1.931
 4015SOL     OW12418   2.326   3.605   2.185
 4015SOL    HW112419   2.359   3.644   2.271
 4015SOL    HW212420   2.402   3.598   2.120
 4016SOL     OW12421   3.262   1.969   2.288
 4016SOL    HW112422   3.238   1.932   2.198
 4016SOL    HW212423   3.361   1.985   2.292
 4017SOL     OW12424   2.111   3.647   3.103
 4017SOL    HW112425   2.168   3.582   3.153
 4017SOL    HW212426   2.095   3.614   3.010
 4018SOL     OW12427   2.802   3.560   2.766
 4018SOL    HW112428   2.882   3.503   2.787
 4018SOL    HW212429   2.753   3.520   2.689
 4019SOL     OW12430   2.244   2.562   2.342
 4019SOL    HW112431   2.289   2.472   2.339
 4019SOL    HW212432   2.150   2.551   2.375
 4020SOL     OW12433   3.409   2.084   3.591
 4020SOL    HW112434   3.404   2.121   3.683
 4020SOL    HW212435   3.337   2.015   3.579
 4021SOL     OW12436   2.476   1.984   1.979
 4021SOL    HW112437   2.574   1.962   1.986
 4021SOL    HW212438   2.445   1.967   1.886
 4022SOL     OW12439   2.643   2.126   3.611
 4022SOL    HW112440   2.710   2.065   3.654
 4022SOL    HW212441   2.570   2.145   3.676
 4023SOL     OW12442   2.750   3.376   3.057
 4023SOL    HW112443   2.727   3.351   2.963
 4023SOL    HW212444   2.811   3.307   3.096
 4024SOL     OW12445   3.213   2.452   3.295
 4024SOL    HW112446   3.241   2.409   3.380
 4024SOL    HW212447   3.238   2.548   3.296
 4025SOL     OW12448   2.665   3.264   2.786
 4025SOL    HW112449   2.755   3.278   2.744
 4025SOL    HW212450   2.594   3.266   2.715
 4026SOL     OW12451   2.784   2.365   2.761
 4026SOL    HW112452   2.759   2.356   2.665
 4026SOL    HW212453   2.832   2.283   2.792
 4027SOL     OW12454   2.401   1.926   2.374
 4027SOL    HW112455   2.320   1.927   2.432
 4027SOL    HW212456   2.404   2.009   2.319
 4028SOL     OW12457   3.296   3.050   1.903
 4028SOL    HW112458   3.328   2.974   1.960
 4028SOL    HW212459   3.204   3.077   1.933
 4029SOL     OW12460   2.159   1.897   2.033
 4029SOL    HW112461   2.208   1.981   2.012
 4029SOL    HW212462   2.221   1.832   2.078
 4030SOL     OW12463   2.797   2.098   2.342
 4030SOL    HW112464   2.749   2.139   2.264
 4030SOL    HW212465   2.896   2.096   2.323
 4031SOL     OW12466   2.938   2.545   3.326
 4031SOL    HW112467   2.858   2.484   3.329
 4031SOL    HW212468   3.019   2.492   3.302
 4032SOL     OW12469   3.089   3.432   2.655
 4032SOL    HW112470   3.110   3.506   2.590
 4032SOL    HW212471   3.157   3.432   2.728
 4033SOL     OW12472   2.321   3.014   2.603
 4033SOL    HW112473   2.250   2.987   2.668
 4033SOL    HW212474   2.295   2.986   2.510
 4034SOL     OW12475   3.133   3.659   2.453
 4034SOL    HW112476   3.177   3.723   2.389
 4034SOL    HW212477   3.083   3.711   2.523
 4035SOL     OW12478   2.894   2.411   1.878
 4035SOL    HW112479   2.853   2.493   1.839
 4035SOL    HW212480   2.958   2.437   1.951
 4036SOL     OW12481   1.940   2.418   3.248
 4036SOL    HW112482   2.032   2.417   3.207
 4036SOL    HW212483   1.934   2.492   3.315
 4037SOL     OW12484   2.423   2.084   3.009
 4037SOL    HW112485   2.461   2.000   3.046
 4037SOL    HW212486   2.335   2.103   3.053
 4038SOL     OW12487   2.728   2.316   2.504
 4038SOL    HW112488   2.696   2.388   2.442
 4038SOL    HW212489   2.752   2.235   2.451
 4039SOL     OW12490   2.879   1.901   2.615
 4039SOL    HW112491   2.807   1.906   2.546
 4039SOL    HW212492   2.855   1.832   2.684
 4040SOL     OW12493   3.291   3.035   2.729
 4040SOL    HW112494   3.236   2.951   2.722
 4040SOL    HW212495   3.317   3.064   2.637
 4041SOL     OW12496   3.328   2.452   2.854
 4041SOL    HW112497   3.298   2.357   2.861
 4041SOL    HW212498   3.401   2.468   2.920
 4042SOL     OW12499   3.719   2.695   2.239
 4042SOL    HW112500   3.761   2.631   2.303
 4042SOL    HW212501   3.681   2.644   2.161
 4043SOL     OW12502   2.350   3.247   2.036
 4043SOL    HW112503   2.263   3.232   2.083
 4043SOL    HW212504   2.333   3.273   1.941
 4044SOL     OW12505   3.526   3.142   2.519
 4044SOL    HW112506   3.625   3.150   2.533
 4044SOL    HW212507   3.481   3.226   2.550
 4045SOL     OW12508   3.252   2.437   1.940
 4045SOL    HW112509   3.198   2.416   2.021
 4045SOL    HW212510   3.343   2.396   1.949
 4046SOL     OW12511   2.389   2.118   2.190
 4046SOL    HW112512   2.416   2.059   2.115
 4046SOL    HW212513   2.389   2.213   2.159
 4047SOL     OW12514   3.616   3.085   3.450
 4047SOL    HW112515   3.707   3.046   3.437
 4047SOL    HW212516   3.624   3.181   3.474
 4048SOL     OW12517   2.926   3.209   3.202
 4048SOL    HW112518   2.846   3.186   3.257
 4048SOL    HW212519   3.009   3.183   3.251
 4049SOL     OW12520   3.454   3.491   3.487
 4049SOL    HW112521   3.481   3.525   3.397
 4049SOL    HW212522   3.533   3.453   3.533
 4050SOL     OW12523   2.973   3.057   2.962
 4050SOL    HW112524   2.933   3.101   3.043
 4050SOL    HW212525   2.932   3.094   2.879
 4051SOL     OW12526   3.500   2.961   2.941
 4051SOL    HW112527   3.505   3.042   3.000
 4051SOL    HW212528   3.414   2.963   2.890
 4052SOL     OW12529   2.777   1.951   3.264
 4052SOL    HW112530   2.802   1.931   3.169
 4052SOL    HW212531   2.849   2.007   3.306
 4053SOL     OW12532   2.842   2.978   3.581
 4053SOL    HW112533   2.743   2.984   3.591
 4053SOL    HW212534   2.865   2.898   3.525
 4054SOL     OW12535   2.567   2.912   2.230
 4054SOL    HW112536   2.553   2.919   2.329
 4054SOL    HW212537   2.651   2.861   2.212
 4055SOL     OW12538   2.272   2.675   3.113
 4055SOL    HW112539   2.358   2.687   3.163
 4055SOL    HW212540   2.230   2.588   3.140
 4056SOL     OW12541   3.136   2.248   3.124
 4056SOL    HW112542   3.157   2.322   3.188
 4056SOL    HW212543   3.047   2.265   3.081
 4057SOL     OW12544   1.926   3.426   3.193
 4057SOL    HW112545   1.880   3.508   3.159
 4057SOL    HW212546   2.024   3.445   3.202
 4058SOL     OW12547   2.229   2.962   2.363
 4058SOL    HW112548   2.222   3.045   2.307
 4058SOL    HW212549   2.233   2.882   2.303
 4059SOL     OW12550   3.114   3.210   2.250
 4059SOL    HW112551   3.164   3.287   2.290
 4059SOL    HW212552   3.019   3.212   2.282
 4060SOL     OW12553   3.134   3.307   3.004
 4060SOL    HW112554   3.181   3.320   3.091
 4060SOL    HW212555   3.068   3.233   3.013
 4061SOL     OW12556   3.444   2.501   2.334
 4061SOL    HW112557   3.413   2.562   2.407
 4061SOL    HW212558   3.494   2.553   2.265
 4062SOL     OW12559   2.216   3.372   3.191
 4062SOL    HW112560   2.195   3.328   3.104
 4062SOL    HW212561   2.313   3.398   3.194
 4063SOL     OW12562   3.449   2.641   3.532
 4063SOL    HW112563   3.357   2.679   3.527
 4063SOL    HW212564   3.509   2.688   3.467
 4064SOL     OW12565   2.875   1.967   3.632
 4064SOL    HW112566   2.881   2.052   3.580
 4064SOL    HW212567   2.907   1.891   3.575
 4065SOL     OW12568   2.366   1.912   3.602
 4065SOL    HW112569   2.324   1.855   3.532
 4065SOL    HW212570   2.300   1.981   3.634
 4066SOL     OW12571   3.222   2.724   2.907
 4066SOL    HW112572   3.147   2.724   2.841
 4066SOL    HW212573   3.259   2.632   2.916
 4067SOL     OW12574   3.071   2.387   2.137
 4067SOL    HW112575   3.084   2.303   2.191
 4067SOL    HW212576   3.042   2.461   2.197
 4068SOL     OW12577   2.169   2.075   3.093
 4068SOL    HW112578   2.146   2.112   3.183
 4068SOL    HW212579   2.139   1.980   3.087
 4069SOL     OW12580   1.899   3.172   3.144
 4069SOL    HW112581   1.952   3.123   3.212
 4069SOL    HW212582   1.921   3.270   3.149
 4070SOL     OW12583   3.590   2.797   3.716
 4070SOL    HW112584   3.544   2.790   3.627
 4070SOL    HW212585   3.528   2.841   3.782
 4071SOL     OW12586   2.169   1.925   2.480
 4071SOL    HW112587   2.158   2.019   2.513
 4071SOL    HW212588   2.164   1.862   2.557
 4072SOL     OW12589   3.484   2.229   2.236
 4072SOL    HW112590   3.486   2.153   2.300
 4072SOL    HW212591   3.436   2.306   2.276
 4073SOL     OW12592   2.885   2.628   2.828
 4073SOL    HW112593   2.900   2.649   2.924
 4073SOL    HW212594   2.855   2.533   2.819
 4074SOL     OW12595   2.842   3.435   3.562
 4074SOL    HW112596   2.822   3.479   3.474
 4074SOL    HW212597   2.881   3.344   3.546
 4075SOL     OW12598   3.721   3.380   3.467
 4075SOL    HW112599   3.735   3.407   3.372
 4075SOL    HW212600   3.804   3.402   3.520
 4076SOL     OW12601   2.212   2.760   3.666
 4076SOL    HW112602   2.288   2.804   3.714
 4076SOL    HW212603   2.247   2.713   3.584
 4077SOL     OW12604   3.402   2.136   1.987
 4077SOL    HW112605   3.341   2.061   2.010
 4077SOL    HW212606   3.424   2.188   2.070
 4078SOL     OW12607   3.165   2.700   1.904
 4078SOL    HW112608   3.199   2.607   1.919
 4078SOL    HW212609   3.183   2.727   1.809
 4079SOL     OW12610   2.930   3.195   2.711
 4079SOL    HW112611   2.937   3.111   2.656
 4079SOL    HW212612   2.992   3.264   2.675
 4080SOL     OW12613   2.181   2.672   2.811
 4080SOL    HW112614   2.274   2.708   2.816
 4080SOL    HW212615   2.175   2.587   2.863
 4081SOL     OW12616   2.201   2.371   2.868
 4081SOL    HW112617   2.149   2.288   2.851
 4081SOL    HW212618   2.278   2.376   2.804
 4082SOL     OW12619   3.000   2.242   3.540
 4082SOL    HW112620   2.955   2.305   3.604
 4082SOL    HW212621   3.093   2.273   3.523
 4083SOL     OW12622   3.022   2.069   3.339
 4083SOL    HW112623   3.022   2.133   3.416
 4083SOL    HW212624   3.050   2.117   3.256
 4084SOL     OW12625   1.870   3.188   2.062
 4084SOL    HW112626   1.777   3.209   2.031
 4084SOL    HW212627   1.880   3.089   2.075
 4085SOL     OW12628   1.950   3.663   2.789
 4085SOL    HW112629   1.908   3.577   2.762
 4085SOL    HW212630   2.044   3.666   2.755
 4086SOL     OW12631   2.366   3.430   2.772
 4086SOL    HW112632   2.432   3.504   2.781
 4086SOL    HW212633   2.410   3.351   2.730
 4087SOL     OW12634   2.864   2.658   3.100
 4087SOL    HW112635   2.905   2.626   3.186
 4087SOL    HW212636   2.768   2.631   3.097
 4088SOL     OW12637   1.902   2.406   2.976
 4088SOL    HW112638   1.987   2.373   2.935
 4088SOL    HW212639   1.915   2.421   3.074
 4089SOL     OW12640   2.051   2.382   3.584
 4089SOL    HW112641   2.110   2.342   3.514
 4089SOL    HW212642   1.993   2.453   3.543
 4090SOL     OW12643   3.231   2.812   3.522
 4090SOL    HW112644   3.270   2.901   3.542
 4090SOL    HW212645   3.241   2.792   3.425
 4091SOL     OW12646   3.519   2.466   3.068
 4091SOL    HW112647   3.481   2.397   3.130
 4091SOL    HW212648   3.601   2.430   3.024
 4092SOL     OW12649   2.114   3.426   3.606
 4092SOL    HW112650   2.084   3.483   3.682
 4092SOL    HW212651   2.107   3.329   3.632
 4093SOL     OW12652   2.792   3.540   3.327
 4093SOL    HW112653   2.768   3.522   3.232
 4093SOL    HW212654   2.822   3.634   3.337
 4094SOL     OW12655   2.021   2.999   3.328
 4094SOL    HW112656   2.043   2.938   3.404
 4094SOL    HW212657   2.031   2.950   3.242
 4095SOL     OW12658   3.209   2.921   3.096
 4095SOL    HW112659   3.233   2.858   3.022
 4095SOL    HW212660   3.119   2.961   3.078
 4096SOL     OW12661   3.164   2.717   2.171
 4096SOL    HW112662   3.078   2.686   2.213
 4096SOL    HW212663   3.160   2.703   2.072
 4097SOL     OW12664   3.621   3.609   3.016
 4097SOL    HW112665   3.682   3.639   2.943
 4097SOL    HW212666   3.583   3.520   2.994
 4098SOL     OW12667   3.114   3.593   2.990
 4098SOL    HW112668   3.198   3.598   2.936
 4098SOL    HW212669   3.091   3.497   3.008
 4099SOL     OW12670   1.945   3.120   2.884
 4099SOL    HW112671   1.940   3.119   2.984
 4099SOL    HW212672   1.862   3.079   2.846
 4100SOL     OW12673   2.550   3.524   3.578
 4100SOL    HW112674   2.494   3.605   3.587
 4100SOL    HW212675   2.602   3.528   3.492
 4101SOL     OW12676   3.588   1.997   2.385
 4101SOL    HW112677   3.661   1.980   2.318
 4101SOL    HW212678   3.557   1.910   2.423
 4102SOL     OW12679   3.250   3.435   2.339
 4102SOL    HW112680   3.317   3.447   2.265
 4102SOL    HW212681   3.210   3.524   2.362
 4103SOL     OW12682   1.992   3.656   3.713
 4103SOL    HW112683   1.951   3.582   3.766
 4103SOL    HW212684   2.056   3.707   3.771
 4104SOL     OW12685   3.142   2.789   2.534
 4104SOL    HW112686   3.202   2.708   2.536
 4104SOL    HW212687   3.182   2.858   2.474
 4105SOL     OW12688   2.692   3.135   3.284
 4105SOL    HW112689   2.687   3.168   3.379
 4105SOL    HW212690   2.606   3.154   3.238
 4106SOL     OW12691   2.534   3.478   2.016
 4106SOL    HW112692   2.543   3.488   1.917
 4106SOL    HW212693   2.494   3.389   2.037
 4107SOL     OW12694   3.512   3.582   3.256
 4107SOL    HW112695   3.565   3.592   3.172
 4107SOL    HW212696   3.485   3.672   3.290
 4108SOL     OW12697   3.703   2.037   2.825
 4108SOL    HW112698   3.742   1.952   2.789
 4108SOL    HW212699   3.605   2.039   2.806
 4109SOL     OW12700   2.125   2.188   2.582
 4109SOL    HW112701   2.046   2.239   2.548
 4109SOL    HW212702   2.116   2.173   2.680
 4110SOL     OW12703   3.056   3.474   1.893
 4110SOL    HW112704   3.062   3.381   1.930
 4110SOL    HW212705   2.997   3.474   1.813
 4111SOL     OW12706   2.684   2.864   3.234
 4111SOL    HW112707   2.724   2.863   3.142
 4111SOL    HW212708   2.694   2.956   3.274
 4112SOL     OW12709   2.778   2.772   2.153
 4112SOL    HW112710   2.841   2.810   2.085
 4112SOL    HW212711   2.818   2.689   2.192
 4113SOL     OW12712   3.366   3.469   1.906
 4113SOL    HW112713   3.274   3.506   1.913
 4113SOL    HW212714   3.404   3.489   1.816
 4114SOL     OW12715   2.234   3.150   3.352
 4114SOL    HW112716   2.221   3.243   3.318
 4114SOL    HW212717   2.150   3.098   3.339
 4115SOL     OW12718   3.476   3.154   3.151
 4115SOL    HW112719   3.536   3.157   3.231
 4115SOL    HW212720   3.401   3.218   3.164
 4116SOL     OW12721   2.901   2.960   2.558
 4116SOL    HW112722   2.831   2.913   2.612
 4116SOL    HW212723   2.960   2.892   2.515
 4117SOL     OW12724   2.876   2.098   2.833
 4117SOL    HW112725   2.868   2.062   2.740
 4117SOL    HW212726   2.874   2.022   2.898
 4118SOL     OW12727   2.452   3.349   2.353
 4118SOL    HW112728   2.494   3.291   2.283
 4118SOL    HW212729   2.408   3.428   2.309
 4119SOL     OW12730   3.571   2.247   3.243
 4119SOL    HW112731   3.644   2.316   3.247
 4119SOL    HW212732   3.599   2.172   3.184
 4120SOL     OW12733   2.117   3.210   2.152
 4120SOL    HW112734   2.021   3.211   2.125
 4120SOL    HW212735   2.129   3.263   2.236
 4121SOL     OW12736   1.967   2.875   3.588
 4121SOL    HW112737   1.890   2.842   3.642
 4121SOL    HW212738   2.052   2.845   3.630
 4122SOL     OW12739   2.534   2.065   3.351
 4122SOL    HW112740   2.624   2.049   3.311
 4122SOL    HW212741   2.542   2.070   3.450
 4123SOL     OW12742   1.937   2.207   1.895
 4123SOL    HW112743   1.845   2.179   1.866
 4123SOL    HW212744   1.968   2.284   1.839
 4124SOL     OW12745   3.302   2.718   3.260
 4124SOL    HW112746   3.245   2.770   3.197
 4124SOL    HW212747   3.398   2.730   3.236
 4125SOL     OW12748   1.934   2.028   2.180
 4125SOL    HW112749   1.917   2.111   2.126
 4125SOL    HW212750   2.024   1.991   2.158
 4126SOL     OW12751   3.045   3.197   1.981
 4126SOL    HW112752   2.946   3.186   1.983
 4126SOL    HW212753   3.079   3.212   2.074
 4127SOL     OW12754   3.355   3.629   2.821
 4127SOL    HW112755   3.388   3.693   2.752
 4127SOL    HW212756   3.421   3.623   2.896
 4128SOL     OW12757   3.312   3.082   3.495
 4128SOL    HW112758   3.303   3.072   3.594
 4128SOL    HW212759   3.408   3.075   3.469
 4129SOL     OW12760   2.252   3.603   3.422
 4129SOL    HW112761   2.161   3.644   3.420
 4129SOL    HW212762   2.245   3.509   3.454
 4130SOL     OW12763   3.536   2.745   3.116
 4130SOL    HW112764   3.509   2.656   3.079
 4130SOL    HW212765   3.537   2.813   3.043
 4131SOL     OW12766   3.087   2.187   2.311
 4131SOL    HW112767   3.152   2.113   2.300
 4131SOL    HW212768   3.107   2.237   2.395
 4132SOL     OW12769   3.639   2.204   3.504
 4132SOL    HW112770   3.622   2.235   3.410
 4132SOL    HW212771   3.555   2.167   3.542
 4133SOL     OW12772   3.592   2.796   3.379
 4133SOL    HW112773   3.630   2.887   3.394
 4133SOL    HW212774   3.584   2.779   3.280
 4134SOL     OW12775   2.721   3.236   1.878
 4134SOL    HW112776   2.675   3.251   1.966
 4134SOL    HW212777   2.765   3.321   1.848
 4135SOL     OW12778   2.523   3.652   2.815
 4135SOL    HW112779   2.477   3.740   2.802
 4135SOL    HW212780   2.622   3.664   2.808
 4136SOL     OW12781   2.721   2.818   2.723
 4136SOL    HW112782   2.775   2.749   2.771
 4136SOL    HW212783   2.689   2.887   2.789
 4137SOL     OW12784   2.945   2.846   1.949
 4137SOL    HW112785   2.922   2.899   1.867
 4137SOL    HW212786   3.026   2.790   1.930
 4138SOL     OW12787   3.723   3.431   2.713
 4138SOL    HW112788   3.652   3.419   2.643
 4138SOL    HW212789   3.724   3.352   2.773
 4139SOL     OW12790   2.083   3.176   3.706
 4139SOL    HW112791   2.018   3.103   3.685
 4139SOL    HW212792   2.087   3.190   3.804
 4140SOL     OW12793   1.941   3.102   2.515
 4140SOL    HW112794   1.940   3.055   2.603
 4140SOL    HW212795   2.023   3.074   2.464
 4141SOL     OW12796   2.534   3.253   3.486
 4141SOL    HW112797   2.456   3.203   3.524
 4141SOL    HW212798   2.531   3.348   3.517
 4142SOL     OW12799   3.686   2.054   3.089
 4142SOL    HW112800   3.682   1.964   3.133
 4142SOL    HW212801   3.689   2.043   2.990
 4143SOL     OW12802   2.290   2.286   2.382
 4143SOL    HW112803   2.320   2.214   2.320
 4143SOL    HW212804   2.251   2.246   2.465
 4144SOL     OW12805   3.567   3.349   2.966
 4144SOL    HW112806   3.474   3.324   2.939
 4144SOL    HW212807   3.593   3.299   3.048
 4145SOL     OW12808   2.179   2.409   3.142
 4145SOL    HW112809   2.217   2.350   3.214
 4145SOL    HW212810   2.219   2.383   3.054
 4146SOL     OW12811   2.674   3.448   2.549
 4146SOL    HW112812   2.706   3.458   2.455
 4146SOL    HW212813   2.595   3.386   2.551
 4147SOL     OW12814   3.286   2.076   2.974
 4147SOL    HW112815   3.338   2.011   3.029
 4147SOL    HW212816   3.237   2.139   3.035
 4148SOL     OW12817   2.863   1.896   3.016
 4148SOL    HW112818   2.800   1.824   2.985
 4148SOL    HW212819   2.956   1.860   3.016
 4149SOL     OW12820   2.632   3.192   2.163
 4149SOL    HW112821   2.586   3.105   2.180
 4149SOL    HW212822   2.723   3.189   2.204
 4150SOL     OW12823   2.480   3.429   3.146
 4150SOL    HW112824   2.475   3.511   3.203
 4150SOL    HW212825   2.569   3.426   3.101
 4151SOL     OW12826   3.214   1.914   2.030
 4151SOL    HW112827   3.249   1.873   1.946
 4151SOL    HW212828   3.124   1.876   2.050
 4152SOL     OW12829   3.162   2.315   2.553
 4152SOL    HW112830   3.103   2.395   2.557
 4152SOL    HW212831   3.177   2.280   2.646
 4153SOL     OW12832   3.455   2.083   2.744
 4153SOL    HW112833   3.371   2.082   2.798
 4153SOL    HW212834   3.457   2.166   2.688
 4154SOL     OW12835   1.901   2.939   2.162
 4154SOL    HW112836   2.000   2.928   2.153
 4154SOL    HW212837   1.861   2.853   2.194
 4155SOL     OW12838   2.737   3.508   2.199
 4155SOL    HW112839   2.660   3.473   2.145
 4155SOL    HW212840   2.705   3.579   2.261
 4156SOL     OW12841   2.092   2.490   3.837
 4156SOL    HW112842   1.999   2.488   3.874
 4156SOL    HW212843   2.093   2.451   3.745
 4157SOL     OW12844   3.417   3.373   4.427
 4157SOL    HW112845   3.360   3.357   4.508
 4157SOL    HW212846   3.358   3.383   4.347
 4158SOL     OW12847   3.617   2.469   3.955
 4158SOL    HW112848   3.605   2.456   3.856
 4158SOL    HW212849   3.587   2.388   4.004
 4159SOL     OW12850   2.712   2.660   5.547
 4159SOL    HW112851   2.708   2.736   5.612
 4159SOL    HW212852   2.734   2.696   5.456
 4160SOL     OW12853   2.547   2.874   4.389
 4160SOL    HW112854   2.616   2.858   4.459
 4160SOL    HW212855   2.474   2.931   4.427
 4161SOL     OW12856   2.548   3.023   5.527
 4161SOL    HW112857   2.608   3.102   5.541
 4161SOL    HW212858   2.462   3.054   5.486
 4162SOL     OW12859   2.197   3.297   4.785
 4162SOL    HW112860   2.119   3.266   4.732
 4162SOL    HW212861   2.255   3.355   4.728
 4163SOL     OW12862   3.322   3.367   5.063
 4163SOL    HW112863   3.346   3.461   5.089
 4163SOL    HW212864   3.306   3.313   5.145
 4164SOL     OW12865   2.300   2.254   5.223
 4164SOL    HW112866   2.382   2.198   5.232
 4164SOL    HW212867   2.219   2.196   5.227
 4165SOL     OW12868   2.093   3.575   4.207
 4165SOL    HW112869   2.127   3.652   4.261
 4165SOL    HW212870   2.137   3.575   4.117
 4166SOL     OW12871   2.989   3.203   5.414
 4166SOL    HW112872   3.036   3.203   5.502
 4166SOL    HW212873   2.941   3.116   5.403
 4167SOL     OW12874   2.482   3.648   5.163
 4167SOL    HW112875   2.390   3.631   5.198
 4167SOL    HW212876   2.510   3.740   5.189
 4168SOL     OW12877   2.468   2.826   3.847
 4168SOL    HW112878   2.475   2.910   3.793
 4168SOL    HW212879   2.514   2.839   3.935
 4169SOL     OW12880   3.456   1.976   5.204
 4169SOL    HW112881   3.438   2.043   5.132
 4169SOL    HW212882   3.453   2.022   5.293
 4170SOL     OW12883   3.704   3.629   4.083
 4170SOL    HW112884   3.758   3.600   4.163
 4170SOL    HW212885   3.734   3.719   4.054
 4171SOL     OW12886   1.889   3.458   3.841
 4171SOL    HW112887   1.870   3.362   3.862
 4171SOL    HW212888   1.856   3.516   3.916
 4172SOL     OW12889   3.551   2.784   4.336
 4172SOL    HW112890   3.646   2.755   4.344
 4172SOL    HW212891   3.543   2.849   4.261
 4173SOL     OW12892   3.503   2.970   4.156
 4173SOL    HW112893   3.589   2.972   4.104
 4173SOL    HW212894   3.517   3.017   4.244
 4174SOL     OW12895   1.975   2.599   5.321
 4174SOL    HW112896   2.063   2.586   5.366
 4174SOL    HW212897   1.962   2.696   5.299
 4175SOL     OW12898   3.155   3.090   5.147
 4175SOL    HW112899   3.192   3.017   5.089
 4175SOL    HW212900   3.207   3.095   5.232
 4176SOL     OW12901   2.059   2.838   4.988
 4176SOL    HW112902   2.148   2.793   4.974
 4176SOL    HW212903   1.986   2.773   4.969
 4177SOL     OW12904   3.387   2.861   3.914
 4177SOL    HW112905   3.324   2.785   3.927
 4177SOL    HW212906   3.435   2.879   4.000
 4178SOL     OW12907   3.049   3.654   5.340
 4178SOL    HW112908   3.073   3.714   5.264
 4178SOL    HW212909   3.056   3.559   5.310
 4179SOL     OW12910   2.179   2.113   5.525
 4179SOL    HW112911   2.250   2.184   5.531
 4179SOL    HW212912   2.091   2.152   5.553
 4180SOL     OW12913   3.328   3.279   4.677
 4180SOL    HW112914   3.269   3.285   4.757
 4180SOL    HW212915   3.313   3.191   4.631
 4181SOL     OW12916   3.529   3.576   4.296
 4181SOL    HW112917   3.488   3.553   4.208
 4181SOL    HW212918   3.511   3.502   4.361
 4182SOL     OW12919   3.438   3.524   4.031
 4182SOL    HW112920   3.527   3.570   4.034
 4182SOL    HW212921   3.417   3.500   3.936
 4183SOL     OW12922   3.256   2.331   5.398
 4183SOL    HW112923   3.236   2.374   5.486
 4183SOL    HW212924   3.334   2.269   5.407
 4184SOL     OW12925   2.835   2.752   5.296
 4184SOL    HW112926   2.881   2.668   5.267
 4184SOL    HW212927   2.779   2.786   5.221
 4185SOL     OW12928   2.853   2.272   4.966
 4185SOL    HW112929   2.776   2.306   5.020
 4185SOL    HW212930   2.819   2.221   4.887
 4186SOL     OW12931   1.992   3.683   5.295
 4186SOL    HW112932   1.982   3.668   5.394
 4186SOL    HW212933   1.906   3.719   5.259
 4187SOL     OW12934   2.727   2.210   3.919
 4187SOL    HW112935   2.786   2.273   3.870
 4187SOL    HW212936   2.746   2.116   3.890
 4188SOL     OW12937   3.581   2.447   5.555
 4188SOL    HW112938   3.555   2.536   5.519
 4188SOL    HW212939   3.579   2.379   5.482
 4189SOL     OW12940   3.224   3.006   4.269
 4189SOL    HW112941   3.307   2.977   4.221
 4189SOL    HW212942   3.175   3.073   4.213
 4190SOL     OW12943   2.870   3.318   4.201
 4190SOL    HW112944   2.824   3.390   4.149
 4190SOL    HW212945   2.866   3.338   4.299
 4191SOL     OW12946   2.213   3.663   4.577
 4191SOL    HW112947   2.263   3.577   4.583
 4191SOL    HW212948   2.278   3.740   4.574
 4192SOL     OW12949   3.657   2.928   4.597
 4192SOL    HW112950   3.595   2.913   4.521
 4192SOL    HW212951   3.605   2.939   4.682
 4193SOL     OW12952   3.089   3.412   5.230
 4193SOL    HW112953   3.095   3.335   5.294
 4193SOL    HW212954   3.037   3.386   5.150
 4194SOL     OW12955   2.183   2.805   3.966
 4194SOL    HW112956   2.265   2.844   3.924
 4194SOL    HW212957   2.156   2.723   3.917
 4195SOL     OW12958   2.323   3.128   5.451
 4195SOL    HW112959   2.273   3.129   5.365
 4195SOL    HW212960   2.260   3.110   5.527
 4196SOL     OW12961   2.973   3.638   3.961
 4196SOL    HW112962   2.913   3.576   4.011
 4196SOL    HW212963   3.004   3.594   3.876
 4197SOL     OW12964   2.064   2.147   5.222
 4197SOL    HW112965   1.984   2.207   5.209
 4197SOL    HW212966   2.054   2.098   5.308
 4198SOL     OW12967   3.494   3.239   3.805
 4198SOL    HW112968   3.462   3.333   3.795
 4198SOL    HW212969   3.418   3.176   3.793
 4199SOL     OW12970   2.326   3.605   4.047
 4199SOL    HW112971   2.359   3.644   4.133
 4199SOL    HW212972   2.402   3.598   3.982
 4200SOL     OW12973   3.262   1.969   4.150
 4200SOL    HW112974   3.238   1.932   4.060
 4200SOL    HW212975   3.361   1.985   4.154
 4201SOL     OW12976   2.111   3.647   4.965
 4201SOL    HW112977   2.168   3.582   5.015
 4201SOL    HW212978   2.095   3.614   4.872
 4202SOL     OW12979   2.802   3.560   4.628
 4202SOL    HW112980   2.882   3.503   4.649
 4202SOL    HW212981   2.753   3.520   4.551
 4203SOL     OW12982   2.244   2.562   4.204
 4203SOL    HW112983   2.289   2.472   4.201
 4203SOL    HW212984   2.150   2.551   4.237
 4204SOL     OW12985   3.409   2.084   5.453
 4204SOL    HW112986   3.404   2.121   5.545
 4204SOL    HW212987   3.337   2.015   5.441
 4205SOL     OW12988   2.476   1.984   3.841
 4205SOL    HW112989   2.574   1.962   3.848
 4205SOL    HW212990   2.445   1.967   3.748
 4206SOL     OW12991   2.643   2.126   5.473
 4206SOL    HW112992   2.710   2.065   5.516
 4206SOL    HW212993   2.570   2.145   5.538
 4207SOL     OW12994   2.750   3.376   4.919
 4207SOL    HW112995   2.727   3.351   4.825
 4207SOL    HW212996   2.811   3.307   4.958
 4208SOL     OW12997   3.213   2.452   5.157
 4208SOL    HW112998   3.241   2.409   5.242
 4208SOL    HW212999   3.238   2.548   5.158
 4209SOL     OW13000   3.296   3.050   3.765
 4209SOL    HW113001   3.328   2.974   3.822
 4209SOL    HW213002   3.204   3.077   3.795
 4210SOL     OW13003   2.159   1.897   3.895
 4210SOL    HW113004   2.208   1.981   3.874
 4210SOL    HW213005   2.221   1.832   3.940
 4211SOL     OW13006   2.938   2.545   5.188
 4211SOL    HW113007   2.858   2.484   5.191
 4211SOL    HW213008   3.019   2.492   5.164
 4212SOL     OW13009   3.089   3.432   4.517
 4212SOL    HW113010   3.110   3.506   4.452
 4212SOL    HW213011   3.157   3.432   4.590
 4213SOL     OW13012   3.133   3.659   4.315
 4213SOL    HW113013   3.177   3.723   4.251
 4213SOL    HW213014   3.083   3.711   4.385
 4214SOL     OW13015   2.894   2.411   3.740
 4214SOL    HW113016   2.853   2.493   3.701
 4214SOL    HW213017   2.958   2.437   3.813
 4215SOL     OW13018   1.940   2.418   5.110
 4215SOL    HW113019   2.032   2.417   5.069
 4215SOL    HW213020   1.934   2.492   5.177
 4216SOL     OW13021   3.291   3.035   4.591
 4216SOL    HW113022   3.236   2.951   4.584
 4216SOL    HW213023   3.317   3.064   4.499
 4217SOL     OW13024   3.719   2.695   4.101
 4217SOL    HW113025   3.761   2.631   4.165
 4217SOL    HW213026   3.681   2.644   4.023
 4218SOL     OW13027   2.350   3.247   3.898
 4218SOL    HW113028   2.263   3.232   3.945
 4218SOL    HW213029   2.333   3.273   3.803
 4219SOL     OW13030   3.526   3.142   4.381
 4219SOL    HW113031   3.625   3.150   4.395
 4219SOL    HW213032   3.481   3.226   4.412
 4220SOL     OW13033   3.252   2.437   3.802
 4220SOL    HW113034   3.198   2.416   3.883
 4220SOL    HW213035   3.343   2.396   3.811
 4221SOL     OW13036   2.389   2.118   4.052
 4221SOL    HW113037   2.416   2.059   3.977
 4221SOL    HW213038   2.389   2.213   4.021
 4222SOL     OW13039   3.616   3.085   5.312
 4222SOL    HW113040   3.707   3.046   5.299
 4222SOL    HW213041   3.624   3.181   5.336
 4223SOL     OW13042   2.926   3.209   5.064
 4223SOL    HW113043   2.846   3.186   5.119
 4223SOL    HW213044   3.009   3.183   5.113
 4224SOL     OW13045   3.454   3.491   5.349
 4224SOL    HW113046   3.481   3.525   5.259
 4224SOL    HW213047   3.533   3.453   5.395
 4225SOL     OW13048   3.500   2.961   4.803
 4225SOL    HW113049   3.505   3.042   4.862
 4225SOL    HW213050   3.414   2.963   4.752
 4226SOL     OW13051   2.777   1.951   5.126
 4226SOL    HW113052   2.802   1.931   5.031
 4226SOL    HW213053   2.849   2.007   5.168
 4227SOL     OW13054   2.842   2.978   5.443
 4227SOL    HW113055   2.743   2.984   5.453
 4227SOL    HW213056   2.865   2.898   5.387
 4228SOL     OW13057   2.567   2.912   4.092
 4228SOL    HW113058   2.553   2.919   4.191
 4228SOL    HW213059   2.651   2.861   4.074
 4229SOL     OW13060   2.272   2.675   4.975
 4229SOL    HW113061   2.358   2.687   5.025
 4229SOL    HW213062   2.230   2.588   5.002
 4230SOL     OW13063   1.926   3.426   5.055
 4230SOL    HW113064   1.880   3.508   5.021
 4230SOL    HW213065   2.024   3.445   5.064
 4231SOL     OW13066   2.229   2.962   4.225
 4231SOL    HW113067   2.222   3.045   4.169
 4231SOL    HW213068   2.233   2.882   4.165
 4232SOL     OW13069   3.114   3.210   4.112
 4232SOL    HW113070   3.164   3.287   4.152
 4232SOL    HW213071   3.019   3.212   4.144
 4233SOL     OW13072   3.134   3.307   4.866
 4233SOL    HW113073   3.181   3.320   4.953
 4233SOL    HW213074   3.068   3.233   4.875
 4234SOL     OW13075   3.444   2.501   4.196
 4234SOL    HW113076   3.413   2.562   4.269
 4234SOL    HW213077   3.494   2.553   4.127
 4235SOL     OW13078   2.216   3.372   5.053
 4235SOL    HW113079   2.195   3.328   4.966
 4235SOL    HW213080   2.313   3.398   5.056
 4236SOL     OW13081   2.264   2.613   5.322
 4236SOL    HW113082   2.332   2.668   5.275
 4236SOL    HW213083   2.304   2.525   5.349
 4237SOL     OW13084   3.449   2.641   5.394
 4237SOL    HW113085   3.357   2.679   5.389
 4237SOL    HW213086   3.509   2.688   5.329
 4238SOL     OW13087   2.875   1.967   5.494
 4238SOL    HW113088   2.881   2.052   5.442
 4238SOL    HW213089   2.907   1.891   5.437
 4239SOL     OW13090   2.366   1.912   5.464
 4239SOL    HW113091   2.324   1.855   5.394
 4239SOL    HW213092   2.300   1.981   5.496
 4240SOL     OW13093   3.071   2.387   3.999
 4240SOL    HW113094   3.084   2.303   4.053
 4240SOL    HW213095   3.042   2.461   4.059
 4241SOL     OW13096   1.899   3.172   5.006
 4241SOL    HW113097   1.952   3.123   5.074
 4241SOL    HW213098   1.921   3.270   5.011
 4242SOL     OW13099   3.590   2.797   5.578
 4242SOL    HW113100   3.544   2.790   5.489
 4242SOL    HW213101   3.528   2.841   5.644
 4243SOL     OW13102   3.484   2.229   4.098
 4243SOL    HW113103   3.486   2.153   4.162
 4243SOL    HW213104   3.436   2.306   4.138
 4244SOL     OW13105   2.885   2.628   4.690
 4244SOL    HW113106   2.900   2.649   4.786
 4244SOL    HW213107   2.855   2.533   4.681
 4245SOL     OW13108   2.842   3.435   5.424
 4245SOL    HW113109   2.822   3.479   5.336
 4245SOL    HW213110   2.881   3.344   5.408
 4246SOL     OW13111   3.721   3.380   5.329
 4246SOL    HW113112   3.735   3.407   5.234
 4246SOL    HW213113   3.804   3.402   5.382
 4247SOL     OW13114   2.212   2.760   5.528
 4247SOL    HW113115   2.288   2.804   5.576
 4247SOL    HW213116   2.247   2.713   5.446
 4248SOL     OW13117   3.402   2.136   3.849
 4248SOL    HW113118   3.341   2.061   3.872
 4248SOL    HW213119   3.424   2.188   3.932
 4249SOL     OW13120   3.165   2.700   3.766
 4249SOL    HW113121   3.199   2.607   3.781
 4249SOL    HW213122   3.183   2.727   3.671
 4250SOL     OW13123   2.201   2.371   4.730
 4250SOL    HW113124   2.149   2.288   4.713
 4250SOL    HW213125   2.278   2.376   4.666
 4251SOL     OW13126   3.000   2.242   5.402
 4251SOL    HW113127   2.955   2.305   5.466
 4251SOL    HW213128   3.093   2.273   5.385
 4252SOL     OW13129   3.022   2.069   5.201
 4252SOL    HW113130   3.022   2.133   5.278
 4252SOL    HW213131   3.050   2.117   5.118
 4253SOL     OW13132   1.870   3.188   3.924
 4253SOL    HW113133   1.777   3.209   3.893
 4253SOL    HW213134   1.880   3.089   3.937
 4254SOL     OW13135   1.950   3.663   4.651
 4254SOL    HW113136   1.908   3.577   4.624
 4254SOL    HW213137   2.044   3.666   4.617
 4255SOL     OW13138   2.366   3.430   4.634
 4255SOL    HW113139   2.432   3.504   4.643
 4255SOL    HW213140   2.410   3.351   4.592
 4256SOL     OW13141   2.864   2.658   4.962
 4256SOL    HW113142   2.905   2.626   5.048
 4256SOL    HW213143   2.768   2.631   4.959
 4257SOL     OW13144   2.051   2.382   5.446
 4257SOL    HW113145   2.110   2.342   5.376
 4257SOL    HW213146   1.993   2.453   5.405
 4258SOL     OW13147   3.231   2.812   5.384
 4258SOL    HW113148   3.270   2.901   5.404
 4258SOL    HW213149   3.241   2.792   5.287
 4259SOL     OW13150   3.519   2.466   4.930
 4259SOL    HW113151   3.481   2.397   4.992
 4259SOL    HW213152   3.601   2.430   4.886
 4260SOL     OW13153   2.114   3.426   5.468
 4260SOL    HW113154   2.084   3.483   5.544
 4260SOL    HW213155   2.107   3.329   5.494
 4261SOL     OW13156   2.792   3.540   5.189
 4261SOL    HW113157   2.768   3.522   5.094
 4261SOL    HW213158   2.822   3.634   5.199
 4262SOL     OW13159   2.021   2.999   5.190
 4262SOL    HW113160   2.043   2.938   5.266
 4262SOL    HW213161   2.031   2.950   5.104
 4263SOL     OW13162   3.209   2.921   4.958
 4263SOL    HW113163   3.233   2.858   4.884
 4263SOL    HW213164   3.119   2.961   4.940
 4264SOL     OW13165   3.621   3.609   4.878
 4264SOL    HW113166   3.682   3.639   4.805
 4264SOL    HW213167   3.583   3.520   4.856
 4265SOL     OW13168   3.114   3.593   4.852
 4265SOL    HW113169   3.198   3.598   4.798
 4265SOL    HW213170   3.091   3.497   4.870
 4266SOL     OW13171   2.550   3.524   5.440
 4266SOL    HW113172   2.494   3.605   5.449
 4266SOL    HW213173   2.602   3.528   5.354
 4267SOL     OW13174   3.588   1.997   4.247
 4267SOL    HW113175   3.661   1.980   4.180
 4267SOL    HW213176   3.557   1.910   4.285
 4268SOL     OW13177   3.250   3.435   4.201
 4268SOL    HW113178   3.317   3.447   4.127
 4268SOL    HW213179   3.210   3.524   4.224
 4269SOL     OW13180   1.992   3.656   5.575
 4269SOL    HW113181   1.951   3.582   5.628
 4269SOL    HW213182   2.056   3.707   5.633
 4270SOL     OW13183   2.692   3.135   5.146
 4270SOL    HW113184   2.687   3.168   5.241
 4270SOL    HW213185   2.606   3.154   5.100
 4271SOL     OW13186   2.534   3.478   3.878
 4271SOL    HW113187   2.543   3.488   3.779
 4271SOL    HW213188   2.494   3.389   3.899
 4272SOL     OW13189   3.512   3.582   5.118
 4272SOL    HW113190   3.565   3.592   5.034
 4272SOL    HW213191   3.485   3.672   5.152
 4273SOL     OW13192   3.703   2.037   4.687
 4273SOL    HW113193   3.742   1.952   4.651
 4273SOL    HW213194   3.605   2.039   4.668
 4274SOL     OW13195   3.056   3.474   3.755
 4274SOL    HW113196   3.062   3.381   3.792
 4274SOL    HW213197   2.997   3.474   3.675
 4275SOL     OW13198   2.684   2.864   5.096
 4275SOL    HW113199   2.724   2.863   5.004
 4275SOL    HW213200   2.694   2.956   5.136
 4276SOL     OW13201   2.778   2.772   4.015
 4276SOL    HW113202   2.841   2.810   3.947
 4276SOL    HW213203   2.818   2.689   4.054
 4277SOL     OW13204   3.366   3.469   3.768
 4277SOL    HW113205   3.274   3.506   3.775
 4277SOL    HW213206   3.404   3.489   3.678
 4278SOL     OW13207   2.234   3.150   5.214
 4278SOL    HW113208   2.221   3.243   5.180
 4278SOL    HW213209   2.150   3.098   5.201
 4279SOL     OW13210   3.476   3.154   5.013
 4279SOL    HW113211   3.536   3.157   5.093
 4279SOL    HW213212   3.401   3.218   5.026
 4280SOL     OW13213   3.571   2.247   5.105
 4280SOL    HW113214   3.644   2.316   5.109
 4280SOL    HW213215   3.599   2.172   5.046
 4281SOL     OW13216   2.117   3.210   4.014
 4281SOL    HW113217   2.021   3.211   3.987
 4281SOL    HW213218   2.129   3.263   4.098
 4282SOL     OW13219   1.967   2.875   5.450
 4282SOL    HW113220   1.890   2.842   5.504
 4282SOL    HW213221   2.052   2.845   5.492
 4283SOL     OW13222   2.534   2.065   5.213
 4283SOL    HW113223   2.624   2.049   5.173
 4283SOL    HW213224   2.542   2.070   5.312
 4284SOL     OW13225   1.937   2.207   3.757
 4284SOL    HW113226   1.845   2.179   3.728
 4284SOL    HW213227   1.968   2.284   3.701
 4285SOL     OW13228   3.302   2.718   5.122
 4285SOL    HW113229   3.245   2.770   5.059
 4285SOL    HW213230   3.398   2.730   5.098
 4286SOL     OW13231   1.934   2.028   4.042
 4286SOL    HW113232   1.917   2.111   3.988
 4286SOL    HW213233   2.024   1.991   4.020
 4287SOL     OW13234   3.045   3.197   3.843
 4287SOL    HW113235   2.946   3.186   3.845
 4287SOL    HW213236   3.079   3.212   3.936
 4288SOL     OW13237   3.355   3.629   4.683
 4288SOL    HW113238   3.388   3.693   4.614
 4288SOL    HW213239   3.421   3.623   4.758
 4289SOL     OW13240   3.312   3.082   5.357
 4289SOL    HW113241   3.303   3.072   5.456
 4289SOL    HW213242   3.408   3.075   5.331
 4290SOL     OW13243   2.252   3.603   5.284
 4290SOL    HW113244   2.161   3.644   5.282
 4290SOL    HW213245   2.245   3.509   5.316
 4291SOL     OW13246   3.536   2.745   4.978
 4291SOL    HW113247   3.509   2.656   4.941
 4291SOL    HW213248   3.537   2.813   4.905
 4292SOL     OW13249   3.639   2.204   5.366
 4292SOL    HW113250   3.622   2.235   5.272
 4292SOL    HW213251   3.555   2.167   5.404
 4293SOL     OW13252   3.592   2.796   5.241
 4293SOL    HW113253   3.630   2.887   5.256
 4293SOL    HW213254   3.584   2.779   5.142
 4294SOL     OW13255   2.721   3.236   3.740
 4294SOL    HW113256   2.675   3.251   3.828
 4294SOL    HW213257   2.765   3.321   3.710
 4295SOL     OW13258   2.523   3.652   4.677
 4295SOL    HW113259   2.477   3.740   4.664
 4295SOL    HW213260   2.622   3.664   4.670
 4296SOL     OW13261   2.945   2.846   3.811
 4296SOL    HW113262   2.922   2.899   3.729
 4296SOL    HW213263   3.026   2.790   3.792
 4297SOL     OW13264   3.723   3.431   4.575
 4297SOL    HW113265   3.652   3.419   4.505
 4297SOL    HW213266   3.724   3.352   4.635
 4298SOL     OW13267   2.083   3.176   5.568
 4298SOL    HW113268   2.018   3.103   5.547
 4298SOL    HW213269   2.087   3.190   5.666
 4299SOL     OW13270   2.534   3.253   5.348
 4299SOL    HW113271   2.456   3.203   5.386
 4299SOL    HW213272   2.531   3.348   5.379
 4300SOL     OW13273   3.686   2.054   4.951
 4300SOL    HW113274   3.682   1.964   4.995
 4300SOL    HW213275   3.689   2.043   4.852
 4301SOL     OW13276   2.290   2.286   4.244
 4301SOL    HW113277   2.320   2.214   4.182
 4301SOL    HW213278   2.251   2.246   4.327
 4302SOL     OW13279   3.567   3.349   4.828
 4302SOL    HW113280   3.474   3.324   4.801
 4302SOL    HW213281   3.593   3.299   4.910
 4303SOL     OW13282   2.179   2.409   5.004
 4303SOL    HW113283   2.217   2.350   5.076
 4303SOL    HW213284   2.219   2.383   4.916
 4304SOL     OW13285   2.674   3.448   4.411
 4304SOL    HW113286   2.706   3.458   4.317
 4304SOL    HW213287   2.595   3.386   4.413
 4305SOL     OW13288   3.286   2.076   4.836
 4305SOL    HW113289   3.338   2.011   4.891
 4305SOL    HW213290   3.237   2.139   4.897
 4306SOL     OW13291   2.863   1.896   4.878
 4306SOL    HW113292   2.800   1.824   4.847
 4306SOL    HW213293   2.956   1.860   4.878
 4307SOL     OW13294   2.632   3.192   4.025
 4307SOL    HW113295   2.586   3.105   4.042
 4307SOL    HW213296   2.723   3.189   4.066
 4308SOL     OW13297   2.480   3.429   5.008
 4308SOL    HW113298   2.475   3.511   5.065
 4308SOL    HW213299   2.569   3.426   4.963
 4309SOL     OW13300   3.214   1.914   3.892
 4309SOL    HW113301   3.249   1.873   3.808
 4309SOL    HW213302   3.124   1.876   3.912
 4310SOL     OW13303   3.455   2.083   4.606
 4310SOL    HW113304   3.371   2.082   4.660
 4310SOL    HW213305   3.457   2.166   4.550
 4311SOL     OW13306   1.901   2.939   4.024
 4311SOL    HW113307   2.000   2.928   4.015
 4311SOL    HW213308   1.861   2.853   4.056
 4312SOL     OW13309   2.737   3.508   4.061
 4312SOL    HW113310   2.660   3.473   4.007
 4312SOL    HW213311   2.705   3.579   4.123
 4313SOL     OW13312   2.092   2.490   5.699
 4313SOL    HW113313   1.999   2.488   5.736
 4313SOL    HW213314   2.093   2.451   5.607
 4314SOL     OW13315   2.087   2.137   6.582
 4314SOL    HW113316   2.122   2.120   6.674
 4314SOL    HW213317   1.999   2.092   6.570
 4315SOL     OW13318   1.881   2.230   6.233
 4315SOL    HW113319   1.799   2.273   6.272
 4315SOL    HW213320   1.853   2.157   6.170
 4316SOL     OW13321   2.431   3.137   6.751
 4316SOL    HW113322   2.338   3.130   6.714
 4316SOL    HW213323   2.442   3.226   6.795
 4317SOL     OW13324   3.417   3.373   6.289
 4317SOL    HW113325   3.360   3.357   6.370
 4317SOL    HW213326   3.358   3.383   6.209
 4318SOL     OW13327   2.997   2.565   6.303
 4318SOL    HW113328   3.054   2.643   6.278
 4318SOL    HW213329   2.937   2.591   6.379
 4319SOL     OW13330   3.617   2.469   5.817
 4319SOL    HW113331   3.605   2.456   5.718
 4319SOL    HW213332   3.587   2.388   5.866
 4320SOL     OW13333   2.630   3.006   6.609
 4320SOL    HW113334   2.552   3.023   6.669
 4320SOL    HW213335   2.664   3.093   6.573
 4321SOL     OW13336   2.712   2.660   7.409
 4321SOL    HW113337   2.708   2.736   7.474
 4321SOL    HW213338   2.734   2.696   7.318
 4322SOL     OW13339   2.547   2.874   6.251
 4322SOL    HW113340   2.616   2.858   6.321
 4322SOL    HW213341   2.474   2.931   6.289
 4323SOL     OW13342   2.548   3.023   7.389
 4323SOL    HW113343   2.608   3.102   7.403
 4323SOL    HW213344   2.462   3.054   7.348
 4324SOL     OW13345   2.197   3.297   6.647
 4324SOL    HW113346   2.119   3.266   6.594
 4324SOL    HW213347   2.255   3.355   6.590
 4325SOL     OW13348   3.322   3.367   6.925
 4325SOL    HW113349   3.346   3.461   6.951
 4325SOL    HW213350   3.306   3.313   7.007
 4326SOL     OW13351   2.300   2.254   7.085
 4326SOL    HW113352   2.382   2.198   7.094
 4326SOL    HW213353   2.219   2.196   7.089
 4327SOL     OW13354   3.465   2.309   6.323
 4327SOL    HW113355   3.391   2.355   6.273
 4327SOL    HW213356   3.516   2.377   6.376
 4328SOL     OW13357   2.093   3.575   6.069
 4328SOL    HW113358   2.127   3.652   6.123
 4328SOL    HW213359   2.137   3.575   5.979
 4329SOL     OW13360   2.989   3.203   7.276
 4329SOL    HW113361   3.036   3.203   7.364
 4329SOL    HW213362   2.941   3.116   7.265
 4330SOL     OW13363   2.092   3.296   6.124
 4330SOL    HW113364   2.066   3.392   6.124
 4330SOL    HW213365   2.021   3.242   6.169
 4331SOL     OW13366   2.102   2.953   6.472
 4331SOL    HW113367   2.116   2.869   6.524
 4331SOL    HW213368   2.047   3.017   6.527
 4332SOL     OW13369   2.482   3.648   7.025
 4332SOL    HW113370   2.390   3.631   7.060
 4332SOL    HW213371   2.510   3.740   7.051
 4333SOL     OW13372   2.468   2.826   5.709
 4333SOL    HW113373   2.475   2.910   5.655
 4333SOL    HW213374   2.514   2.839   5.797
 4334SOL     OW13375   3.456   1.976   7.066
 4334SOL    HW113376   3.438   2.043   6.994
 4334SOL    HW213377   3.453   2.022   7.155
 4335SOL     OW13378   1.984   2.505   6.149
 4335SOL    HW113379   1.939   2.417   6.166
 4335SOL    HW213380   1.983   2.559   6.233
 4336SOL     OW13381   3.704   3.629   5.945
 4336SOL    HW113382   3.758   3.600   6.025
 4336SOL    HW213383   3.734   3.719   5.916
 4337SOL     OW13384   1.889   3.458   5.703
 4337SOL    HW113385   1.870   3.362   5.724
 4337SOL    HW213386   1.856   3.516   5.778
 4338SOL     OW13387   3.551   2.784   6.198
 4338SOL    HW113388   3.646   2.755   6.206
 4338SOL    HW213389   3.543   2.849   6.123
 4339SOL     OW13390   3.503   2.970   6.018
 4339SOL    HW113391   3.589   2.972   5.966
 4339SOL    HW213392   3.517   3.017   6.106
 4340SOL     OW13393   1.975   2.599   7.183
 4340SOL    HW113394   2.063   2.586   7.228
 4340SOL    HW213395   1.962   2.696   7.161
 4341SOL     OW13396   2.475   3.227   6.312
 4341SOL    HW113397   2.426   3.140   6.321
 4341SOL    HW213398   2.452   3.270   6.225
 4342SOL     OW13399   3.155   3.090   7.009
 4342SOL    HW113400   3.192   3.017   6.951
 4342SOL    HW213401   3.207   3.095   7.094
 4343SOL     OW13402   2.671   1.866   6.088
 4343SOL    HW113403   2.711   1.957   6.079
 4343SOL    HW213404   2.571   1.874   6.094
 4344SOL     OW13405   2.059   2.838   6.850
 4344SOL    HW113406   2.148   2.793   6.836
 4344SOL    HW213407   1.986   2.773   6.831
 4345SOL     OW13408   3.387   2.861   5.776
 4345SOL    HW113409   3.324   2.785   5.789
 4345SOL    HW213410   3.435   2.879   5.862
 4346SOL     OW13411   3.049   3.654   7.202
 4346SOL    HW113412   3.073   3.714   7.126
 4346SOL    HW213413   3.056   3.559   7.172
 4347SOL     OW13414   2.179   2.113   7.387
 4347SOL    HW113415   2.250   2.184   7.393
 4347SOL    HW213416   2.091   2.152   7.415
 4348SOL     OW13417   3.328   3.279   6.539
 4348SOL    HW113418   3.269   3.285   6.619
 4348SOL    HW213419   3.313   3.191   6.493
 4349SOL     OW13420   3.529   3.576   6.158
 4349SOL    HW113421   3.488   3.553   6.070
 4349SOL    HW213422   3.511   3.502   6.223
 4350SOL     OW13423   3.143   2.207   6.530
 4350SOL    HW113424   3.057   2.157   6.517
 4350SOL    HW213425   3.205   2.153   6.586
 4351SOL     OW13426   3.438   3.524   5.893
 4351SOL    HW113427   3.527   3.570   5.896
 4351SOL    HW213428   3.417   3.500   5.798
 4352SOL     OW13429   3.256   2.331   7.260
 4352SOL    HW113430   3.236   2.374   7.348
 4352SOL    HW213431   3.334   2.269   7.269
 4353SOL     OW13432   2.835   2.752   7.158
 4353SOL    HW113433   2.881   2.668   7.129
 4353SOL    HW213434   2.779   2.786   7.083
 4354SOL     OW13435   2.853   2.272   6.828
 4354SOL    HW113436   2.776   2.306   6.882
 4354SOL    HW213437   2.819   2.221   6.749
 4355SOL     OW13438   2.903   2.563   6.015
 4355SOL    HW113439   2.929   2.559   6.111
 4355SOL    HW213440   2.818   2.512   6.001
 4356SOL     OW13441   1.938   2.673   6.375
 4356SOL    HW113442   2.037   2.661   6.384
 4356SOL    HW213443   1.914   2.768   6.396
 4357SOL     OW13444   1.992   3.683   7.157
 4357SOL    HW113445   1.982   3.668   7.256
 4357SOL    HW213446   1.906   3.719   7.121
 4358SOL     OW13447   2.727   2.210   5.781
 4358SOL    HW113448   2.786   2.273   5.732
 4358SOL    HW213449   2.746   2.116   5.752
 4359SOL     OW13450   3.581   2.447   7.417
 4359SOL    HW113451   3.555   2.536   7.381
 4359SOL    HW213452   3.579   2.379   7.344
 4360SOL     OW13453   3.224   3.006   6.131
 4360SOL    HW113454   3.307   2.977   6.083
 4360SOL    HW213455   3.175   3.073   6.075
 4361SOL     OW13456   2.412   2.058   6.471
 4361SOL    HW113457   2.407   2.053   6.571
 4361SOL    HW213458   2.414   2.154   6.442
 4362SOL     OW13459   2.870   3.318   6.063
 4362SOL    HW113460   2.824   3.390   6.011
 4362SOL    HW213461   2.866   3.338   6.161
 4363SOL     OW13462   2.213   3.663   6.439
 4363SOL    HW113463   2.263   3.577   6.445
 4363SOL    HW213464   2.278   3.740   6.436
 4364SOL     OW13465   3.657   2.928   6.459
 4364SOL    HW113466   3.595   2.913   6.383
 4364SOL    HW213467   3.605   2.939   6.544
 4365SOL     OW13468   3.089   3.412   7.092
 4365SOL    HW113469   3.095   3.335   7.156
 4365SOL    HW213470   3.037   3.386   7.012
 4366SOL     OW13471   2.183   2.805   5.828
 4366SOL    HW113472   2.265   2.844   5.786
 4366SOL    HW213473   2.156   2.723   5.779
 4367SOL     OW13474   3.320   2.597   6.314
 4367SOL    HW113475   3.315   2.532   6.389
 4367SOL    HW213476   3.400   2.656   6.327
 4368SOL     OW13477   2.323   3.128   7.313
 4368SOL    HW113478   2.273   3.129   7.227
 4368SOL    HW213479   2.260   3.110   7.389
 4369SOL     OW13480   2.973   3.638   5.823
 4369SOL    HW113481   2.913   3.576   5.873
 4369SOL    HW213482   3.004   3.594   5.738
 4370SOL     OW13483   2.064   2.147   7.084
 4370SOL    HW113484   1.984   2.207   7.071
 4370SOL    HW213485   2.054   2.098   7.170
 4371SOL     OW13486   3.494   3.239   5.667
 4371SOL    HW113487   3.462   3.333   5.657
 4371SOL    HW213488   3.418   3.176   5.655
 4372SOL     OW13489   2.326   3.605   5.909
 4372SOL    HW113490   2.359   3.644   5.995
 4372SOL    HW213491   2.402   3.598   5.844
 4373SOL     OW13492   3.262   1.969   6.012
 4373SOL    HW113493   3.238   1.932   5.922
 4373SOL    HW213494   3.361   1.985   6.016
 4374SOL     OW13495   2.111   3.647   6.827
 4374SOL    HW113496   2.168   3.582   6.877
 4374SOL    HW213497   2.095   3.614   6.734
 4375SOL     OW13498   2.802   3.560   6.490
 4375SOL    HW113499   2.882   3.503   6.511
 4375SOL    HW213500   2.753   3.520   6.413
 4376SOL     OW13501   2.244   2.562   6.066
 4376SOL    HW113502   2.289   2.472   6.063
 4376SOL    HW213503   2.150   2.551   6.099
 4377SOL     OW13504   3.409   2.084   7.315
 4377SOL    HW113505   3.404   2.121   7.407
 4377SOL    HW213506   3.337   2.015   7.303
 4378SOL     OW13507   2.476   1.984   5.703
 4378SOL    HW113508   2.574   1.962   5.710
 4378SOL    HW213509   2.445   1.967   5.610
 4379SOL     OW13510   2.643   2.126   7.335
 4379SOL    HW113511   2.710   2.065   7.378
 4379SOL    HW213512   2.570   2.145   7.400
 4380SOL     OW13513   2.750   3.376   6.781
 4380SOL    HW113514   2.727   3.351   6.687
 4380SOL    HW213515   2.811   3.307   6.820
 4381SOL     OW13516   3.213   2.452   7.019
 4381SOL    HW113517   3.241   2.409   7.104
 4381SOL    HW213518   3.238   2.548   7.020
 4382SOL     OW13519   2.665   3.264   6.510
 4382SOL    HW113520   2.755   3.278   6.468
 4382SOL    HW213521   2.594   3.266   6.439
 4383SOL     OW13522   2.784   2.365   6.485
 4383SOL    HW113523   2.759   2.356   6.389
 4383SOL    HW213524   2.832   2.283   6.516
 4384SOL     OW13525   2.401   1.926   6.098
 4384SOL    HW113526   2.320   1.927   6.156
 4384SOL    HW213527   2.404   2.009   6.043
 4385SOL     OW13528   3.296   3.050   5.627
 4385SOL    HW113529   3.328   2.974   5.684
 4385SOL    HW213530   3.204   3.077   5.657
 4386SOL     OW13531   2.159   1.897   5.757
 4386SOL    HW113532   2.208   1.981   5.736
 4386SOL    HW213533   2.221   1.832   5.802
 4387SOL     OW13534   2.797   2.098   6.066
 4387SOL    HW113535   2.749   2.139   5.988
 4387SOL    HW213536   2.896   2.096   6.047
 4388SOL     OW13537   2.938   2.545   7.050
 4388SOL    HW113538   2.858   2.484   7.053
 4388SOL    HW213539   3.019   2.492   7.026
 4389SOL     OW13540   3.089   3.432   6.379
 4389SOL    HW113541   3.110   3.506   6.314
 4389SOL    HW213542   3.157   3.432   6.452
 4390SOL     OW13543   2.321   3.014   6.327
 4390SOL    HW113544   2.250   2.987   6.392
 4390SOL    HW213545   2.295   2.986   6.234
 4391SOL     OW13546   3.133   3.659   6.177
 4391SOL    HW113547   3.177   3.723   6.113
 4391SOL    HW213548   3.083   3.711   6.247
 4392SOL     OW13549   2.894   2.411   5.602
 4392SOL    HW113550   2.853   2.493   5.563
 4392SOL    HW213551   2.958   2.437   5.675
 4393SOL     OW13552   1.940   2.418   6.972
 4393SOL    HW113553   2.032   2.417   6.931
 4393SOL    HW213554   1.934   2.492   7.039
 4394SOL     OW13555   2.423   2.084   6.733
 4394SOL    HW113556   2.461   2.000   6.770
 4394SOL    HW213557   2.335   2.103   6.777
 4395SOL     OW13558   2.879   1.901   6.339
 4395SOL    HW113559   2.807   1.906   6.270
 4395SOL    HW213560   2.855   1.832   6.408
 4396SOL     OW13561   3.291   3.035   6.453
 4396SOL    HW113562   3.236   2.951   6.446
 4396SOL    HW213563   3.317   3.064   6.361
 4397SOL     OW13564   3.328   2.452   6.578
 4397SOL    HW113565   3.298   2.357   6.585
 4397SOL    HW213566   3.401   2.468   6.644
 4398SOL     OW13567   3.719   2.695   5.963
 4398SOL    HW113568   3.761   2.631   6.027
 4398SOL    HW213569   3.681   2.644   5.885
 4399SOL     OW13570   2.350   3.247   5.760
 4399SOL    HW113571   2.263   3.232   5.807
 4399SOL    HW213572   2.333   3.273   5.665
 4400SOL     OW13573   3.526   3.142   6.243
 4400SOL    HW113574   3.625   3.150   6.257
 4400SOL    HW213575   3.481   3.226   6.274
 4401SOL     OW13576   3.252   2.437   5.664
 4401SOL    HW113577   3.198   2.416   5.745
 4401SOL    HW213578   3.343   2.396   5.673
 4402SOL     OW13579   2.389   2.118   5.914
 4402SOL    HW113580   2.416   2.059   5.839
 4402SOL    HW213581   2.389   2.213   5.883
 4403SOL     OW13582   3.616   3.085   7.174
 4403SOL    HW113583   3.707   3.046   7.161
 4403SOL    HW213584   3.624   3.181   7.198
 4404SOL     OW13585   2.926   3.209   6.926
 4404SOL    HW113586   2.846   3.186   6.981
 4404SOL    HW213587   3.009   3.183   6.975
 4405SOL     OW13588   3.454   3.491   7.211
 4405SOL    HW113589   3.481   3.525   7.121
 4405SOL    HW213590   3.533   3.453   7.257
 4406SOL     OW13591   2.973   3.057   6.686
 4406SOL    HW113592   2.933   3.101   6.767
 4406SOL    HW213593   2.932   3.094   6.603
 4407SOL     OW13594   3.500   2.961   6.665
 4407SOL    HW113595   3.505   3.042   6.724
 4407SOL    HW213596   3.414   2.963   6.614
 4408SOL     OW13597   2.777   1.951   6.988
 4408SOL    HW113598   2.802   1.931   6.893
 4408SOL    HW213599   2.849   2.007   7.030
 4409SOL     OW13600   2.842   2.978   7.305
 4409SOL    HW113601   2.743   2.984   7.315
 4409SOL    HW213602   2.865   2.898   7.249
 4410SOL     OW13603   2.567   2.912   5.954
 4410SOL    HW113604   2.553   2.919   6.053
 4410SOL    HW213605   2.651   2.861   5.936
 4411SOL     OW13606   2.272   2.675   6.837
 4411SOL    HW113607   2.358   2.687   6.887
 4411SOL    HW213608   2.230   2.588   6.864
 4412SOL     OW13609   3.136   2.248   6.848
 4412SOL    HW113610   3.157   2.322   6.912
 4412SOL    HW213611   3.047   2.265   6.805
 4413SOL     OW13612   1.926   3.426   6.917
 4413SOL    HW113613   1.880   3.508   6.883
 4413SOL    HW213614   2.024   3.445   6.926
 4414SOL     OW13615   2.229   2.962   6.087
 4414SOL    HW113616   2.222   3.045   6.031
 4414SOL    HW213617   2.233   2.882   6.027
 4415SOL     OW13618   3.114   3.210   5.974
 4415SOL    HW113619   3.164   3.287   6.014
 4415SOL    HW213620   3.019   3.212   6.006
 4416SOL     OW13621   3.134   3.307   6.728
 4416SOL    HW113622   3.181   3.320   6.815
 4416SOL    HW213623   3.068   3.233   6.737
 4417SOL     OW13624   3.444   2.501   6.058
 4417SOL    HW113625   3.413   2.562   6.131
 4417SOL    HW213626   3.494   2.553   5.989
 4418SOL     OW13627   2.216   3.372   6.915
 4418SOL    HW113628   2.195   3.328   6.828
 4418SOL    HW213629   2.313   3.398   6.918
 4419SOL     OW13630   2.264   2.613   7.184
 4419SOL    HW113631   2.332   2.668   7.137
 4419SOL    HW213632   2.304   2.525   7.211
 4420SOL     OW13633   3.449   2.641   7.256
 4420SOL    HW113634   3.357   2.679   7.251
 4420SOL    HW213635   3.509   2.688   7.191
 4421SOL     OW13636   2.875   1.967   7.356
 4421SOL    HW113637   2.881   2.052   7.304
 4421SOL    HW213638   2.907   1.891   7.299
 4422SOL     OW13639   2.366   1.912   7.326
 4422SOL    HW113640   2.324   1.855   7.256
 4422SOL    HW213641   2.300   1.981   7.358
 4423SOL     OW13642   2.435   2.732   6.615
 4423SOL    HW113643   2.479   2.821   6.606
 4423SOL    HW213644   2.372   2.732   6.692
 4424SOL     OW13645   3.222   2.724   6.631
 4424SOL    HW113646   3.147   2.724   6.565
 4424SOL    HW213647   3.259   2.632   6.640
 4425SOL     OW13648   3.071   2.387   5.861
 4425SOL    HW113649   3.084   2.303   5.915
 4425SOL    HW213650   3.042   2.461   5.921
 4426SOL     OW13651   2.169   2.075   6.817
 4426SOL    HW113652   2.146   2.112   6.907
 4426SOL    HW213653   2.139   1.980   6.811
 4427SOL     OW13654   1.899   3.172   6.868
 4427SOL    HW113655   1.952   3.123   6.936
 4427SOL    HW213656   1.921   3.270   6.873
 4428SOL     OW13657   3.590   2.797   7.440
 4428SOL    HW113658   3.544   2.790   7.351
 4428SOL    HW213659   3.528   2.841   7.506
 4429SOL     OW13660   2.169   1.925   6.204
 4429SOL    HW113661   2.158   2.019   6.237
 4429SOL    HW213662   2.164   1.862   6.281
 4430SOL     OW13663   3.484   2.229   5.960
 4430SOL    HW113664   3.486   2.153   6.024
 4430SOL    HW213665   3.436   2.306   6.000
 4431SOL     OW13666   2.885   2.628   6.552
 4431SOL    HW113667   2.900   2.649   6.648
 4431SOL    HW213668   2.855   2.533   6.543
 4432SOL     OW13669   2.842   3.435   7.286
 4432SOL    HW113670   2.822   3.479   7.198
 4432SOL    HW213671   2.881   3.344   7.270
 4433SOL     OW13672   3.721   3.380   7.191
 4433SOL    HW113673   3.735   3.407   7.096
 4433SOL    HW213674   3.804   3.402   7.244
 4434SOL     OW13675   2.212   2.760   7.390
 4434SOL    HW113676   2.288   2.804   7.438
 4434SOL    HW213677   2.247   2.713   7.308
 4435SOL     OW13678   3.402   2.136   5.711
 4435SOL    HW113679   3.341   2.061   5.734
 4435SOL    HW213680   3.424   2.188   5.794
 4436SOL     OW13681   3.165   2.700   5.628
 4436SOL    HW113682   3.199   2.607   5.643
 4436SOL    HW213683   3.183   2.727   5.533
 4437SOL     OW13684   2.930   3.195   6.435
 4437SOL    HW113685   2.937   3.111   6.380
 4437SOL    HW213686   2.992   3.264   6.399
 4438SOL     OW13687   2.181   2.672   6.535
 4438SOL    HW113688   2.274   2.708   6.540
 4438SOL    HW213689   2.175   2.587   6.587
 4439SOL     OW13690   2.201   2.371   6.592
 4439SOL    HW113691   2.149   2.288   6.575
 4439SOL    HW213692   2.278   2.376   6.528
 4440SOL     OW13693   3.000   2.242   7.264
 4440SOL    HW113694   2.955   2.305   7.328
 4440SOL    HW213695   3.093   2.273   7.247
 4441SOL     OW13696   3.022   2.069   7.063
 4441SOL    HW113697   3.022   2.133   7.140
 4441SOL    HW213698   3.050   2.117   6.980
 4442SOL     OW13699   1.870   3.188   5.786
 4442SOL    HW113700   1.777   3.209   5.755
 4442SOL    HW213701   1.880   3.089   5.799
 4443SOL     OW13702   1.950   3.663   6.513
 4443SOL    HW113703   1.908   3.577   6.486
 4443SOL    HW213704   2.044   3.666   6.479
 4444SOL     OW13705   2.366   3.430   6.496
 4444SOL    HW113706   2.432   3.504   6.505
 4444SOL    HW213707   2.410   3.351   6.454
 4445SOL     OW13708   2.864   2.658   6.824
 4445SOL    HW113709   2.905   2.626   6.910
 4445SOL    HW213710   2.768   2.631   6.821
 4446SOL     OW13711   1.902   2.406   6.700
 4446SOL    HW113712   1.987   2.373   6.659
 4446SOL    HW213713   1.915   2.421   6.798
 4447SOL     OW13714   2.051   2.382   7.308
 4447SOL    HW113715   2.110   2.342   7.238
 4447SOL    HW213716   1.993   2.453   7.267
 4448SOL     OW13717   3.231   2.812   7.246
 4448SOL    HW113718   3.270   2.901   7.266
 4448SOL    HW213719   3.241   2.792   7.149
 4449SOL     OW13720   3.519   2.466   6.792
 4449SOL    HW113721   3.481   2.397   6.854
 4449SOL    HW213722   3.601   2.430   6.748
 4450SOL     OW13723   2.114   3.426   7.330
 4450SOL    HW113724   2.084   3.483   7.406
 4450SOL    HW213725   2.107   3.329   7.356
 4451SOL     OW13726   2.792   3.540   7.051
 4451SOL    HW113727   2.768   3.522   6.956
 4451SOL    HW213728   2.822   3.634   7.061
 4452SOL     OW13729   2.021   2.999   7.052
 4452SOL    HW113730   2.043   2.938   7.128
 4452SOL    HW213731   2.031   2.950   6.966
 4453SOL     OW13732   3.209   2.921   6.820
 4453SOL    HW113733   3.233   2.858   6.746
 4453SOL    HW213734   3.119   2.961   6.802
 4454SOL     OW13735   3.164   2.717   5.895
 4454SOL    HW113736   3.078   2.686   5.937
 4454SOL    HW213737   3.160   2.703   5.796
 4455SOL     OW13738   3.621   3.609   6.740
 4455SOL    HW113739   3.682   3.639   6.667
 4455SOL    HW213740   3.583   3.520   6.718
 4456SOL     OW13741   3.114   3.593   6.714
 4456SOL    HW113742   3.198   3.598   6.660
 4456SOL    HW213743   3.091   3.497   6.732
 4457SOL     OW13744   1.945   3.120   6.608
 4457SOL    HW113745   1.940   3.119   6.708
 4457SOL    HW213746   1.862   3.079   6.570
 4458SOL     OW13747   2.550   3.524   7.302
 4458SOL    HW113748   2.494   3.605   7.311
 4458SOL    HW213749   2.602   3.528   7.216
 4459SOL     OW13750   3.588   1.997   6.109
 4459SOL    HW113751   3.661   1.980   6.042
 4459SOL    HW213752   3.557   1.910   6.147
 4460SOL     OW13753   3.250   3.435   6.063
 4460SOL    HW113754   3.317   3.447   5.989
 4460SOL    HW213755   3.210   3.524   6.086
 4461SOL     OW13756   1.992   3.656   7.437
 4461SOL    HW113757   1.951   3.582   7.490
 4461SOL    HW213758   2.056   3.707   7.495
 4462SOL     OW13759   3.142   2.789   6.258
 4462SOL    HW113760   3.202   2.708   6.260
 4462SOL    HW213761   3.182   2.858   6.198
 4463SOL     OW13762   2.692   3.135   7.008
 4463SOL    HW113763   2.687   3.168   7.103
 4463SOL    HW213764   2.606   3.154   6.962
 4464SOL     OW13765   2.534   3.478   5.740
 4464SOL    HW113766   2.543   3.488   5.641
 4464SOL    HW213767   2.494   3.389   5.761
 4465SOL     OW13768   3.512   3.582   6.980
 4465SOL    HW113769   3.565   3.592   6.896
 4465SOL    HW213770   3.485   3.672   7.014
 4466SOL     OW13771   3.703   2.037   6.549
 4466SOL    HW113772   3.742   1.952   6.513
 4466SOL    HW213773   3.605   2.039   6.530
 4467SOL     OW13774   2.125   2.188   6.306
 4467SOL    HW113775   2.046   2.239   6.272
 4467SOL    HW213776   2.116   2.173   6.404
 4468SOL     OW13777   3.056   3.474   5.617
 4468SOL    HW113778   3.062   3.381   5.654
 4468SOL    HW213779   2.997   3.474   5.537
 4469SOL     OW13780   2.684   2.864   6.958
 4469SOL    HW113781   2.724   2.863   6.866
 4469SOL    HW213782   2.694   2.956   6.998
 4470SOL     OW13783   2.778   2.772   5.877
 4470SOL    HW113784   2.841   2.810   5.809
 4470SOL    HW213785   2.818   2.689   5.916
 4471SOL     OW13786   3.366   3.469   5.630
 4471SOL    HW113787   3.274   3.506   5.637
 4471SOL    HW213788   3.404   3.489   5.540
 4472SOL     OW13789   2.234   3.150   7.076
 4472SOL    HW113790   2.221   3.243   7.042
 4472SOL    HW213791   2.150   3.098   7.063
 4473SOL     OW13792   3.476   3.154   6.875
 4473SOL    HW113793   3.536   3.157   6.955
 4473SOL    HW213794   3.401   3.218   6.888
 4474SOL     OW13795   2.901   2.960   6.282
 4474SOL    HW113796   2.831   2.913   6.336
 4474SOL    HW213797   2.960   2.892   6.239
 4475SOL     OW13798   2.876   2.098   6.557
 4475SOL    HW113799   2.868   2.062   6.464
 4475SOL    HW213800   2.874   2.022   6.622
 4476SOL     OW13801   2.452   3.349   6.077
 4476SOL    HW113802   2.494   3.291   6.007
 4476SOL    HW213803   2.408   3.428   6.033
 4477SOL     OW13804   3.571   2.247   6.967
 4477SOL    HW113805   3.644   2.316   6.971
 4477SOL    HW213806   3.599   2.172   6.908
 4478SOL     OW13807   2.117   3.210   5.876
 4478SOL    HW113808   2.021   3.211   5.849
 4478SOL    HW213809   2.129   3.263   5.960
 4479SOL     OW13810   1.967   2.875   7.312
 4479SOL    HW113811   1.890   2.842   7.366
 4479SOL    HW213812   2.052   2.845   7.354
 4480SOL     OW13813   2.534   2.065   7.075
 4480SOL    HW113814   2.624   2.049   7.035
 4480SOL    HW213815   2.542   2.070   7.174
 4481SOL     OW13816   1.937   2.207   5.619
 4481SOL    HW113817   1.845   2.179   5.590
 4481SOL    HW213818   1.968   2.284   5.563
 4482SOL     OW13819   3.302   2.718   6.984
 4482SOL    HW113820   3.245   2.770   6.921
 4482SOL    HW213821   3.398   2.730   6.960
 4483SOL     OW13822   1.934   2.028   5.904
 4483SOL    HW113823   1.917   2.111   5.850
 4483SOL    HW213824   2.024   1.991   5.882
 4484SOL     OW13825   3.045   3.197   5.705
 4484SOL    HW113826   2.946   3.186   5.707
 4484SOL    HW213827   3.079   3.212   5.798
 4485SOL     OW13828   3.355   3.629   6.545
 4485SOL    HW113829   3.388   3.693   6.476
 4485SOL    HW213830   3.421   3.623   6.620
 4486SOL     OW13831   3.312   3.082   7.219
 4486SOL    HW113832   3.303   3.072   7.318
 4486SOL    HW213833   3.408   3.075   7.193
 4487SOL     OW13834   2.252   3.603   7.146
 4487SOL    HW113835   2.161   3.644   7.144
 4487SOL    HW213836   2.245   3.509   7.178
 4488SOL     OW13837   3.536   2.745   6.840
 4488SOL    HW113838   3.509   2.656   6.803
 4488SOL    HW213839   3.537   2.813   6.767
 4489SOL     OW13840   3.087   2.187   6.035
 4489SOL    HW113841   3.152   2.113   6.024
 4489SOL    HW213842   3.107   2.237   6.119
 4490SOL     OW13843   3.639   2.204   7.228
 4490SOL    HW113844   3.622   2.235   7.134
 4490SOL    HW213845   3.555   2.167   7.266
 4491SOL     OW13846   3.592   2.796   7.103
 4491SOL    HW113847   3.630   2.887   7.118
 4491SOL    HW213848   3.584   2.779   7.004
 4492SOL     OW13849   2.721   3.236   5.602
 4492SOL    HW113850   2.675   3.251   5.690
 4492SOL    HW213851   2.765   3.321   5.572
 4493SOL     OW13852   2.523   3.652   6.539
 4493SOL    HW113853   2.477   3.740   6.526
 4493SOL    HW213854   2.622   3.664   6.532
 4494SOL     OW13855   2.721   2.818   6.447
 4494SOL    HW113856   2.775   2.749   6.495
 4494SOL    HW213857   2.689   2.887   6.513
 4495SOL     OW13858   2.945   2.846   5.673
 4495SOL    HW113859   2.922   2.899   5.591
 4495SOL    HW213860   3.026   2.790   5.654
 4496SOL     OW13861   3.723   3.431   6.437
 4496SOL    HW113862   3.652   3.419   6.367
 4496SOL    HW213863   3.724   3.352   6.497
 4497SOL     OW13864   2.083   3.176   7.430
 4497SOL    HW113865   2.018   3.103   7.409
 4497SOL    HW213866   2.087   3.190   7.528
 4498SOL     OW13867   1.941   3.102   6.239
 4498SOL    HW113868   1.940   3.055   6.327
 4498SOL    HW213869   2.023   3.074   6.188
 4499SOL     OW13870   2.534   3.253   7.210
 4499SOL    HW113871   2.456   3.203   7.248
 4499SOL    HW213872   2.531   3.348   7.241
 4500SOL     OW13873   3.686   2.054   6.813
 4500SOL    HW113874   3.682   1.964   6.857
 4500SOL    HW213875   3.689   2.043   6.714
 4501SOL     OW13876   2.290   2.286   6.106
 4501SOL    HW113877   2.320   2.214   6.044
 4501SOL    HW213878   2.251   2.246   6.189
 4502SOL     OW13879   3.567   3.349   6.690
 4502SOL    HW113880   3.474   3.324   6.663
 4502SOL    HW213881   3.593   3.299   6.772
 4503SOL     OW13882   2.179   2.409   6.866
 4503SOL    HW113883   2.217   2.350   6.938
 4503SOL    HW213884   2.219   2.383   6.778
 4504SOL     OW13885   2.674   3.448   6.273
 4504SOL    HW113886   2.706   3.458   6.179
 4504SOL    HW213887   2.595   3.386   6.275
 4505SOL     OW13888   3.286   2.076   6.698
 4505SOL    HW113889   3.338   2.011   6.753
 4505SOL    HW213890   3.237   2.139   6.759
 4506SOL     OW13891   2.863   1.896   6.740
 4506SOL    HW113892   2.800   1.824   6.709
 4506SOL    HW213893   2.956   1.860   6.740
 4507SOL     OW13894   2.632   3.192   5.887
 4507SOL    HW113895   2.586   3.105   5.904
 4507SOL    HW213896   2.723   3.189   5.928
 4508SOL     OW13897   2.480   3.429   6.870
 4508SOL    HW113898   2.475   3.511   6.927
 4508SOL    HW213899   2.569   3.426   6.825
 4509SOL     OW13900   3.214   1.914   5.754
 4509SOL    HW113901   3.249   1.873   5.670
 4509SOL    HW213902   3.124   1.876   5.774
 4510SOL     OW13903   3.162   2.315   6.277
 4510SOL    HW113904   3.103   2.395   6.281
 4510SOL    HW213905   3.177   2.280   6.370
 4511SOL     OW13906   3.455   2.083   6.468
 4511SOL    HW113907   3.371   2.082   6.522
 4511SOL    HW213908   3.457   2.166   6.412
 4512SOL     OW13909   1.901   2.939   5.886
 4512SOL    HW113910   2.000   2.928   5.877
 4512SOL    HW213911   1.861   2.853   5.918
 4513SOL     OW13912   2.737   3.508   5.923
 4513SOL    HW113913   2.660   3.473   5.869
 4513SOL    HW213914   2.705   3.579   5.985
 4514SOL     OW13915   2.092   2.490   7.561
 4514SOL    HW113916   1.999   2.488   7.598
 4514SOL    HW213917   2.093   2.451   7.469
 4515SOL     OW13918   2.087   2.137   8.444
 4515SOL    HW113919   2.122   2.120   8.536
 4515SOL    HW213920   1.999   2.092   8.432
 4516SOL     OW13921   1.881   2.230   8.095
 4516SOL    HW113922   1.799   2.273   8.134
 4516SOL    HW213923   1.853   2.157   8.032
 4517SOL     OW13924   2.431   3.137   8.613
 4517SOL    HW113925   2.338   3.130   8.576
 4517SOL    HW213926   2.442   3.226   8.657
 4518SOL     OW13927   3.417   3.373   8.151
 4518SOL    HW113928   3.360   3.357   8.232
 4518SOL    HW213929   3.358   3.383   8.071
 4519SOL     OW13930   2.997   2.565   8.165
 4519SOL    HW113931   3.054   2.643   8.140
 4519SOL    HW213932   2.937   2.591   8.241
 4520SOL     OW13933   3.617   2.469   7.679
 4520SOL    HW113934   3.605   2.456   7.580
 4520SOL    HW213935   3.587   2.388   7.728
 4521SOL     OW13936   2.630   3.006   8.471
 4521SOL    HW113937   2.552   3.023   8.531
 4521SOL    HW213938   2.664   3.093   8.435
 4522SOL     OW13939   2.547   2.874   8.113
 4522SOL    HW113940   2.616   2.858   8.183
 4522SOL    HW213941   2.474   2.931   8.151
 4523SOL     OW13942   2.197   3.297   8.509
 4523SOL    HW113943   2.119   3.266   8.456
 4523SOL    HW213944   2.255   3.355   8.452
 4524SOL     OW13945   3.322   3.367   8.787
 4524SOL    HW113946   3.346   3.461   8.813
 4524SOL    HW213947   3.306   3.313   8.869
 4525SOL     OW13948   2.300   2.254   8.947
 4525SOL    HW113949   2.382   2.198   8.956
 4525SOL    HW213950   2.219   2.196   8.951
 4526SOL     OW13951   3.465   2.309   8.185
 4526SOL    HW113952   3.391   2.355   8.135
 4526SOL    HW213953   3.516   2.377   8.238
 4527SOL     OW13954   2.093   3.575   7.931
 4527SOL    HW113955   2.127   3.652   7.985
 4527SOL    HW213956   2.137   3.575   7.841
 4528SOL     OW13957   2.092   3.296   7.986
 4528SOL    HW113958   2.066   3.392   7.986
 4528SOL    HW213959   2.021   3.242   8.031
 4529SOL     OW13960   2.102   2.953   8.334
 4529SOL    HW113961   2.116   2.869   8.386
 4529SOL    HW213962   2.047   3.017   8.389
 4530SOL     OW13963   2.482   3.648   8.887
 4530SOL    HW113964   2.390   3.631   8.922
 4530SOL    HW213965   2.510   3.740   8.913
 4531SOL     OW13966   2.468   2.826   7.571
 4531SOL    HW113967   2.475   2.910   7.517
 4531SOL    HW213968   2.514   2.839   7.659
 4532SOL     OW13969   3.456   1.976   8.928
 4532SOL    HW113970   3.438   2.043   8.856
 4532SOL    HW213971   3.453   2.022   9.017
 4533SOL     OW13972   1.984   2.505   8.011
 4533SOL    HW113973   1.939   2.417   8.028
 4533SOL    HW213974   1.983   2.559   8.095
 4534SOL     OW13975   3.704   3.629   7.807
 4534SOL    HW113976   3.758   3.600   7.887
 4534SOL    HW213977   3.734   3.719   7.778
 4535SOL     OW13978   1.889   3.458   7.565
 4535SOL    HW113979   1.870   3.362   7.586
 4535SOL    HW213980   1.856   3.516   7.640
 4536SOL     OW13981   3.551   2.784   8.060
 4536SOL    HW113982   3.646   2.755   8.068
 4536SOL    HW213983   3.543   2.849   7.985
 4537SOL     OW13984   3.503   2.970   7.880
 4537SOL    HW113985   3.589   2.972   7.828
 4537SOL    HW213986   3.517   3.017   7.968
 4538SOL     OW13987   2.475   3.227   8.174
 4538SOL    HW113988   2.426   3.140   8.183
 4538SOL    HW213989   2.452   3.270   8.087
 4539SOL     OW13990   2.671   1.866   7.950
 4539SOL    HW113991   2.711   1.957   7.941
 4539SOL    HW213992   2.571   1.874   7.956
 4540SOL     OW13993   2.059   2.838   8.712
 4540SOL    HW113994   2.148   2.793   8.698
 4540SOL    HW213995   1.986   2.773   8.693
 4541SOL     OW13996   3.387   2.861   7.638
 4541SOL    HW113997   3.324   2.785   7.651
 4541SOL    HW213998   3.435   2.879   7.724
 4542SOL     OW13999   2.179   2.113   9.249
 4542SOL    HW114000   2.250   2.184   9.255
 4542SOL    HW214001   2.091   2.152   9.277
 4543SOL     OW14002   3.328   3.279   8.401
 4543SOL    HW114003   3.269   3.285   8.481
 4543SOL    HW214004   3.313   3.191   8.355
 4544SOL     OW14005   3.529   3.576   8.020
 4544SOL    HW114006   3.488   3.553   7.932
 4544SOL    HW214007   3.511   3.502   8.085
 4545SOL     OW14008   3.143   2.207   8.392
 4545SOL    HW114009   3.057   2.157   8.379
 4545SOL    HW214010   3.205   2.153   8.448
 4546SOL     OW14011   3.438   3.524   7.755
 4546SOL    HW114012   3.527   3.570   7.758
 4546SOL    HW214013   3.417   3.500   7.660
 4547SOL     OW14014   2.853   2.272   8.690
 4547SOL    HW114015   2.776   2.306   8.744
 4547SOL    HW214016   2.819   2.221   8.611
 4548SOL     OW14017   2.903   2.563   7.877
 4548SOL    HW114018   2.929   2.559   7.973
 4548SOL    HW214019   2.818   2.512   7.863
 4549SOL     OW14020   1.938   2.673   8.237
 4549SOL    HW114021   2.037   2.661   8.246
 4549SOL    HW214022   1.914   2.768   8.258
 4550SOL     OW14023   1.992   3.683   9.019
 4550SOL    HW114024   1.982   3.668   9.118
 4550SOL    HW214025   1.906   3.719   8.983
 4551SOL     OW14026   2.727   2.210   7.643
 4551SOL    HW114027   2.786   2.273   7.594
 4551SOL    HW214028   2.746   2.116   7.614
 4552SOL     OW14029   3.224   3.006   7.993
 4552SOL    HW114030   3.307   2.977   7.945
 4552SOL    HW214031   3.175   3.073   7.937
 4553SOL     OW14032   2.412   2.058   8.333
 4553SOL    HW114033   2.407   2.053   8.433
 4553SOL    HW214034   2.414   2.154   8.304
 4554SOL     OW14035   2.870   3.318   7.925
 4554SOL    HW114036   2.824   3.390   7.873
 4554SOL    HW214037   2.866   3.338   8.023
 4555SOL     OW14038   2.213   3.663   8.301
 4555SOL    HW114039   2.263   3.577   8.307
 4555SOL    HW214040   2.278   3.740   8.298
 4556SOL     OW14041   3.657   2.928   8.321
 4556SOL    HW114042   3.595   2.913   8.245
 4556SOL    HW214043   3.605   2.939   8.406
 4557SOL     OW14044   2.183   2.805   7.690
 4557SOL    HW114045   2.265   2.844   7.648
 4557SOL    HW214046   2.156   2.723   7.641
 4558SOL     OW14047   3.320   2.597   8.176
 4558SOL    HW114048   3.315   2.532   8.251
 4558SOL    HW214049   3.400   2.656   8.189
 4559SOL     OW14050   2.973   3.638   7.685
 4559SOL    HW114051   2.913   3.576   7.735
 4559SOL    HW214052   3.004   3.594   7.600
 4560SOL     OW14053   2.064   2.147   8.946
 4560SOL    HW114054   1.984   2.207   8.933
 4560SOL    HW214055   2.054   2.098   9.032
 4561SOL     OW14056   3.494   3.239   7.529
 4561SOL    HW114057   3.462   3.333   7.519
 4561SOL    HW214058   3.418   3.176   7.517
 4562SOL     OW14059   2.326   3.605   7.771
 4562SOL    HW114060   2.359   3.644   7.857
 4562SOL    HW214061   2.402   3.598   7.706
 4563SOL     OW14062   3.262   1.969   7.874
 4563SOL    HW114063   3.238   1.932   7.784
 4563SOL    HW214064   3.361   1.985   7.878
 4564SOL     OW14065   2.111   3.647   8.689
 4564SOL    HW114066   2.168   3.582   8.739
 4564SOL    HW214067   2.095   3.614   8.596
 4565SOL     OW14068   2.802   3.560   8.352
 4565SOL    HW114069   2.882   3.503   8.373
 4565SOL    HW214070   2.753   3.520   8.275
 4566SOL     OW14071   2.476   1.984   7.565
 4566SOL    HW114072   2.574   1.962   7.572
 4566SOL    HW214073   2.445   1.967   7.472
 4567SOL     OW14074   2.750   3.376   8.643
 4567SOL    HW114075   2.727   3.351   8.549
 4567SOL    HW214076   2.811   3.307   8.682
 4568SOL     OW14077   2.665   3.264   8.372
 4568SOL    HW114078   2.755   3.278   8.330
 4568SOL    HW214079   2.594   3.266   8.301
 4569SOL     OW14080   2.784   2.365   8.347
 4569SOL    HW114081   2.759   2.356   8.251
 4569SOL    HW214082   2.832   2.283   8.378
 4570SOL     OW14083   2.401   1.926   7.960
 4570SOL    HW114084   2.320   1.927   8.018
 4570SOL    HW214085   2.404   2.009   7.905
 4571SOL     OW14086   3.296   3.050   7.489
 4571SOL    HW114087   3.328   2.974   7.546
 4571SOL    HW214088   3.204   3.077   7.519
 4572SOL     OW14089   2.159   1.897   7.619
 4572SOL    HW114090   2.208   1.981   7.598
 4572SOL    HW214091   2.221   1.832   7.664
 4573SOL     OW14092   2.797   2.098   7.928
 4573SOL    HW114093   2.749   2.139   7.850
 4573SOL    HW214094   2.896   2.096   7.909
 4574SOL     OW14095   3.089   3.432   8.241
 4574SOL    HW114096   3.110   3.506   8.176
 4574SOL    HW214097   3.157   3.432   8.314
 4575SOL     OW14098   2.321   3.014   8.189
 4575SOL    HW114099   2.250   2.987   8.254
 4575SOL    HW214100   2.295   2.986   8.096
 4576SOL     OW14101   3.133   3.659   8.039
 4576SOL    HW114102   3.177   3.723   7.975
 4576SOL    HW214103   3.083   3.711   8.109
 4577SOL     OW14104   2.894   2.411   7.464
 4577SOL    HW114105   2.853   2.493   7.425
 4577SOL    HW214106   2.958   2.437   7.537
 4578SOL     OW14107   1.940   2.418   8.834
 4578SOL    HW114108   2.032   2.417   8.793
 4578SOL    HW214109   1.934   2.492   8.901
 4579SOL     OW14110   2.423   2.084   8.595
 4579SOL    HW114111   2.461   2.000   8.632
 4579SOL    HW214112   2.335   2.103   8.639
 4580SOL     OW14113   2.728   2.316   8.090
 4580SOL    HW114114   2.696   2.388   8.028
 4580SOL    HW214115   2.752   2.235   8.037
 4581SOL     OW14116   2.879   1.901   8.201
 4581SOL    HW114117   2.807   1.906   8.132
 4581SOL    HW214118   2.855   1.832   8.270
 4582SOL     OW14119   3.291   3.035   8.315
 4582SOL    HW114120   3.236   2.951   8.308
 4582SOL    HW214121   3.317   3.064   8.223
 4583SOL     OW14122   3.328   2.452   8.440
 4583SOL    HW114123   3.298   2.357   8.447
 4583SOL    HW214124   3.401   2.468   8.506
 4584SOL     OW14125   3.719   2.695   7.825
 4584SOL    HW114126   3.761   2.631   7.889
 4584SOL    HW214127   3.681   2.644   7.747
 4585SOL     OW14128   2.350   3.247   7.622
 4585SOL    HW114129   2.263   3.232   7.669
 4585SOL    HW214130   2.333   3.273   7.527
 4586SOL     OW14131   3.526   3.142   8.105
 4586SOL    HW114132   3.625   3.150   8.119
 4586SOL    HW214133   3.481   3.226   8.136
 4587SOL     OW14134   3.252   2.437   7.526
 4587SOL    HW114135   3.198   2.416   7.607
 4587SOL    HW214136   3.343   2.396   7.535
 4588SOL     OW14137   2.389   2.118   7.776
 4588SOL    HW114138   2.416   2.059   7.701
 4588SOL    HW214139   2.389   2.213   7.745
 4589SOL     OW14140   2.926   3.209   8.788
 4589SOL    HW114141   2.846   3.186   8.843
 4589SOL    HW214142   3.009   3.183   8.837
 4590SOL     OW14143   2.973   3.057   8.548
 4590SOL    HW114144   2.933   3.101   8.629
 4590SOL    HW214145   2.932   3.094   8.465
 4591SOL     OW14146   3.500   2.961   8.527
 4591SOL    HW114147   3.505   3.042   8.586
 4591SOL    HW214148   3.414   2.963   8.476
 4592SOL     OW14149   2.777   1.951   8.850
 4592SOL    HW114150   2.802   1.931   8.755
 4592SOL    HW214151   2.849   2.007   8.892
 4593SOL     OW14152   2.567   2.912   7.816
 4593SOL    HW114153   2.553   2.919   7.915
 4593SOL    HW214154   2.651   2.861   7.798
 4594SOL     OW14155   2.272   2.675   8.699
 4594SOL    HW114156   2.358   2.687   8.749
 4594SOL    HW214157   2.230   2.588   8.726
 4595SOL     OW14158   3.136   2.248   8.710
 4595SOL    HW114159   3.157   2.322   8.774
 4595SOL    HW214160   3.047   2.265   8.667
 4596SOL     OW14161   1.926   3.426   8.779
 4596SOL    HW114162   1.880   3.508   8.745
 4596SOL    HW214163   2.024   3.445   8.788
 4597SOL     OW14164   2.229   2.962   7.949
 4597SOL    HW114165   2.222   3.045   7.893
 4597SOL    HW214166   2.233   2.882   7.889
 4598SOL     OW14167   3.114   3.210   7.836
 4598SOL    HW114168   3.164   3.287   7.876
 4598SOL    HW214169   3.019   3.212   7.868
 4599SOL     OW14170   3.134   3.307   8.590
 4599SOL    HW114171   3.181   3.320   8.677
 4599SOL    HW214172   3.068   3.233   8.599
 4600SOL     OW14173   3.444   2.501   7.920
 4600SOL    HW114174   3.413   2.562   7.993
 4600SOL    HW214175   3.494   2.553   7.851
 4601SOL     OW14176   2.216   3.372   8.777
 4601SOL    HW114177   2.195   3.328   8.690
 4601SOL    HW214178   2.313   3.398   8.780
 4602SOL     OW14179   2.264   2.613   9.046
 4602SOL    HW114180   2.332   2.668   8.999
 4602SOL    HW214181   2.304   2.525   9.073
 4603SOL     OW14182   3.449   2.641   9.118
 4603SOL    HW114183   3.357   2.679   9.113
 4603SOL    HW214184   3.509   2.688   9.053
 4604SOL     OW14185   3.222   2.724   8.493
 4604SOL    HW114186   3.147   2.724   8.427
 4604SOL    HW214187   3.259   2.632   8.502
 4605SOL     OW14188   3.071   2.387   7.723
 4605SOL    HW114189   3.084   2.303   7.777
 4605SOL    HW214190   3.042   2.461   7.783
 4606SOL     OW14191   2.169   2.075   8.679
 4606SOL    HW114192   2.146   2.112   8.769
 4606SOL    HW214193   2.139   1.980   8.673
 4607SOL     OW14194   1.899   3.172   8.730
 4607SOL    HW114195   1.952   3.123   8.798
 4607SOL    HW214196   1.921   3.270   8.735
 4608SOL     OW14197   2.169   1.925   8.066
 4608SOL    HW114198   2.158   2.019   8.099
 4608SOL    HW214199   2.164   1.862   8.143
 4609SOL     OW14200   3.484   2.229   7.822
 4609SOL    HW114201   3.486   2.153   7.886
 4609SOL    HW214202   3.436   2.306   7.862
 4610SOL     OW14203   2.885   2.628   8.414
 4610SOL    HW114204   2.900   2.649   8.510
 4610SOL    HW214205   2.855   2.533   8.405
 4611SOL     OW14206   2.842   3.435   9.148
 4611SOL    HW114207   2.822   3.479   9.060
 4611SOL    HW214208   2.881   3.344   9.132
 4612SOL     OW14209   3.402   2.136   7.573
 4612SOL    HW114210   3.341   2.061   7.596
 4612SOL    HW214211   3.424   2.188   7.656
 4613SOL     OW14212   3.165   2.700   7.490
 4613SOL    HW114213   3.199   2.607   7.505
 4613SOL    HW214214   3.183   2.727   7.395
 4614SOL     OW14215   2.930   3.195   8.297
 4614SOL    HW114216   2.937   3.111   8.242
 4614SOL    HW214217   2.992   3.264   8.261
 4615SOL     OW14218   2.181   2.672   8.397
 4615SOL    HW114219   2.274   2.708   8.402
 4615SOL    HW214220   2.175   2.587   8.449
 4616SOL     OW14221   2.201   2.371   8.454
 4616SOL    HW114222   2.149   2.288   8.437
 4616SOL    HW214223   2.278   2.376   8.390
 4617SOL     OW14224   3.000   2.242   9.126
 4617SOL    HW114225   2.955   2.305   9.190
 4617SOL    HW214226   3.093   2.273   9.109
 4618SOL     OW14227   3.022   2.069   8.925
 4618SOL    HW114228   3.022   2.133   9.002
 4618SOL    HW214229   3.050   2.117   8.842
 4619SOL     OW14230   1.870   3.188   7.648
 4619SOL    HW114231   1.777   3.209   7.617
 4619SOL    HW214232   1.880   3.089   7.661
 4620SOL     OW14233   1.950   3.663   8.375
 4620SOL    HW114234   1.908   3.577   8.348
 4620SOL    HW214235   2.044   3.666   8.341
 4621SOL     OW14236   2.366   3.430   8.358
 4621SOL    HW114237   2.432   3.504   8.367
 4621SOL    HW214238   2.410   3.351   8.316
 4622SOL     OW14239   2.864   2.658   8.686
 4622SOL    HW114240   2.905   2.626   8.772
 4622SOL    HW214241   2.768   2.631   8.683
 4623SOL     OW14242   1.902   2.406   8.562
 4623SOL    HW114243   1.987   2.373   8.521
 4623SOL    HW214244   1.915   2.421   8.660
 4624SOL     OW14245   3.519   2.466   8.654
 4624SOL    HW114246   3.481   2.397   8.716
 4624SOL    HW214247   3.601   2.430   8.610
 4625SOL     OW14248   2.792   3.540   8.913
 4625SOL    HW114249   2.768   3.522   8.818
 4625SOL    HW214250   2.822   3.634   8.923
 4626SOL     OW14251   2.021   2.999   8.914
 4626SOL    HW114252   2.043   2.938   8.990
 4626SOL    HW214253   2.031   2.950   8.828
 4627SOL     OW14254   3.209   2.921   8.682
 4627SOL    HW114255   3.233   2.858   8.608
 4627SOL    HW214256   3.119   2.961   8.664
 4628SOL     OW14257   3.164   2.717   7.757
 4628SOL    HW114258   3.078   2.686   7.799
 4628SOL    HW214259   3.160   2.703   7.658
 4629SOL     OW14260   3.621   3.609   8.602
 4629SOL    HW114261   3.682   3.639   8.529
 4629SOL    HW214262   3.583   3.520   8.580
 4630SOL     OW14263   3.114   3.593   8.576
 4630SOL    HW114264   3.198   3.598   8.522
 4630SOL    HW214265   3.091   3.497   8.594
 4631SOL     OW14266   1.945   3.120   8.470
 4631SOL    HW114267   1.940   3.119   8.570
 4631SOL    HW214268   1.862   3.079   8.432
 4632SOL     OW14269   3.588   1.997   7.971
 4632SOL    HW114270   3.661   1.980   7.904
 4632SOL    HW214271   3.557   1.910   8.009
 4633SOL     OW14272   3.250   3.435   7.925
 4633SOL    HW114273   3.317   3.447   7.851
 4633SOL    HW214274   3.210   3.524   7.948
 4634SOL     OW14275   3.142   2.789   8.120
 4634SOL    HW114276   3.202   2.708   8.122
 4634SOL    HW214277   3.182   2.858   8.060
 4635SOL     OW14278   2.534   3.478   7.602
 4635SOL    HW114279   2.543   3.488   7.503
 4635SOL    HW214280   2.494   3.389   7.623
 4636SOL     OW14281   3.512   3.582   8.842
 4636SOL    HW114282   3.565   3.592   8.758
 4636SOL    HW214283   3.485   3.672   8.876
 4637SOL     OW14284   3.703   2.037   8.411
 4637SOL    HW114285   3.742   1.952   8.375
 4637SOL    HW214286   3.605   2.039   8.392
 4638SOL     OW14287   2.125   2.188   8.168
 4638SOL    HW114288   2.046   2.239   8.134
 4638SOL    HW214289   2.116   2.173   8.266
 4639SOL     OW14290   3.056   3.474   7.479
 4639SOL    HW114291   3.062   3.381   7.516
 4639SOL    HW214292   2.997   3.474   7.399
 4640SOL     OW14293   2.684   2.864   8.820
 4640SOL    HW114294   2.724   2.863   8.728
 4640SOL    HW214295   2.694   2.956   8.860
 4641SOL     OW14296   2.778   2.772   7.739
 4641SOL    HW114297   2.841   2.810   7.671
 4641SOL    HW214298   2.818   2.689   7.778
 4642SOL     OW14299   3.366   3.469   7.492
 4642SOL    HW114300   3.274   3.506   7.499
 4642SOL    HW214301   3.404   3.489   7.402
 4643SOL     OW14302   2.234   3.150   8.938
 4643SOL    HW114303   2.221   3.243   8.904
 4643SOL    HW214304   2.150   3.098   8.925
 4644SOL     OW14305   3.476   3.154   8.737
 4644SOL    HW114306   3.536   3.157   8.817
 4644SOL    HW214307   3.401   3.218   8.750
 4645SOL     OW14308   2.901   2.960   8.144
 4645SOL    HW114309   2.831   2.913   8.198
 4645SOL    HW214310   2.960   2.892   8.101
 4646SOL     OW14311   2.876   2.098   8.419
 4646SOL    HW114312   2.868   2.062   8.326
 4646SOL    HW214313   2.874   2.022   8.484
 4647SOL     OW14314   2.452   3.349   7.939
 4647SOL    HW114315   2.494   3.291   7.869
 4647SOL    HW214316   2.408   3.428   7.895
 4648SOL     OW14317   3.571   2.247   8.829
 4648SOL    HW114318   3.644   2.316   8.833
 4648SOL    HW214319   3.599   2.172   8.770
 4649SOL     OW14320   2.117   3.210   7.738
 4649SOL    HW114321   2.021   3.211   7.711
 4649SOL    HW214322   2.129   3.263   7.822
 4650SOL     OW14323   1.937   2.207   7.481
 4650SOL    HW114324   1.845   2.179   7.452
 4650SOL    HW214325   1.968   2.284   7.425
 4651SOL     OW14326   3.302   2.718   8.846
 4651SOL    HW114327   3.245   2.770   8.783
 4651SOL    HW214328   3.398   2.730   8.822
 4652SOL     OW14329   1.934   2.028   7.766
 4652SOL    HW114330   1.917   2.111   7.712
 4652SOL    HW214331   2.024   1.991   7.744
 4653SOL     OW14332   3.045   3.197   7.567
 4653SOL    HW114333   2.946   3.186   7.569
 4653SOL    HW214334   3.079   3.212   7.660
 4654SOL     OW14335   3.355   3.629   8.407
 4654SOL    HW114336   3.388   3.693   8.338
 4654SOL    HW214337   3.421   3.623   8.482
 4655SOL     OW14338   2.252   3.603   9.008
 4655SOL    HW114339   2.161   3.644   9.006
 4655SOL    HW214340   2.245   3.509   9.040
 4656SOL     OW14341   3.536   2.745   8.702
 4656SOL    HW114342   3.509   2.656   8.665
 4656SOL    HW214343   3.537   2.813   8.629
 4657SOL     OW14344   3.087   2.187   7.897
 4657SOL    HW114345   3.152   2.113   7.886
 4657SOL    HW214346   3.107   2.237   7.981
 4658SOL     OW14347   3.639   2.204   9.090
 4658SOL    HW114348   3.622   2.235   8.996
 4658SOL    HW214349   3.555   2.167   9.128
 4659SOL     OW14350   3.592   2.796   8.965
 4659SOL    HW114351   3.630   2.887   8.980
 4659SOL    HW214352   3.584   2.779   8.866
 4660SOL     OW14353   2.721   3.236   7.464
 4660SOL    HW114354   2.675   3.251   7.552
 4660SOL    HW214355   2.765   3.321   7.434
 4661SOL     OW14356   2.523   3.652   8.401
 4661SOL    HW114357   2.477   3.740   8.388
 4661SOL    HW214358   2.622   3.664   8.394
 4662SOL     OW14359   2.721   2.818   8.309
 4662SOL    HW114360   2.775   2.749   8.357
 4662SOL    HW214361   2.689   2.887   8.375
 4663SOL     OW14362   2.945   2.846   7.535
 4663SOL    HW114363   2.922   2.899   7.453
 4663SOL    HW214364   3.026   2.790   7.516
 4664SOL     OW14365   3.723   3.431   8.299
 4664SOL    HW114366   3.652   3.419   8.229
 4664SOL    HW214367   3.724   3.352   8.359
 4665SOL     OW14368   1.941   3.102   8.101
 4665SOL    HW114369   1.940   3.055   8.189
 4665SOL    HW214370   2.023   3.074   8.050
 4666SOL     OW14371   3.686   2.054   8.675
 4666SOL    HW114372   3.682   1.964   8.719
 4666SOL    HW214373   3.689   2.043   8.576
 4667SOL     OW14374   2.290   2.286   7.968
 4667SOL    HW114375   2.320   2.214   7.906
 4667SOL    HW214376   2.251   2.246   8.051
 4668SOL     OW14377   3.567   3.349   8.552
 4668SOL    HW114378   3.474   3.324   8.525
 4668SOL    HW214379   3.593   3.299   8.634
 4669SOL     OW14380   2.179   2.409   8.728
 4669SOL    HW114381   2.217   2.350   8.800
 4669SOL    HW214382   2.219   2.383   8.640
 4670SOL     OW14383   2.674   3.448   8.135
 4670SOL    HW114384   2.706   3.458   8.041
 4670SOL    HW214385   2.595   3.386   8.137
 4671SOL     OW14386   3.286   2.076   8.560
 4671SOL    HW114387   3.338   2.011   8.615
 4671SOL    HW214388   3.237   2.139   8.621
 4672SOL     OW14389   2.863   1.896   8.602
 4672SOL    HW114390   2.800   1.824   8.571
 4672SOL    HW214391   2.956   1.860   8.602
 4673SOL     OW14392   2.632   3.192   7.749
 4673SOL    HW114393   2.586   3.105   7.766
 4673SOL    HW214394   2.723   3.189   7.790
 4674SOL     OW14395   2.480   3.429   8.732
 4674SOL    HW114396   2.475   3.511   8.789
 4674SOL    HW214397   2.569   3.426   8.687
 4675SOL     OW14398   3.214   1.914   7.616
 4675SOL    HW114399   3.249   1.873   7.532
 4675SOL    HW214400   3.124   1.876   7.636
 4676SOL     OW14401   3.162   2.315   8.139
 4676SOL    HW114402   3.103   2.395   8.143
 4676SOL    HW214403   3.177   2.280   8.232
 4677SOL     OW14404   3.455   2.083   8.330
 4677SOL    HW114405   3.371   2.082   8.384
 4677SOL    HW214406   3.457   2.166   8.274
 4678SOL     OW14407   1.901   2.939   7.748
 4678SOL    HW114408   2.000   2.928   7.739
 4678SOL    HW214409   1.861   2.853   7.780
 4679SOL     OW14410   2.737   3.508   7.785
 4679SOL    HW114411   2.660   3.473   7.731
 4679SOL    HW214412   2.705   3.579   7.847
 4680SOL     OW14413   2.092   4.352   0.113
 4680SOL    HW114414   1.999   4.350   0.150
 4680SOL    HW214415   2.093   4.313   0.021
 4681SOL     OW14416   2.087   3.999   0.996
 4681SOL    HW114417   2.122   3.982   1.088
 4681SOL    HW214418   1.999   3.954   0.984
 4682SOL     OW14419   1.881   4.092   0.647
 4682SOL    HW114420   1.799   4.135   0.686
 4682SOL    HW214421   1.853   4.019   0.584
 4683SOL     OW14422   2.997   4.427   0.717
 4683SOL    HW114423   3.054   4.505   0.692
 4683SOL    HW214424   2.937   4.453   0.793
 4684SOL     OW14425   3.617   4.331   0.231
 4684SOL    HW114426   3.605   4.318   0.132
 4684SOL    HW214427   3.587   4.250   0.280
 4685SOL     OW14428   2.630   4.868   1.023
 4685SOL    HW114429   2.552   4.885   1.083
 4685SOL    HW214430   2.664   4.955   0.987
 4686SOL     OW14431   2.712   4.522   1.823
 4686SOL    HW114432   2.708   4.598   1.888
 4686SOL    HW214433   2.734   4.558   1.732
 4687SOL     OW14434   2.547   4.736   0.665
 4687SOL    HW114435   2.616   4.720   0.735
 4687SOL    HW214436   2.474   4.793   0.703
 4688SOL     OW14437   2.548   4.885   1.803
 4688SOL    HW114438   2.608   4.964   1.817
 4688SOL    HW214439   2.462   4.916   1.762
 4689SOL     OW14440   2.300   4.116   1.499
 4689SOL    HW114441   2.382   4.060   1.508
 4689SOL    HW214442   2.219   4.058   1.503
 4690SOL     OW14443   3.465   4.171   0.737
 4690SOL    HW114444   3.391   4.217   0.687
 4690SOL    HW214445   3.516   4.239   0.790
 4691SOL     OW14446   2.102   4.815   0.886
 4691SOL    HW114447   2.116   4.731   0.938
 4691SOL    HW214448   2.047   4.879   0.941
 4692SOL     OW14449   2.468   4.688   0.123
 4692SOL    HW114450   2.475   4.772   0.069
 4692SOL    HW214451   2.514   4.701   0.211
 4693SOL     OW14452   3.456   3.838   1.480
 4693SOL    HW114453   3.438   3.905   1.408
 4693SOL    HW214454   3.453   3.884   1.569
 4694SOL     OW14455   1.984   4.367   0.563
 4694SOL    HW114456   1.939   4.279   0.580
 4694SOL    HW214457   1.983   4.421   0.647
 4695SOL     OW14458   3.551   4.646   0.612
 4695SOL    HW114459   3.646   4.617   0.620
 4695SOL    HW214460   3.543   4.711   0.537
 4696SOL     OW14461   3.503   4.832   0.432
 4696SOL    HW114462   3.589   4.834   0.380
 4696SOL    HW214463   3.517   4.879   0.520
 4697SOL     OW14464   1.975   4.461   1.597
 4697SOL    HW114465   2.063   4.448   1.642
 4697SOL    HW214466   1.962   4.558   1.575
 4698SOL     OW14467   3.155   4.952   1.423
 4698SOL    HW114468   3.192   4.879   1.365
 4698SOL    HW214469   3.207   4.957   1.508
 4699SOL     OW14470   2.671   3.728   0.502
 4699SOL    HW114471   2.711   3.819   0.493
 4699SOL    HW214472   2.571   3.736   0.508
 4700SOL     OW14473   2.059   4.700   1.264
 4700SOL    HW114474   2.148   4.655   1.250
 4700SOL    HW214475   1.986   4.635   1.245
 4701SOL     OW14476   3.387   4.723   0.190
 4701SOL    HW114477   3.324   4.647   0.203
 4701SOL    HW214478   3.435   4.741   0.276
 4702SOL     OW14479   2.179   3.975   1.801
 4702SOL    HW114480   2.250   4.046   1.807
 4702SOL    HW214481   2.091   4.014   1.829
 4703SOL     OW14482   2.460   4.453   0.270
 4703SOL    HW114483   2.484   4.522   0.202
 4703SOL    HW214484   2.382   4.486   0.324
 4704SOL     OW14485   3.143   4.069   0.944
 4704SOL    HW114486   3.057   4.019   0.931
 4704SOL    HW214487   3.205   4.015   1.000
 4705SOL     OW14488   2.669   4.329   1.465
 4705SOL    HW114489   2.622   4.326   1.554
 4705SOL    HW214490   2.618   4.274   1.399
 4706SOL     OW14491   3.256   4.193   1.674
 4706SOL    HW114492   3.236   4.236   1.762
 4706SOL    HW214493   3.334   4.131   1.683
 4707SOL     OW14494   2.835   4.614   1.572
 4707SOL    HW114495   2.881   4.530   1.543
 4707SOL    HW214496   2.779   4.648   1.497
 4708SOL     OW14497   2.853   4.134   1.242
 4708SOL    HW114498   2.776   4.168   1.296
 4708SOL    HW214499   2.819   4.083   1.163
 4709SOL     OW14500   2.903   4.425   0.429
 4709SOL    HW114501   2.929   4.421   0.525
 4709SOL    HW214502   2.818   4.374   0.415
 4710SOL     OW14503   1.938   4.535   0.789
 4710SOL    HW114504   2.037   4.523   0.798
 4710SOL    HW214505   1.914   4.630   0.810
 4711SOL     OW14506   2.727   4.072   0.195
 4711SOL    HW114507   2.786   4.135   0.146
 4711SOL    HW214508   2.746   3.978   0.166
 4712SOL     OW14509   3.581   4.309   1.831
 4712SOL    HW114510   3.555   4.398   1.795
 4712SOL    HW214511   3.579   4.241   1.758
 4713SOL     OW14512   3.224   4.868   0.545
 4713SOL    HW114513   3.307   4.839   0.497
 4713SOL    HW214514   3.175   4.935   0.489
 4714SOL     OW14515   2.412   3.920   0.885
 4714SOL    HW114516   2.407   3.915   0.985
 4714SOL    HW214517   2.414   4.016   0.856
 4715SOL     OW14518   3.657   4.790   0.873
 4715SOL    HW114519   3.595   4.775   0.797
 4715SOL    HW214520   3.605   4.801   0.958
 4716SOL     OW14521   2.183   4.667   0.242
 4716SOL    HW114522   2.265   4.706   0.200
 4716SOL    HW214523   2.156   4.585   0.193
 4717SOL     OW14524   3.320   4.459   0.728
 4717SOL    HW114525   3.315   4.394   0.803
 4717SOL    HW214526   3.400   4.518   0.741
 4718SOL     OW14527   2.064   4.009   1.498
 4718SOL    HW114528   1.984   4.069   1.485
 4718SOL    HW214529   2.054   3.960   1.584
 4719SOL     OW14530   3.262   3.831   0.426
 4719SOL    HW114531   3.238   3.794   0.336
 4719SOL    HW214532   3.361   3.847   0.430
 4720SOL     OW14533   2.244   4.424   0.480
 4720SOL    HW114534   2.289   4.334   0.477
 4720SOL    HW214535   2.150   4.413   0.513
 4721SOL     OW14536   3.409   3.946   1.729
 4721SOL    HW114537   3.404   3.983   1.821
 4721SOL    HW214538   3.337   3.877   1.717
 4722SOL     OW14539   2.476   3.846   0.117
 4722SOL    HW114540   2.574   3.824   0.124
 4722SOL    HW214541   2.445   3.829   0.024
 4723SOL     OW14542   2.643   3.988   1.749
 4723SOL    HW114543   2.710   3.927   1.792
 4723SOL    HW214544   2.570   4.007   1.814
 4724SOL     OW14545   3.213   4.314   1.433
 4724SOL    HW114546   3.241   4.271   1.518
 4724SOL    HW214547   3.238   4.410   1.434
 4725SOL     OW14548   2.784   4.227   0.899
 4725SOL    HW114549   2.759   4.218   0.803
 4725SOL    HW214550   2.832   4.145   0.930
 4726SOL     OW14551   2.401   3.788   0.512
 4726SOL    HW114552   2.320   3.789   0.570
 4726SOL    HW214553   2.404   3.871   0.457
 4727SOL     OW14554   2.159   3.759   0.171
 4727SOL    HW114555   2.208   3.843   0.150
 4727SOL    HW214556   2.221   3.694   0.216
 4728SOL     OW14557   2.797   3.960   0.480
 4728SOL    HW114558   2.749   4.001   0.402
 4728SOL    HW214559   2.896   3.958   0.461
 4729SOL     OW14560   2.938   4.407   1.464
 4729SOL    HW114561   2.858   4.346   1.467
 4729SOL    HW214562   3.019   4.354   1.440
 4730SOL     OW14563   2.321   4.876   0.741
 4730SOL    HW114564   2.250   4.849   0.806
 4730SOL    HW214565   2.295   4.848   0.648
 4731SOL     OW14566   2.894   4.273   0.016
 4731SOL    HW114567   2.853   4.355  -0.023
 4731SOL    HW214568   2.958   4.299   0.089
 4732SOL     OW14569   1.940   4.280   1.386
 4732SOL    HW114570   2.032   4.279   1.345
 4732SOL    HW214571   1.934   4.354   1.453
 4733SOL     OW14572   2.423   3.946   1.147
 4733SOL    HW114573   2.461   3.862   1.184
 4733SOL    HW214574   2.335   3.965   1.191
 4734SOL     OW14575   2.728   4.178   0.642
 4734SOL    HW114576   2.696   4.250   0.580
 4734SOL    HW214577   2.752   4.097   0.589
 4735SOL     OW14578   2.879   3.763   0.753
 4735SOL    HW114579   2.807   3.768   0.684
 4735SOL    HW214580   2.855   3.694   0.822
 4736SOL     OW14581   3.291   4.897   0.867
 4736SOL    HW114582   3.236   4.813   0.860
 4736SOL    HW214583   3.317   4.926   0.775
 4737SOL     OW14584   3.328   4.314   0.992
 4737SOL    HW114585   3.298   4.219   0.999
 4737SOL    HW214586   3.401   4.330   1.058
 4738SOL     OW14587   3.719   4.557   0.377
 4738SOL    HW114588   3.761   4.493   0.441
 4738SOL    HW214589   3.681   4.506   0.299
 4739SOL     OW14590   3.252   4.299   0.078
 4739SOL    HW114591   3.198   4.278   0.159
 4739SOL    HW214592   3.343   4.258   0.087
 4740SOL     OW14593   2.389   3.980   0.328
 4740SOL    HW114594   2.416   3.921   0.253
 4740SOL    HW214595   2.389   4.075   0.297
 4741SOL     OW14596   3.616   4.947   1.588
 4741SOL    HW114597   3.707   4.908   1.575
 4741SOL    HW214598   3.624   5.043   1.612
 4742SOL     OW14599   3.500   4.823   1.079
 4742SOL    HW114600   3.505   4.904   1.138
 4742SOL    HW214601   3.414   4.825   1.028
 4743SOL     OW14602   2.777   3.813   1.402
 4743SOL    HW114603   2.802   3.793   1.307
 4743SOL    HW214604   2.849   3.869   1.444
 4744SOL     OW14605   2.842   4.840   1.719
 4744SOL    HW114606   2.743   4.846   1.729
 4744SOL    HW214607   2.865   4.760   1.663
 4745SOL     OW14608   2.567   4.774   0.368
 4745SOL    HW114609   2.553   4.781   0.467
 4745SOL    HW214610   2.651   4.723   0.350
 4746SOL     OW14611   2.272   4.537   1.251
 4746SOL    HW114612   2.358   4.549   1.301
 4746SOL    HW214613   2.230   4.450   1.278
 4747SOL     OW14614   3.136   4.110   1.262
 4747SOL    HW114615   3.157   4.184   1.326
 4747SOL    HW214616   3.047   4.127   1.219
 4748SOL     OW14617   2.229   4.824   0.501
 4748SOL    HW114618   2.222   4.907   0.445
 4748SOL    HW214619   2.233   4.744   0.441
 4749SOL     OW14620   2.428   4.261   0.865
 4749SOL    HW114621   2.440   4.327   0.791
 4749SOL    HW214622   2.474   4.295   0.948
 4750SOL     OW14623   3.444   4.363   0.472
 4750SOL    HW114624   3.413   4.424   0.545
 4750SOL    HW214625   3.494   4.415   0.403
 4751SOL     OW14626   2.264   4.475   1.598
 4751SOL    HW114627   2.332   4.530   1.551
 4751SOL    HW214628   2.304   4.387   1.625
 4752SOL     OW14629   3.449   4.503   1.670
 4752SOL    HW114630   3.357   4.541   1.665
 4752SOL    HW214631   3.509   4.550   1.605
 4753SOL     OW14632   2.875   3.829   1.770
 4753SOL    HW114633   2.881   3.914   1.718
 4753SOL    HW214634   2.907   3.753   1.713
 4754SOL     OW14635   2.366   3.774   1.740
 4754SOL    HW114636   2.324   3.717   1.670
 4754SOL    HW214637   2.300   3.843   1.772
 4755SOL     OW14638   2.435   4.594   1.029
 4755SOL    HW114639   2.479   4.683   1.020
 4755SOL    HW214640   2.372   4.594   1.106
 4756SOL     OW14641   3.222   4.586   1.045
 4756SOL    HW114642   3.147   4.586   0.979
 4756SOL    HW214643   3.259   4.494   1.054
 4757SOL     OW14644   3.071   4.249   0.275
 4757SOL    HW114645   3.084   4.165   0.329
 4757SOL    HW214646   3.042   4.323   0.335
 4758SOL     OW14647   2.169   3.937   1.231
 4758SOL    HW114648   2.146   3.974   1.321
 4758SOL    HW214649   2.139   3.842   1.225
 4759SOL     OW14650   2.594   4.358   1.064
 4759SOL    HW114651   2.653   4.332   0.988
 4759SOL    HW214652   2.566   4.454   1.053
 4760SOL     OW14653   3.590   4.659   1.854
 4760SOL    HW114654   3.544   4.652   1.765
 4760SOL    HW214655   3.528   4.703   1.920
 4761SOL     OW14656   2.169   3.787   0.618
 4761SOL    HW114657   2.158   3.881   0.651
 4761SOL    HW214658   2.164   3.724   0.695
 4762SOL     OW14659   3.484   4.091   0.374
 4762SOL    HW114660   3.486   4.015   0.438
 4762SOL    HW214661   3.436   4.168   0.414
 4763SOL     OW14662   2.885   4.490   0.966
 4763SOL    HW114663   2.900   4.511   1.062
 4763SOL    HW214664   2.855   4.395   0.957
 4764SOL     OW14665   2.212   4.622   1.804
 4764SOL    HW114666   2.288   4.666   1.852
 4764SOL    HW214667   2.247   4.575   1.722
 4765SOL     OW14668   3.402   3.998   0.125
 4765SOL    HW114669   3.341   3.923   0.148
 4765SOL    HW214670   3.424   4.050   0.208
 4766SOL     OW14671   3.165   4.562   0.042
 4766SOL    HW114672   3.199   4.469   0.057
 4766SOL    HW214673   3.183   4.589  -0.053
 4767SOL     OW14674   2.181   4.534   0.949
 4767SOL    HW114675   2.274   4.570   0.954
 4767SOL    HW214676   2.175   4.449   1.001
 4768SOL     OW14677   2.201   4.233   1.006
 4768SOL    HW114678   2.149   4.150   0.989
 4768SOL    HW214679   2.278   4.238   0.942
 4769SOL     OW14680   3.000   4.104   1.678
 4769SOL    HW114681   2.955   4.167   1.742
 4769SOL    HW214682   3.093   4.135   1.661
 4770SOL     OW14683   3.022   3.931   1.477
 4770SOL    HW114684   3.022   3.995   1.554
 4770SOL    HW214685   3.050   3.979   1.394
 4771SOL     OW14686   1.870   5.050   0.200
 4771SOL    HW114687   1.777   5.071   0.169
 4771SOL    HW214688   1.880   4.951   0.213
 4772SOL     OW14689   2.864   4.520   1.238
 4772SOL    HW114690   2.905   4.488   1.324
 4772SOL    HW214691   2.768   4.493   1.235
 4773SOL     OW14692   1.902   4.268   1.114
 4773SOL    HW114693   1.987   4.235   1.073
 4773SOL    HW214694   1.915   4.283   1.212
 4774SOL     OW14695   2.051   4.244   1.722
 4774SOL    HW114696   2.110   4.204   1.652
 4774SOL    HW214697   1.993   4.315   1.681
 4775SOL     OW14698   3.231   4.674   1.660
 4775SOL    HW114699   3.270   4.763   1.680
 4775SOL    HW214700   3.241   4.654   1.563
 4776SOL     OW14701   2.677   4.296   0.325
 4776SOL    HW114702   2.684   4.207   0.279
 4776SOL    HW214703   2.583   4.330   0.317
 4777SOL     OW14704   3.519   4.328   1.206
 4777SOL    HW114705   3.481   4.259   1.268
 4777SOL    HW214706   3.601   4.292   1.162
 4778SOL     OW14707   2.533   4.188   1.269
 4778SOL    HW114708   2.499   4.099   1.239
 4778SOL    HW214709   2.559   4.242   1.189
 4779SOL     OW14710   2.335   4.224   0.191
 4779SOL    HW114711   2.396   4.304   0.195
 4779SOL    HW214712   2.240   4.255   0.198
 4780SOL     OW14713   2.021   4.861   1.466
 4780SOL    HW114714   2.043   4.800   1.542
 4780SOL    HW214715   2.031   4.812   1.380
 4781SOL     OW14716   3.209   4.783   1.234
 4781SOL    HW114717   3.233   4.720   1.160
 4781SOL    HW214718   3.119   4.823   1.216
 4782SOL     OW14719   3.164   4.579   0.309
 4782SOL    HW114720   3.078   4.548   0.351
 4782SOL    HW214721   3.160   4.565   0.210
 4783SOL     OW14722   1.945   4.982   1.022
 4783SOL    HW114723   1.940   4.981   1.122
 4783SOL    HW214724   1.862   4.941   0.984
 4784SOL     OW14725   2.765   3.810   0.133
 4784SOL    HW114726   2.816   3.811   0.047
 4784SOL    HW214727   2.821   3.768   0.204
 4785SOL     OW14728   3.588   3.859   0.523
 4785SOL    HW114729   3.661   3.842   0.456
 4785SOL    HW214730   3.557   3.772   0.561
 4786SOL     OW14731   3.142   4.651   0.672
 4786SOL    HW114732   3.202   4.570   0.674
 4786SOL    HW214733   3.182   4.720   0.612
 4787SOL     OW14734   3.703   3.899   0.963
 4787SOL    HW114735   3.742   3.814   0.927
 4787SOL    HW214736   3.605   3.901   0.944
 4788SOL     OW14737   2.125   4.050   0.720
 4788SOL    HW114738   2.046   4.101   0.686
 4788SOL    HW214739   2.116   4.035   0.818
 4789SOL     OW14740   2.684   4.726   1.372
 4789SOL    HW114741   2.724   4.725   1.280
 4789SOL    HW214742   2.694   4.818   1.412
 4790SOL     OW14743   2.778   4.634   0.291
 4790SOL    HW114744   2.841   4.672   0.223
 4790SOL    HW214745   2.818   4.551   0.330
 4791SOL     OW14746   2.234   5.012   1.490
 4791SOL    HW114747   2.221   5.105   1.456
 4791SOL    HW214748   2.150   4.960   1.477
 4792SOL     OW14749   3.476   5.016   1.289
 4792SOL    HW114750   3.536   5.019   1.369
 4792SOL    HW214751   3.401   5.080   1.302
 4793SOL     OW14752   2.901   4.822   0.696
 4793SOL    HW114753   2.831   4.775   0.750
 4793SOL    HW214754   2.960   4.754   0.653
 4794SOL     OW14755   2.876   3.960   0.971
 4794SOL    HW114756   2.868   3.924   0.878
 4794SOL    HW214757   2.874   3.884   1.036
 4795SOL     OW14758   3.571   4.109   1.381
 4795SOL    HW114759   3.644   4.178   1.385
 4795SOL    HW214760   3.599   4.034   1.322
 4796SOL     OW14761   1.967   4.737   1.726
 4796SOL    HW114762   1.890   4.704   1.780
 4796SOL    HW214763   2.052   4.707   1.768
 4797SOL     OW14764   2.534   3.927   1.489
 4797SOL    HW114765   2.624   3.911   1.449
 4797SOL    HW214766   2.542   3.932   1.588
 4798SOL     OW14767   3.302   4.580   1.398
 4798SOL    HW114768   3.245   4.632   1.335
 4798SOL    HW214769   3.398   4.592   1.374
 4799SOL     OW14770   1.934   3.890   0.318
 4799SOL    HW114771   1.917   3.973   0.264
 4799SOL    HW214772   2.024   3.853   0.296
 4800SOL     OW14773   2.475   4.566   1.431
 4800SOL    HW114774   2.531   4.647   1.414
 4800SOL    HW214775   2.534   4.486   1.434
 4801SOL     OW14776   2.578   4.289   1.708
 4801SOL    HW114777   2.597   4.354   1.782
 4801SOL    HW214778   2.638   4.209   1.717
 4802SOL     OW14779   3.312   4.944   1.633
 4802SOL    HW114780   3.303   4.934   1.732
 4802SOL    HW214781   3.408   4.937   1.607
 4803SOL     OW14782   3.536   4.607   1.254
 4803SOL    HW114783   3.509   4.518   1.217
 4803SOL    HW214784   3.537   4.675   1.181
 4804SOL     OW14785   3.087   4.049   0.449
 4804SOL    HW114786   3.152   3.975   0.438
 4804SOL    HW214787   3.107   4.099   0.533
 4805SOL     OW14788   2.456   4.469   0.652
 4805SOL    HW114789   2.506   4.554   0.633
 4805SOL    HW214790   2.368   4.471   0.604
 4806SOL     OW14791   3.639   4.066   1.642
 4806SOL    HW114792   3.622   4.097   1.548
 4806SOL    HW214793   3.555   4.029   1.680
 4807SOL     OW14794   3.592   4.658   1.517
 4807SOL    HW114795   3.630   4.749   1.532
 4807SOL    HW214796   3.584   4.641   1.418
 4808SOL     OW14797   2.721   4.680   0.861
 4808SOL    HW114798   2.775   4.611   0.909
 4808SOL    HW214799   2.689   4.749   0.927
 4809SOL     OW14800   2.945   4.708   0.087
 4809SOL    HW114801   2.922   4.761   0.005
 4809SOL    HW214802   3.026   4.652   0.068
 4810SOL     OW14803   1.941   4.964   0.653
 4810SOL    HW114804   1.940   4.917   0.741
 4810SOL    HW214805   2.023   4.936   0.602
 4811SOL     OW14806   3.686   3.916   1.227
 4811SOL    HW114807   3.682   3.826   1.271
 4811SOL    HW214808   3.689   3.905   1.128
 4812SOL     OW14809   2.290   4.148   0.520
 4812SOL    HW114810   2.320   4.076   0.458
 4812SOL    HW214811   2.251   4.108   0.603
 4813SOL     OW14812   2.179   4.271   1.280
 4813SOL    HW114813   2.217   4.212   1.352
 4813SOL    HW214814   2.219   4.245   1.192
 4814SOL     OW14815   3.286   3.938   1.112
 4814SOL    HW114816   3.338   3.873   1.167
 4814SOL    HW214817   3.237   4.001   1.173
 4815SOL     OW14818   2.863   3.758   1.154
 4815SOL    HW114819   2.800   3.686   1.123
 4815SOL    HW214820   2.956   3.722   1.154
 4816SOL     OW14821   2.632   5.054   0.301
 4816SOL    HW114822   2.586   4.967   0.318
 4816SOL    HW214823   2.723   5.051   0.342
 4817SOL     OW14824   3.214   3.776   0.168
 4817SOL    HW114825   3.249   3.735   0.084
 4817SOL    HW214826   3.124   3.738   0.188
 4818SOL     OW14827   3.162   4.177   0.691
 4818SOL    HW114828   3.103   4.257   0.695
 4818SOL    HW214829   3.177   4.142   0.784
 4819SOL     OW14830   3.455   3.945   0.882
 4819SOL    HW114831   3.371   3.944   0.936
 4819SOL    HW214832   3.457   4.028   0.826
 4820SOL     OW14833   1.901   4.801   0.300
 4820SOL    HW114834   2.000   4.790   0.291
 4820SOL    HW214835   1.861   4.715   0.332
 4821SOL     OW14836   2.092   4.352   1.975
 4821SOL    HW114837   1.999   4.350   2.012
 4821SOL    HW214838   2.093   4.313   1.883
 4822SOL     OW14839   2.087   3.999   2.858
 4822SOL    HW114840   2.122   3.982   2.950
 4822SOL    HW214841   1.999   3.954   2.846
 4823SOL     OW14842   1.881   4.092   2.509
 4823SOL    HW114843   1.799   4.135   2.548
 4823SOL    HW214844   1.853   4.019   2.446
 4824SOL     OW14845   2.997   4.427   2.579
 4824SOL    HW114846   3.054   4.505   2.554
 4824SOL    HW214847   2.937   4.453   2.655
 4825SOL     OW14848   3.617   4.331   2.093
 4825SOL    HW114849   3.605   4.318   1.994
 4825SOL    HW214850   3.587   4.250   2.142
 4826SOL     OW14851   2.630   4.868   2.885
 4826SOL    HW114852   2.552   4.885   2.945
 4826SOL    HW214853   2.664   4.955   2.849
 4827SOL     OW14854   2.712   4.522   3.685
 4827SOL    HW114855   2.708   4.598   3.750
 4827SOL    HW214856   2.734   4.558   3.594
 4828SOL     OW14857   2.547   4.736   2.527
 4828SOL    HW114858   2.616   4.720   2.597
 4828SOL    HW214859   2.474   4.793   2.565
 4829SOL     OW14860   2.548   4.885   3.665
 4829SOL    HW114861   2.608   4.964   3.679
 4829SOL    HW214862   2.462   4.916   3.624
 4830SOL     OW14863   2.300   4.116   3.361
 4830SOL    HW114864   2.382   4.060   3.370
 4830SOL    HW214865   2.219   4.058   3.365
 4831SOL     OW14866   3.465   4.171   2.599
 4831SOL    HW114867   3.391   4.217   2.549
 4831SOL    HW214868   3.516   4.239   2.652
 4832SOL     OW14869   2.102   4.815   2.748
 4832SOL    HW114870   2.116   4.731   2.800
 4832SOL    HW214871   2.047   4.879   2.803
 4833SOL     OW14872   2.468   4.688   1.985
 4833SOL    HW114873   2.475   4.772   1.931
 4833SOL    HW214874   2.514   4.701   2.073
 4834SOL     OW14875   3.456   3.838   3.342
 4834SOL    HW114876   3.438   3.905   3.270
 4834SOL    HW214877   3.453   3.884   3.431
 4835SOL     OW14878   1.984   4.367   2.425
 4835SOL    HW114879   1.939   4.279   2.442
 4835SOL    HW214880   1.983   4.421   2.509
 4836SOL     OW14881   3.551   4.646   2.474
 4836SOL    HW114882   3.646   4.617   2.482
 4836SOL    HW214883   3.543   4.711   2.399
 4837SOL     OW14884   3.503   4.832   2.294
 4837SOL    HW114885   3.589   4.834   2.242
 4837SOL    HW214886   3.517   4.879   2.382
 4838SOL     OW14887   1.975   4.461   3.459
 4838SOL    HW114888   2.063   4.448   3.504
 4838SOL    HW214889   1.962   4.558   3.437
 4839SOL     OW14890   3.155   4.952   3.285
 4839SOL    HW114891   3.192   4.879   3.227
 4839SOL    HW214892   3.207   4.957   3.370
 4840SOL     OW14893   2.671   3.728   2.364
 4840SOL    HW114894   2.711   3.819   2.355
 4840SOL    HW214895   2.571   3.736   2.370
 4841SOL     OW14896   2.059   4.700   3.126
 4841SOL    HW114897   2.148   4.655   3.112
 4841SOL    HW214898   1.986   4.635   3.107
 4842SOL     OW14899   3.387   4.723   2.052
 4842SOL    HW114900   3.324   4.647   2.065
 4842SOL    HW214901   3.435   4.741   2.138
 4843SOL     OW14902   2.179   3.975   3.663
 4843SOL    HW114903   2.250   4.046   3.669
 4843SOL    HW214904   2.091   4.014   3.691
 4844SOL     OW14905   2.460   4.453   2.132
 4844SOL    HW114906   2.484   4.522   2.064
 4844SOL    HW214907   2.382   4.486   2.186
 4845SOL     OW14908   3.143   4.069   2.806
 4845SOL    HW114909   3.057   4.019   2.793
 4845SOL    HW214910   3.205   4.015   2.862
 4846SOL     OW14911   2.669   4.329   3.327
 4846SOL    HW114912   2.622   4.326   3.416
 4846SOL    HW214913   2.618   4.274   3.261
 4847SOL     OW14914   3.256   4.193   3.536
 4847SOL    HW114915   3.236   4.236   3.624
 4847SOL    HW214916   3.334   4.131   3.545
 4848SOL     OW14917   2.835   4.614   3.434
 4848SOL    HW114918   2.881   4.530   3.405
 4848SOL    HW214919   2.779   4.648   3.359
 4849SOL     OW14920   2.853   4.134   3.104
 4849SOL    HW114921   2.776   4.168   3.158
 4849SOL    HW214922   2.819   4.083   3.025
 4850SOL     OW14923   2.903   4.425   2.291
 4850SOL    HW114924   2.929   4.421   2.387
 4850SOL    HW214925   2.818   4.374   2.277
 4851SOL     OW14926   1.938   4.535   2.651
 4851SOL    HW114927   2.037   4.523   2.660
 4851SOL    HW214928   1.914   4.630   2.672
 4852SOL     OW14929   2.727   4.072   2.057
 4852SOL    HW114930   2.786   4.135   2.008
 4852SOL    HW214931   2.746   3.978   2.028
 4853SOL     OW14932   3.581   4.309   3.693
 4853SOL    HW114933   3.555   4.398   3.657
 4853SOL    HW214934   3.579   4.241   3.620
 4854SOL     OW14935   3.224   4.868   2.407
 4854SOL    HW114936   3.307   4.839   2.359
 4854SOL    HW214937   3.175   4.935   2.351
 4855SOL     OW14938   2.412   3.920   2.747
 4855SOL    HW114939   2.407   3.915   2.847
 4855SOL    HW214940   2.414   4.016   2.718
 4856SOL     OW14941   3.657   4.790   2.735
 4856SOL    HW114942   3.595   4.775   2.659
 4856SOL    HW214943   3.605   4.801   2.820
 4857SOL     OW14944   2.183   4.667   2.104
 4857SOL    HW114945   2.265   4.706   2.062
 4857SOL    HW214946   2.156   4.585   2.055
 4858SOL     OW14947   3.320   4.459   2.590
 4858SOL    HW114948   3.315   4.394   2.665
 4858SOL    HW214949   3.400   4.518   2.603
 4859SOL     OW14950   2.064   4.009   3.360
 4859SOL    HW114951   1.984   4.069   3.347
 4859SOL    HW214952   2.054   3.960   3.446
 4860SOL     OW14953   3.262   3.831   2.288
 4860SOL    HW114954   3.238   3.794   2.198
 4860SOL    HW214955   3.361   3.847   2.292
 4861SOL     OW14956   2.244   4.424   2.342
 4861SOL    HW114957   2.289   4.334   2.339
 4861SOL    HW214958   2.150   4.413   2.375
 4862SOL     OW14959   3.409   3.946   3.591
 4862SOL    HW114960   3.404   3.983   3.683
 4862SOL    HW214961   3.337   3.877   3.579
 4863SOL     OW14962   2.476   3.846   1.979
 4863SOL    HW114963   2.574   3.824   1.986
 4863SOL    HW214964   2.445   3.829   1.886
 4864SOL     OW14965   2.643   3.988   3.611
 4864SOL    HW114966   2.710   3.927   3.654
 4864SOL    HW214967   2.570   4.007   3.676
 4865SOL     OW14968   3.213   4.314   3.295
 4865SOL    HW114969   3.241   4.271   3.380
 4865SOL    HW214970   3.238   4.410   3.296
 4866SOL     OW14971   2.784   4.227   2.761
 4866SOL    HW114972   2.759   4.218   2.665
 4866SOL    HW214973   2.832   4.145   2.792
 4867SOL     OW14974   2.401   3.788   2.374
 4867SOL    HW114975   2.320   3.789   2.432
 4867SOL    HW214976   2.404   3.871   2.319
 4868SOL     OW14977   2.159   3.759   2.033
 4868SOL    HW114978   2.208   3.843   2.012
 4868SOL    HW214979   2.221   3.694   2.078
 4869SOL     OW14980   2.797   3.960   2.342
 4869SOL    HW114981   2.749   4.001   2.264
 4869SOL    HW214982   2.896   3.958   2.323
 4870SOL     OW14983   2.938   4.407   3.326
 4870SOL    HW114984   2.858   4.346   3.329
 4870SOL    HW214985   3.019   4.354   3.302
 4871SOL     OW14986   2.321   4.876   2.603
 4871SOL    HW114987   2.250   4.849   2.668
 4871SOL    HW214988   2.295   4.848   2.510
 4872SOL     OW14989   2.894   4.273   1.878
 4872SOL    HW114990   2.853   4.355   1.839
 4872SOL    HW214991   2.958   4.299   1.951
 4873SOL     OW14992   1.940   4.280   3.248
 4873SOL    HW114993   2.032   4.279   3.207
 4873SOL    HW214994   1.934   4.354   3.315
 4874SOL     OW14995   2.423   3.946   3.009
 4874SOL    HW114996   2.461   3.862   3.046
 4874SOL    HW214997   2.335   3.965   3.053
 4875SOL     OW14998   2.728   4.178   2.504
 4875SOL    HW114999   2.696   4.250   2.442
 4875SOL    HW215000   2.752   4.097   2.451
 4876SOL     OW15001   2.879   3.763   2.615
 4876SOL    HW115002   2.807   3.768   2.546
 4876SOL    HW215003   2.855   3.694   2.684
 4877SOL     OW15004   3.291   4.897   2.729
 4877SOL    HW115005   3.236   4.813   2.722
 4877SOL    HW215006   3.317   4.926   2.637
 4878SOL     OW15007   3.328   4.314   2.854
 4878SOL    HW115008   3.298   4.219   2.861
 4878SOL    HW215009   3.401   4.330   2.920
 4879SOL     OW15010   3.719   4.557   2.239
 4879SOL    HW115011   3.761   4.493   2.303
 4879SOL    HW215012   3.681   4.506   2.161
 4880SOL     OW15013   3.252   4.299   1.940
 4880SOL    HW115014   3.198   4.278   2.021
 4880SOL    HW215015   3.343   4.258   1.949
 4881SOL     OW15016   2.389   3.980   2.190
 4881SOL    HW115017   2.416   3.921   2.115
 4881SOL    HW215018   2.389   4.075   2.159
 4882SOL     OW15019   3.616   4.947   3.450
 4882SOL    HW115020   3.707   4.908   3.437
 4882SOL    HW215021   3.624   5.043   3.474
 4883SOL     OW15022   3.500   4.823   2.941
 4883SOL    HW115023   3.505   4.904   3.000
 4883SOL    HW215024   3.414   4.825   2.890
 4884SOL     OW15025   2.777   3.813   3.264
 4884SOL    HW115026   2.802   3.793   3.169
 4884SOL    HW215027   2.849   3.869   3.306
 4885SOL     OW15028   2.842   4.840   3.581
 4885SOL    HW115029   2.743   4.846   3.591
 4885SOL    HW215030   2.865   4.760   3.525
 4886SOL     OW15031   2.567   4.774   2.230
 4886SOL    HW115032   2.553   4.781   2.329
 4886SOL    HW215033   2.651   4.723   2.212
 4887SOL     OW15034   2.272   4.537   3.113
 4887SOL    HW115035   2.358   4.549   3.163
 4887SOL    HW215036   2.230   4.450   3.140
 4888SOL     OW15037   3.136   4.110   3.124
 4888SOL    HW115038   3.157   4.184   3.188
 4888SOL    HW215039   3.047   4.127   3.081
 4889SOL     OW15040   2.229   4.824   2.363
 4889SOL    HW115041   2.222   4.907   2.307
 4889SOL    HW215042   2.233   4.744   2.303
 4890SOL     OW15043   2.428   4.261   2.727
 4890SOL    HW115044   2.440   4.327   2.653
 4890SOL    HW215045   2.474   4.295   2.810
 4891SOL     OW15046   3.444   4.363   2.334
 4891SOL    HW115047   3.413   4.424   2.407
 4891SOL    HW215048   3.494   4.415   2.265
 4892SOL     OW15049   2.264   4.475   3.460
 4892SOL    HW115050   2.332   4.530   3.413
 4892SOL    HW215051   2.304   4.387   3.487
 4893SOL     OW15052   3.449   4.503   3.532
 4893SOL    HW115053   3.357   4.541   3.527
 4893SOL    HW215054   3.509   4.550   3.467
 4894SOL     OW15055   2.875   3.829   3.632
 4894SOL    HW115056   2.881   3.914   3.580
 4894SOL    HW215057   2.907   3.753   3.575
 4895SOL     OW15058   2.366   3.774   3.602
 4895SOL    HW115059   2.324   3.717   3.532
 4895SOL    HW215060   2.300   3.843   3.634
 4896SOL     OW15061   2.435   4.594   2.891
 4896SOL    HW115062   2.479   4.683   2.882
 4896SOL    HW215063   2.372   4.594   2.968
 4897SOL     OW15064   3.222   4.586   2.907
 4897SOL    HW115065   3.147   4.586   2.841
 4897SOL    HW215066   3.259   4.494   2.916
 4898SOL     OW15067   3.071   4.249   2.137
 4898SOL    HW115068   3.084   4.165   2.191
 4898SOL    HW215069   3.042   4.323   2.197
 4899SOL     OW15070   2.169   3.937   3.093
 4899SOL    HW115071   2.146   3.974   3.183
 4899SOL    HW215072   2.139   3.842   3.087
 4900SOL     OW15073   2.594   4.358   2.926
 4900SOL    HW115074   2.653   4.332   2.850
 4900SOL    HW215075   2.566   4.454   2.915
 4901SOL     OW15076   3.590   4.659   3.716
 4901SOL    HW115077   3.544   4.652   3.627
 4901SOL    HW215078   3.528   4.703   3.782
 4902SOL     OW15079   2.169   3.787   2.480
 4902SOL    HW115080   2.158   3.881   2.513
 4902SOL    HW215081   2.164   3.724   2.557
 4903SOL     OW15082   3.484   4.091   2.236
 4903SOL    HW115083   3.486   4.015   2.300
 4903SOL    HW215084   3.436   4.168   2.276
 4904SOL     OW15085   2.885   4.490   2.828
 4904SOL    HW115086   2.900   4.511   2.924
 4904SOL    HW215087   2.855   4.395   2.819
 4905SOL     OW15088   2.212   4.622   3.666
 4905SOL    HW115089   2.288   4.666   3.714
 4905SOL    HW215090   2.247   4.575   3.584
 4906SOL     OW15091   3.402   3.998   1.987
 4906SOL    HW115092   3.341   3.923   2.010
 4906SOL    HW215093   3.424   4.050   2.070
 4907SOL     OW15094   3.165   4.562   1.904
 4907SOL    HW115095   3.199   4.469   1.919
 4907SOL    HW215096   3.183   4.589   1.809
 4908SOL     OW15097   2.181   4.534   2.811
 4908SOL    HW115098   2.274   4.570   2.816
 4908SOL    HW215099   2.175   4.449   2.863
 4909SOL     OW15100   2.201   4.233   2.868
 4909SOL    HW115101   2.149   4.150   2.851
 4909SOL    HW215102   2.278   4.238   2.804
 4910SOL     OW15103   3.000   4.104   3.540
 4910SOL    HW115104   2.955   4.167   3.604
 4910SOL    HW215105   3.093   4.135   3.523
 4911SOL     OW15106   3.022   3.931   3.339
 4911SOL    HW115107   3.022   3.995   3.416
 4911SOL    HW215108   3.050   3.979   3.256
 4912SOL     OW15109   1.870   5.050   2.062
 4912SOL    HW115110   1.777   5.071   2.031
 4912SOL    HW215111   1.880   4.951   2.075
 4913SOL     OW15112   2.864   4.520   3.100
 4913SOL    HW115113   2.905   4.488   3.186
 4913SOL    HW215114   2.768   4.493   3.097
 4914SOL     OW15115   1.902   4.268   2.976
 4914SOL    HW115116   1.987   4.235   2.935
 4914SOL    HW215117   1.915   4.283   3.074
 4915SOL     OW15118   2.051   4.244   3.584
 4915SOL    HW115119   2.110   4.204   3.514
 4915SOL    HW215120   1.993   4.315   3.543
 4916SOL     OW15121   3.231   4.674   3.522
 4916SOL    HW115122   3.270   4.763   3.542
 4916SOL    HW215123   3.241   4.654   3.425
 4917SOL     OW15124   2.677   4.296   2.187
 4917SOL    HW115125   2.684   4.207   2.141
 4917SOL    HW215126   2.583   4.330   2.179
 4918SOL     OW15127   3.519   4.328   3.068
 4918SOL    HW115128   3.481   4.259   3.130
 4918SOL    HW215129   3.601   4.292   3.024
 4919SOL     OW15130   2.533   4.188   3.131
 4919SOL    HW115131   2.499   4.099   3.101
 4919SOL    HW215132   2.559   4.242   3.051
 4920SOL     OW15133   2.335   4.224   2.053
 4920SOL    HW115134   2.396   4.304   2.057
 4920SOL    HW215135   2.240   4.255   2.060
 4921SOL     OW15136   2.021   4.861   3.328
 4921SOL    HW115137   2.043   4.800   3.404
 4921SOL    HW215138   2.031   4.812   3.242
 4922SOL     OW15139   3.209   4.783   3.096
 4922SOL    HW115140   3.233   4.720   3.022
 4922SOL    HW215141   3.119   4.823   3.078
 4923SOL     OW15142   3.164   4.579   2.171
 4923SOL    HW115143   3.078   4.548   2.213
 4923SOL    HW215144   3.160   4.565   2.072
 4924SOL     OW15145   1.945   4.982   2.884
 4924SOL    HW115146   1.940   4.981   2.984
 4924SOL    HW215147   1.862   4.941   2.846
 4925SOL     OW15148   3.588   3.859   2.385
 4925SOL    HW115149   3.661   3.842   2.318
 4925SOL    HW215150   3.557   3.772   2.423
 4926SOL     OW15151   3.142   4.651   2.534
 4926SOL    HW115152   3.202   4.570   2.536
 4926SOL    HW215153   3.182   4.720   2.474
 4927SOL     OW15154   3.703   3.899   2.825
 4927SOL    HW115155   3.742   3.814   2.789
 4927SOL    HW215156   3.605   3.901   2.806
 4928SOL     OW15157   2.125   4.050   2.582
 4928SOL    HW115158   2.046   4.101   2.548
 4928SOL    HW215159   2.116   4.035   2.680
 4929SOL     OW15160   2.684   4.726   3.234
 4929SOL    HW115161   2.724   4.725   3.142
 4929SOL    HW215162   2.694   4.818   3.274
 4930SOL     OW15163   2.778   4.634   2.153
 4930SOL    HW115164   2.841   4.672   2.085
 4930SOL    HW215165   2.818   4.551   2.192
 4931SOL     OW15166   2.234   5.012   3.352
 4931SOL    HW115167   2.221   5.105   3.318
 4931SOL    HW215168   2.150   4.960   3.339
 4932SOL     OW15169   3.476   5.016   3.151
 4932SOL    HW115170   3.536   5.019   3.231
 4932SOL    HW215171   3.401   5.080   3.164
 4933SOL     OW15172   2.901   4.822   2.558
 4933SOL    HW115173   2.831   4.775   2.612
 4933SOL    HW215174   2.960   4.754   2.515
 4934SOL     OW15175   2.876   3.960   2.833
 4934SOL    HW115176   2.868   3.924   2.740
 4934SOL    HW215177   2.874   3.884   2.898
 4935SOL     OW15178   3.571   4.109   3.243
 4935SOL    HW115179   3.644   4.178   3.247
 4935SOL    HW215180   3.599   4.034   3.184
 4936SOL     OW15181   1.967   4.737   3.588
 4936SOL    HW115182   1.890   4.704   3.642
 4936SOL    HW215183   2.052   4.707   3.630
 4937SOL     OW15184   2.534   3.927   3.351
 4937SOL    HW115185   2.624   3.911   3.311
 4937SOL    HW215186   2.542   3.932   3.450
 4938SOL     OW15187   1.937   4.069   1.895
 4938SOL    HW115188   1.845   4.041   1.866
 4938SOL    HW215189   1.968   4.146   1.839
 4939SOL     OW15190   3.302   4.580   3.260
 4939SOL    HW115191   3.245   4.632   3.197
 4939SOL    HW215192   3.398   4.592   3.236
 4940SOL     OW15193   1.934   3.890   2.180
 4940SOL    HW115194   1.917   3.973   2.126
 4940SOL    HW215195   2.024   3.853   2.158
 4941SOL     OW15196   2.475   4.566   3.293
 4941SOL    HW115197   2.531   4.647   3.276
 4941SOL    HW215198   2.534   4.486   3.296
 4942SOL     OW15199   2.578   4.289   3.570
 4942SOL    HW115200   2.597   4.354   3.644
 4942SOL    HW215201   2.638   4.209   3.579
 4943SOL     OW15202   3.312   4.944   3.495
 4943SOL    HW115203   3.303   4.934   3.594
 4943SOL    HW215204   3.408   4.937   3.469
 4944SOL     OW15205   3.536   4.607   3.116
 4944SOL    HW115206   3.509   4.518   3.079
 4944SOL    HW215207   3.537   4.675   3.043
 4945SOL     OW15208   3.087   4.049   2.311
 4945SOL    HW115209   3.152   3.975   2.300
 4945SOL    HW215210   3.107   4.099   2.395
 4946SOL     OW15211   2.456   4.469   2.514
 4946SOL    HW115212   2.506   4.554   2.495
 4946SOL    HW215213   2.368   4.471   2.466
 4947SOL     OW15214   3.639   4.066   3.504
 4947SOL    HW115215   3.622   4.097   3.410
 4947SOL    HW215216   3.555   4.029   3.542
 4948SOL     OW15217   3.592   4.658   3.379
 4948SOL    HW115218   3.630   4.749   3.394
 4948SOL    HW215219   3.584   4.641   3.280
 4949SOL     OW15220   2.721   4.680   2.723
 4949SOL    HW115221   2.775   4.611   2.771
 4949SOL    HW215222   2.689   4.749   2.789
 4950SOL     OW15223   2.945   4.708   1.949
 4950SOL    HW115224   2.922   4.761   1.867
 4950SOL    HW215225   3.026   4.652   1.930
 4951SOL     OW15226   1.941   4.964   2.515
 4951SOL    HW115227   1.940   4.917   2.603
 4951SOL    HW215228   2.023   4.936   2.464
 4952SOL     OW15229   3.686   3.916   3.089
 4952SOL    HW115230   3.682   3.826   3.133
 4952SOL    HW215231   3.689   3.905   2.990
 4953SOL     OW15232   2.290   4.148   2.382
 4953SOL    HW115233   2.320   4.076   2.320
 4953SOL    HW215234   2.251   4.108   2.465
 4954SOL     OW15235   2.179   4.271   3.142
 4954SOL    HW115236   2.217   4.212   3.214
 4954SOL    HW215237   2.219   4.245   3.054
 4955SOL     OW15238   3.286   3.938   2.974
 4955SOL    HW115239   3.338   3.873   3.029
 4955SOL    HW215240   3.237   4.001   3.035
 4956SOL     OW15241   2.863   3.758   3.016
 4956SOL    HW115242   2.800   3.686   2.985
 4956SOL    HW215243   2.956   3.722   3.016
 4957SOL     OW15244   2.632   5.054   2.163
 4957SOL    HW115245   2.586   4.967   2.180
 4957SOL    HW215246   2.723   5.051   2.204
 4958SOL     OW15247   3.214   3.776   2.030
 4958SOL    HW115248   3.249   3.735   1.946
 4958SOL    HW215249   3.124   3.738   2.050
 4959SOL     OW15250   3.162   4.177   2.553
 4959SOL    HW115251   3.103   4.257   2.557
 4959SOL    HW215252   3.177   4.142   2.646
 4960SOL     OW15253   3.455   3.945   2.744
 4960SOL    HW115254   3.371   3.944   2.798
 4960SOL    HW215255   3.457   4.028   2.688
 4961SOL     OW15256   1.901   4.801   2.162
 4961SOL    HW115257   2.000   4.790   2.153
 4961SOL    HW215258   1.861   4.715   2.194
 4962SOL     OW15259   2.092   4.352   3.837
 4962SOL    HW115260   1.999   4.350   3.874
 4962SOL    HW215261   2.093   4.313   3.745
 4963SOL     OW15262   2.087   3.999   4.720
 4963SOL    HW115263   2.122   3.982   4.812
 4963SOL    HW215264   1.999   3.954   4.708
 4964SOL     OW15265   1.881   4.092   4.371
 4964SOL    HW115266   1.799   4.135   4.410
 4964SOL    HW215267   1.853   4.019   4.308
 4965SOL     OW15268   2.997   4.427   4.441
 4965SOL    HW115269   3.054   4.505   4.416
 4965SOL    HW215270   2.937   4.453   4.517
 4966SOL     OW15271   3.617   4.331   3.955
 4966SOL    HW115272   3.605   4.318   3.856
 4966SOL    HW215273   3.587   4.250   4.004
 4967SOL     OW15274   2.630   4.868   4.747
 4967SOL    HW115275   2.552   4.885   4.807
 4967SOL    HW215276   2.664   4.955   4.711
 4968SOL     OW15277   2.712   4.522   5.547
 4968SOL    HW115278   2.708   4.598   5.612
 4968SOL    HW215279   2.734   4.558   5.456
 4969SOL     OW15280   2.547   4.736   4.389
 4969SOL    HW115281   2.616   4.720   4.459
 4969SOL    HW215282   2.474   4.793   4.427
 4970SOL     OW15283   2.548   4.885   5.527
 4970SOL    HW115284   2.608   4.964   5.541
 4970SOL    HW215285   2.462   4.916   5.486
 4971SOL     OW15286   2.300   4.116   5.223
 4971SOL    HW115287   2.382   4.060   5.232
 4971SOL    HW215288   2.219   4.058   5.227
 4972SOL     OW15289   3.465   4.171   4.461
 4972SOL    HW115290   3.391   4.217   4.411
 4972SOL    HW215291   3.516   4.239   4.514
 4973SOL     OW15292   2.102   4.815   4.610
 4973SOL    HW115293   2.116   4.731   4.662
 4973SOL    HW215294   2.047   4.879   4.665
 4974SOL     OW15295   2.468   4.688   3.847
 4974SOL    HW115296   2.475   4.772   3.793
 4974SOL    HW215297   2.514   4.701   3.935
 4975SOL     OW15298   3.456   3.838   5.204
 4975SOL    HW115299   3.438   3.905   5.132
 4975SOL    HW215300   3.453   3.884   5.293
 4976SOL     OW15301   1.984   4.367   4.287
 4976SOL    HW115302   1.939   4.279   4.304
 4976SOL    HW215303   1.983   4.421   4.371
 4977SOL     OW15304   3.551   4.646   4.336
 4977SOL    HW115305   3.646   4.617   4.344
 4977SOL    HW215306   3.543   4.711   4.261
 4978SOL     OW15307   3.503   4.832   4.156
 4978SOL    HW115308   3.589   4.834   4.104
 4978SOL    HW215309   3.517   4.879   4.244
 4979SOL     OW15310   1.975   4.461   5.321
 4979SOL    HW115311   2.063   4.448   5.366
 4979SOL    HW215312   1.962   4.558   5.299
 4980SOL     OW15313   3.155   4.952   5.147
 4980SOL    HW115314   3.192   4.879   5.089
 4980SOL    HW215315   3.207   4.957   5.232
 4981SOL     OW15316   2.671   3.728   4.226
 4981SOL    HW115317   2.711   3.819   4.217
 4981SOL    HW215318   2.571   3.736   4.232
 4982SOL     OW15319   2.059   4.700   4.988
 4982SOL    HW115320   2.148   4.655   4.974
 4982SOL    HW215321   1.986   4.635   4.969
 4983SOL     OW15322   3.387   4.723   3.914
 4983SOL    HW115323   3.324   4.647   3.927
 4983SOL    HW215324   3.435   4.741   4.000
 4984SOL     OW15325   2.179   3.975   5.525
 4984SOL    HW115326   2.250   4.046   5.531
 4984SOL    HW215327   2.091   4.014   5.553
 4985SOL     OW15328   2.460   4.453   3.994
 4985SOL    HW115329   2.484   4.522   3.926
 4985SOL    HW215330   2.382   4.486   4.048
 4986SOL     OW15331   3.143   4.069   4.668
 4986SOL    HW115332   3.057   4.019   4.655
 4986SOL    HW215333   3.205   4.015   4.724
 4987SOL     OW15334   2.669   4.329   5.189
 4987SOL    HW115335   2.622   4.326   5.278
 4987SOL    HW215336   2.618   4.274   5.123
 4988SOL     OW15337   3.256   4.193   5.398
 4988SOL    HW115338   3.236   4.236   5.486
 4988SOL    HW215339   3.334   4.131   5.407
 4989SOL     OW15340   2.835   4.614   5.296
 4989SOL    HW115341   2.881   4.530   5.267
 4989SOL    HW215342   2.779   4.648   5.221
 4990SOL     OW15343   2.853   4.134   4.966
 4990SOL    HW115344   2.776   4.168   5.020
 4990SOL    HW215345   2.819   4.083   4.887
 4991SOL     OW15346   2.903   4.425   4.153
 4991SOL    HW115347   2.929   4.421   4.249
 4991SOL    HW215348   2.818   4.374   4.139
 4992SOL     OW15349   1.938   4.535   4.513
 4992SOL    HW115350   2.037   4.523   4.522
 4992SOL    HW215351   1.914   4.630   4.534
 4993SOL     OW15352   2.727   4.072   3.919
 4993SOL    HW115353   2.786   4.135   3.870
 4993SOL    HW215354   2.746   3.978   3.890
 4994SOL     OW15355   3.581   4.309   5.555
 4994SOL    HW115356   3.555   4.398   5.519
 4994SOL    HW215357   3.579   4.241   5.482
 4995SOL     OW15358   3.224   4.868   4.269
 4995SOL    HW115359   3.307   4.839   4.221
 4995SOL    HW215360   3.175   4.935   4.213
 4996SOL     OW15361   2.412   3.920   4.609
 4996SOL    HW115362   2.407   3.915   4.709
 4996SOL    HW215363   2.414   4.016   4.580
 4997SOL     OW15364   3.657   4.790   4.597
 4997SOL    HW115365   3.595   4.775   4.521
 4997SOL    HW215366   3.605   4.801   4.682
 4998SOL     OW15367   2.183   4.667   3.966
 4998SOL    HW115368   2.265   4.706   3.924
 4998SOL    HW215369   2.156   4.585   3.917
 4999SOL     OW15370   3.320   4.459   4.452
 4999SOL    HW115371   3.315   4.394   4.527
 4999SOL    HW215372   3.400   4.518   4.465
 5000SOL     OW15373   2.064   4.009   5.222
 5000SOL    HW115374   1.984   4.069   5.209
 5000SOL    HW215375   2.054   3.960   5.308
 5001SOL     OW15376   3.262   3.831   4.150
 5001SOL    HW115377   3.238   3.794   4.060
 5001SOL    HW215378   3.361   3.847   4.154
 5002SOL     OW15379   2.244   4.424   4.204
 5002SOL    HW115380   2.289   4.334   4.201
 5002SOL    HW215381   2.150   4.413   4.237
 5003SOL     OW15382   3.409   3.946   5.453
 5003SOL    HW115383   3.404   3.983   5.545
 5003SOL    HW215384   3.337   3.877   5.441
 5004SOL     OW15385   2.476   3.846   3.841
 5004SOL    HW115386   2.574   3.824   3.848
 5004SOL    HW215387   2.445   3.829   3.748
 5005SOL     OW15388   2.643   3.988   5.473
 5005SOL    HW115389   2.710   3.927   5.516
 5005SOL    HW215390   2.570   4.007   5.538
 5006SOL     OW15391   3.213   4.314   5.157
 5006SOL    HW115392   3.241   4.271   5.242
 5006SOL    HW215393   3.238   4.410   5.158
 5007SOL     OW15394   2.784   4.227   4.623
 5007SOL    HW115395   2.759   4.218   4.527
 5007SOL    HW215396   2.832   4.145   4.654
 5008SOL     OW15397   2.401   3.788   4.236
 5008SOL    HW115398   2.320   3.789   4.294
 5008SOL    HW215399   2.404   3.871   4.181
 5009SOL     OW15400   2.159   3.759   3.895
 5009SOL    HW115401   2.208   3.843   3.874
 5009SOL    HW215402   2.221   3.694   3.940
 5010SOL     OW15403   2.797   3.960   4.204
 5010SOL    HW115404   2.749   4.001   4.126
 5010SOL    HW215405   2.896   3.958   4.185
 5011SOL     OW15406   2.938   4.407   5.188
 5011SOL    HW115407   2.858   4.346   5.191
 5011SOL    HW215408   3.019   4.354   5.164
 5012SOL     OW15409   2.321   4.876   4.465
 5012SOL    HW115410   2.250   4.849   4.530
 5012SOL    HW215411   2.295   4.848   4.372
 5013SOL     OW15412   2.894   4.273   3.740
 5013SOL    HW115413   2.853   4.355   3.701
 5013SOL    HW215414   2.958   4.299   3.813
 5014SOL     OW15415   1.940   4.280   5.110
 5014SOL    HW115416   2.032   4.279   5.069
 5014SOL    HW215417   1.934   4.354   5.177
 5015SOL     OW15418   2.423   3.946   4.871
 5015SOL    HW115419   2.461   3.862   4.908
 5015SOL    HW215420   2.335   3.965   4.915
 5016SOL     OW15421   2.728   4.178   4.366
 5016SOL    HW115422   2.696   4.250   4.304
 5016SOL    HW215423   2.752   4.097   4.313
 5017SOL     OW15424   2.879   3.763   4.477
 5017SOL    HW115425   2.807   3.768   4.408
 5017SOL    HW215426   2.855   3.694   4.546
 5018SOL     OW15427   3.291   4.897   4.591
 5018SOL    HW115428   3.236   4.813   4.584
 5018SOL    HW215429   3.317   4.926   4.499
 5019SOL     OW15430   3.328   4.314   4.716
 5019SOL    HW115431   3.298   4.219   4.723
 5019SOL    HW215432   3.401   4.330   4.782
 5020SOL     OW15433   3.719   4.557   4.101
 5020SOL    HW115434   3.761   4.493   4.165
 5020SOL    HW215435   3.681   4.506   4.023
 5021SOL     OW15436   3.252   4.299   3.802
 5021SOL    HW115437   3.198   4.278   3.883
 5021SOL    HW215438   3.343   4.258   3.811
 5022SOL     OW15439   2.389   3.980   4.052
 5022SOL    HW115440   2.416   3.921   3.977
 5022SOL    HW215441   2.389   4.075   4.021
 5023SOL     OW15442   3.616   4.947   5.312
 5023SOL    HW115443   3.707   4.908   5.299
 5023SOL    HW215444   3.624   5.043   5.336
 5024SOL     OW15445   3.500   4.823   4.803
 5024SOL    HW115446   3.505   4.904   4.862
 5024SOL    HW215447   3.414   4.825   4.752
 5025SOL     OW15448   2.777   3.813   5.126
 5025SOL    HW115449   2.802   3.793   5.031
 5025SOL    HW215450   2.849   3.869   5.168
 5026SOL     OW15451   2.842   4.840   5.443
 5026SOL    HW115452   2.743   4.846   5.453
 5026SOL    HW215453   2.865   4.760   5.387
 5027SOL     OW15454   2.567   4.774   4.092
 5027SOL    HW115455   2.553   4.781   4.191
 5027SOL    HW215456   2.651   4.723   4.074
 5028SOL     OW15457   2.272   4.537   4.975
 5028SOL    HW115458   2.358   4.549   5.025
 5028SOL    HW215459   2.230   4.450   5.002
 5029SOL     OW15460   3.136   4.110   4.986
 5029SOL    HW115461   3.157   4.184   5.050
 5029SOL    HW215462   3.047   4.127   4.943
 5030SOL     OW15463   2.229   4.824   4.225
 5030SOL    HW115464   2.222   4.907   4.169
 5030SOL    HW215465   2.233   4.744   4.165
 5031SOL     OW15466   2.428   4.261   4.589
 5031SOL    HW115467   2.440   4.327   4.515
 5031SOL    HW215468   2.474   4.295   4.672
 5032SOL     OW15469   3.444   4.363   4.196
 5032SOL    HW115470   3.413   4.424   4.269
 5032SOL    HW215471   3.494   4.415   4.127
 5033SOL     OW15472   2.264   4.475   5.322
 5033SOL    HW115473   2.332   4.530   5.275
 5033SOL    HW215474   2.304   4.387   5.349
 5034SOL     OW15475   3.449   4.503   5.394
 5034SOL    HW115476   3.357   4.541   5.389
 5034SOL    HW215477   3.509   4.550   5.329
 5035SOL     OW15478   2.875   3.829   5.494
 5035SOL    HW115479   2.881   3.914   5.442
 5035SOL    HW215480   2.907   3.753   5.437
 5036SOL     OW15481   2.366   3.774   5.464
 5036SOL    HW115482   2.324   3.717   5.394
 5036SOL    HW215483   2.300   3.843   5.496
 5037SOL     OW15484   2.435   4.594   4.753
 5037SOL    HW115485   2.479   4.683   4.744
 5037SOL    HW215486   2.372   4.594   4.830
 5038SOL     OW15487   3.222   4.586   4.769
 5038SOL    HW115488   3.147   4.586   4.703
 5038SOL    HW215489   3.259   4.494   4.778
 5039SOL     OW15490   3.071   4.249   3.999
 5039SOL    HW115491   3.084   4.165   4.053
 5039SOL    HW215492   3.042   4.323   4.059
 5040SOL     OW15493   2.169   3.937   4.955
 5040SOL    HW115494   2.146   3.974   5.045
 5040SOL    HW215495   2.139   3.842   4.949
 5041SOL     OW15496   2.594   4.358   4.788
 5041SOL    HW115497   2.653   4.332   4.712
 5041SOL    HW215498   2.566   4.454   4.777
 5042SOL     OW15499   3.590   4.659   5.578
 5042SOL    HW115500   3.544   4.652   5.489
 5042SOL    HW215501   3.528   4.703   5.644
 5043SOL     OW15502   2.169   3.787   4.342
 5043SOL    HW115503   2.158   3.881   4.375
 5043SOL    HW215504   2.164   3.724   4.419
 5044SOL     OW15505   3.484   4.091   4.098
 5044SOL    HW115506   3.486   4.015   4.162
 5044SOL    HW215507   3.436   4.168   4.138
 5045SOL     OW15508   2.885   4.490   4.690
 5045SOL    HW115509   2.900   4.511   4.786
 5045SOL    HW215510   2.855   4.395   4.681
 5046SOL     OW15511   2.212   4.622   5.528
 5046SOL    HW115512   2.288   4.666   5.576
 5046SOL    HW215513   2.247   4.575   5.446
 5047SOL     OW15514   3.402   3.998   3.849
 5047SOL    HW115515   3.341   3.923   3.872
 5047SOL    HW215516   3.424   4.050   3.932
 5048SOL     OW15517   3.165   4.562   3.766
 5048SOL    HW115518   3.199   4.469   3.781
 5048SOL    HW215519   3.183   4.589   3.671
 5049SOL     OW15520   2.181   4.534   4.673
 5049SOL    HW115521   2.274   4.570   4.678
 5049SOL    HW215522   2.175   4.449   4.725
 5050SOL     OW15523   2.201   4.233   4.730
 5050SOL    HW115524   2.149   4.150   4.713
 5050SOL    HW215525   2.278   4.238   4.666
 5051SOL     OW15526   3.000   4.104   5.402
 5051SOL    HW115527   2.955   4.167   5.466
 5051SOL    HW215528   3.093   4.135   5.385
 5052SOL     OW15529   3.022   3.931   5.201
 5052SOL    HW115530   3.022   3.995   5.278
 5052SOL    HW215531   3.050   3.979   5.118
 5053SOL     OW15532   1.870   5.050   3.924
 5053SOL    HW115533   1.777   5.071   3.893
 5053SOL    HW215534   1.880   4.951   3.937
 5054SOL     OW15535   2.864   4.520   4.962
 5054SOL    HW115536   2.905   4.488   5.048
 5054SOL    HW215537   2.768   4.493   4.959
 5055SOL     OW15538   1.902   4.268   4.838
 5055SOL    HW115539   1.987   4.235   4.797
 5055SOL    HW215540   1.915   4.283   4.936
 5056SOL     OW15541   2.051   4.244   5.446
 5056SOL    HW115542   2.110   4.204   5.376
 5056SOL    HW215543   1.993   4.315   5.405
 5057SOL     OW15544   3.231   4.674   5.384
 5057SOL    HW115545   3.270   4.763   5.404
 5057SOL    HW215546   3.241   4.654   5.287
 5058SOL     OW15547   2.677   4.296   4.049
 5058SOL    HW115548   2.684   4.207   4.003
 5058SOL    HW215549   2.583   4.330   4.041
 5059SOL     OW15550   3.519   4.328   4.930
 5059SOL    HW115551   3.481   4.259   4.992
 5059SOL    HW215552   3.601   4.292   4.886
 5060SOL     OW15553   2.533   4.188   4.993
 5060SOL    HW115554   2.499   4.099   4.963
 5060SOL    HW215555   2.559   4.242   4.913
 5061SOL     OW15556   2.335   4.224   3.915
 5061SOL    HW115557   2.396   4.304   3.919
 5061SOL    HW215558   2.240   4.255   3.922
 5062SOL     OW15559   2.021   4.861   5.190
 5062SOL    HW115560   2.043   4.800   5.266
 5062SOL    HW215561   2.031   4.812   5.104
 5063SOL     OW15562   3.209   4.783   4.958
 5063SOL    HW115563   3.233   4.720   4.884
 5063SOL    HW215564   3.119   4.823   4.940
 5064SOL     OW15565   3.164   4.579   4.033
 5064SOL    HW115566   3.078   4.548   4.075
 5064SOL    HW215567   3.160   4.565   3.934
 5065SOL     OW15568   1.945   4.982   4.746
 5065SOL    HW115569   1.940   4.981   4.846
 5065SOL    HW215570   1.862   4.941   4.708
 5066SOL     OW15571   3.588   3.859   4.247
 5066SOL    HW115572   3.661   3.842   4.180
 5066SOL    HW215573   3.557   3.772   4.285
 5067SOL     OW15574   3.142   4.651   4.396
 5067SOL    HW115575   3.202   4.570   4.398
 5067SOL    HW215576   3.182   4.720   4.336
 5068SOL     OW15577   3.703   3.899   4.687
 5068SOL    HW115578   3.742   3.814   4.651
 5068SOL    HW215579   3.605   3.901   4.668
 5069SOL     OW15580   2.125   4.050   4.444
 5069SOL    HW115581   2.046   4.101   4.410
 5069SOL    HW215582   2.116   4.035   4.542
 5070SOL     OW15583   2.684   4.726   5.096
 5070SOL    HW115584   2.724   4.725   5.004
 5070SOL    HW215585   2.694   4.818   5.136
 5071SOL     OW15586   2.778   4.634   4.015
 5071SOL    HW115587   2.841   4.672   3.947
 5071SOL    HW215588   2.818   4.551   4.054
 5072SOL     OW15589   2.234   5.012   5.214
 5072SOL    HW115590   2.221   5.105   5.180
 5072SOL    HW215591   2.150   4.960   5.201
 5073SOL     OW15592   3.476   5.016   5.013
 5073SOL    HW115593   3.536   5.019   5.093
 5073SOL    HW215594   3.401   5.080   5.026
 5074SOL     OW15595   2.901   4.822   4.420
 5074SOL    HW115596   2.831   4.775   4.474
 5074SOL    HW215597   2.960   4.754   4.377
 5075SOL     OW15598   2.876   3.960   4.695
 5075SOL    HW115599   2.868   3.924   4.602
 5075SOL    HW215600   2.874   3.884   4.760
 5076SOL     OW15601   3.571   4.109   5.105
 5076SOL    HW115602   3.644   4.178   5.109
 5076SOL    HW215603   3.599   4.034   5.046
 5077SOL     OW15604   1.967   4.737   5.450
 5077SOL    HW115605   1.890   4.704   5.504
 5077SOL    HW215606   2.052   4.707   5.492
 5078SOL     OW15607   2.534   3.927   5.213
 5078SOL    HW115608   2.624   3.911   5.173
 5078SOL    HW215609   2.542   3.932   5.312
 5079SOL     OW15610   1.937   4.069   3.757
 5079SOL    HW115611   1.845   4.041   3.728
 5079SOL    HW215612   1.968   4.146   3.701
 5080SOL     OW15613   3.302   4.580   5.122
 5080SOL    HW115614   3.245   4.632   5.059
 5080SOL    HW215615   3.398   4.592   5.098
 5081SOL     OW15616   1.934   3.890   4.042
 5081SOL    HW115617   1.917   3.973   3.988
 5081SOL    HW215618   2.024   3.853   4.020
 5082SOL     OW15619   2.475   4.566   5.155
 5082SOL    HW115620   2.531   4.647   5.138
 5082SOL    HW215621   2.534   4.486   5.158
 5083SOL     OW15622   2.578   4.289   5.432
 5083SOL    HW115623   2.597   4.354   5.506
 5083SOL    HW215624   2.638   4.209   5.441
 5084SOL     OW15625   3.312   4.944   5.357
 5084SOL    HW115626   3.303   4.934   5.456
 5084SOL    HW215627   3.408   4.937   5.331
 5085SOL     OW15628   3.536   4.607   4.978
 5085SOL    HW115629   3.509   4.518   4.941
 5085SOL    HW215630   3.537   4.675   4.905
 5086SOL     OW15631   3.087   4.049   4.173
 5086SOL    HW115632   3.152   3.975   4.162
 5086SOL    HW215633   3.107   4.099   4.257
 5087SOL     OW15634   2.456   4.469   4.376
 5087SOL    HW115635   2.506   4.554   4.357
 5087SOL    HW215636   2.368   4.471   4.328
 5088SOL     OW15637   3.639   4.066   5.366
 5088SOL    HW115638   3.622   4.097   5.272
 5088SOL    HW215639   3.555   4.029   5.404
 5089SOL     OW15640   3.592   4.658   5.241
 5089SOL    HW115641   3.630   4.749   5.256
 5089SOL    HW215642   3.584   4.641   5.142
 5090SOL     OW15643   2.721   4.680   4.585
 5090SOL    HW115644   2.775   4.611   4.633
 5090SOL    HW215645   2.689   4.749   4.651
 5091SOL     OW15646   2.945   4.708   3.811
 5091SOL    HW115647   2.922   4.761   3.729
 5091SOL    HW215648   3.026   4.652   3.792
 5092SOL     OW15649   1.941   4.964   4.377
 5092SOL    HW115650   1.940   4.917   4.465
 5092SOL    HW215651   2.023   4.936   4.326
 5093SOL     OW15652   3.686   3.916   4.951
 5093SOL    HW115653   3.682   3.826   4.995
 5093SOL    HW215654   3.689   3.905   4.852
 5094SOL     OW15655   2.290   4.148   4.244
 5094SOL    HW115656   2.320   4.076   4.182
 5094SOL    HW215657   2.251   4.108   4.327
 5095SOL     OW15658   2.179   4.271   5.004
 5095SOL    HW115659   2.217   4.212   5.076
 5095SOL    HW215660   2.219   4.245   4.916
 5096SOL     OW15661   3.286   3.938   4.836
 5096SOL    HW115662   3.338   3.873   4.891
 5096SOL    HW215663   3.237   4.001   4.897
 5097SOL     OW15664   2.863   3.758   4.878
 5097SOL    HW115665   2.800   3.686   4.847
 5097SOL    HW215666   2.956   3.722   4.878
 5098SOL     OW15667   2.632   5.054   4.025
 5098SOL    HW115668   2.586   4.967   4.042
 5098SOL    HW215669   2.723   5.051   4.066
 5099SOL     OW15670   3.214   3.776   3.892
 5099SOL    HW115671   3.249   3.735   3.808
 5099SOL    HW215672   3.124   3.738   3.912
 5100SOL     OW15673   3.162   4.177   4.415
 5100SOL    HW115674   3.103   4.257   4.419
 5100SOL    HW215675   3.177   4.142   4.508
 5101SOL     OW15676   3.455   3.945   4.606
 5101SOL    HW115677   3.371   3.944   4.660
 5101SOL    HW215678   3.457   4.028   4.550
 5102SOL     OW15679   1.901   4.801   4.024
 5102SOL    HW115680   2.000   4.790   4.015
 5102SOL    HW215681   1.861   4.715   4.056
 5103SOL     OW15682   2.092   4.352   5.699
 5103SOL    HW115683   1.999   4.350   5.736
 5103SOL    HW215684   2.093   4.313   5.607
 5104SOL     OW15685   2.087   3.999   6.582
 5104SOL    HW115686   2.122   3.982   6.674
 5104SOL    HW215687   1.999   3.954   6.570
 5105SOL     OW15688   1.881   4.092   6.233
 5105SOL    HW115689   1.799   4.135   6.272
 5105SOL    HW215690   1.853   4.019   6.170
 5106SOL     OW15691   2.997   4.427   6.303
 5106SOL    HW115692   3.054   4.505   6.278
 5106SOL    HW215693   2.937   4.453   6.379
 5107SOL     OW15694   3.617   4.331   5.817
 5107SOL    HW115695   3.605   4.318   5.718
 5107SOL    HW215696   3.587   4.250   5.866
 5108SOL     OW15697   2.630   4.868   6.609
 5108SOL    HW115698   2.552   4.885   6.669
 5108SOL    HW215699   2.664   4.955   6.573
 5109SOL     OW15700   2.712   4.522   7.409
 5109SOL    HW115701   2.708   4.598   7.474
 5109SOL    HW215702   2.734   4.558   7.318
 5110SOL     OW15703   2.547   4.736   6.251
 5110SOL    HW115704   2.616   4.720   6.321
 5110SOL    HW215705   2.474   4.793   6.289
 5111SOL     OW15706   2.548   4.885   7.389
 5111SOL    HW115707   2.608   4.964   7.403
 5111SOL    HW215708   2.462   4.916   7.348
 5112SOL     OW15709   2.300   4.116   7.085
 5112SOL    HW115710   2.382   4.060   7.094
 5112SOL    HW215711   2.219   4.058   7.089
 5113SOL     OW15712   3.465   4.171   6.323
 5113SOL    HW115713   3.391   4.217   6.273
 5113SOL    HW215714   3.516   4.239   6.376
 5114SOL     OW15715   2.102   4.815   6.472
 5114SOL    HW115716   2.116   4.731   6.524
 5114SOL    HW215717   2.047   4.879   6.527
 5115SOL     OW15718   2.468   4.688   5.709
 5115SOL    HW115719   2.475   4.772   5.655
 5115SOL    HW215720   2.514   4.701   5.797
 5116SOL     OW15721   3.456   3.838   7.066
 5116SOL    HW115722   3.438   3.905   6.994
 5116SOL    HW215723   3.453   3.884   7.155
 5117SOL     OW15724   1.984   4.367   6.149
 5117SOL    HW115725   1.939   4.279   6.166
 5117SOL    HW215726   1.983   4.421   6.233
 5118SOL     OW15727   3.551   4.646   6.198
 5118SOL    HW115728   3.646   4.617   6.206
 5118SOL    HW215729   3.543   4.711   6.123
 5119SOL     OW15730   3.503   4.832   6.018
 5119SOL    HW115731   3.589   4.834   5.966
 5119SOL    HW215732   3.517   4.879   6.106
 5120SOL     OW15733   1.975   4.461   7.183
 5120SOL    HW115734   2.063   4.448   7.228
 5120SOL    HW215735   1.962   4.558   7.161
 5121SOL     OW15736   3.155   4.952   7.009
 5121SOL    HW115737   3.192   4.879   6.951
 5121SOL    HW215738   3.207   4.957   7.094
 5122SOL     OW15739   2.671   3.728   6.088
 5122SOL    HW115740   2.711   3.819   6.079
 5122SOL    HW215741   2.571   3.736   6.094
 5123SOL     OW15742   2.059   4.700   6.850
 5123SOL    HW115743   2.148   4.655   6.836
 5123SOL    HW215744   1.986   4.635   6.831
 5124SOL     OW15745   3.387   4.723   5.776
 5124SOL    HW115746   3.324   4.647   5.789
 5124SOL    HW215747   3.435   4.741   5.862
 5125SOL     OW15748   2.179   3.975   7.387
 5125SOL    HW115749   2.250   4.046   7.393
 5125SOL    HW215750   2.091   4.014   7.415
 5126SOL     OW15751   2.460   4.453   5.856
 5126SOL    HW115752   2.484   4.522   5.788
 5126SOL    HW215753   2.382   4.486   5.910
 5127SOL     OW15754   3.143   4.069   6.530
 5127SOL    HW115755   3.057   4.019   6.517
 5127SOL    HW215756   3.205   4.015   6.586
 5128SOL     OW15757   2.669   4.329   7.051
 5128SOL    HW115758   2.622   4.326   7.140
 5128SOL    HW215759   2.618   4.274   6.985
 5129SOL     OW15760   3.256   4.193   7.260
 5129SOL    HW115761   3.236   4.236   7.348
 5129SOL    HW215762   3.334   4.131   7.269
 5130SOL     OW15763   2.835   4.614   7.158
 5130SOL    HW115764   2.881   4.530   7.129
 5130SOL    HW215765   2.779   4.648   7.083
 5131SOL     OW15766   2.853   4.134   6.828
 5131SOL    HW115767   2.776   4.168   6.882
 5131SOL    HW215768   2.819   4.083   6.749
 5132SOL     OW15769   2.903   4.425   6.015
 5132SOL    HW115770   2.929   4.421   6.111
 5132SOL    HW215771   2.818   4.374   6.001
 5133SOL     OW15772   1.938   4.535   6.375
 5133SOL    HW115773   2.037   4.523   6.384
 5133SOL    HW215774   1.914   4.630   6.396
 5134SOL     OW15775   2.727   4.072   5.781
 5134SOL    HW115776   2.786   4.135   5.732
 5134SOL    HW215777   2.746   3.978   5.752
 5135SOL     OW15778   3.581   4.309   7.417
 5135SOL    HW115779   3.555   4.398   7.381
 5135SOL    HW215780   3.579   4.241   7.344
 5136SOL     OW15781   3.224   4.868   6.131
 5136SOL    HW115782   3.307   4.839   6.083
 5136SOL    HW215783   3.175   4.935   6.075
 5137SOL     OW15784   2.412   3.920   6.471
 5137SOL    HW115785   2.407   3.915   6.571
 5137SOL    HW215786   2.414   4.016   6.442
 5138SOL     OW15787   3.657   4.790   6.459
 5138SOL    HW115788   3.595   4.775   6.383
 5138SOL    HW215789   3.605   4.801   6.544
 5139SOL     OW15790   2.183   4.667   5.828
 5139SOL    HW115791   2.265   4.706   5.786
 5139SOL    HW215792   2.156   4.585   5.779
 5140SOL     OW15793   3.320   4.459   6.314
 5140SOL    HW115794   3.315   4.394   6.389
 5140SOL    HW215795   3.400   4.518   6.327
 5141SOL     OW15796   2.064   4.009   7.084
 5141SOL    HW115797   1.984   4.069   7.071
 5141SOL    HW215798   2.054   3.960   7.170
 5142SOL     OW15799   3.262   3.831   6.012
 5142SOL    HW115800   3.238   3.794   5.922
 5142SOL    HW215801   3.361   3.847   6.016
 5143SOL     OW15802   2.244   4.424   6.066
 5143SOL    HW115803   2.289   4.334   6.063
 5143SOL    HW215804   2.150   4.413   6.099
 5144SOL     OW15805   3.409   3.946   7.315
 5144SOL    HW115806   3.404   3.983   7.407
 5144SOL    HW215807   3.337   3.877   7.303
 5145SOL     OW15808   2.476   3.846   5.703
 5145SOL    HW115809   2.574   3.824   5.710
 5145SOL    HW215810   2.445   3.829   5.610
 5146SOL     OW15811   2.643   3.988   7.335
 5146SOL    HW115812   2.710   3.927   7.378
 5146SOL    HW215813   2.570   4.007   7.400
 5147SOL     OW15814   3.213   4.314   7.019
 5147SOL    HW115815   3.241   4.271   7.104
 5147SOL    HW215816   3.238   4.410   7.020
 5148SOL     OW15817   2.784   4.227   6.485
 5148SOL    HW115818   2.759   4.218   6.389
 5148SOL    HW215819   2.832   4.145   6.516
 5149SOL     OW15820   2.401   3.788   6.098
 5149SOL    HW115821   2.320   3.789   6.156
 5149SOL    HW215822   2.404   3.871   6.043
 5150SOL     OW15823   2.159   3.759   5.757
 5150SOL    HW115824   2.208   3.843   5.736
 5150SOL    HW215825   2.221   3.694   5.802
 5151SOL     OW15826   2.797   3.960   6.066
 5151SOL    HW115827   2.749   4.001   5.988
 5151SOL    HW215828   2.896   3.958   6.047
 5152SOL     OW15829   2.938   4.407   7.050
 5152SOL    HW115830   2.858   4.346   7.053
 5152SOL    HW215831   3.019   4.354   7.026
 5153SOL     OW15832   2.321   4.876   6.327
 5153SOL    HW115833   2.250   4.849   6.392
 5153SOL    HW215834   2.295   4.848   6.234
 5154SOL     OW15835   2.894   4.273   5.602
 5154SOL    HW115836   2.853   4.355   5.563
 5154SOL    HW215837   2.958   4.299   5.675
 5155SOL     OW15838   1.940   4.280   6.972
 5155SOL    HW115839   2.032   4.279   6.931
 5155SOL    HW215840   1.934   4.354   7.039
 5156SOL     OW15841   2.423   3.946   6.733
 5156SOL    HW115842   2.461   3.862   6.770
 5156SOL    HW215843   2.335   3.965   6.777
 5157SOL     OW15844   2.728   4.178   6.228
 5157SOL    HW115845   2.696   4.250   6.166
 5157SOL    HW215846   2.752   4.097   6.175
 5158SOL     OW15847   2.879   3.763   6.339
 5158SOL    HW115848   2.807   3.768   6.270
 5158SOL    HW215849   2.855   3.694   6.408
 5159SOL     OW15850   3.291   4.897   6.453
 5159SOL    HW115851   3.236   4.813   6.446
 5159SOL    HW215852   3.317   4.926   6.361
 5160SOL     OW15853   3.328   4.314   6.578
 5160SOL    HW115854   3.298   4.219   6.585
 5160SOL    HW215855   3.401   4.330   6.644
 5161SOL     OW15856   3.719   4.557   5.963
 5161SOL    HW115857   3.761   4.493   6.027
 5161SOL    HW215858   3.681   4.506   5.885
 5162SOL     OW15859   3.252   4.299   5.664
 5162SOL    HW115860   3.198   4.278   5.745
 5162SOL    HW215861   3.343   4.258   5.673
 5163SOL     OW15862   2.389   3.980   5.914
 5163SOL    HW115863   2.416   3.921   5.839
 5163SOL    HW215864   2.389   4.075   5.883
 5164SOL     OW15865   3.616   4.947   7.174
 5164SOL    HW115866   3.707   4.908   7.161
 5164SOL    HW215867   3.624   5.043   7.198
 5165SOL     OW15868   3.500   4.823   6.665
 5165SOL    HW115869   3.505   4.904   6.724
 5165SOL    HW215870   3.414   4.825   6.614
 5166SOL     OW15871   2.777   3.813   6.988
 5166SOL    HW115872   2.802   3.793   6.893
 5166SOL    HW215873   2.849   3.869   7.030
 5167SOL     OW15874   2.842   4.840   7.305
 5167SOL    HW115875   2.743   4.846   7.315
 5167SOL    HW215876   2.865   4.760   7.249
 5168SOL     OW15877   2.567   4.774   5.954
 5168SOL    HW115878   2.553   4.781   6.053
 5168SOL    HW215879   2.651   4.723   5.936
 5169SOL     OW15880   2.272   4.537   6.837
 5169SOL    HW115881   2.358   4.549   6.887
 5169SOL    HW215882   2.230   4.450   6.864
 5170SOL     OW15883   3.136   4.110   6.848
 5170SOL    HW115884   3.157   4.184   6.912
 5170SOL    HW215885   3.047   4.127   6.805
 5171SOL     OW15886   2.229   4.824   6.087
 5171SOL    HW115887   2.222   4.907   6.031
 5171SOL    HW215888   2.233   4.744   6.027
 5172SOL     OW15889   2.428   4.261   6.451
 5172SOL    HW115890   2.440   4.327   6.377
 5172SOL    HW215891   2.474   4.295   6.534
 5173SOL     OW15892   3.444   4.363   6.058
 5173SOL    HW115893   3.413   4.424   6.131
 5173SOL    HW215894   3.494   4.415   5.989
 5174SOL     OW15895   2.264   4.475   7.184
 5174SOL    HW115896   2.332   4.530   7.137
 5174SOL    HW215897   2.304   4.387   7.211
 5175SOL     OW15898   3.449   4.503   7.256
 5175SOL    HW115899   3.357   4.541   7.251
 5175SOL    HW215900   3.509   4.550   7.191
 5176SOL     OW15901   2.875   3.829   7.356
 5176SOL    HW115902   2.881   3.914   7.304
 5176SOL    HW215903   2.907   3.753   7.299
 5177SOL     OW15904   2.366   3.774   7.326
 5177SOL    HW115905   2.324   3.717   7.256
 5177SOL    HW215906   2.300   3.843   7.358
 5178SOL     OW15907   2.435   4.594   6.615
 5178SOL    HW115908   2.479   4.683   6.606
 5178SOL    HW215909   2.372   4.594   6.692
 5179SOL     OW15910   3.222   4.586   6.631
 5179SOL    HW115911   3.147   4.586   6.565
 5179SOL    HW215912   3.259   4.494   6.640
 5180SOL     OW15913   3.071   4.249   5.861
 5180SOL    HW115914   3.084   4.165   5.915
 5180SOL    HW215915   3.042   4.323   5.921
 5181SOL     OW15916   2.169   3.937   6.817
 5181SOL    HW115917   2.146   3.974   6.907
 5181SOL    HW215918   2.139   3.842   6.811
 5182SOL     OW15919   2.594   4.358   6.650
 5182SOL    HW115920   2.653   4.332   6.574
 5182SOL    HW215921   2.566   4.454   6.639
 5183SOL     OW15922   3.590   4.659   7.440
 5183SOL    HW115923   3.544   4.652   7.351
 5183SOL    HW215924   3.528   4.703   7.506
 5184SOL     OW15925   2.169   3.787   6.204
 5184SOL    HW115926   2.158   3.881   6.237
 5184SOL    HW215927   2.164   3.724   6.281
 5185SOL     OW15928   3.484   4.091   5.960
 5185SOL    HW115929   3.486   4.015   6.024
 5185SOL    HW215930   3.436   4.168   6.000
 5186SOL     OW15931   2.885   4.490   6.552
 5186SOL    HW115932   2.900   4.511   6.648
 5186SOL    HW215933   2.855   4.395   6.543
 5187SOL     OW15934   2.212   4.622   7.390
 5187SOL    HW115935   2.288   4.666   7.438
 5187SOL    HW215936   2.247   4.575   7.308
 5188SOL     OW15937   3.402   3.998   5.711
 5188SOL    HW115938   3.341   3.923   5.734
 5188SOL    HW215939   3.424   4.050   5.794
 5189SOL     OW15940   3.165   4.562   5.628
 5189SOL    HW115941   3.199   4.469   5.643
 5189SOL    HW215942   3.183   4.589   5.533
 5190SOL     OW15943   2.181   4.534   6.535
 5190SOL    HW115944   2.274   4.570   6.540
 5190SOL    HW215945   2.175   4.449   6.587
 5191SOL     OW15946   2.201   4.233   6.592
 5191SOL    HW115947   2.149   4.150   6.575
 5191SOL    HW215948   2.278   4.238   6.528
 5192SOL     OW15949   3.000   4.104   7.264
 5192SOL    HW115950   2.955   4.167   7.328
 5192SOL    HW215951   3.093   4.135   7.247
 5193SOL     OW15952   3.022   3.931   7.063
 5193SOL    HW115953   3.022   3.995   7.140
 5193SOL    HW215954   3.050   3.979   6.980
 5194SOL     OW15955   1.870   5.050   5.786
 5194SOL    HW115956   1.777   5.071   5.755
 5194SOL    HW215957   1.880   4.951   5.799
 5195SOL     OW15958   2.864   4.520   6.824
 5195SOL    HW115959   2.905   4.488   6.910
 5195SOL    HW215960   2.768   4.493   6.821
 5196SOL     OW15961   1.902   4.268   6.700
 5196SOL    HW115962   1.987   4.235   6.659
 5196SOL    HW215963   1.915   4.283   6.798
 5197SOL     OW15964   2.051   4.244   7.308
 5197SOL    HW115965   2.110   4.204   7.238
 5197SOL    HW215966   1.993   4.315   7.267
 5198SOL     OW15967   3.231   4.674   7.246
 5198SOL    HW115968   3.270   4.763   7.266
 5198SOL    HW215969   3.241   4.654   7.149
 5199SOL     OW15970   2.677   4.296   5.911
 5199SOL    HW115971   2.684   4.207   5.865
 5199SOL    HW215972   2.583   4.330   5.903
 5200SOL     OW15973   3.519   4.328   6.792
 5200SOL    HW115974   3.481   4.259   6.854
 5200SOL    HW215975   3.601   4.292   6.748
 5201SOL     OW15976   2.533   4.188   6.855
 5201SOL    HW115977   2.499   4.099   6.825
 5201SOL    HW215978   2.559   4.242   6.775
 5202SOL     OW15979   2.335   4.224   5.777
 5202SOL    HW115980   2.396   4.304   5.781
 5202SOL    HW215981   2.240   4.255   5.784
 5203SOL     OW15982   2.021   4.861   7.052
 5203SOL    HW115983   2.043   4.800   7.128
 5203SOL    HW215984   2.031   4.812   6.966
 5204SOL     OW15985   3.209   4.783   6.820
 5204SOL    HW115986   3.233   4.720   6.746
 5204SOL    HW215987   3.119   4.823   6.802
 5205SOL     OW15988   3.164   4.579   5.895
 5205SOL    HW115989   3.078   4.548   5.937
 5205SOL    HW215990   3.160   4.565   5.796
 5206SOL     OW15991   1.945   4.982   6.608
 5206SOL    HW115992   1.940   4.981   6.708
 5206SOL    HW215993   1.862   4.941   6.570
 5207SOL     OW15994   3.588   3.859   6.109
 5207SOL    HW115995   3.661   3.842   6.042
 5207SOL    HW215996   3.557   3.772   6.147
 5208SOL     OW15997   3.142   4.651   6.258
 5208SOL    HW115998   3.202   4.570   6.260
 5208SOL    HW215999   3.182   4.720   6.198
 5209SOL     OW16000   3.703   3.899   6.549
 5209SOL    HW116001   3.742   3.814   6.513
 5209SOL    HW216002   3.605   3.901   6.530
 5210SOL     OW16003   2.125   4.050   6.306
 5210SOL    HW116004   2.046   4.101   6.272
 5210SOL    HW216005   2.116   4.035   6.404
 5211SOL     OW16006   2.684   4.726   6.958
 5211SOL    HW116007   2.724   4.725   6.866
 5211SOL    HW216008   2.694   4.818   6.998
 5212SOL     OW16009   2.778   4.634   5.877
 5212SOL    HW116010   2.841   4.672   5.809
 5212SOL    HW216011   2.818   4.551   5.916
 5213SOL     OW16012   2.234   5.012   7.076
 5213SOL    HW116013   2.221   5.105   7.042
 5213SOL    HW216014   2.150   4.960   7.063
 5214SOL     OW16015   3.476   5.016   6.875
 5214SOL    HW116016   3.536   5.019   6.955
 5214SOL    HW216017   3.401   5.080   6.888
 5215SOL     OW16018   2.901   4.822   6.282
 5215SOL    HW116019   2.831   4.775   6.336
 5215SOL    HW216020   2.960   4.754   6.239
 5216SOL     OW16021   2.876   3.960   6.557
 5216SOL    HW116022   2.868   3.924   6.464
 5216SOL    HW216023   2.874   3.884   6.622
 5217SOL     OW16024   3.571   4.109   6.967
 5217SOL    HW116025   3.644   4.178   6.971
 5217SOL    HW216026   3.599   4.034   6.908
 5218SOL     OW16027   1.967   4.737   7.312
 5218SOL    HW116028   1.890   4.704   7.366
 5218SOL    HW216029   2.052   4.707   7.354
 5219SOL     OW16030   2.534   3.927   7.075
 5219SOL    HW116031   2.624   3.911   7.035
 5219SOL    HW216032   2.542   3.932   7.174
 5220SOL     OW16033   1.937   4.069   5.619
 5220SOL    HW116034   1.845   4.041   5.590
 5220SOL    HW216035   1.968   4.146   5.563
 5221SOL     OW16036   3.302   4.580   6.984
 5221SOL    HW116037   3.245   4.632   6.921
 5221SOL    HW216038   3.398   4.592   6.960
 5222SOL     OW16039   1.934   3.890   5.904
 5222SOL    HW116040   1.917   3.973   5.850
 5222SOL    HW216041   2.024   3.853   5.882
 5223SOL     OW16042   2.475   4.566   7.017
 5223SOL    HW116043   2.531   4.647   7.000
 5223SOL    HW216044   2.534   4.486   7.020
 5224SOL     OW16045   2.578   4.289   7.294
 5224SOL    HW116046   2.597   4.354   7.368
 5224SOL    HW216047   2.638   4.209   7.303
 5225SOL     OW16048   3.312   4.944   7.219
 5225SOL    HW116049   3.303   4.934   7.318
 5225SOL    HW216050   3.408   4.937   7.193
 5226SOL     OW16051   3.536   4.607   6.840
 5226SOL    HW116052   3.509   4.518   6.803
 5226SOL    HW216053   3.537   4.675   6.767
 5227SOL     OW16054   3.087   4.049   6.035
 5227SOL    HW116055   3.152   3.975   6.024
 5227SOL    HW216056   3.107   4.099   6.119
 5228SOL     OW16057   2.456   4.469   6.238
 5228SOL    HW116058   2.506   4.554   6.219
 5228SOL    HW216059   2.368   4.471   6.190
 5229SOL     OW16060   3.639   4.066   7.228
 5229SOL    HW116061   3.622   4.097   7.134
 5229SOL    HW216062   3.555   4.029   7.266
 5230SOL     OW16063   3.592   4.658   7.103
 5230SOL    HW116064   3.630   4.749   7.118
 5230SOL    HW216065   3.584   4.641   7.004
 5231SOL     OW16066   2.721   4.680   6.447
 5231SOL    HW116067   2.775   4.611   6.495
 5231SOL    HW216068   2.689   4.749   6.513
 5232SOL     OW16069   2.945   4.708   5.673
 5232SOL    HW116070   2.922   4.761   5.591
 5232SOL    HW216071   3.026   4.652   5.654
 5233SOL     OW16072   1.941   4.964   6.239
 5233SOL    HW116073   1.940   4.917   6.327
 5233SOL    HW216074   2.023   4.936   6.188
 5234SOL     OW16075   3.686   3.916   6.813
 5234SOL    HW116076   3.682   3.826   6.857
 5234SOL    HW216077   3.689   3.905   6.714
 5235SOL     OW16078   2.290   4.148   6.106
 5235SOL    HW116079   2.320   4.076   6.044
 5235SOL    HW216080   2.251   4.108   6.189
 5236SOL     OW16081   2.179   4.271   6.866
 5236SOL    HW116082   2.217   4.212   6.938
 5236SOL    HW216083   2.219   4.245   6.778
 5237SOL     OW16084   3.286   3.938   6.698
 5237SOL    HW116085   3.338   3.873   6.753
 5237SOL    HW216086   3.237   4.001   6.759
 5238SOL     OW16087   2.863   3.758   6.740
 5238SOL    HW116088   2.800   3.686   6.709
 5238SOL    HW216089   2.956   3.722   6.740
 5239SOL     OW16090   2.632   5.054   5.887
 5239SOL    HW116091   2.586   4.967   5.904
 5239SOL    HW216092   2.723   5.051   5.928
 5240SOL     OW16093   3.214   3.776   5.754
 5240SOL    HW116094   3.249   3.735   5.670
 5240SOL    HW216095   3.124   3.738   5.774
 5241SOL     OW16096   3.162   4.177   6.277
 5241SOL    HW116097   3.103   4.257   6.281
 5241SOL    HW216098   3.177   4.142   6.370
 5242SOL     OW16099   3.455   3.945   6.468
 5242SOL    HW116100   3.371   3.944   6.522
 5242SOL    HW216101   3.457   4.028   6.412
 5243SOL     OW16102   1.901   4.801   5.886
 5243SOL    HW116103   2.000   4.790   5.877
 5243SOL    HW216104   1.861   4.715   5.918
 5244SOL     OW16105   2.092   4.352   7.561
 5244SOL    HW116106   1.999   4.350   7.598
 5244SOL    HW216107   2.093   4.313   7.469
 5245SOL     OW16108   2.087   3.999   8.444
 5245SOL    HW116109   2.122   3.982   8.536
 5245SOL    HW216110   1.999   3.954   8.432
 5246SOL     OW16111   1.881   4.092   8.095
 5246SOL    HW116112   1.799   4.135   8.134
 5246SOL    HW216113   1.853   4.019   8.032
 5247SOL     OW16114   2.997   4.427   8.165
 5247SOL    HW116115   3.054   4.505   8.140
 5247SOL    HW216116   2.937   4.453   8.241
 5248SOL     OW16117   3.617   4.331   7.679
 5248SOL    HW116118   3.605   4.318   7.580
 5248SOL    HW216119   3.587   4.250   7.728
 5249SOL     OW16120   2.630   4.868   8.471
 5249SOL    HW116121   2.552   4.885   8.531
 5249SOL    HW216122   2.664   4.955   8.435
 5250SOL     OW16123   2.547   4.736   8.113
 5250SOL    HW116124   2.616   4.720   8.183
 5250SOL    HW216125   2.474   4.793   8.151
 5251SOL     OW16126   2.300   4.116   8.947
 5251SOL    HW116127   2.382   4.060   8.956
 5251SOL    HW216128   2.219   4.058   8.951
 5252SOL     OW16129   3.465   4.171   8.185
 5252SOL    HW116130   3.391   4.217   8.135
 5252SOL    HW216131   3.516   4.239   8.238
 5253SOL     OW16132   2.102   4.815   8.334
 5253SOL    HW116133   2.116   4.731   8.386
 5253SOL    HW216134   2.047   4.879   8.389
 5254SOL     OW16135   2.468   4.688   7.571
 5254SOL    HW116136   2.475   4.772   7.517
 5254SOL    HW216137   2.514   4.701   7.659
 5255SOL     OW16138   3.456   3.838   8.928
 5255SOL    HW116139   3.438   3.905   8.856
 5255SOL    HW216140   3.453   3.884   9.017
 5256SOL     OW16141   1.984   4.367   8.011
 5256SOL    HW116142   1.939   4.279   8.028
 5256SOL    HW216143   1.983   4.421   8.095
 5257SOL     OW16144   3.551   4.646   8.060
 5257SOL    HW116145   3.646   4.617   8.068
 5257SOL    HW216146   3.543   4.711   7.985
 5258SOL     OW16147   3.503   4.832   7.880
 5258SOL    HW116148   3.589   4.834   7.828
 5258SOL    HW216149   3.517   4.879   7.968
 5259SOL     OW16150   3.155   4.952   8.871
 5259SOL    HW116151   3.192   4.879   8.813
 5259SOL    HW216152   3.207   4.957   8.956
 5260SOL     OW16153   2.671   3.728   7.950
 5260SOL    HW116154   2.711   3.819   7.941
 5260SOL    HW216155   2.571   3.736   7.956
 5261SOL     OW16156   2.059   4.700   8.712
 5261SOL    HW116157   2.148   4.655   8.698
 5261SOL    HW216158   1.986   4.635   8.693
 5262SOL     OW16159   3.387   4.723   7.638
 5262SOL    HW116160   3.324   4.647   7.651
 5262SOL    HW216161   3.435   4.741   7.724
 5263SOL     OW16162   2.179   3.975   9.249
 5263SOL    HW116163   2.250   4.046   9.255
 5263SOL    HW216164   2.091   4.014   9.277
 5264SOL     OW16165   2.460   4.453   7.718
 5264SOL    HW116166   2.484   4.522   7.650
 5264SOL    HW216167   2.382   4.486   7.772
 5265SOL     OW16168   3.143   4.069   8.392
 5265SOL    HW116169   3.057   4.019   8.379
 5265SOL    HW216170   3.205   4.015   8.448
 5266SOL     OW16171   2.669   4.329   8.913
 5266SOL    HW116172   2.622   4.326   9.002
 5266SOL    HW216173   2.618   4.274   8.847
 5267SOL     OW16174   2.853   4.134   8.690
 5267SOL    HW116175   2.776   4.168   8.744
 5267SOL    HW216176   2.819   4.083   8.611
 5268SOL     OW16177   2.903   4.425   7.877
 5268SOL    HW116178   2.929   4.421   7.973
 5268SOL    HW216179   2.818   4.374   7.863
 5269SOL     OW16180   1.938   4.535   8.237
 5269SOL    HW116181   2.037   4.523   8.246
 5269SOL    HW216182   1.914   4.630   8.258
 5270SOL     OW16183   2.727   4.072   7.643
 5270SOL    HW116184   2.786   4.135   7.594
 5270SOL    HW216185   2.746   3.978   7.614
 5271SOL     OW16186   3.224   4.868   7.993
 5271SOL    HW116187   3.307   4.839   7.945
 5271SOL    HW216188   3.175   4.935   7.937
 5272SOL     OW16189   2.412   3.920   8.333
 5272SOL    HW116190   2.407   3.915   8.433
 5272SOL    HW216191   2.414   4.016   8.304
 5273SOL     OW16192   3.657   4.790   8.321
 5273SOL    HW116193   3.595   4.775   8.245
 5273SOL    HW216194   3.605   4.801   8.406
 5274SOL     OW16195   2.183   4.667   7.690
 5274SOL    HW116196   2.265   4.706   7.648
 5274SOL    HW216197   2.156   4.585   7.641
 5275SOL     OW16198   3.320   4.459   8.176
 5275SOL    HW116199   3.315   4.394   8.251
 5275SOL    HW216200   3.400   4.518   8.189
 5276SOL     OW16201   2.064   4.009   8.946
 5276SOL    HW116202   1.984   4.069   8.933
 5276SOL    HW216203   2.054   3.960   9.032
 5277SOL     OW16204   3.262   3.831   7.874
 5277SOL    HW116205   3.238   3.794   7.784
 5277SOL    HW216206   3.361   3.847   7.878
 5278SOL     OW16207   2.244   4.424   7.928
 5278SOL    HW116208   2.289   4.334   7.925
 5278SOL    HW216209   2.150   4.413   7.961
 5279SOL     OW16210   2.476   3.846   7.565
 5279SOL    HW116211   2.574   3.824   7.572
 5279SOL    HW216212   2.445   3.829   7.472
 5280SOL     OW16213   2.784   4.227   8.347
 5280SOL    HW116214   2.759   4.218   8.251
 5280SOL    HW216215   2.832   4.145   8.378
 5281SOL     OW16216   2.401   3.788   7.960
 5281SOL    HW116217   2.320   3.789   8.018
 5281SOL    HW216218   2.404   3.871   7.905
 5282SOL     OW16219   2.159   3.759   7.619
 5282SOL    HW116220   2.208   3.843   7.598
 5282SOL    HW216221   2.221   3.694   7.664
 5283SOL     OW16222   2.797   3.960   7.928
 5283SOL    HW116223   2.749   4.001   7.850
 5283SOL    HW216224   2.896   3.958   7.909
 5284SOL     OW16225   2.321   4.876   8.189
 5284SOL    HW116226   2.250   4.849   8.254
 5284SOL    HW216227   2.295   4.848   8.096
 5285SOL     OW16228   2.894   4.273   7.464
 5285SOL    HW116229   2.853   4.355   7.425
 5285SOL    HW216230   2.958   4.299   7.537
 5286SOL     OW16231   1.940   4.280   8.834
 5286SOL    HW116232   2.032   4.279   8.793
 5286SOL    HW216233   1.934   4.354   8.901
 5287SOL     OW16234   2.423   3.946   8.595
 5287SOL    HW116235   2.461   3.862   8.632
 5287SOL    HW216236   2.335   3.965   8.639
 5288SOL     OW16237   2.728   4.178   8.090
 5288SOL    HW116238   2.696   4.250   8.028
 5288SOL    HW216239   2.752   4.097   8.037
 5289SOL     OW16240   2.879   3.763   8.201
 5289SOL    HW116241   2.807   3.768   8.132
 5289SOL    HW216242   2.855   3.694   8.270
 5290SOL     OW16243   3.291   4.897   8.315
 5290SOL    HW116244   3.236   4.813   8.308
 5290SOL    HW216245   3.317   4.926   8.223
 5291SOL     OW16246   3.328   4.314   8.440
 5291SOL    HW116247   3.298   4.219   8.447
 5291SOL    HW216248   3.401   4.330   8.506
 5292SOL     OW16249   3.719   4.557   7.825
 5292SOL    HW116250   3.761   4.493   7.889
 5292SOL    HW216251   3.681   4.506   7.747
 5293SOL     OW16252   3.252   4.299   7.526
 5293SOL    HW116253   3.198   4.278   7.607
 5293SOL    HW216254   3.343   4.258   7.535
 5294SOL     OW16255   2.389   3.980   7.776
 5294SOL    HW116256   2.416   3.921   7.701
 5294SOL    HW216257   2.389   4.075   7.745
 5295SOL     OW16258   3.500   4.823   8.527
 5295SOL    HW116259   3.505   4.904   8.586
 5295SOL    HW216260   3.414   4.825   8.476
 5296SOL     OW16261   2.777   3.813   8.850
 5296SOL    HW116262   2.802   3.793   8.755
 5296SOL    HW216263   2.849   3.869   8.892
 5297SOL     OW16264   2.567   4.774   7.816
 5297SOL    HW116265   2.553   4.781   7.915
 5297SOL    HW216266   2.651   4.723   7.798
 5298SOL     OW16267   2.272   4.537   8.699
 5298SOL    HW116268   2.358   4.549   8.749
 5298SOL    HW216269   2.230   4.450   8.726
 5299SOL     OW16270   3.136   4.110   8.710
 5299SOL    HW116271   3.157   4.184   8.774
 5299SOL    HW216272   3.047   4.127   8.667
 5300SOL     OW16273   2.229   4.824   7.949
 5300SOL    HW116274   2.222   4.907   7.893
 5300SOL    HW216275   2.233   4.744   7.889
 5301SOL     OW16276   2.428   4.261   8.313
 5301SOL    HW116277   2.440   4.327   8.239
 5301SOL    HW216278   2.474   4.295   8.396
 5302SOL     OW16279   3.444   4.363   7.920
 5302SOL    HW116280   3.413   4.424   7.993
 5302SOL    HW216281   3.494   4.415   7.851
 5303SOL     OW16282   2.264   4.475   9.046
 5303SOL    HW116283   2.332   4.530   8.999
 5303SOL    HW216284   2.304   4.387   9.073
 5304SOL     OW16285   3.449   4.503   9.118
 5304SOL    HW116286   3.357   4.541   9.113
 5304SOL    HW216287   3.509   4.550   9.053
 5305SOL     OW16288   2.435   4.594   8.477
 5305SOL    HW116289   2.479   4.683   8.468
 5305SOL    HW216290   2.372   4.594   8.554
 5306SOL     OW16291   3.222   4.586   8.493
 5306SOL    HW116292   3.147   4.586   8.427
 5306SOL    HW216293   3.259   4.494   8.502
 5307SOL     OW16294   3.071   4.249   7.723
 5307SOL    HW116295   3.084   4.165   7.777
 5307SOL    HW216296   3.042   4.323   7.783
 5308SOL     OW16297   2.169   3.937   8.679
 5308SOL    HW116298   2.146   3.974   8.769
 5308SOL    HW216299   2.139   3.842   8.673
 5309SOL     OW16300   2.594   4.358   8.512
 5309SOL    HW116301   2.653   4.332   8.436
 5309SOL    HW216302   2.566   4.454   8.501
 5310SOL     OW16303   2.169   3.787   8.066
 5310SOL    HW116304   2.158   3.881   8.099
 5310SOL    HW216305   2.164   3.724   8.143
 5311SOL     OW16306   3.484   4.091   7.822
 5311SOL    HW116307   3.486   4.015   7.886
 5311SOL    HW216308   3.436   4.168   7.862
 5312SOL     OW16309   2.885   4.490   8.414
 5312SOL    HW116310   2.900   4.511   8.510
 5312SOL    HW216311   2.855   4.395   8.405
 5313SOL     OW16312   3.402   3.998   7.573
 5313SOL    HW116313   3.341   3.923   7.596
 5313SOL    HW216314   3.424   4.050   7.656
 5314SOL     OW16315   3.165   4.562   7.490
 5314SOL    HW116316   3.199   4.469   7.505
 5314SOL    HW216317   3.183   4.589   7.395
 5315SOL     OW16318   2.181   4.534   8.397
 5315SOL    HW116319   2.274   4.570   8.402
 5315SOL    HW216320   2.175   4.449   8.449
 5316SOL     OW16321   2.201   4.233   8.454
 5316SOL    HW116322   2.149   4.150   8.437
 5316SOL    HW216323   2.278   4.238   8.390
 5317SOL     OW16324   3.000   4.104   9.126
 5317SOL    HW116325   2.955   4.167   9.190
 5317SOL    HW216326   3.093   4.135   9.109
 5318SOL     OW16327   3.022   3.931   8.925
 5318SOL    HW116328   3.022   3.995   9.002
 5318SOL    HW216329   3.050   3.979   8.842
 5319SOL     OW16330   1.870   5.050   7.648
 5319SOL    HW116331   1.777   5.071   7.617
 5319SOL    HW216332   1.880   4.951   7.661
 5320SOL     OW16333   2.864   4.520   8.686
 5320SOL    HW116334   2.905   4.488   8.772
 5320SOL    HW216335   2.768   4.493   8.683
 5321SOL     OW16336   1.902   4.268   8.562
 5321SOL    HW116337   1.987   4.235   8.521
 5321SOL    HW216338   1.915   4.283   8.660
 5322SOL     OW16339   2.677   4.296   7.773
 5322SOL    HW116340   2.684   4.207   7.727
 5322SOL    HW216341   2.583   4.330   7.765
 5323SOL     OW16342   3.519   4.328   8.654
 5323SOL    HW116343   3.481   4.259   8.716
 5323SOL    HW216344   3.601   4.292   8.610
 5324SOL     OW16345   2.533   4.188   8.717
 5324SOL    HW116346   2.499   4.099   8.687
 5324SOL    HW216347   2.559   4.242   8.637
 5325SOL     OW16348   2.335   4.224   7.639
 5325SOL    HW116349   2.396   4.304   7.643
 5325SOL    HW216350   2.240   4.255   7.646
 5326SOL     OW16351   2.021   4.861   8.914
 5326SOL    HW116352   2.043   4.800   8.990
 5326SOL    HW216353   2.031   4.812   8.828
 5327SOL     OW16354   3.209   4.783   8.682
 5327SOL    HW116355   3.233   4.720   8.608
 5327SOL    HW216356   3.119   4.823   8.664
 5328SOL     OW16357   3.164   4.579   7.757
 5328SOL    HW116358   3.078   4.548   7.799
 5328SOL    HW216359   3.160   4.565   7.658
 5329SOL     OW16360   1.945   4.982   8.470
 5329SOL    HW116361   1.940   4.981   8.570
 5329SOL    HW216362   1.862   4.941   8.432
 5330SOL     OW16363   3.588   3.859   7.971
 5330SOL    HW116364   3.661   3.842   7.904
 5330SOL    HW216365   3.557   3.772   8.009
 5331SOL     OW16366   3.142   4.651   8.120
 5331SOL    HW116367   3.202   4.570   8.122
 5331SOL    HW216368   3.182   4.720   8.060
 5332SOL     OW16369   3.703   3.899   8.411
 5332SOL    HW116370   3.742   3.814   8.375
 5332SOL    HW216371   3.605   3.901   8.392
 5333SOL     OW16372   2.125   4.050   8.168
 5333SOL    HW116373   2.046   4.101   8.134
 5333SOL    HW216374   2.116   4.035   8.266
 5334SOL     OW16375   2.684   4.726   8.820
 5334SOL    HW116376   2.724   4.725   8.728
 5334SOL    HW216377   2.694   4.818   8.860
 5335SOL     OW16378   2.778   4.634   7.739
 5335SOL    HW116379   2.841   4.672   7.671
 5335SOL    HW216380   2.818   4.551   7.778
 5336SOL     OW16381   2.234   5.012   8.938
 5336SOL    HW116382   2.221   5.105   8.904
 5336SOL    HW216383   2.150   4.960   8.925
 5337SOL     OW16384   3.476   5.016   8.737
 5337SOL    HW116385   3.536   5.019   8.817
 5337SOL    HW216386   3.401   5.080   8.750
 5338SOL     OW16387   2.901   4.822   8.144
 5338SOL    HW116388   2.831   4.775   8.198
 5338SOL    HW216389   2.960   4.754   8.101
 5339SOL     OW16390   2.876   3.960   8.419
 5339SOL    HW116391   2.868   3.924   8.326
 5339SOL    HW216392   2.874   3.884   8.484
 5340SOL     OW16393   3.571   4.109   8.829
 5340SOL    HW116394   3.644   4.178   8.833
 5340SOL    HW216395   3.599   4.034   8.770
 5341SOL     OW16396   1.937   4.069   7.481
 5341SOL    HW116397   1.845   4.041   7.452
 5341SOL    HW216398   1.968   4.146   7.425
 5342SOL     OW16399   3.302   4.580   8.846
 5342SOL    HW116400   3.245   4.632   8.783
 5342SOL    HW216401   3.398   4.592   8.822
 5343SOL     OW16402   1.934   3.890   7.766
 5343SOL    HW116403   1.917   3.973   7.712
 5343SOL    HW216404   2.024   3.853   7.744
 5344SOL     OW16405   2.475   4.566   8.879
 5344SOL    HW116406   2.531   4.647   8.862
 5344SOL    HW216407   2.534   4.486   8.882
 5345SOL     OW16408   3.536   4.607   8.702
 5345SOL    HW116409   3.509   4.518   8.665
 5345SOL    HW216410   3.537   4.675   8.629
 5346SOL     OW16411   3.087   4.049   7.897
 5346SOL    HW116412   3.152   3.975   7.886
 5346SOL    HW216413   3.107   4.099   7.981
 5347SOL     OW16414   2.456   4.469   8.100
 5347SOL    HW116415   2.506   4.554   8.081
 5347SOL    HW216416   2.368   4.471   8.052
 5348SOL     OW16417   3.639   4.066   9.090
 5348SOL    HW116418   3.622   4.097   8.996
 5348SOL    HW216419   3.555   4.029   9.128
 5349SOL     OW16420   3.592   4.658   8.965
 5349SOL    HW116421   3.630   4.749   8.980
 5349SOL    HW216422   3.584   4.641   8.866
 5350SOL     OW16423   2.721   4.680   8.309
 5350SOL    HW116424   2.775   4.611   8.357
 5350SOL    HW216425   2.689   4.749   8.375
 5351SOL     OW16426   2.945   4.708   7.535
 5351SOL    HW116427   2.922   4.761   7.453
 5351SOL    HW216428   3.026   4.652   7.516
 5352SOL     OW16429   1.941   4.964   8.101
 5352SOL    HW116430   1.940   4.917   8.189
 5352SOL    HW216431   2.023   4.936   8.050
 5353SOL     OW16432   3.686   3.916   8.675
 5353SOL    HW116433   3.682   3.826   8.719
 5353SOL    HW216434   3.689   3.905   8.576
 5354SOL     OW16435   2.290   4.148   7.968
 5354SOL    HW116436   2.320   4.076   7.906
 5354SOL    HW216437   2.251   4.108   8.051
 5355SOL     OW16438   2.179   4.271   8.728
 5355SOL    HW116439   2.217   4.212   8.800
 5355SOL    HW216440   2.219   4.245   8.640
 5356SOL     OW16441   3.286   3.938   8.560
 5356SOL    HW116442   3.338   3.873   8.615
 5356SOL    HW216443   3.237   4.001   8.621
 5357SOL     OW16444   2.863   3.758   8.602
 5357SOL    HW116445   2.800   3.686   8.571
 5357SOL    HW216446   2.956   3.722   8.602
 5358SOL     OW16447   2.632   5.054   7.749
 5358SOL    HW116448   2.586   4.967   7.766
 5358SOL    HW216449   2.723   5.051   7.790
 5359SOL     OW16450   3.214   3.776   7.616
 5359SOL    HW116451   3.249   3.735   7.532
 5359SOL    HW216452   3.124   3.738   7.636
 5360SOL     OW16453   3.162   4.177   8.139
 5360SOL    HW116454   3.103   4.257   8.143
 5360SOL    HW216455   3.177   4.142   8.232
 5361SOL     OW16456   3.455   3.945   8.330
 5361SOL    HW116457   3.371   3.944   8.384
 5361SOL    HW216458   3.457   4.028   8.274
 5362SOL     OW16459   1.901   4.801   7.748
 5362SOL    HW116460   2.000   4.790   7.739
 5362SOL    HW216461   1.861   4.715   7.780
 5363SOL     OW16462   3.954   0.628   0.113
 5363SOL    HW116463   3.861   0.626   0.150
 5363SOL    HW216464   3.955   0.589   0.021
 5364SOL     OW16465   3.949   0.275   0.996
 5364SOL    HW116466   3.984   0.258   1.088
 5364SOL    HW216467   3.861   0.230   0.984
 5365SOL     OW16468   3.743   0.368   0.647
 5365SOL    HW116469   3.661   0.411   0.686
 5365SOL    HW216470   3.715   0.295   0.584
 5366SOL     OW16471   4.293   1.275   1.165
 5366SOL    HW116472   4.200   1.268   1.128
 5366SOL    HW216473   4.304   1.364   1.209
 5367SOL     OW16474   4.859   0.703   0.717
 5367SOL    HW116475   4.916   0.781   0.692
 5367SOL    HW216476   4.799   0.729   0.793
 5368SOL     OW16477   4.492   1.144   1.023
 5368SOL    HW116478   4.414   1.161   1.083
 5368SOL    HW216479   4.526   1.231   0.987
 5369SOL     OW16480   4.574   0.798   1.823
 5369SOL    HW116481   4.570   0.874   1.888
 5369SOL    HW216482   4.596   0.834   1.732
 5370SOL     OW16483   4.409   1.012   0.665
 5370SOL    HW116484   4.478   0.996   0.735
 5370SOL    HW216485   4.336   1.069   0.703
 5371SOL     OW16486   4.410   1.161   1.803
 5371SOL    HW116487   4.470   1.240   1.817
 5371SOL    HW216488   4.324   1.192   1.762
 5372SOL     OW16489   4.059   1.435   1.061
 5372SOL    HW116490   3.981   1.404   1.008
 5372SOL    HW216491   4.117   1.493   1.004
 5373SOL     OW16492   4.162   0.392   1.499
 5373SOL    HW116493   4.244   0.336   1.508
 5373SOL    HW216494   4.081   0.334   1.503
 5374SOL     OW16495   3.955   1.713   0.483
 5374SOL    HW116496   3.989   1.790   0.537
 5374SOL    HW216497   3.999   1.713   0.393
 5375SOL     OW16498   4.851   1.341   1.690
 5375SOL    HW116499   4.898   1.341   1.778
 5375SOL    HW216500   4.803   1.254   1.679
 5376SOL     OW16501   3.954   1.434   0.538
 5376SOL    HW116502   3.928   1.530   0.538
 5376SOL    HW216503   3.883   1.380   0.583
 5377SOL     OW16504   3.964   1.091   0.886
 5377SOL    HW116505   3.978   1.007   0.938
 5377SOL    HW216506   3.909   1.155   0.941
 5378SOL     OW16507   4.344   1.786   1.439
 5378SOL    HW116508   4.252   1.769   1.474
 5378SOL    HW216509   4.372   1.878   1.465
 5379SOL     OW16510   4.330   0.964   0.123
 5379SOL    HW116511   4.337   1.048   0.069
 5379SOL    HW216512   4.376   0.977   0.211
 5380SOL     OW16513   3.846   0.643   0.563
 5380SOL    HW116514   3.801   0.555   0.580
 5380SOL    HW216515   3.845   0.697   0.647
 5381SOL     OW16516   3.751   1.596   0.117
 5381SOL    HW116517   3.732   1.500   0.138
 5381SOL    HW216518   3.718   1.654   0.192
 5382SOL     OW16519   3.837   0.737   1.597
 5382SOL    HW116520   3.925   0.724   1.642
 5382SOL    HW216521   3.824   0.834   1.575
 5383SOL     OW16522   4.337   1.365   0.726
 5383SOL    HW116523   4.288   1.278   0.735
 5383SOL    HW216524   4.314   1.408   0.639
 5384SOL     OW16525   4.533   0.004   0.502
 5384SOL    HW116526   4.573   0.095   0.493
 5384SOL    HW216527   4.433   0.012   0.508
 5385SOL     OW16528   3.921   0.976   1.264
 5385SOL    HW116529   4.010   0.931   1.250
 5385SOL    HW216530   3.848   0.911   1.245
 5386SOL     OW16531   4.041   0.251   1.801
 5386SOL    HW116532   4.112   0.322   1.807
 5386SOL    HW216533   3.953   0.290   1.829
 5387SOL     OW16534   4.322   0.729   0.270
 5387SOL    HW116535   4.346   0.798   0.202
 5387SOL    HW216536   4.244   0.762   0.324
 5388SOL     OW16537   4.531   0.605   1.465
 5388SOL    HW116538   4.484   0.602   1.554
 5388SOL    HW216539   4.480   0.550   1.399
 5389SOL     OW16540   4.697   0.890   1.572
 5389SOL    HW116541   4.743   0.806   1.543
 5389SOL    HW216542   4.641   0.924   1.497
 5390SOL     OW16543   4.715   0.410   1.242
 5390SOL    HW116544   4.638   0.444   1.296
 5390SOL    HW216545   4.681   0.359   1.163
 5391SOL     OW16546   4.765   0.701   0.429
 5391SOL    HW116547   4.791   0.697   0.525
 5391SOL    HW216548   4.680   0.650   0.415
 5392SOL     OW16549   3.800   0.811   0.789
 5392SOL    HW116550   3.899   0.799   0.798
 5392SOL    HW216551   3.776   0.906   0.810
 5393SOL     OW16552   3.854   1.821   1.571
 5393SOL    HW116553   3.844   1.806   1.670
 5393SOL    HW216554   3.768   1.857   1.535
 5394SOL     OW16555   4.589   0.348   0.195
 5394SOL    HW116556   4.648   0.411   0.146
 5394SOL    HW216557   4.608   0.254   0.166
 5395SOL     OW16558   4.274   0.196   0.885
 5395SOL    HW116559   4.269   0.191   0.985
 5395SOL    HW216560   4.276   0.292   0.856
 5396SOL     OW16561   4.732   1.456   0.477
 5396SOL    HW116562   4.686   1.528   0.425
 5396SOL    HW216563   4.728   1.476   0.575
 5397SOL     OW16564   4.075   1.801   0.853
 5397SOL    HW116565   4.125   1.715   0.859
 5397SOL    HW216566   4.140   1.878   0.850
 5398SOL     OW16567   4.951   1.550   1.506
 5398SOL    HW116568   4.957   1.473   1.570
 5398SOL    HW216569   4.899   1.524   1.426
 5399SOL     OW16570   4.045   0.943   0.242
 5399SOL    HW116571   4.127   0.982   0.200
 5399SOL    HW216572   4.018   0.861   0.193
 5400SOL     OW16573   4.185   1.266   1.727
 5400SOL    HW116574   4.135   1.267   1.641
 5400SOL    HW216575   4.122   1.248   1.803
 5401SOL     OW16576   4.835   1.776   0.237
 5401SOL    HW116577   4.775   1.714   0.287
 5401SOL    HW216578   4.866   1.732   0.152
 5402SOL     OW16579   3.926   0.285   1.498
 5402SOL    HW116580   3.846   0.345   1.485
 5402SOL    HW216581   3.916   0.236   1.584
 5403SOL     OW16582   4.188   1.743   0.323
 5403SOL    HW116583   4.221   1.782   0.409
 5403SOL    HW216584   4.264   1.736   0.258
 5404SOL     OW16585   3.973   1.785   1.241
 5404SOL    HW116586   4.030   1.720   1.291
 5404SOL    HW216587   3.957   1.752   1.148
 5405SOL     OW16588   4.664   1.698   0.904
 5405SOL    HW116589   4.744   1.641   0.925
 5405SOL    HW216590   4.615   1.658   0.827
 5406SOL     OW16591   4.106   0.700   0.480
 5406SOL    HW116592   4.151   0.610   0.477
 5406SOL    HW216593   4.012   0.689   0.513
 5407SOL     OW16594   4.338   0.122   0.117
 5407SOL    HW116595   4.436   0.100   0.124
 5407SOL    HW216596   4.307   0.105   0.024
 5408SOL     OW16597   4.505   0.264   1.749
 5408SOL    HW116598   4.572   0.203   1.792
 5408SOL    HW216599   4.432   0.283   1.814
 5409SOL     OW16600   4.612   1.514   1.195
 5409SOL    HW116601   4.589   1.489   1.101
 5409SOL    HW216602   4.673   1.445   1.234
 5410SOL     OW16603   4.527   1.402   0.924
 5410SOL    HW116604   4.617   1.416   0.882
 5410SOL    HW216605   4.456   1.404   0.853
 5411SOL     OW16606   4.646   0.503   0.899
 5411SOL    HW116607   4.621   0.494   0.803
 5411SOL    HW216608   4.694   0.421   0.930
 5412SOL     OW16609   4.263   0.064   0.512
 5412SOL    HW116610   4.182   0.065   0.570
 5412SOL    HW216611   4.266   0.147   0.457
 5413SOL     OW16612   4.021   0.035   0.171
 5413SOL    HW116613   4.070   0.119   0.150
 5413SOL    HW216614   4.083  -0.030   0.216
 5414SOL     OW16615   4.659   0.236   0.480
 5414SOL    HW116616   4.611   0.277   0.402
 5414SOL    HW216617   4.758   0.234   0.461
 5415SOL     OW16618   4.800   0.683   1.464
 5415SOL    HW116619   4.720   0.622   1.467
 5415SOL    HW216620   4.881   0.630   1.440
 5416SOL     OW16621   4.951   1.570   0.793
 5416SOL    HW116622   4.972   1.644   0.728
 5416SOL    HW216623   5.019   1.570   0.866
 5417SOL     OW16624   4.183   1.152   0.741
 5417SOL    HW116625   4.112   1.125   0.806
 5417SOL    HW216626   4.157   1.124   0.648
 5418SOL     OW16627   4.995   1.797   0.591
 5418SOL    HW116628   5.039   1.861   0.527
 5418SOL    HW216629   4.945   1.849   0.661
 5419SOL     OW16630   4.756   0.549   0.016
 5419SOL    HW116631   4.715   0.631  -0.023
 5419SOL    HW216632   4.820   0.575   0.089
 5420SOL     OW16633   3.802   0.556   1.386
 5420SOL    HW116634   3.894   0.555   1.345
 5420SOL    HW216635   3.796   0.630   1.453
 5421SOL     OW16636   4.285   0.222   1.147
 5421SOL    HW116637   4.323   0.138   1.184
 5421SOL    HW216638   4.197   0.241   1.191
 5422SOL     OW16639   4.590   0.454   0.642
 5422SOL    HW116640   4.558   0.526   0.580
 5422SOL    HW216641   4.614   0.373   0.589
 5423SOL     OW16642   4.741   0.039   0.753
 5423SOL    HW116643   4.669   0.044   0.684
 5423SOL    HW216644   4.717  -0.030   0.822
 5424SOL     OW16645   4.212   1.385   0.174
 5424SOL    HW116646   4.125   1.370   0.221
 5424SOL    HW216647   4.195   1.411   0.079
 5425SOL     OW16648   4.251   0.256   0.328
 5425SOL    HW116649   4.278   0.197   0.253
 5425SOL    HW216650   4.251   0.351   0.297
 5426SOL     OW16651   4.788   1.347   1.340
 5426SOL    HW116652   4.708   1.324   1.395
 5426SOL    HW216653   4.871   1.321   1.389
 5427SOL     OW16654   4.835   1.195   1.100
 5427SOL    HW116655   4.795   1.239   1.181
 5427SOL    HW216656   4.794   1.232   1.017
 5428SOL     OW16657   4.639   0.089   1.402
 5428SOL    HW116658   4.664   0.069   1.307
 5428SOL    HW216659   4.711   0.145   1.444
 5429SOL     OW16660   4.704   1.116   1.719
 5429SOL    HW116661   4.605   1.122   1.729
 5429SOL    HW216662   4.727   1.036   1.663
 5430SOL     OW16663   4.429   1.050   0.368
 5430SOL    HW116664   4.415   1.057   0.467
 5430SOL    HW216665   4.513   0.999   0.350
 5431SOL     OW16666   4.134   0.813   1.251
 5431SOL    HW116667   4.220   0.825   1.301
 5431SOL    HW216668   4.092   0.726   1.278
 5432SOL     OW16669   3.788   1.564   1.331
 5432SOL    HW116670   3.742   1.646   1.297
 5432SOL    HW216671   3.886   1.583   1.340
 5433SOL     OW16672   4.091   1.100   0.501
 5433SOL    HW116673   4.084   1.183   0.445
 5433SOL    HW216674   4.095   1.020   0.441
 5434SOL     OW16675   4.290   0.537   0.865
 5434SOL    HW116676   4.302   0.603   0.791
 5434SOL    HW216677   4.336   0.571   0.948
 5435SOL     OW16678   4.976   1.348   0.388
 5435SOL    HW116679   5.026   1.425   0.428
 5435SOL    HW216680   4.881   1.350   0.420
 5436SOL     OW16681   4.078   1.510   1.329
 5436SOL    HW116682   4.057   1.466   1.242
 5436SOL    HW216683   4.175   1.536   1.332
 5437SOL     OW16684   4.126   0.751   1.598
 5437SOL    HW116685   4.194   0.806   1.551
 5437SOL    HW216686   4.166   0.663   1.625
 5438SOL     OW16687   4.737   0.105   1.770
 5438SOL    HW116688   4.743   0.190   1.718
 5438SOL    HW216689   4.769   0.029   1.713
 5439SOL     OW16690   4.228   0.050   1.740
 5439SOL    HW116691   4.186  -0.007   1.670
 5439SOL    HW216692   4.162   0.119   1.772
 5440SOL     OW16693   4.297   0.870   1.029
 5440SOL    HW116694   4.341   0.959   1.020
 5440SOL    HW216695   4.234   0.870   1.106
 5441SOL     OW16696   5.084   0.862   1.045
 5441SOL    HW116697   5.009   0.862   0.979
 5441SOL    HW216698   5.121   0.770   1.054
 5442SOL     OW16699   4.933   0.525   0.275
 5442SOL    HW116700   4.946   0.441   0.329
 5442SOL    HW216701   4.904   0.599   0.335
 5443SOL     OW16702   4.031   0.213   1.231
 5443SOL    HW116703   4.008   0.250   1.321
 5443SOL    HW216704   4.001   0.118   1.225
 5444SOL     OW16705   3.761   1.310   1.282
 5444SOL    HW116706   3.814   1.261   1.350
 5444SOL    HW216707   3.783   1.408   1.287
 5445SOL     OW16708   4.456   0.634   1.064
 5445SOL    HW116709   4.515   0.608   0.988
 5445SOL    HW216710   4.428   0.730   1.053
 5446SOL     OW16711   4.031   0.063   0.618
 5446SOL    HW116712   4.020   0.157   0.651
 5446SOL    HW216713   4.026   0.000   0.695
 5447SOL     OW16714   4.747   0.766   0.966
 5447SOL    HW116715   4.762   0.787   1.062
 5447SOL    HW216716   4.717   0.671   0.957
 5448SOL     OW16717   4.704   1.573   1.700
 5448SOL    HW116718   4.684   1.617   1.612
 5448SOL    HW216719   4.743   1.482   1.684
 5449SOL     OW16720   4.074   0.898   1.804
 5449SOL    HW116721   4.150   0.942   1.852
 5449SOL    HW216722   4.109   0.851   1.722
 5450SOL     OW16723   5.027   0.838   0.042
 5450SOL    HW116724   5.061   0.745   0.057
 5450SOL    HW216725   5.045   0.865  -0.053
 5451SOL     OW16726   4.792   1.333   0.849
 5451SOL    HW116727   4.799   1.249   0.794
 5451SOL    HW216728   4.854   1.402   0.813
 5452SOL     OW16729   4.043   0.810   0.949
 5452SOL    HW116730   4.136   0.846   0.954
 5452SOL    HW216731   4.037   0.725   1.001
 5453SOL     OW16732   4.063   0.509   1.006
 5453SOL    HW116733   4.011   0.426   0.989
 5453SOL    HW216734   4.140   0.514   0.942
 5454SOL     OW16735   4.862   0.380   1.678
 5454SOL    HW116736   4.817   0.443   1.742
 5454SOL    HW216737   4.955   0.411   1.661
 5455SOL     OW16738   4.884   0.207   1.477
 5455SOL    HW116739   4.884   0.271   1.554
 5455SOL    HW216740   4.912   0.255   1.394
 5456SOL     OW16741   3.732   1.326   0.200
 5456SOL    HW116742   3.639   1.347   0.169
 5456SOL    HW216743   3.742   1.227   0.213
 5457SOL     OW16744   3.812   1.801   0.927
 5457SOL    HW116745   3.770   1.715   0.900
 5457SOL    HW216746   3.906   1.804   0.893
 5458SOL     OW16747   4.228   1.568   0.910
 5458SOL    HW116748   4.294   1.642   0.919
 5458SOL    HW216749   4.272   1.489   0.868
 5459SOL     OW16750   4.726   0.796   1.238
 5459SOL    HW116751   4.767   0.764   1.324
 5459SOL    HW216752   4.630   0.769   1.235
 5460SOL     OW16753   3.764   0.544   1.114
 5460SOL    HW116754   3.849   0.511   1.073
 5460SOL    HW216755   3.777   0.559   1.212
 5461SOL     OW16756   3.913   0.520   1.722
 5461SOL    HW116757   3.972   0.480   1.652
 5461SOL    HW216758   3.855   0.591   1.681
 5462SOL     OW16759   4.539   0.572   0.325
 5462SOL    HW116760   4.546   0.483   0.279
 5462SOL    HW216761   4.445   0.606   0.317
 5463SOL     OW16762   3.976   1.564   1.744
 5463SOL    HW116763   3.946   1.621   1.820
 5463SOL    HW216764   3.969   1.467   1.770
 5464SOL     OW16765   4.395   0.464   1.269
 5464SOL    HW116766   4.361   0.375   1.239
 5464SOL    HW216767   4.421   0.518   1.189
 5465SOL     OW16768   4.654   1.678   1.465
 5465SOL    HW116769   4.630   1.660   1.370
 5465SOL    HW216770   4.684   1.772   1.475
 5466SOL     OW16771   4.197   0.500   0.191
 5466SOL    HW116772   4.258   0.580   0.195
 5466SOL    HW216773   4.102   0.531   0.198
 5467SOL     OW16774   3.883   1.137   1.466
 5467SOL    HW116775   3.905   1.076   1.542
 5467SOL    HW216776   3.893   1.088   1.380
 5468SOL     OW16777   4.976   1.731   1.128
 5468SOL    HW116778   5.060   1.736   1.074
 5468SOL    HW216779   4.953   1.635   1.146
 5469SOL     OW16780   3.807   1.258   1.022
 5469SOL    HW116781   3.802   1.257   1.122
 5469SOL    HW216782   3.724   1.217   0.984
 5470SOL     OW16783   4.412   1.662   1.716
 5470SOL    HW116784   4.356   1.743   1.725
 5470SOL    HW216785   4.464   1.666   1.630
 5471SOL     OW16786   4.627   0.086   0.133
 5471SOL    HW116787   4.678   0.087   0.047
 5471SOL    HW216788   4.683   0.044   0.204
 5472SOL     OW16789   3.854   1.794   1.851
 5472SOL    HW116790   3.813   1.720   1.904
 5472SOL    HW216791   3.918   1.845   1.909
 5473SOL     OW16792   4.554   1.273   1.422
 5473SOL    HW116793   4.549   1.306   1.517
 5473SOL    HW216794   4.468   1.292   1.376
 5474SOL     OW16795   4.396   1.616   0.154
 5474SOL    HW116796   4.405   1.626   0.055
 5474SOL    HW216797   4.356   1.527   0.175
 5475SOL     OW16798   3.987   0.326   0.720
 5475SOL    HW116799   3.908   0.377   0.686
 5475SOL    HW216800   3.978   0.311   0.818
 5476SOL     OW16801   4.546   1.002   1.372
 5476SOL    HW116802   4.586   1.001   1.280
 5476SOL    HW216803   4.556   1.094   1.412
 5477SOL     OW16804   4.640   0.910   0.291
 5477SOL    HW116805   4.703   0.948   0.223
 5477SOL    HW216806   4.680   0.827   0.330
 5478SOL     OW16807   4.096   1.288   1.490
 5478SOL    HW116808   4.083   1.381   1.456
 5478SOL    HW216809   4.012   1.236   1.477
 5479SOL     OW16810   4.763   1.098   0.696
 5479SOL    HW116811   4.693   1.051   0.750
 5479SOL    HW216812   4.822   1.030   0.653
 5480SOL     OW16813   4.738   0.236   0.971
 5480SOL    HW116814   4.730   0.200   0.878
 5480SOL    HW216815   4.736   0.160   1.036
 5481SOL     OW16816   4.314   1.487   0.491
 5481SOL    HW116817   4.356   1.429   0.421
 5481SOL    HW216818   4.270   1.566   0.447
 5482SOL     OW16819   3.979   1.348   0.290
 5482SOL    HW116820   3.883   1.349   0.263
 5482SOL    HW216821   3.991   1.401   0.374
 5483SOL     OW16822   3.829   1.013   1.726
 5483SOL    HW116823   3.752   0.980   1.780
 5483SOL    HW216824   3.914   0.983   1.768
 5484SOL     OW16825   4.396   0.203   1.489
 5484SOL    HW116826   4.486   0.187   1.449
 5484SOL    HW216827   4.404   0.208   1.588
 5485SOL     OW16828   3.796   0.166   0.318
 5485SOL    HW116829   3.779   0.249   0.264
 5485SOL    HW216830   3.886   0.129   0.296
 5486SOL     OW16831   4.337   0.842   1.431
 5486SOL    HW116832   4.393   0.923   1.414
 5486SOL    HW216833   4.396   0.762   1.434
 5487SOL     OW16834   4.440   0.565   1.708
 5487SOL    HW116835   4.459   0.630   1.782
 5487SOL    HW216836   4.500   0.485   1.717
 5488SOL     OW16837   4.114   1.741   1.560
 5488SOL    HW116838   4.023   1.782   1.558
 5488SOL    HW216839   4.107   1.647   1.592
 5489SOL     OW16840   4.318   0.745   0.652
 5489SOL    HW116841   4.368   0.830   0.633
 5489SOL    HW216842   4.230   0.747   0.604
 5490SOL     OW16843   4.583   1.374   0.016
 5490SOL    HW116844   4.537   1.389   0.104
 5490SOL    HW216845   4.627   1.459  -0.014
 5491SOL     OW16846   4.385   1.790   0.953
 5491SOL    HW116847   4.339   1.878   0.940
 5491SOL    HW216848   4.484   1.802   0.946
 5492SOL     OW16849   4.583   0.956   0.861
 5492SOL    HW116850   4.637   0.887   0.909
 5492SOL    HW216851   4.551   1.025   0.927
 5493SOL     OW16852   4.807   0.984   0.087
 5493SOL    HW116853   4.784   1.037   0.005
 5493SOL    HW216854   4.888   0.928   0.068
 5494SOL     OW16855   3.945   1.314   1.844
 5494SOL    HW116856   3.880   1.241   1.823
 5494SOL    HW216857   3.949   1.328   1.942
 5495SOL     OW16858   3.803   1.240   0.653
 5495SOL    HW116859   3.802   1.193   0.741
 5495SOL    HW216860   3.885   1.212   0.602
 5496SOL     OW16861   4.396   1.391   1.624
 5496SOL    HW116862   4.318   1.341   1.662
 5496SOL    HW216863   4.393   1.486   1.655
 5497SOL     OW16864   4.152   0.424   0.520
 5497SOL    HW116865   4.182   0.352   0.458
 5497SOL    HW216866   4.113   0.384   0.603
 5498SOL     OW16867   4.041   0.547   1.280
 5498SOL    HW116868   4.079   0.488   1.352
 5498SOL    HW216869   4.081   0.521   1.192
 5499SOL     OW16870   4.536   1.586   0.687
 5499SOL    HW116871   4.568   1.596   0.593
 5499SOL    HW216872   4.457   1.524   0.689
 5500SOL     OW16873   4.725   0.034   1.154
 5500SOL    HW116874   4.662  -0.038   1.123
 5500SOL    HW216875   4.818  -0.002   1.154
 5501SOL     OW16876   4.494   1.330   0.301
 5501SOL    HW116877   4.448   1.243   0.318
 5501SOL    HW216878   4.585   1.327   0.342
 5502SOL     OW16879   4.342   1.567   1.284
 5502SOL    HW116880   4.337   1.649   1.341
 5502SOL    HW216881   4.431   1.564   1.239
 5503SOL     OW16882   3.763   1.077   0.300
 5503SOL    HW116883   3.862   1.066   0.291
 5503SOL    HW216884   3.723   0.991   0.332
 5504SOL     OW16885   4.599   1.646   0.337
 5504SOL    HW116886   4.522   1.611   0.283
 5504SOL    HW216887   4.567   1.717   0.399
 5505SOL     OW16888   3.954   0.628   1.975
 5505SOL    HW116889   3.861   0.626   2.012
 5505SOL    HW216890   3.955   0.589   1.883
 5506SOL     OW16891   3.949   0.275   2.858
 5506SOL    HW116892   3.984   0.258   2.950
 5506SOL    HW216893   3.861   0.230   2.846
 5507SOL     OW16894   3.743   0.368   2.509
 5507SOL    HW116895   3.661   0.411   2.548
 5507SOL    HW216896   3.715   0.295   2.446
 5508SOL     OW16897   4.293   1.275   3.027
 5508SOL    HW116898   4.200   1.268   2.990
 5508SOL    HW216899   4.304   1.364   3.071
 5509SOL     OW16900   4.859   0.703   2.579
 5509SOL    HW116901   4.916   0.781   2.554
 5509SOL    HW216902   4.799   0.729   2.655
 5510SOL     OW16903   4.492   1.144   2.885
 5510SOL    HW116904   4.414   1.161   2.945
 5510SOL    HW216905   4.526   1.231   2.849
 5511SOL     OW16906   4.574   0.798   3.685
 5511SOL    HW116907   4.570   0.874   3.750
 5511SOL    HW216908   4.596   0.834   3.594
 5512SOL     OW16909   4.409   1.012   2.527
 5512SOL    HW116910   4.478   0.996   2.597
 5512SOL    HW216911   4.336   1.069   2.565
 5513SOL     OW16912   4.410   1.161   3.665
 5513SOL    HW116913   4.470   1.240   3.679
 5513SOL    HW216914   4.324   1.192   3.624
 5514SOL     OW16915   4.059   1.435   2.923
 5514SOL    HW116916   3.981   1.404   2.870
 5514SOL    HW216917   4.117   1.493   2.866
 5515SOL     OW16918   4.162   0.392   3.361
 5515SOL    HW116919   4.244   0.336   3.370
 5515SOL    HW216920   4.081   0.334   3.365
 5516SOL     OW16921   3.955   1.713   2.345
 5516SOL    HW116922   3.989   1.790   2.399
 5516SOL    HW216923   3.999   1.713   2.255
 5517SOL     OW16924   4.851   1.341   3.552
 5517SOL    HW116925   4.898   1.341   3.640
 5517SOL    HW216926   4.803   1.254   3.541
 5518SOL     OW16927   3.954   1.434   2.400
 5518SOL    HW116928   3.928   1.530   2.400
 5518SOL    HW216929   3.883   1.380   2.445
 5519SOL     OW16930   3.964   1.091   2.748
 5519SOL    HW116931   3.978   1.007   2.800
 5519SOL    HW216932   3.909   1.155   2.803
 5520SOL     OW16933   4.344   1.786   3.301
 5520SOL    HW116934   4.252   1.769   3.336
 5520SOL    HW216935   4.372   1.878   3.327
 5521SOL     OW16936   4.330   0.964   1.985
 5521SOL    HW116937   4.337   1.048   1.931
 5521SOL    HW216938   4.376   0.977   2.073
 5522SOL     OW16939   3.846   0.643   2.425
 5522SOL    HW116940   3.801   0.555   2.442
 5522SOL    HW216941   3.845   0.697   2.509
 5523SOL     OW16942   3.751   1.596   1.979
 5523SOL    HW116943   3.732   1.500   2.000
 5523SOL    HW216944   3.718   1.654   2.054
 5524SOL     OW16945   3.837   0.737   3.459
 5524SOL    HW116946   3.925   0.724   3.504
 5524SOL    HW216947   3.824   0.834   3.437
 5525SOL     OW16948   4.337   1.365   2.588
 5525SOL    HW116949   4.288   1.278   2.597
 5525SOL    HW216950   4.314   1.408   2.501
 5526SOL     OW16951   4.533   0.004   2.364
 5526SOL    HW116952   4.573   0.095   2.355
 5526SOL    HW216953   4.433   0.012   2.370
 5527SOL     OW16954   3.921   0.976   3.126
 5527SOL    HW116955   4.010   0.931   3.112
 5527SOL    HW216956   3.848   0.911   3.107
 5528SOL     OW16957   4.041   0.251   3.663
 5528SOL    HW116958   4.112   0.322   3.669
 5528SOL    HW216959   3.953   0.290   3.691
 5529SOL     OW16960   4.322   0.729   2.132
 5529SOL    HW116961   4.346   0.798   2.064
 5529SOL    HW216962   4.244   0.762   2.186
 5530SOL     OW16963   4.531   0.605   3.327
 5530SOL    HW116964   4.484   0.602   3.416
 5530SOL    HW216965   4.480   0.550   3.261
 5531SOL     OW16966   4.697   0.890   3.434
 5531SOL    HW116967   4.743   0.806   3.405
 5531SOL    HW216968   4.641   0.924   3.359
 5532SOL     OW16969   4.715   0.410   3.104
 5532SOL    HW116970   4.638   0.444   3.158
 5532SOL    HW216971   4.681   0.359   3.025
 5533SOL     OW16972   4.765   0.701   2.291
 5533SOL    HW116973   4.791   0.697   2.387
 5533SOL    HW216974   4.680   0.650   2.277
 5534SOL     OW16975   3.800   0.811   2.651
 5534SOL    HW116976   3.899   0.799   2.660
 5534SOL    HW216977   3.776   0.906   2.672
 5535SOL     OW16978   3.854   1.821   3.433
 5535SOL    HW116979   3.844   1.806   3.532
 5535SOL    HW216980   3.768   1.857   3.397
 5536SOL     OW16981   4.589   0.348   2.057
 5536SOL    HW116982   4.648   0.411   2.008
 5536SOL    HW216983   4.608   0.254   2.028
 5537SOL     OW16984   4.274   0.196   2.747
 5537SOL    HW116985   4.269   0.191   2.847
 5537SOL    HW216986   4.276   0.292   2.718
 5538SOL     OW16987   4.732   1.456   2.339
 5538SOL    HW116988   4.686   1.528   2.287
 5538SOL    HW216989   4.728   1.476   2.437
 5539SOL     OW16990   4.075   1.801   2.715
 5539SOL    HW116991   4.125   1.715   2.721
 5539SOL    HW216992   4.140   1.878   2.712
 5540SOL     OW16993   4.951   1.550   3.368
 5540SOL    HW116994   4.957   1.473   3.432
 5540SOL    HW216995   4.899   1.524   3.288
 5541SOL     OW16996   4.045   0.943   2.104
 5541SOL    HW116997   4.127   0.982   2.062
 5541SOL    HW216998   4.018   0.861   2.055
 5542SOL     OW16999   4.185   1.266   3.589
 5542SOL    HW117000   4.135   1.267   3.503
 5542SOL    HW217001   4.122   1.248   3.665
 5543SOL     OW17002   4.835   1.776   2.099
 5543SOL    HW117003   4.775   1.714   2.149
 5543SOL    HW217004   4.866   1.732   2.014
 5544SOL     OW17005   3.926   0.285   3.360
 5544SOL    HW117006   3.846   0.345   3.347
 5544SOL    HW217007   3.916   0.236   3.446
 5545SOL     OW17008   4.188   1.743   2.185
 5545SOL    HW117009   4.221   1.782   2.271
 5545SOL    HW217010   4.264   1.736   2.120
 5546SOL     OW17011   3.973   1.785   3.103
 5546SOL    HW117012   4.030   1.720   3.153
 5546SOL    HW217013   3.957   1.752   3.010
 5547SOL     OW17014   4.664   1.698   2.766
 5547SOL    HW117015   4.744   1.641   2.787
 5547SOL    HW217016   4.615   1.658   2.689
 5548SOL     OW17017   4.106   0.700   2.342
 5548SOL    HW117018   4.151   0.610   2.339
 5548SOL    HW217019   4.012   0.689   2.375
 5549SOL     OW17020   4.338   0.122   1.979
 5549SOL    HW117021   4.436   0.100   1.986
 5549SOL    HW217022   4.307   0.105   1.886
 5550SOL     OW17023   4.505   0.264   3.611
 5550SOL    HW117024   4.572   0.203   3.654
 5550SOL    HW217025   4.432   0.283   3.676
 5551SOL     OW17026   4.612   1.514   3.057
 5551SOL    HW117027   4.589   1.489   2.963
 5551SOL    HW217028   4.673   1.445   3.096
 5552SOL     OW17029   4.527   1.402   2.786
 5552SOL    HW117030   4.617   1.416   2.744
 5552SOL    HW217031   4.456   1.404   2.715
 5553SOL     OW17032   4.646   0.503   2.761
 5553SOL    HW117033   4.621   0.494   2.665
 5553SOL    HW217034   4.694   0.421   2.792
 5554SOL     OW17035   4.263   0.064   2.374
 5554SOL    HW117036   4.182   0.065   2.432
 5554SOL    HW217037   4.266   0.147   2.319
 5555SOL     OW17038   4.021   0.035   2.033
 5555SOL    HW117039   4.070   0.119   2.012
 5555SOL    HW217040   4.083  -0.030   2.078
 5556SOL     OW17041   4.659   0.236   2.342
 5556SOL    HW117042   4.611   0.277   2.264
 5556SOL    HW217043   4.758   0.234   2.323
 5557SOL     OW17044   4.800   0.683   3.326
 5557SOL    HW117045   4.720   0.622   3.329
 5557SOL    HW217046   4.881   0.630   3.302
 5558SOL     OW17047   4.951   1.570   2.655
 5558SOL    HW117048   4.972   1.644   2.590
 5558SOL    HW217049   5.019   1.570   2.728
 5559SOL     OW17050   4.183   1.152   2.603
 5559SOL    HW117051   4.112   1.125   2.668
 5559SOL    HW217052   4.157   1.124   2.510
 5560SOL     OW17053   4.995   1.797   2.453
 5560SOL    HW117054   5.039   1.861   2.389
 5560SOL    HW217055   4.945   1.849   2.523
 5561SOL     OW17056   4.756   0.549   1.878
 5561SOL    HW117057   4.715   0.631   1.839
 5561SOL    HW217058   4.820   0.575   1.951
 5562SOL     OW17059   3.802   0.556   3.248
 5562SOL    HW117060   3.894   0.555   3.207
 5562SOL    HW217061   3.796   0.630   3.315
 5563SOL     OW17062   4.285   0.222   3.009
 5563SOL    HW117063   4.323   0.138   3.046
 5563SOL    HW217064   4.197   0.241   3.053
 5564SOL     OW17065   4.590   0.454   2.504
 5564SOL    HW117066   4.558   0.526   2.442
 5564SOL    HW217067   4.614   0.373   2.451
 5565SOL     OW17068   4.741   0.039   2.615
 5565SOL    HW117069   4.669   0.044   2.546
 5565SOL    HW217070   4.717  -0.030   2.684
 5566SOL     OW17071   4.212   1.385   2.036
 5566SOL    HW117072   4.125   1.370   2.083
 5566SOL    HW217073   4.195   1.411   1.941
 5567SOL     OW17074   4.251   0.256   2.190
 5567SOL    HW117075   4.278   0.197   2.115
 5567SOL    HW217076   4.251   0.351   2.159
 5568SOL     OW17077   4.788   1.347   3.202
 5568SOL    HW117078   4.708   1.324   3.257
 5568SOL    HW217079   4.871   1.321   3.251
 5569SOL     OW17080   4.835   1.195   2.962
 5569SOL    HW117081   4.795   1.239   3.043
 5569SOL    HW217082   4.794   1.232   2.879
 5570SOL     OW17083   4.639   0.089   3.264
 5570SOL    HW117084   4.664   0.069   3.169
 5570SOL    HW217085   4.711   0.145   3.306
 5571SOL     OW17086   4.704   1.116   3.581
 5571SOL    HW117087   4.605   1.122   3.591
 5571SOL    HW217088   4.727   1.036   3.525
 5572SOL     OW17089   4.429   1.050   2.230
 5572SOL    HW117090   4.415   1.057   2.329
 5572SOL    HW217091   4.513   0.999   2.212
 5573SOL     OW17092   4.134   0.813   3.113
 5573SOL    HW117093   4.220   0.825   3.163
 5573SOL    HW217094   4.092   0.726   3.140
 5574SOL     OW17095   3.788   1.564   3.193
 5574SOL    HW117096   3.742   1.646   3.159
 5574SOL    HW217097   3.886   1.583   3.202
 5575SOL     OW17098   4.091   1.100   2.363
 5575SOL    HW117099   4.084   1.183   2.307
 5575SOL    HW217100   4.095   1.020   2.303
 5576SOL     OW17101   4.290   0.537   2.727
 5576SOL    HW117102   4.302   0.603   2.653
 5576SOL    HW217103   4.336   0.571   2.810
 5577SOL     OW17104   4.976   1.348   2.250
 5577SOL    HW117105   5.026   1.425   2.290
 5577SOL    HW217106   4.881   1.350   2.282
 5578SOL     OW17107   4.078   1.510   3.191
 5578SOL    HW117108   4.057   1.466   3.104
 5578SOL    HW217109   4.175   1.536   3.194
 5579SOL     OW17110   4.126   0.751   3.460
 5579SOL    HW117111   4.194   0.806   3.413
 5579SOL    HW217112   4.166   0.663   3.487
 5580SOL     OW17113   4.737   0.105   3.632
 5580SOL    HW117114   4.743   0.190   3.580
 5580SOL    HW217115   4.769   0.029   3.575
 5581SOL     OW17116   4.228   0.050   3.602
 5581SOL    HW117117   4.186  -0.007   3.532
 5581SOL    HW217118   4.162   0.119   3.634
 5582SOL     OW17119   4.297   0.870   2.891
 5582SOL    HW117120   4.341   0.959   2.882
 5582SOL    HW217121   4.234   0.870   2.968
 5583SOL     OW17122   5.084   0.862   2.907
 5583SOL    HW117123   5.009   0.862   2.841
 5583SOL    HW217124   5.121   0.770   2.916
 5584SOL     OW17125   4.933   0.525   2.137
 5584SOL    HW117126   4.946   0.441   2.191
 5584SOL    HW217127   4.904   0.599   2.197
 5585SOL     OW17128   4.031   0.213   3.093
 5585SOL    HW117129   4.008   0.250   3.183
 5585SOL    HW217130   4.001   0.118   3.087
 5586SOL     OW17131   3.761   1.310   3.144
 5586SOL    HW117132   3.814   1.261   3.212
 5586SOL    HW217133   3.783   1.408   3.149
 5587SOL     OW17134   4.456   0.634   2.926
 5587SOL    HW117135   4.515   0.608   2.850
 5587SOL    HW217136   4.428   0.730   2.915
 5588SOL     OW17137   4.031   0.063   2.480
 5588SOL    HW117138   4.020   0.157   2.513
 5588SOL    HW217139   4.026   0.000   2.557
 5589SOL     OW17140   4.747   0.766   2.828
 5589SOL    HW117141   4.762   0.787   2.924
 5589SOL    HW217142   4.717   0.671   2.819
 5590SOL     OW17143   4.704   1.573   3.562
 5590SOL    HW117144   4.684   1.617   3.474
 5590SOL    HW217145   4.743   1.482   3.546
 5591SOL     OW17146   4.074   0.898   3.666
 5591SOL    HW117147   4.150   0.942   3.714
 5591SOL    HW217148   4.109   0.851   3.584
 5592SOL     OW17149   5.264   0.274   1.987
 5592SOL    HW117150   5.203   0.199   2.010
 5592SOL    HW217151   5.286   0.326   2.070
 5593SOL     OW17152   4.792   1.333   2.711
 5593SOL    HW117153   4.799   1.249   2.656
 5593SOL    HW217154   4.854   1.402   2.675
 5594SOL     OW17155   4.043   0.810   2.811
 5594SOL    HW117156   4.136   0.846   2.816
 5594SOL    HW217157   4.037   0.725   2.863
 5595SOL     OW17158   4.063   0.509   2.868
 5595SOL    HW117159   4.011   0.426   2.851
 5595SOL    HW217160   4.140   0.514   2.804
 5596SOL     OW17161   4.862   0.380   3.540
 5596SOL    HW117162   4.817   0.443   3.604
 5596SOL    HW217163   4.955   0.411   3.523
 5597SOL     OW17164   4.884   0.207   3.339
 5597SOL    HW117165   4.884   0.271   3.416
 5597SOL    HW217166   4.912   0.255   3.256
 5598SOL     OW17167   3.732   1.326   2.062
 5598SOL    HW117168   3.639   1.347   2.031
 5598SOL    HW217169   3.742   1.227   2.075
 5599SOL     OW17170   3.812   1.801   2.789
 5599SOL    HW117171   3.770   1.715   2.762
 5599SOL    HW217172   3.906   1.804   2.755
 5600SOL     OW17173   4.228   1.568   2.772
 5600SOL    HW117174   4.294   1.642   2.781
 5600SOL    HW217175   4.272   1.489   2.730
 5601SOL     OW17176   4.726   0.796   3.100
 5601SOL    HW117177   4.767   0.764   3.186
 5601SOL    HW217178   4.630   0.769   3.097
 5602SOL     OW17179   3.764   0.544   2.976
 5602SOL    HW117180   3.849   0.511   2.935
 5602SOL    HW217181   3.777   0.559   3.074
 5603SOL     OW17182   3.913   0.520   3.584
 5603SOL    HW117183   3.972   0.480   3.514
 5603SOL    HW217184   3.855   0.591   3.543
 5604SOL     OW17185   4.539   0.572   2.187
 5604SOL    HW117186   4.546   0.483   2.141
 5604SOL    HW217187   4.445   0.606   2.179
 5605SOL     OW17188   3.976   1.564   3.606
 5605SOL    HW117189   3.946   1.621   3.682
 5605SOL    HW217190   3.969   1.467   3.632
 5606SOL     OW17191   4.395   0.464   3.131
 5606SOL    HW117192   4.361   0.375   3.101
 5606SOL    HW217193   4.421   0.518   3.051
 5607SOL     OW17194   4.654   1.678   3.327
 5607SOL    HW117195   4.630   1.660   3.232
 5607SOL    HW217196   4.684   1.772   3.337
 5608SOL     OW17197   4.197   0.500   2.053
 5608SOL    HW117198   4.258   0.580   2.057
 5608SOL    HW217199   4.102   0.531   2.060
 5609SOL     OW17200   3.883   1.137   3.328
 5609SOL    HW117201   3.905   1.076   3.404
 5609SOL    HW217202   3.893   1.088   3.242
 5610SOL     OW17203   4.976   1.731   2.990
 5610SOL    HW117204   5.060   1.736   2.936
 5610SOL    HW217205   4.953   1.635   3.008
 5611SOL     OW17206   3.807   1.258   2.884
 5611SOL    HW117207   3.802   1.257   2.984
 5611SOL    HW217208   3.724   1.217   2.846
 5612SOL     OW17209   4.412   1.662   3.578
 5612SOL    HW117210   4.356   1.743   3.587
 5612SOL    HW217211   4.464   1.666   3.492
 5613SOL     OW17212   3.854   1.794   3.713
 5613SOL    HW117213   3.813   1.720   3.766
 5613SOL    HW217214   3.918   1.845   3.771
 5614SOL     OW17215   4.554   1.273   3.284
 5614SOL    HW117216   4.549   1.306   3.379
 5614SOL    HW217217   4.468   1.292   3.238
 5615SOL     OW17218   4.396   1.616   2.016
 5615SOL    HW117219   4.405   1.626   1.917
 5615SOL    HW217220   4.356   1.527   2.037
 5616SOL     OW17221   3.987   0.326   2.582
 5616SOL    HW117222   3.908   0.377   2.548
 5616SOL    HW217223   3.978   0.311   2.680
 5617SOL     OW17224   4.546   1.002   3.234
 5617SOL    HW117225   4.586   1.001   3.142
 5617SOL    HW217226   4.556   1.094   3.274
 5618SOL     OW17227   4.640   0.910   2.153
 5618SOL    HW117228   4.703   0.948   2.085
 5618SOL    HW217229   4.680   0.827   2.192
 5619SOL     OW17230   4.096   1.288   3.352
 5619SOL    HW117231   4.083   1.381   3.318
 5619SOL    HW217232   4.012   1.236   3.339
 5620SOL     OW17233   4.763   1.098   2.558
 5620SOL    HW117234   4.693   1.051   2.612
 5620SOL    HW217235   4.822   1.030   2.515
 5621SOL     OW17236   4.738   0.236   2.833
 5621SOL    HW117237   4.730   0.200   2.740
 5621SOL    HW217238   4.736   0.160   2.898
 5622SOL     OW17239   4.314   1.487   2.353
 5622SOL    HW117240   4.356   1.429   2.283
 5622SOL    HW217241   4.270   1.566   2.309
 5623SOL     OW17242   3.979   1.348   2.152
 5623SOL    HW117243   3.883   1.349   2.125
 5623SOL    HW217244   3.991   1.401   2.236
 5624SOL     OW17245   3.829   1.013   3.588
 5624SOL    HW117246   3.752   0.980   3.642
 5624SOL    HW217247   3.914   0.983   3.630
 5625SOL     OW17248   4.396   0.203   3.351
 5625SOL    HW117249   4.486   0.187   3.311
 5625SOL    HW217250   4.404   0.208   3.450
 5626SOL     OW17251   3.799   0.345   1.895
 5626SOL    HW117252   3.707   0.317   1.866
 5626SOL    HW217253   3.830   0.422   1.839
 5627SOL     OW17254   3.796   0.166   2.180
 5627SOL    HW117255   3.779   0.249   2.126
 5627SOL    HW217256   3.886   0.129   2.158
 5628SOL     OW17257   4.337   0.842   3.293
 5628SOL    HW117258   4.393   0.923   3.276
 5628SOL    HW217259   4.396   0.762   3.296
 5629SOL     OW17260   4.440   0.565   3.570
 5629SOL    HW117261   4.459   0.630   3.644
 5629SOL    HW217262   4.500   0.485   3.579
 5630SOL     OW17263   4.114   1.741   3.422
 5630SOL    HW117264   4.023   1.782   3.420
 5630SOL    HW217265   4.107   1.647   3.454
 5631SOL     OW17266   4.318   0.745   2.514
 5631SOL    HW117267   4.368   0.830   2.495
 5631SOL    HW217268   4.230   0.747   2.466
 5632SOL     OW17269   4.583   1.374   1.878
 5632SOL    HW117270   4.537   1.389   1.966
 5632SOL    HW217271   4.627   1.459   1.848
 5633SOL     OW17272   4.385   1.790   2.815
 5633SOL    HW117273   4.339   1.878   2.802
 5633SOL    HW217274   4.484   1.802   2.808
 5634SOL     OW17275   4.583   0.956   2.723
 5634SOL    HW117276   4.637   0.887   2.771
 5634SOL    HW217277   4.551   1.025   2.789
 5635SOL     OW17278   4.807   0.984   1.949
 5635SOL    HW117279   4.784   1.037   1.867
 5635SOL    HW217280   4.888   0.928   1.930
 5636SOL     OW17281   3.945   1.314   3.706
 5636SOL    HW117282   3.880   1.241   3.685
 5636SOL    HW217283   3.949   1.328   3.804
 5637SOL     OW17284   3.803   1.240   2.515
 5637SOL    HW117285   3.802   1.193   2.603
 5637SOL    HW217286   3.885   1.212   2.464
 5638SOL     OW17287   4.396   1.391   3.486
 5638SOL    HW117288   4.318   1.341   3.524
 5638SOL    HW217289   4.393   1.486   3.517
 5639SOL     OW17290   4.152   0.424   2.382
 5639SOL    HW117291   4.182   0.352   2.320
 5639SOL    HW217292   4.113   0.384   2.465
 5640SOL     OW17293   4.041   0.547   3.142
 5640SOL    HW117294   4.079   0.488   3.214
 5640SOL    HW217295   4.081   0.521   3.054
 5641SOL     OW17296   4.536   1.586   2.549
 5641SOL    HW117297   4.568   1.596   2.455
 5641SOL    HW217298   4.457   1.524   2.551
 5642SOL     OW17299   4.725   0.034   3.016
 5642SOL    HW117300   4.662  -0.038   2.985
 5642SOL    HW217301   4.818  -0.002   3.016
 5643SOL     OW17302   4.494   1.330   2.163
 5643SOL    HW117303   4.448   1.243   2.180
 5643SOL    HW217304   4.585   1.327   2.204
 5644SOL     OW17305   4.342   1.567   3.146
 5644SOL    HW117306   4.337   1.649   3.203
 5644SOL    HW217307   4.431   1.564   3.101
 5645SOL     OW17308   3.763   1.077   2.162
 5645SOL    HW117309   3.862   1.066   2.153
 5645SOL    HW217310   3.723   0.991   2.194
 5646SOL     OW17311   4.599   1.646   2.199
 5646SOL    HW117312   4.522   1.611   2.145
 5646SOL    HW217313   4.567   1.717   2.261
 5647SOL     OW17314   3.954   0.628   3.837
 5647SOL    HW117315   3.861   0.626   3.874
 5647SOL    HW217316   3.955   0.589   3.745
 5648SOL     OW17317   3.949   0.275   4.720
 5648SOL    HW117318   3.984   0.258   4.812
 5648SOL    HW217319   3.861   0.230   4.708
 5649SOL     OW17320   3.743   0.368   4.371
 5649SOL    HW117321   3.661   0.411   4.410
 5649SOL    HW217322   3.715   0.295   4.308
 5650SOL     OW17323   4.293   1.275   4.889
 5650SOL    HW117324   4.200   1.268   4.852
 5650SOL    HW217325   4.304   1.364   4.933
 5651SOL     OW17326   4.859   0.703   4.441
 5651SOL    HW117327   4.916   0.781   4.416
 5651SOL    HW217328   4.799   0.729   4.517
 5652SOL     OW17329   4.492   1.144   4.747
 5652SOL    HW117330   4.414   1.161   4.807
 5652SOL    HW217331   4.526   1.231   4.711
 5653SOL     OW17332   4.574   0.798   5.547
 5653SOL    HW117333   4.570   0.874   5.612
 5653SOL    HW217334   4.596   0.834   5.456
 5654SOL     OW17335   4.409   1.012   4.389
 5654SOL    HW117336   4.478   0.996   4.459
 5654SOL    HW217337   4.336   1.069   4.427
 5655SOL     OW17338   4.410   1.161   5.527
 5655SOL    HW117339   4.470   1.240   5.541
 5655SOL    HW217340   4.324   1.192   5.486
 5656SOL     OW17341   4.059   1.435   4.785
 5656SOL    HW117342   3.981   1.404   4.732
 5656SOL    HW217343   4.117   1.493   4.728
 5657SOL     OW17344   4.162   0.392   5.223
 5657SOL    HW117345   4.244   0.336   5.232
 5657SOL    HW217346   4.081   0.334   5.227
 5658SOL     OW17347   3.955   1.713   4.207
 5658SOL    HW117348   3.989   1.790   4.261
 5658SOL    HW217349   3.999   1.713   4.117
 5659SOL     OW17350   4.851   1.341   5.414
 5659SOL    HW117351   4.898   1.341   5.502
 5659SOL    HW217352   4.803   1.254   5.403
 5660SOL     OW17353   3.954   1.434   4.262
 5660SOL    HW117354   3.928   1.530   4.262
 5660SOL    HW217355   3.883   1.380   4.307
 5661SOL     OW17356   3.964   1.091   4.610
 5661SOL    HW117357   3.978   1.007   4.662
 5661SOL    HW217358   3.909   1.155   4.665
 5662SOL     OW17359   4.344   1.786   5.163
 5662SOL    HW117360   4.252   1.769   5.198
 5662SOL    HW217361   4.372   1.878   5.189
 5663SOL     OW17362   4.330   0.964   3.847
 5663SOL    HW117363   4.337   1.048   3.793
 5663SOL    HW217364   4.376   0.977   3.935
 5664SOL     OW17365   3.846   0.643   4.287
 5664SOL    HW117366   3.801   0.555   4.304
 5664SOL    HW217367   3.845   0.697   4.371
 5665SOL     OW17368   3.751   1.596   3.841
 5665SOL    HW117369   3.732   1.500   3.862
 5665SOL    HW217370   3.718   1.654   3.916
 5666SOL     OW17371   3.837   0.737   5.321
 5666SOL    HW117372   3.925   0.724   5.366
 5666SOL    HW217373   3.824   0.834   5.299
 5667SOL     OW17374   4.337   1.365   4.450
 5667SOL    HW117375   4.288   1.278   4.459
 5667SOL    HW217376   4.314   1.408   4.363
 5668SOL     OW17377   4.533   0.004   4.226
 5668SOL    HW117378   4.573   0.095   4.217
 5668SOL    HW217379   4.433   0.012   4.232
 5669SOL     OW17380   3.921   0.976   4.988
 5669SOL    HW117381   4.010   0.931   4.974
 5669SOL    HW217382   3.848   0.911   4.969
 5670SOL     OW17383   4.041   0.251   5.525
 5670SOL    HW117384   4.112   0.322   5.531
 5670SOL    HW217385   3.953   0.290   5.553
 5671SOL     OW17386   4.322   0.729   3.994
 5671SOL    HW117387   4.346   0.798   3.926
 5671SOL    HW217388   4.244   0.762   4.048
 5672SOL     OW17389   4.531   0.605   5.189
 5672SOL    HW117390   4.484   0.602   5.278
 5672SOL    HW217391   4.480   0.550   5.123
 5673SOL     OW17392   4.697   0.890   5.296
 5673SOL    HW117393   4.743   0.806   5.267
 5673SOL    HW217394   4.641   0.924   5.221
 5674SOL     OW17395   4.715   0.410   4.966
 5674SOL    HW117396   4.638   0.444   5.020
 5674SOL    HW217397   4.681   0.359   4.887
 5675SOL     OW17398   4.765   0.701   4.153
 5675SOL    HW117399   4.791   0.697   4.249
 5675SOL    HW217400   4.680   0.650   4.139
 5676SOL     OW17401   3.800   0.811   4.513
 5676SOL    HW117402   3.899   0.799   4.522
 5676SOL    HW217403   3.776   0.906   4.534
 5677SOL     OW17404   3.854   1.821   5.295
 5677SOL    HW117405   3.844   1.806   5.394
 5677SOL    HW217406   3.768   1.857   5.259
 5678SOL     OW17407   4.589   0.348   3.919
 5678SOL    HW117408   4.648   0.411   3.870
 5678SOL    HW217409   4.608   0.254   3.890
 5679SOL     OW17410   4.274   0.196   4.609
 5679SOL    HW117411   4.269   0.191   4.709
 5679SOL    HW217412   4.276   0.292   4.580
 5680SOL     OW17413   4.732   1.456   4.201
 5680SOL    HW117414   4.686   1.528   4.149
 5680SOL    HW217415   4.728   1.476   4.299
 5681SOL     OW17416   4.075   1.801   4.577
 5681SOL    HW117417   4.125   1.715   4.583
 5681SOL    HW217418   4.140   1.878   4.574
 5682SOL     OW17419   4.951   1.550   5.230
 5682SOL    HW117420   4.957   1.473   5.294
 5682SOL    HW217421   4.899   1.524   5.150
 5683SOL     OW17422   4.045   0.943   3.966
 5683SOL    HW117423   4.127   0.982   3.924
 5683SOL    HW217424   4.018   0.861   3.917
 5684SOL     OW17425   4.185   1.266   5.451
 5684SOL    HW117426   4.135   1.267   5.365
 5684SOL    HW217427   4.122   1.248   5.527
 5685SOL     OW17428   4.835   1.776   3.961
 5685SOL    HW117429   4.775   1.714   4.011
 5685SOL    HW217430   4.866   1.732   3.876
 5686SOL     OW17431   3.926   0.285   5.222
 5686SOL    HW117432   3.846   0.345   5.209
 5686SOL    HW217433   3.916   0.236   5.308
 5687SOL     OW17434   4.188   1.743   4.047
 5687SOL    HW117435   4.221   1.782   4.133
 5687SOL    HW217436   4.264   1.736   3.982
 5688SOL     OW17437   3.973   1.785   4.965
 5688SOL    HW117438   4.030   1.720   5.015
 5688SOL    HW217439   3.957   1.752   4.872
 5689SOL     OW17440   4.664   1.698   4.628
 5689SOL    HW117441   4.744   1.641   4.649
 5689SOL    HW217442   4.615   1.658   4.551
 5690SOL     OW17443   4.106   0.700   4.204
 5690SOL    HW117444   4.151   0.610   4.201
 5690SOL    HW217445   4.012   0.689   4.237
 5691SOL     OW17446   4.338   0.122   3.841
 5691SOL    HW117447   4.436   0.100   3.848
 5691SOL    HW217448   4.307   0.105   3.748
 5692SOL     OW17449   4.505   0.264   5.473
 5692SOL    HW117450   4.572   0.203   5.516
 5692SOL    HW217451   4.432   0.283   5.538
 5693SOL     OW17452   4.612   1.514   4.919
 5693SOL    HW117453   4.589   1.489   4.825
 5693SOL    HW217454   4.673   1.445   4.958
 5694SOL     OW17455   4.527   1.402   4.648
 5694SOL    HW117456   4.617   1.416   4.606
 5694SOL    HW217457   4.456   1.404   4.577
 5695SOL     OW17458   4.646   0.503   4.623
 5695SOL    HW117459   4.621   0.494   4.527
 5695SOL    HW217460   4.694   0.421   4.654
 5696SOL     OW17461   4.263   0.064   4.236
 5696SOL    HW117462   4.182   0.065   4.294
 5696SOL    HW217463   4.266   0.147   4.181
 5697SOL     OW17464   4.021   0.035   3.895
 5697SOL    HW117465   4.070   0.119   3.874
 5697SOL    HW217466   4.083  -0.030   3.940
 5698SOL     OW17467   4.659   0.236   4.204
 5698SOL    HW117468   4.611   0.277   4.126
 5698SOL    HW217469   4.758   0.234   4.185
 5699SOL     OW17470   4.800   0.683   5.188
 5699SOL    HW117471   4.720   0.622   5.191
 5699SOL    HW217472   4.881   0.630   5.164
 5700SOL     OW17473   4.951   1.570   4.517
 5700SOL    HW117474   4.972   1.644   4.452
 5700SOL    HW217475   5.019   1.570   4.590
 5701SOL     OW17476   4.183   1.152   4.465
 5701SOL    HW117477   4.112   1.125   4.530
 5701SOL    HW217478   4.157   1.124   4.372
 5702SOL     OW17479   4.995   1.797   4.315
 5702SOL    HW117480   5.039   1.861   4.251
 5702SOL    HW217481   4.945   1.849   4.385
 5703SOL     OW17482   4.756   0.549   3.740
 5703SOL    HW117483   4.715   0.631   3.701
 5703SOL    HW217484   4.820   0.575   3.813
 5704SOL     OW17485   3.802   0.556   5.110
 5704SOL    HW117486   3.894   0.555   5.069
 5704SOL    HW217487   3.796   0.630   5.177
 5705SOL     OW17488   4.285   0.222   4.871
 5705SOL    HW117489   4.323   0.138   4.908
 5705SOL    HW217490   4.197   0.241   4.915
 5706SOL     OW17491   4.590   0.454   4.366
 5706SOL    HW117492   4.558   0.526   4.304
 5706SOL    HW217493   4.614   0.373   4.313
 5707SOL     OW17494   4.741   0.039   4.477
 5707SOL    HW117495   4.669   0.044   4.408
 5707SOL    HW217496   4.717  -0.030   4.546
 5708SOL     OW17497   4.212   1.385   3.898
 5708SOL    HW117498   4.125   1.370   3.945
 5708SOL    HW217499   4.195   1.411   3.803
 5709SOL     OW17500   4.251   0.256   4.052
 5709SOL    HW117501   4.278   0.197   3.977
 5709SOL    HW217502   4.251   0.351   4.021
 5710SOL     OW17503   4.788   1.347   5.064
 5710SOL    HW117504   4.708   1.324   5.119
 5710SOL    HW217505   4.871   1.321   5.113
 5711SOL     OW17506   4.835   1.195   4.824
 5711SOL    HW117507   4.795   1.239   4.905
 5711SOL    HW217508   4.794   1.232   4.741
 5712SOL     OW17509   4.639   0.089   5.126
 5712SOL    HW117510   4.664   0.069   5.031
 5712SOL    HW217511   4.711   0.145   5.168
 5713SOL     OW17512   4.704   1.116   5.443
 5713SOL    HW117513   4.605   1.122   5.453
 5713SOL    HW217514   4.727   1.036   5.387
 5714SOL     OW17515   4.429   1.050   4.092
 5714SOL    HW117516   4.415   1.057   4.191
 5714SOL    HW217517   4.513   0.999   4.074
 5715SOL     OW17518   4.134   0.813   4.975
 5715SOL    HW117519   4.220   0.825   5.025
 5715SOL    HW217520   4.092   0.726   5.002
 5716SOL     OW17521   3.788   1.564   5.055
 5716SOL    HW117522   3.742   1.646   5.021
 5716SOL    HW217523   3.886   1.583   5.064
 5717SOL     OW17524   4.091   1.100   4.225
 5717SOL    HW117525   4.084   1.183   4.169
 5717SOL    HW217526   4.095   1.020   4.165
 5718SOL     OW17527   4.290   0.537   4.589
 5718SOL    HW117528   4.302   0.603   4.515
 5718SOL    HW217529   4.336   0.571   4.672
 5719SOL     OW17530   4.976   1.348   4.112
 5719SOL    HW117531   5.026   1.425   4.152
 5719SOL    HW217532   4.881   1.350   4.144
 5720SOL     OW17533   4.078   1.510   5.053
 5720SOL    HW117534   4.057   1.466   4.966
 5720SOL    HW217535   4.175   1.536   5.056
 5721SOL     OW17536   4.126   0.751   5.322
 5721SOL    HW117537   4.194   0.806   5.275
 5721SOL    HW217538   4.166   0.663   5.349
 5722SOL     OW17539   4.737   0.105   5.494
 5722SOL    HW117540   4.743   0.190   5.442
 5722SOL    HW217541   4.769   0.029   5.437
 5723SOL     OW17542   4.228   0.050   5.464
 5723SOL    HW117543   4.186  -0.007   5.394
 5723SOL    HW217544   4.162   0.119   5.496
 5724SOL     OW17545   4.297   0.870   4.753
 5724SOL    HW117546   4.341   0.959   4.744
 5724SOL    HW217547   4.234   0.870   4.830
 5725SOL     OW17548   5.084   0.862   4.769
 5725SOL    HW117549   5.009   0.862   4.703
 5725SOL    HW217550   5.121   0.770   4.778
 5726SOL     OW17551   4.933   0.525   3.999
 5726SOL    HW117552   4.946   0.441   4.053
 5726SOL    HW217553   4.904   0.599   4.059
 5727SOL     OW17554   4.031   0.213   4.955
 5727SOL    HW117555   4.008   0.250   5.045
 5727SOL    HW217556   4.001   0.118   4.949
 5728SOL     OW17557   3.761   1.310   5.006
 5728SOL    HW117558   3.814   1.261   5.074
 5728SOL    HW217559   3.783   1.408   5.011
 5729SOL     OW17560   4.456   0.634   4.788
 5729SOL    HW117561   4.515   0.608   4.712
 5729SOL    HW217562   4.428   0.730   4.777
 5730SOL     OW17563   4.031   0.063   4.342
 5730SOL    HW117564   4.020   0.157   4.375
 5730SOL    HW217565   4.026   0.000   4.419
 5731SOL     OW17566   4.747   0.766   4.690
 5731SOL    HW117567   4.762   0.787   4.786
 5731SOL    HW217568   4.717   0.671   4.681
 5732SOL     OW17569   4.704   1.573   5.424
 5732SOL    HW117570   4.684   1.617   5.336
 5732SOL    HW217571   4.743   1.482   5.408
 5733SOL     OW17572   4.074   0.898   5.528
 5733SOL    HW117573   4.150   0.942   5.576
 5733SOL    HW217574   4.109   0.851   5.446
 5734SOL     OW17575   5.264   0.274   3.849
 5734SOL    HW117576   5.203   0.199   3.872
 5734SOL    HW217577   5.286   0.326   3.932
 5735SOL     OW17578   4.792   1.333   4.573
 5735SOL    HW117579   4.799   1.249   4.518
 5735SOL    HW217580   4.854   1.402   4.537
 5736SOL     OW17581   4.043   0.810   4.673
 5736SOL    HW117582   4.136   0.846   4.678
 5736SOL    HW217583   4.037   0.725   4.725
 5737SOL     OW17584   4.063   0.509   4.730
 5737SOL    HW117585   4.011   0.426   4.713
 5737SOL    HW217586   4.140   0.514   4.666
 5738SOL     OW17587   4.862   0.380   5.402
 5738SOL    HW117588   4.817   0.443   5.466
 5738SOL    HW217589   4.955   0.411   5.385
 5739SOL     OW17590   4.884   0.207   5.201
 5739SOL    HW117591   4.884   0.271   5.278
 5739SOL    HW217592   4.912   0.255   5.118
 5740SOL     OW17593   3.732   1.326   3.924
 5740SOL    HW117594   3.639   1.347   3.893
 5740SOL    HW217595   3.742   1.227   3.937
 5741SOL     OW17596   3.812   1.801   4.651
 5741SOL    HW117597   3.770   1.715   4.624
 5741SOL    HW217598   3.906   1.804   4.617
 5742SOL     OW17599   4.228   1.568   4.634
 5742SOL    HW117600   4.294   1.642   4.643
 5742SOL    HW217601   4.272   1.489   4.592
 5743SOL     OW17602   4.726   0.796   4.962
 5743SOL    HW117603   4.767   0.764   5.048
 5743SOL    HW217604   4.630   0.769   4.959
 5744SOL     OW17605   3.764   0.544   4.838
 5744SOL    HW117606   3.849   0.511   4.797
 5744SOL    HW217607   3.777   0.559   4.936
 5745SOL     OW17608   3.913   0.520   5.446
 5745SOL    HW117609   3.972   0.480   5.376
 5745SOL    HW217610   3.855   0.591   5.405
 5746SOL     OW17611   4.539   0.572   4.049
 5746SOL    HW117612   4.546   0.483   4.003
 5746SOL    HW217613   4.445   0.606   4.041
 5747SOL     OW17614   3.976   1.564   5.468
 5747SOL    HW117615   3.946   1.621   5.544
 5747SOL    HW217616   3.969   1.467   5.494
 5748SOL     OW17617   4.395   0.464   4.993
 5748SOL    HW117618   4.361   0.375   4.963
 5748SOL    HW217619   4.421   0.518   4.913
 5749SOL     OW17620   4.654   1.678   5.189
 5749SOL    HW117621   4.630   1.660   5.094
 5749SOL    HW217622   4.684   1.772   5.199
 5750SOL     OW17623   4.197   0.500   3.915
 5750SOL    HW117624   4.258   0.580   3.919
 5750SOL    HW217625   4.102   0.531   3.922
 5751SOL     OW17626   3.883   1.137   5.190
 5751SOL    HW117627   3.905   1.076   5.266
 5751SOL    HW217628   3.893   1.088   5.104
 5752SOL     OW17629   4.976   1.731   4.852
 5752SOL    HW117630   5.060   1.736   4.798
 5752SOL    HW217631   4.953   1.635   4.870
 5753SOL     OW17632   3.807   1.258   4.746
 5753SOL    HW117633   3.802   1.257   4.846
 5753SOL    HW217634   3.724   1.217   4.708
 5754SOL     OW17635   4.412   1.662   5.440
 5754SOL    HW117636   4.356   1.743   5.449
 5754SOL    HW217637   4.464   1.666   5.354
 5755SOL     OW17638   3.854   1.794   5.575
 5755SOL    HW117639   3.813   1.720   5.628
 5755SOL    HW217640   3.918   1.845   5.633
 5756SOL     OW17641   4.554   1.273   5.146
 5756SOL    HW117642   4.549   1.306   5.241
 5756SOL    HW217643   4.468   1.292   5.100
 5757SOL     OW17644   4.396   1.616   3.878
 5757SOL    HW117645   4.405   1.626   3.779
 5757SOL    HW217646   4.356   1.527   3.899
 5758SOL     OW17647   3.987   0.326   4.444
 5758SOL    HW117648   3.908   0.377   4.410
 5758SOL    HW217649   3.978   0.311   4.542
 5759SOL     OW17650   4.546   1.002   5.096
 5759SOL    HW117651   4.586   1.001   5.004
 5759SOL    HW217652   4.556   1.094   5.136
 5760SOL     OW17653   4.640   0.910   4.015
 5760SOL    HW117654   4.703   0.948   3.947
 5760SOL    HW217655   4.680   0.827   4.054
 5761SOL     OW17656   4.096   1.288   5.214
 5761SOL    HW117657   4.083   1.381   5.180
 5761SOL    HW217658   4.012   1.236   5.201
 5762SOL     OW17659   4.763   1.098   4.420
 5762SOL    HW117660   4.693   1.051   4.474
 5762SOL    HW217661   4.822   1.030   4.377
 5763SOL     OW17662   4.738   0.236   4.695
 5763SOL    HW117663   4.730   0.200   4.602
 5763SOL    HW217664   4.736   0.160   4.760
 5764SOL     OW17665   4.314   1.487   4.215
 5764SOL    HW117666   4.356   1.429   4.145
 5764SOL    HW217667   4.270   1.566   4.171
 5765SOL     OW17668   3.979   1.348   4.014
 5765SOL    HW117669   3.883   1.349   3.987
 5765SOL    HW217670   3.991   1.401   4.098
 5766SOL     OW17671   3.829   1.013   5.450
 5766SOL    HW117672   3.752   0.980   5.504
 5766SOL    HW217673   3.914   0.983   5.492
 5767SOL     OW17674   4.396   0.203   5.213
 5767SOL    HW117675   4.486   0.187   5.173
 5767SOL    HW217676   4.404   0.208   5.312
 5768SOL     OW17677   3.799   0.345   3.757
 5768SOL    HW117678   3.707   0.317   3.728
 5768SOL    HW217679   3.830   0.422   3.701
 5769SOL     OW17680   3.796   0.166   4.042
 5769SOL    HW117681   3.779   0.249   3.988
 5769SOL    HW217682   3.886   0.129   4.020
 5770SOL     OW17683   4.337   0.842   5.155
 5770SOL    HW117684   4.393   0.923   5.138
 5770SOL    HW217685   4.396   0.762   5.158
 5771SOL     OW17686   4.440   0.565   5.432
 5771SOL    HW117687   4.459   0.630   5.506
 5771SOL    HW217688   4.500   0.485   5.441
 5772SOL     OW17689   4.114   1.741   5.284
 5772SOL    HW117690   4.023   1.782   5.282
 5772SOL    HW217691   4.107   1.647   5.316
 5773SOL     OW17692   4.318   0.745   4.376
 5773SOL    HW117693   4.368   0.830   4.357
 5773SOL    HW217694   4.230   0.747   4.328
 5774SOL     OW17695   4.583   1.374   3.740
 5774SOL    HW117696   4.537   1.389   3.828
 5774SOL    HW217697   4.627   1.459   3.710
 5775SOL     OW17698   4.385   1.790   4.677
 5775SOL    HW117699   4.339   1.878   4.664
 5775SOL    HW217700   4.484   1.802   4.670
 5776SOL     OW17701   4.583   0.956   4.585
 5776SOL    HW117702   4.637   0.887   4.633
 5776SOL    HW217703   4.551   1.025   4.651
 5777SOL     OW17704   4.807   0.984   3.811
 5777SOL    HW117705   4.784   1.037   3.729
 5777SOL    HW217706   4.888   0.928   3.792
 5778SOL     OW17707   3.945   1.314   5.568
 5778SOL    HW117708   3.880   1.241   5.547
 5778SOL    HW217709   3.949   1.328   5.666
 5779SOL     OW17710   3.803   1.240   4.377
 5779SOL    HW117711   3.802   1.193   4.465
 5779SOL    HW217712   3.885   1.212   4.326
 5780SOL     OW17713   4.396   1.391   5.348
 5780SOL    HW117714   4.318   1.341   5.386
 5780SOL    HW217715   4.393   1.486   5.379
 5781SOL     OW17716   4.152   0.424   4.244
 5781SOL    HW117717   4.182   0.352   4.182
 5781SOL    HW217718   4.113   0.384   4.327
 5782SOL     OW17719   4.041   0.547   5.004
 5782SOL    HW117720   4.079   0.488   5.076
 5782SOL    HW217721   4.081   0.521   4.916
 5783SOL     OW17722   4.536   1.586   4.411
 5783SOL    HW117723   4.568   1.596   4.317
 5783SOL    HW217724   4.457   1.524   4.413
 5784SOL     OW17725   4.725   0.034   4.878
 5784SOL    HW117726   4.662  -0.038   4.847
 5784SOL    HW217727   4.818  -0.002   4.878
 5785SOL     OW17728   4.494   1.330   4.025
 5785SOL    HW117729   4.448   1.243   4.042
 5785SOL    HW217730   4.585   1.327   4.066
 5786SOL     OW17731   4.342   1.567   5.008
 5786SOL    HW117732   4.337   1.649   5.065
 5786SOL    HW217733   4.431   1.564   4.963
 5787SOL     OW17734   3.763   1.077   4.024
 5787SOL    HW117735   3.862   1.066   4.015
 5787SOL    HW217736   3.723   0.991   4.056
 5788SOL     OW17737   4.599   1.646   4.061
 5788SOL    HW117738   4.522   1.611   4.007
 5788SOL    HW217739   4.567   1.717   4.123
 5789SOL     OW17740   3.954   0.628   5.699
 5789SOL    HW117741   3.861   0.626   5.736
 5789SOL    HW217742   3.955   0.589   5.607
 5790SOL     OW17743   3.949   0.275   6.582
 5790SOL    HW117744   3.984   0.258   6.674
 5790SOL    HW217745   3.861   0.230   6.570
 5791SOL     OW17746   3.743   0.368   6.233
 5791SOL    HW117747   3.661   0.411   6.272
 5791SOL    HW217748   3.715   0.295   6.170
 5792SOL     OW17749   4.293   1.275   6.751
 5792SOL    HW117750   4.200   1.268   6.714
 5792SOL    HW217751   4.304   1.364   6.795
 5793SOL     OW17752   4.859   0.703   6.303
 5793SOL    HW117753   4.916   0.781   6.278
 5793SOL    HW217754   4.799   0.729   6.379
 5794SOL     OW17755   4.492   1.144   6.609
 5794SOL    HW117756   4.414   1.161   6.669
 5794SOL    HW217757   4.526   1.231   6.573
 5795SOL     OW17758   4.574   0.798   7.409
 5795SOL    HW117759   4.570   0.874   7.474
 5795SOL    HW217760   4.596   0.834   7.318
 5796SOL     OW17761   4.409   1.012   6.251
 5796SOL    HW117762   4.478   0.996   6.321
 5796SOL    HW217763   4.336   1.069   6.289
 5797SOL     OW17764   4.410   1.161   7.389
 5797SOL    HW117765   4.470   1.240   7.403
 5797SOL    HW217766   4.324   1.192   7.348
 5798SOL     OW17767   4.059   1.435   6.647
 5798SOL    HW117768   3.981   1.404   6.594
 5798SOL    HW217769   4.117   1.493   6.590
 5799SOL     OW17770   4.162   0.392   7.085
 5799SOL    HW117771   4.244   0.336   7.094
 5799SOL    HW217772   4.081   0.334   7.089
 5800SOL     OW17773   3.955   1.713   6.069
 5800SOL    HW117774   3.989   1.790   6.123
 5800SOL    HW217775   3.999   1.713   5.979
 5801SOL     OW17776   4.851   1.341   7.276
 5801SOL    HW117777   4.898   1.341   7.364
 5801SOL    HW217778   4.803   1.254   7.265
 5802SOL     OW17779   3.954   1.434   6.124
 5802SOL    HW117780   3.928   1.530   6.124
 5802SOL    HW217781   3.883   1.380   6.169
 5803SOL     OW17782   3.964   1.091   6.472
 5803SOL    HW117783   3.978   1.007   6.524
 5803SOL    HW217784   3.909   1.155   6.527
 5804SOL     OW17785   4.344   1.786   7.025
 5804SOL    HW117786   4.252   1.769   7.060
 5804SOL    HW217787   4.372   1.878   7.051
 5805SOL     OW17788   4.330   0.964   5.709
 5805SOL    HW117789   4.337   1.048   5.655
 5805SOL    HW217790   4.376   0.977   5.797
 5806SOL     OW17791   3.846   0.643   6.149
 5806SOL    HW117792   3.801   0.555   6.166
 5806SOL    HW217793   3.845   0.697   6.233
 5807SOL     OW17794   3.751   1.596   5.703
 5807SOL    HW117795   3.732   1.500   5.724
 5807SOL    HW217796   3.718   1.654   5.778
 5808SOL     OW17797   3.837   0.737   7.183
 5808SOL    HW117798   3.925   0.724   7.228
 5808SOL    HW217799   3.824   0.834   7.161
 5809SOL     OW17800   4.337   1.365   6.312
 5809SOL    HW117801   4.288   1.278   6.321
 5809SOL    HW217802   4.314   1.408   6.225
 5810SOL     OW17803   4.533   0.004   6.088
 5810SOL    HW117804   4.573   0.095   6.079
 5810SOL    HW217805   4.433   0.012   6.094
 5811SOL     OW17806   3.921   0.976   6.850
 5811SOL    HW117807   4.010   0.931   6.836
 5811SOL    HW217808   3.848   0.911   6.831
 5812SOL     OW17809   4.041   0.251   7.387
 5812SOL    HW117810   4.112   0.322   7.393
 5812SOL    HW217811   3.953   0.290   7.415
 5813SOL     OW17812   4.322   0.729   5.856
 5813SOL    HW117813   4.346   0.798   5.788
 5813SOL    HW217814   4.244   0.762   5.910
 5814SOL     OW17815   4.531   0.605   7.051
 5814SOL    HW117816   4.484   0.602   7.140
 5814SOL    HW217817   4.480   0.550   6.985
 5815SOL     OW17818   4.697   0.890   7.158
 5815SOL    HW117819   4.743   0.806   7.129
 5815SOL    HW217820   4.641   0.924   7.083
 5816SOL     OW17821   4.715   0.410   6.828
 5816SOL    HW117822   4.638   0.444   6.882
 5816SOL    HW217823   4.681   0.359   6.749
 5817SOL     OW17824   4.765   0.701   6.015
 5817SOL    HW117825   4.791   0.697   6.111
 5817SOL    HW217826   4.680   0.650   6.001
 5818SOL     OW17827   3.800   0.811   6.375
 5818SOL    HW117828   3.899   0.799   6.384
 5818SOL    HW217829   3.776   0.906   6.396
 5819SOL     OW17830   3.854   1.821   7.157
 5819SOL    HW117831   3.844   1.806   7.256
 5819SOL    HW217832   3.768   1.857   7.121
 5820SOL     OW17833   4.589   0.348   5.781
 5820SOL    HW117834   4.648   0.411   5.732
 5820SOL    HW217835   4.608   0.254   5.752
 5821SOL     OW17836   4.274   0.196   6.471
 5821SOL    HW117837   4.269   0.191   6.571
 5821SOL    HW217838   4.276   0.292   6.442
 5822SOL     OW17839   4.732   1.456   6.063
 5822SOL    HW117840   4.686   1.528   6.011
 5822SOL    HW217841   4.728   1.476   6.161
 5823SOL     OW17842   4.075   1.801   6.439
 5823SOL    HW117843   4.125   1.715   6.445
 5823SOL    HW217844   4.140   1.878   6.436
 5824SOL     OW17845   4.951   1.550   7.092
 5824SOL    HW117846   4.957   1.473   7.156
 5824SOL    HW217847   4.899   1.524   7.012
 5825SOL     OW17848   4.045   0.943   5.828
 5825SOL    HW117849   4.127   0.982   5.786
 5825SOL    HW217850   4.018   0.861   5.779
 5826SOL     OW17851   4.185   1.266   7.313
 5826SOL    HW117852   4.135   1.267   7.227
 5826SOL    HW217853   4.122   1.248   7.389
 5827SOL     OW17854   4.835   1.776   5.823
 5827SOL    HW117855   4.775   1.714   5.873
 5827SOL    HW217856   4.866   1.732   5.738
 5828SOL     OW17857   3.926   0.285   7.084
 5828SOL    HW117858   3.846   0.345   7.071
 5828SOL    HW217859   3.916   0.236   7.170
 5829SOL     OW17860   4.188   1.743   5.909
 5829SOL    HW117861   4.221   1.782   5.995
 5829SOL    HW217862   4.264   1.736   5.844
 5830SOL     OW17863   3.973   1.785   6.827
 5830SOL    HW117864   4.030   1.720   6.877
 5830SOL    HW217865   3.957   1.752   6.734
 5831SOL     OW17866   4.664   1.698   6.490
 5831SOL    HW117867   4.744   1.641   6.511
 5831SOL    HW217868   4.615   1.658   6.413
 5832SOL     OW17869   4.106   0.700   6.066
 5832SOL    HW117870   4.151   0.610   6.063
 5832SOL    HW217871   4.012   0.689   6.099
 5833SOL     OW17872   4.338   0.122   5.703
 5833SOL    HW117873   4.436   0.100   5.710
 5833SOL    HW217874   4.307   0.105   5.610
 5834SOL     OW17875   4.505   0.264   7.335
 5834SOL    HW117876   4.572   0.203   7.378
 5834SOL    HW217877   4.432   0.283   7.400
 5835SOL     OW17878   4.612   1.514   6.781
 5835SOL    HW117879   4.589   1.489   6.687
 5835SOL    HW217880   4.673   1.445   6.820
 5836SOL     OW17881   4.527   1.402   6.510
 5836SOL    HW117882   4.617   1.416   6.468
 5836SOL    HW217883   4.456   1.404   6.439
 5837SOL     OW17884   4.646   0.503   6.485
 5837SOL    HW117885   4.621   0.494   6.389
 5837SOL    HW217886   4.694   0.421   6.516
 5838SOL     OW17887   4.263   0.064   6.098
 5838SOL    HW117888   4.182   0.065   6.156
 5838SOL    HW217889   4.266   0.147   6.043
 5839SOL     OW17890   4.021   0.035   5.757
 5839SOL    HW117891   4.070   0.119   5.736
 5839SOL    HW217892   4.083  -0.030   5.802
 5840SOL     OW17893   4.659   0.236   6.066
 5840SOL    HW117894   4.611   0.277   5.988
 5840SOL    HW217895   4.758   0.234   6.047
 5841SOL     OW17896   4.800   0.683   7.050
 5841SOL    HW117897   4.720   0.622   7.053
 5841SOL    HW217898   4.881   0.630   7.026
 5842SOL     OW17899   4.951   1.570   6.379
 5842SOL    HW117900   4.972   1.644   6.314
 5842SOL    HW217901   5.019   1.570   6.452
 5843SOL     OW17902   4.183   1.152   6.327
 5843SOL    HW117903   4.112   1.125   6.392
 5843SOL    HW217904   4.157   1.124   6.234
 5844SOL     OW17905   4.995   1.797   6.177
 5844SOL    HW117906   5.039   1.861   6.113
 5844SOL    HW217907   4.945   1.849   6.247
 5845SOL     OW17908   4.756   0.549   5.602
 5845SOL    HW117909   4.715   0.631   5.563
 5845SOL    HW217910   4.820   0.575   5.675
 5846SOL     OW17911   3.802   0.556   6.972
 5846SOL    HW117912   3.894   0.555   6.931
 5846SOL    HW217913   3.796   0.630   7.039
 5847SOL     OW17914   4.285   0.222   6.733
 5847SOL    HW117915   4.323   0.138   6.770
 5847SOL    HW217916   4.197   0.241   6.777
 5848SOL     OW17917   4.590   0.454   6.228
 5848SOL    HW117918   4.558   0.526   6.166
 5848SOL    HW217919   4.614   0.373   6.175
 5849SOL     OW17920   4.741   0.039   6.339
 5849SOL    HW117921   4.669   0.044   6.270
 5849SOL    HW217922   4.717  -0.030   6.408
 5850SOL     OW17923   4.212   1.385   5.760
 5850SOL    HW117924   4.125   1.370   5.807
 5850SOL    HW217925   4.195   1.411   5.665
 5851SOL     OW17926   4.251   0.256   5.914
 5851SOL    HW117927   4.278   0.197   5.839
 5851SOL    HW217928   4.251   0.351   5.883
 5852SOL     OW17929   4.788   1.347   6.926
 5852SOL    HW117930   4.708   1.324   6.981
 5852SOL    HW217931   4.871   1.321   6.975
 5853SOL     OW17932   4.835   1.195   6.686
 5853SOL    HW117933   4.795   1.239   6.767
 5853SOL    HW217934   4.794   1.232   6.603
 5854SOL     OW17935   4.639   0.089   6.988
 5854SOL    HW117936   4.664   0.069   6.893
 5854SOL    HW217937   4.711   0.145   7.030
 5855SOL     OW17938   4.704   1.116   7.305
 5855SOL    HW117939   4.605   1.122   7.315
 5855SOL    HW217940   4.727   1.036   7.249
 5856SOL     OW17941   4.429   1.050   5.954
 5856SOL    HW117942   4.415   1.057   6.053
 5856SOL    HW217943   4.513   0.999   5.936
 5857SOL     OW17944   4.134   0.813   6.837
 5857SOL    HW117945   4.220   0.825   6.887
 5857SOL    HW217946   4.092   0.726   6.864
 5858SOL     OW17947   3.788   1.564   6.917
 5858SOL    HW117948   3.742   1.646   6.883
 5858SOL    HW217949   3.886   1.583   6.926
 5859SOL     OW17950   4.091   1.100   6.087
 5859SOL    HW117951   4.084   1.183   6.031
 5859SOL    HW217952   4.095   1.020   6.027
 5860SOL     OW17953   4.290   0.537   6.451
 5860SOL    HW117954   4.302   0.603   6.377
 5860SOL    HW217955   4.336   0.571   6.534
 5861SOL     OW17956   4.976   1.348   5.974
 5861SOL    HW117957   5.026   1.425   6.014
 5861SOL    HW217958   4.881   1.350   6.006
 5862SOL     OW17959   4.078   1.510   6.915
 5862SOL    HW117960   4.057   1.466   6.828
 5862SOL    HW217961   4.175   1.536   6.918
 5863SOL     OW17962   4.126   0.751   7.184
 5863SOL    HW117963   4.194   0.806   7.137
 5863SOL    HW217964   4.166   0.663   7.211
 5864SOL     OW17965   4.737   0.105   7.356
 5864SOL    HW117966   4.743   0.190   7.304
 5864SOL    HW217967   4.769   0.029   7.299
 5865SOL     OW17968   4.228   0.050   7.326
 5865SOL    HW117969   4.186  -0.007   7.256
 5865SOL    HW217970   4.162   0.119   7.358
 5866SOL     OW17971   4.297   0.870   6.615
 5866SOL    HW117972   4.341   0.959   6.606
 5866SOL    HW217973   4.234   0.870   6.692
 5867SOL     OW17974   5.084   0.862   6.631
 5867SOL    HW117975   5.009   0.862   6.565
 5867SOL    HW217976   5.121   0.770   6.640
 5868SOL     OW17977   4.933   0.525   5.861
 5868SOL    HW117978   4.946   0.441   5.915
 5868SOL    HW217979   4.904   0.599   5.921
 5869SOL     OW17980   4.031   0.213   6.817
 5869SOL    HW117981   4.008   0.250   6.907
 5869SOL    HW217982   4.001   0.118   6.811
 5870SOL     OW17983   3.761   1.310   6.868
 5870SOL    HW117984   3.814   1.261   6.936
 5870SOL    HW217985   3.783   1.408   6.873
 5871SOL     OW17986   4.456   0.634   6.650
 5871SOL    HW117987   4.515   0.608   6.574
 5871SOL    HW217988   4.428   0.730   6.639
 5872SOL     OW17989   4.031   0.063   6.204
 5872SOL    HW117990   4.020   0.157   6.237
 5872SOL    HW217991   4.026   0.000   6.281
 5873SOL     OW17992   4.747   0.766   6.552
 5873SOL    HW117993   4.762   0.787   6.648
 5873SOL    HW217994   4.717   0.671   6.543
 5874SOL     OW17995   4.704   1.573   7.286
 5874SOL    HW117996   4.684   1.617   7.198
 5874SOL    HW217997   4.743   1.482   7.270
 5875SOL     OW17998   4.074   0.898   7.390
 5875SOL    HW117999   4.150   0.942   7.438
 5875SOL    HW218000   4.109   0.851   7.308
 5876SOL     OW18001   5.264   0.274   5.711
 5876SOL    HW118002   5.203   0.199   5.734
 5876SOL    HW218003   5.286   0.326   5.794
 5877SOL     OW18004   4.792   1.333   6.435
 5877SOL    HW118005   4.799   1.249   6.380
 5877SOL    HW218006   4.854   1.402   6.399
 5878SOL     OW18007   4.043   0.810   6.535
 5878SOL    HW118008   4.136   0.846   6.540
 5878SOL    HW218009   4.037   0.725   6.587
 5879SOL     OW18010   4.063   0.509   6.592
 5879SOL    HW118011   4.011   0.426   6.575
 5879SOL    HW218012   4.140   0.514   6.528
 5880SOL     OW18013   4.862   0.380   7.264
 5880SOL    HW118014   4.817   0.443   7.328
 5880SOL    HW218015   4.955   0.411   7.247
 5881SOL     OW18016   4.884   0.207   7.063
 5881SOL    HW118017   4.884   0.271   7.140
 5881SOL    HW218018   4.912   0.255   6.980
 5882SOL     OW18019   3.732   1.326   5.786
 5882SOL    HW118020   3.639   1.347   5.755
 5882SOL    HW218021   3.742   1.227   5.799
 5883SOL     OW18022   3.812   1.801   6.513
 5883SOL    HW118023   3.770   1.715   6.486
 5883SOL    HW218024   3.906   1.804   6.479
 5884SOL     OW18025   4.228   1.568   6.496
 5884SOL    HW118026   4.294   1.642   6.505
 5884SOL    HW218027   4.272   1.489   6.454
 5885SOL     OW18028   4.726   0.796   6.824
 5885SOL    HW118029   4.767   0.764   6.910
 5885SOL    HW218030   4.630   0.769   6.821
 5886SOL     OW18031   3.764   0.544   6.700
 5886SOL    HW118032   3.849   0.511   6.659
 5886SOL    HW218033   3.777   0.559   6.798
 5887SOL     OW18034   3.913   0.520   7.308
 5887SOL    HW118035   3.972   0.480   7.238
 5887SOL    HW218036   3.855   0.591   7.267
 5888SOL     OW18037   4.539   0.572   5.911
 5888SOL    HW118038   4.546   0.483   5.865
 5888SOL    HW218039   4.445   0.606   5.903
 5889SOL     OW18040   3.976   1.564   7.330
 5889SOL    HW118041   3.946   1.621   7.406
 5889SOL    HW218042   3.969   1.467   7.356
 5890SOL     OW18043   4.395   0.464   6.855
 5890SOL    HW118044   4.361   0.375   6.825
 5890SOL    HW218045   4.421   0.518   6.775
 5891SOL     OW18046   4.654   1.678   7.051
 5891SOL    HW118047   4.630   1.660   6.956
 5891SOL    HW218048   4.684   1.772   7.061
 5892SOL     OW18049   4.197   0.500   5.777
 5892SOL    HW118050   4.258   0.580   5.781
 5892SOL    HW218051   4.102   0.531   5.784
 5893SOL     OW18052   3.883   1.137   7.052
 5893SOL    HW118053   3.905   1.076   7.128
 5893SOL    HW218054   3.893   1.088   6.966
 5894SOL     OW18055   4.976   1.731   6.714
 5894SOL    HW118056   5.060   1.736   6.660
 5894SOL    HW218057   4.953   1.635   6.732
 5895SOL     OW18058   3.807   1.258   6.608
 5895SOL    HW118059   3.802   1.257   6.708
 5895SOL    HW218060   3.724   1.217   6.570
 5896SOL     OW18061   4.412   1.662   7.302
 5896SOL    HW118062   4.356   1.743   7.311
 5896SOL    HW218063   4.464   1.666   7.216
 5897SOL     OW18064   3.854   1.794   7.437
 5897SOL    HW118065   3.813   1.720   7.490
 5897SOL    HW218066   3.918   1.845   7.495
 5898SOL     OW18067   4.554   1.273   7.008
 5898SOL    HW118068   4.549   1.306   7.103
 5898SOL    HW218069   4.468   1.292   6.962
 5899SOL     OW18070   4.396   1.616   5.740
 5899SOL    HW118071   4.405   1.626   5.641
 5899SOL    HW218072   4.356   1.527   5.761
 5900SOL     OW18073   3.987   0.326   6.306
 5900SOL    HW118074   3.908   0.377   6.272
 5900SOL    HW218075   3.978   0.311   6.404
 5901SOL     OW18076   4.546   1.002   6.958
 5901SOL    HW118077   4.586   1.001   6.866
 5901SOL    HW218078   4.556   1.094   6.998
 5902SOL     OW18079   4.640   0.910   5.877
 5902SOL    HW118080   4.703   0.948   5.809
 5902SOL    HW218081   4.680   0.827   5.916
 5903SOL     OW18082   4.096   1.288   7.076
 5903SOL    HW118083   4.083   1.381   7.042
 5903SOL    HW218084   4.012   1.236   7.063
 5904SOL     OW18085   4.763   1.098   6.282
 5904SOL    HW118086   4.693   1.051   6.336
 5904SOL    HW218087   4.822   1.030   6.239
 5905SOL     OW18088   4.738   0.236   6.557
 5905SOL    HW118089   4.730   0.200   6.464
 5905SOL    HW218090   4.736   0.160   6.622
 5906SOL     OW18091   4.314   1.487   6.077
 5906SOL    HW118092   4.356   1.429   6.007
 5906SOL    HW218093   4.270   1.566   6.033
 5907SOL     OW18094   3.979   1.348   5.876
 5907SOL    HW118095   3.883   1.349   5.849
 5907SOL    HW218096   3.991   1.401   5.960
 5908SOL     OW18097   3.829   1.013   7.312
 5908SOL    HW118098   3.752   0.980   7.366
 5908SOL    HW218099   3.914   0.983   7.354
 5909SOL     OW18100   4.396   0.203   7.075
 5909SOL    HW118101   4.486   0.187   7.035
 5909SOL    HW218102   4.404   0.208   7.174
 5910SOL     OW18103   3.799   0.345   5.619
 5910SOL    HW118104   3.707   0.317   5.590
 5910SOL    HW218105   3.830   0.422   5.563
 5911SOL     OW18106   3.796   0.166   5.904
 5911SOL    HW118107   3.779   0.249   5.850
 5911SOL    HW218108   3.886   0.129   5.882
 5912SOL     OW18109   4.337   0.842   7.017
 5912SOL    HW118110   4.393   0.923   7.000
 5912SOL    HW218111   4.396   0.762   7.020
 5913SOL     OW18112   4.440   0.565   7.294
 5913SOL    HW118113   4.459   0.630   7.368
 5913SOL    HW218114   4.500   0.485   7.303
 5914SOL     OW18115   4.114   1.741   7.146
 5914SOL    HW118116   4.023   1.782   7.144
 5914SOL    HW218117   4.107   1.647   7.178
 5915SOL     OW18118   4.318   0.745   6.238
 5915SOL    HW118119   4.368   0.830   6.219
 5915SOL    HW218120   4.230   0.747   6.190
 5916SOL     OW18121   4.583   1.374   5.602
 5916SOL    HW118122   4.537   1.389   5.690
 5916SOL    HW218123   4.627   1.459   5.572
 5917SOL     OW18124   4.385   1.790   6.539
 5917SOL    HW118125   4.339   1.878   6.526
 5917SOL    HW218126   4.484   1.802   6.532
 5918SOL     OW18127   4.583   0.956   6.447
 5918SOL    HW118128   4.637   0.887   6.495
 5918SOL    HW218129   4.551   1.025   6.513
 5919SOL     OW18130   4.807   0.984   5.673
 5919SOL    HW118131   4.784   1.037   5.591
 5919SOL    HW218132   4.888   0.928   5.654
 5920SOL     OW18133   3.945   1.314   7.430
 5920SOL    HW118134   3.880   1.241   7.409
 5920SOL    HW218135   3.949   1.328   7.528
 5921SOL     OW18136   3.803   1.240   6.239
 5921SOL    HW118137   3.802   1.193   6.327
 5921SOL    HW218138   3.885   1.212   6.188
 5922SOL     OW18139   4.396   1.391   7.210
 5922SOL    HW118140   4.318   1.341   7.248
 5922SOL    HW218141   4.393   1.486   7.241
 5923SOL     OW18142   4.152   0.424   6.106
 5923SOL    HW118143   4.182   0.352   6.044
 5923SOL    HW218144   4.113   0.384   6.189
 5924SOL     OW18145   4.041   0.547   6.866
 5924SOL    HW118146   4.079   0.488   6.938
 5924SOL    HW218147   4.081   0.521   6.778
 5925SOL     OW18148   4.536   1.586   6.273
 5925SOL    HW118149   4.568   1.596   6.179
 5925SOL    HW218150   4.457   1.524   6.275
 5926SOL     OW18151   4.725   0.034   6.740
 5926SOL    HW118152   4.662  -0.038   6.709
 5926SOL    HW218153   4.818  -0.002   6.740
 5927SOL     OW18154   4.494   1.330   5.887
 5927SOL    HW118155   4.448   1.243   5.904
 5927SOL    HW218156   4.585   1.327   5.928
 5928SOL     OW18157   4.342   1.567   6.870
 5928SOL    HW118158   4.337   1.649   6.927
 5928SOL    HW218159   4.431   1.564   6.825
 5929SOL     OW18160   3.763   1.077   5.886
 5929SOL    HW118161   3.862   1.066   5.877
 5929SOL    HW218162   3.723   0.991   5.918
 5930SOL     OW18163   4.599   1.646   5.923
 5930SOL    HW118164   4.522   1.611   5.869
 5930SOL    HW218165   4.567   1.717   5.985
 5931SOL     OW18166   3.954   0.628   7.561
 5931SOL    HW118167   3.861   0.626   7.598
 5931SOL    HW218168   3.955   0.589   7.469
 5932SOL     OW18169   3.949   0.275   8.444
 5932SOL    HW118170   3.984   0.258   8.536
 5932SOL    HW218171   3.861   0.230   8.432
 5933SOL     OW18172   3.743   0.368   8.095
 5933SOL    HW118173   3.661   0.411   8.134
 5933SOL    HW218174   3.715   0.295   8.032
 5934SOL     OW18175   4.293   1.275   8.613
 5934SOL    HW118176   4.200   1.268   8.576
 5934SOL    HW218177   4.304   1.364   8.657
 5935SOL     OW18178   4.859   0.703   8.165
 5935SOL    HW118179   4.916   0.781   8.140
 5935SOL    HW218180   4.799   0.729   8.241
 5936SOL     OW18181   4.492   1.144   8.471
 5936SOL    HW118182   4.414   1.161   8.531
 5936SOL    HW218183   4.526   1.231   8.435
 5937SOL     OW18184   4.409   1.012   8.113
 5937SOL    HW118185   4.478   0.996   8.183
 5937SOL    HW218186   4.336   1.069   8.151
 5938SOL     OW18187   4.059   1.435   8.509
 5938SOL    HW118188   3.981   1.404   8.456
 5938SOL    HW218189   4.117   1.493   8.452
 5939SOL     OW18190   4.162   0.392   8.947
 5939SOL    HW118191   4.244   0.336   8.956
 5939SOL    HW218192   4.081   0.334   8.951
 5940SOL     OW18193   3.955   1.713   7.931
 5940SOL    HW118194   3.989   1.790   7.985
 5940SOL    HW218195   3.999   1.713   7.841
 5941SOL     OW18196   3.954   1.434   7.986
 5941SOL    HW118197   3.928   1.530   7.986
 5941SOL    HW218198   3.883   1.380   8.031
 5942SOL     OW18199   3.964   1.091   8.334
 5942SOL    HW118200   3.978   1.007   8.386
 5942SOL    HW218201   3.909   1.155   8.389
 5943SOL     OW18202   4.344   1.786   8.887
 5943SOL    HW118203   4.252   1.769   8.922
 5943SOL    HW218204   4.372   1.878   8.913
 5944SOL     OW18205   4.330   0.964   7.571
 5944SOL    HW118206   4.337   1.048   7.517
 5944SOL    HW218207   4.376   0.977   7.659
 5945SOL     OW18208   3.846   0.643   8.011
 5945SOL    HW118209   3.801   0.555   8.028
 5945SOL    HW218210   3.845   0.697   8.095
 5946SOL     OW18211   3.751   1.596   7.565
 5946SOL    HW118212   3.732   1.500   7.586
 5946SOL    HW218213   3.718   1.654   7.640
 5947SOL     OW18214   4.337   1.365   8.174
 5947SOL    HW118215   4.288   1.278   8.183
 5947SOL    HW218216   4.314   1.408   8.087
 5948SOL     OW18217   4.533   0.004   7.950
 5948SOL    HW118218   4.573   0.095   7.941
 5948SOL    HW218219   4.433   0.012   7.956
 5949SOL     OW18220   3.921   0.976   8.712
 5949SOL    HW118221   4.010   0.931   8.698
 5949SOL    HW218222   3.848   0.911   8.693
 5950SOL     OW18223   4.041   0.251   9.249
 5950SOL    HW118224   4.112   0.322   9.255
 5950SOL    HW218225   3.953   0.290   9.277
 5951SOL     OW18226   4.322   0.729   7.718
 5951SOL    HW118227   4.346   0.798   7.650
 5951SOL    HW218228   4.244   0.762   7.772
 5952SOL     OW18229   4.531   0.605   8.913
 5952SOL    HW118230   4.484   0.602   9.002
 5952SOL    HW218231   4.480   0.550   8.847
 5953SOL     OW18232   4.715   0.410   8.690
 5953SOL    HW118233   4.638   0.444   8.744
 5953SOL    HW218234   4.681   0.359   8.611
 5954SOL     OW18235   4.765   0.701   7.877
 5954SOL    HW118236   4.791   0.697   7.973
 5954SOL    HW218237   4.680   0.650   7.863
 5955SOL     OW18238   3.800   0.811   8.237
 5955SOL    HW118239   3.899   0.799   8.246
 5955SOL    HW218240   3.776   0.906   8.258
 5956SOL     OW18241   3.854   1.821   9.019
 5956SOL    HW118242   3.844   1.806   9.118
 5956SOL    HW218243   3.768   1.857   8.983
 5957SOL     OW18244   4.589   0.348   7.643
 5957SOL    HW118245   4.648   0.411   7.594
 5957SOL    HW218246   4.608   0.254   7.614
 5958SOL     OW18247   4.274   0.196   8.333
 5958SOL    HW118248   4.269   0.191   8.433
 5958SOL    HW218249   4.276   0.292   8.304
 5959SOL     OW18250   4.732   1.456   7.925
 5959SOL    HW118251   4.686   1.528   7.873
 5959SOL    HW218252   4.728   1.476   8.023
 5960SOL     OW18253   4.075   1.801   8.301
 5960SOL    HW118254   4.125   1.715   8.307
 5960SOL    HW218255   4.140   1.878   8.298
 5961SOL     OW18256   4.045   0.943   7.690
 5961SOL    HW118257   4.127   0.982   7.648
 5961SOL    HW218258   4.018   0.861   7.641
 5962SOL     OW18259   4.835   1.776   7.685
 5962SOL    HW118260   4.775   1.714   7.735
 5962SOL    HW218261   4.866   1.732   7.600
 5963SOL     OW18262   3.926   0.285   8.946
 5963SOL    HW118263   3.846   0.345   8.933
 5963SOL    HW218264   3.916   0.236   9.032
 5964SOL     OW18265   4.188   1.743   7.771
 5964SOL    HW118266   4.221   1.782   7.857
 5964SOL    HW218267   4.264   1.736   7.706
 5965SOL     OW18268   3.973   1.785   8.689
 5965SOL    HW118269   4.030   1.720   8.739
 5965SOL    HW218270   3.957   1.752   8.596
 5966SOL     OW18271   4.664   1.698   8.352
 5966SOL    HW118272   4.744   1.641   8.373
 5966SOL    HW218273   4.615   1.658   8.275
 5967SOL     OW18274   4.106   0.700   7.928
 5967SOL    HW118275   4.151   0.610   7.925
 5967SOL    HW218276   4.012   0.689   7.961
 5968SOL     OW18277   4.338   0.122   7.565
 5968SOL    HW118278   4.436   0.100   7.572
 5968SOL    HW218279   4.307   0.105   7.472
 5969SOL     OW18280   4.612   1.514   8.643
 5969SOL    HW118281   4.589   1.489   8.549
 5969SOL    HW218282   4.673   1.445   8.682
 5970SOL     OW18283   4.527   1.402   8.372
 5970SOL    HW118284   4.617   1.416   8.330
 5970SOL    HW218285   4.456   1.404   8.301
 5971SOL     OW18286   4.646   0.503   8.347
 5971SOL    HW118287   4.621   0.494   8.251
 5971SOL    HW218288   4.694   0.421   8.378
 5972SOL     OW18289   4.263   0.064   7.960
 5972SOL    HW118290   4.182   0.065   8.018
 5972SOL    HW218291   4.266   0.147   7.905
 5973SOL     OW18292   4.021   0.035   7.619
 5973SOL    HW118293   4.070   0.119   7.598
 5973SOL    HW218294   4.083  -0.030   7.664
 5974SOL     OW18295   4.659   0.236   7.928
 5974SOL    HW118296   4.611   0.277   7.850
 5974SOL    HW218297   4.758   0.234   7.909
 5975SOL     OW18298   4.951   1.570   8.241
 5975SOL    HW118299   4.972   1.644   8.176
 5975SOL    HW218300   5.019   1.570   8.314
 5976SOL     OW18301   4.183   1.152   8.189
 5976SOL    HW118302   4.112   1.125   8.254
 5976SOL    HW218303   4.157   1.124   8.096
 5977SOL     OW18304   4.995   1.797   8.039
 5977SOL    HW118305   5.039   1.861   7.975
 5977SOL    HW218306   4.945   1.849   8.109
 5978SOL     OW18307   4.756   0.549   7.464
 5978SOL    HW118308   4.715   0.631   7.425
 5978SOL    HW218309   4.820   0.575   7.537
 5979SOL     OW18310   3.802   0.556   8.834
 5979SOL    HW118311   3.894   0.555   8.793
 5979SOL    HW218312   3.796   0.630   8.901
 5980SOL     OW18313   4.285   0.222   8.595
 5980SOL    HW118314   4.323   0.138   8.632
 5980SOL    HW218315   4.197   0.241   8.639
 5981SOL     OW18316   4.590   0.454   8.090
 5981SOL    HW118317   4.558   0.526   8.028
 5981SOL    HW218318   4.614   0.373   8.037
 5982SOL     OW18319   4.741   0.039   8.201
 5982SOL    HW118320   4.669   0.044   8.132
 5982SOL    HW218321   4.717  -0.030   8.270
 5983SOL     OW18322   4.212   1.385   7.622
 5983SOL    HW118323   4.125   1.370   7.669
 5983SOL    HW218324   4.195   1.411   7.527
 5984SOL     OW18325   4.251   0.256   7.776
 5984SOL    HW118326   4.278   0.197   7.701
 5984SOL    HW218327   4.251   0.351   7.745
 5985SOL     OW18328   4.788   1.347   8.788
 5985SOL    HW118329   4.708   1.324   8.843
 5985SOL    HW218330   4.871   1.321   8.837
 5986SOL     OW18331   4.835   1.195   8.548
 5986SOL    HW118332   4.795   1.239   8.629
 5986SOL    HW218333   4.794   1.232   8.465
 5987SOL     OW18334   4.639   0.089   8.850
 5987SOL    HW118335   4.664   0.069   8.755
 5987SOL    HW218336   4.711   0.145   8.892
 5988SOL     OW18337   4.429   1.050   7.816
 5988SOL    HW118338   4.415   1.057   7.915
 5988SOL    HW218339   4.513   0.999   7.798
 5989SOL     OW18340   4.134   0.813   8.699
 5989SOL    HW118341   4.220   0.825   8.749
 5989SOL    HW218342   4.092   0.726   8.726
 5990SOL     OW18343   3.788   1.564   8.779
 5990SOL    HW118344   3.742   1.646   8.745
 5990SOL    HW218345   3.886   1.583   8.788
 5991SOL     OW18346   4.091   1.100   7.949
 5991SOL    HW118347   4.084   1.183   7.893
 5991SOL    HW218348   4.095   1.020   7.889
 5992SOL     OW18349   4.290   0.537   8.313
 5992SOL    HW118350   4.302   0.603   8.239
 5992SOL    HW218351   4.336   0.571   8.396
 5993SOL     OW18352   4.976   1.348   7.836
 5993SOL    HW118353   5.026   1.425   7.876
 5993SOL    HW218354   4.881   1.350   7.868
 5994SOL     OW18355   4.078   1.510   8.777
 5994SOL    HW118356   4.057   1.466   8.690
 5994SOL    HW218357   4.175   1.536   8.780
 5995SOL     OW18358   4.126   0.751   9.046
 5995SOL    HW118359   4.194   0.806   8.999
 5995SOL    HW218360   4.166   0.663   9.073
 5996SOL     OW18361   4.297   0.870   8.477
 5996SOL    HW118362   4.341   0.959   8.468
 5996SOL    HW218363   4.234   0.870   8.554
 5997SOL     OW18364   5.084   0.862   8.493
 5997SOL    HW118365   5.009   0.862   8.427
 5997SOL    HW218366   5.121   0.770   8.502
 5998SOL     OW18367   4.933   0.525   7.723
 5998SOL    HW118368   4.946   0.441   7.777
 5998SOL    HW218369   4.904   0.599   7.783
 5999SOL     OW18370   4.031   0.213   8.679
 5999SOL    HW118371   4.008   0.250   8.769
 5999SOL    HW218372   4.001   0.118   8.673
 6000SOL     OW18373   3.761   1.310   8.730
 6000SOL    HW118374   3.814   1.261   8.798
 6000SOL    HW218375   3.783   1.408   8.735
 6001SOL     OW18376   4.456   0.634   8.512
 6001SOL    HW118377   4.515   0.608   8.436
 6001SOL    HW218378   4.428   0.730   8.501
 6002SOL     OW18379   4.031   0.063   8.066
 6002SOL    HW118380   4.020   0.157   8.099
 6002SOL    HW218381   4.026   0.000   8.143
 6003SOL     OW18382   4.747   0.766   8.414
 6003SOL    HW118383   4.762   0.787   8.510
 6003SOL    HW218384   4.717   0.671   8.405
 6004SOL     OW18385   4.704   1.573   9.148
 6004SOL    HW118386   4.684   1.617   9.060
 6004SOL    HW218387   4.743   1.482   9.132
 6005SOL     OW18388   5.264   0.274   7.573
 6005SOL    HW118389   5.203   0.199   7.596
 6005SOL    HW218390   5.286   0.326   7.656
 6006SOL     OW18391   4.792   1.333   8.297
 6006SOL    HW118392   4.799   1.249   8.242
 6006SOL    HW218393   4.854   1.402   8.261
 6007SOL     OW18394   4.043   0.810   8.397
 6007SOL    HW118395   4.136   0.846   8.402
 6007SOL    HW218396   4.037   0.725   8.449
 6008SOL     OW18397   4.063   0.509   8.454
 6008SOL    HW118398   4.011   0.426   8.437
 6008SOL    HW218399   4.140   0.514   8.390
 6009SOL     OW18400   4.862   0.380   9.126
 6009SOL    HW118401   4.817   0.443   9.190
 6009SOL    HW218402   4.955   0.411   9.109
 6010SOL     OW18403   3.732   1.326   7.648
 6010SOL    HW118404   3.639   1.347   7.617
 6010SOL    HW218405   3.742   1.227   7.661
 6011SOL     OW18406   3.812   1.801   8.375
 6011SOL    HW118407   3.770   1.715   8.348
 6011SOL    HW218408   3.906   1.804   8.341
 6012SOL     OW18409   4.228   1.568   8.358
 6012SOL    HW118410   4.294   1.642   8.367
 6012SOL    HW218411   4.272   1.489   8.316
 6013SOL     OW18412   4.726   0.796   8.686
 6013SOL    HW118413   4.767   0.764   8.772
 6013SOL    HW218414   4.630   0.769   8.683
 6014SOL     OW18415   3.764   0.544   8.562
 6014SOL    HW118416   3.849   0.511   8.521
 6014SOL    HW218417   3.777   0.559   8.660
 6015SOL     OW18418   4.539   0.572   7.773
 6015SOL    HW118419   4.546   0.483   7.727
 6015SOL    HW218420   4.445   0.606   7.765
 6016SOL     OW18421   4.395   0.464   8.717
 6016SOL    HW118422   4.361   0.375   8.687
 6016SOL    HW218423   4.421   0.518   8.637
 6017SOL     OW18424   4.654   1.678   8.913
 6017SOL    HW118425   4.630   1.660   8.818
 6017SOL    HW218426   4.684   1.772   8.923
 6018SOL     OW18427   4.197   0.500   7.639
 6018SOL    HW118428   4.258   0.580   7.643
 6018SOL    HW218429   4.102   0.531   7.646
 6019SOL     OW18430   3.883   1.137   8.914
 6019SOL    HW118431   3.905   1.076   8.990
 6019SOL    HW218432   3.893   1.088   8.828
 6020SOL     OW18433   4.976   1.731   8.576
 6020SOL    HW118434   5.060   1.736   8.522
 6020SOL    HW218435   4.953   1.635   8.594
 6021SOL     OW18436   3.807   1.258   8.470
 6021SOL    HW118437   3.802   1.257   8.570
 6021SOL    HW218438   3.724   1.217   8.432
 6022SOL     OW18439   4.396   1.616   7.602
 6022SOL    HW118440   4.405   1.626   7.503
 6022SOL    HW218441   4.356   1.527   7.623
 6023SOL     OW18442   3.987   0.326   8.168
 6023SOL    HW118443   3.908   0.377   8.134
 6023SOL    HW218444   3.978   0.311   8.266
 6024SOL     OW18445   4.546   1.002   8.820
 6024SOL    HW118446   4.586   1.001   8.728
 6024SOL    HW218447   4.556   1.094   8.860
 6025SOL     OW18448   4.640   0.910   7.739
 6025SOL    HW118449   4.703   0.948   7.671
 6025SOL    HW218450   4.680   0.827   7.778
 6026SOL     OW18451   4.096   1.288   8.938
 6026SOL    HW118452   4.083   1.381   8.904
 6026SOL    HW218453   4.012   1.236   8.925
 6027SOL     OW18454   4.763   1.098   8.144
 6027SOL    HW118455   4.693   1.051   8.198
 6027SOL    HW218456   4.822   1.030   8.101
 6028SOL     OW18457   4.738   0.236   8.419
 6028SOL    HW118458   4.730   0.200   8.326
 6028SOL    HW218459   4.736   0.160   8.484
 6029SOL     OW18460   4.314   1.487   7.939
 6029SOL    HW118461   4.356   1.429   7.869
 6029SOL    HW218462   4.270   1.566   7.895
 6030SOL     OW18463   3.979   1.348   7.738
 6030SOL    HW118464   3.883   1.349   7.711
 6030SOL    HW218465   3.991   1.401   7.822
 6031SOL     OW18466   3.799   0.345   7.481
 6031SOL    HW118467   3.707   0.317   7.452
 6031SOL    HW218468   3.830   0.422   7.425
 6032SOL     OW18469   3.796   0.166   7.766
 6032SOL    HW118470   3.779   0.249   7.712
 6032SOL    HW218471   3.886   0.129   7.744
 6033SOL     OW18472   4.337   0.842   8.879
 6033SOL    HW118473   4.393   0.923   8.862
 6033SOL    HW218474   4.396   0.762   8.882
 6034SOL     OW18475   4.114   1.741   9.008
 6034SOL    HW118476   4.023   1.782   9.006
 6034SOL    HW218477   4.107   1.647   9.040
 6035SOL     OW18478   4.318   0.745   8.100
 6035SOL    HW118479   4.368   0.830   8.081
 6035SOL    HW218480   4.230   0.747   8.052
 6036SOL     OW18481   4.583   1.374   7.464
 6036SOL    HW118482   4.537   1.389   7.552
 6036SOL    HW218483   4.627   1.459   7.434
 6037SOL     OW18484   4.385   1.790   8.401
 6037SOL    HW118485   4.339   1.878   8.388
 6037SOL    HW218486   4.484   1.802   8.394
 6038SOL     OW18487   4.583   0.956   8.309
 6038SOL    HW118488   4.637   0.887   8.357
 6038SOL    HW218489   4.551   1.025   8.375
 6039SOL     OW18490   4.807   0.984   7.535
 6039SOL    HW118491   4.784   1.037   7.453
 6039SOL    HW218492   4.888   0.928   7.516
 6040SOL     OW18493   3.803   1.240   8.101
 6040SOL    HW118494   3.802   1.193   8.189
 6040SOL    HW218495   3.885   1.212   8.050
 6041SOL     OW18496   4.152   0.424   7.968
 6041SOL    HW118497   4.182   0.352   7.906
 6041SOL    HW218498   4.113   0.384   8.051
 6042SOL     OW18499   4.041   0.547   8.728
 6042SOL    HW118500   4.079   0.488   8.800
 6042SOL    HW218501   4.081   0.521   8.640
 6043SOL     OW18502   4.536   1.586   8.135
 6043SOL    HW118503   4.568   1.596   8.041
 6043SOL    HW218504   4.457   1.524   8.137
 6044SOL     OW18505   4.725   0.034   8.602
 6044SOL    HW118506   4.662  -0.038   8.571
 6044SOL    HW218507   4.818  -0.002   8.602
 6045SOL     OW18508   4.494   1.330   7.749
 6045SOL    HW118509   4.448   1.243   7.766
 6045SOL    HW218510   4.585   1.327   7.790
 6046SOL     OW18511   4.342   1.567   8.732
 6046SOL    HW118512   4.337   1.649   8.789
 6046SOL    HW218513   4.431   1.564   8.687
 6047SOL     OW18514   3.763   1.077   7.748
 6047SOL    HW118515   3.862   1.066   7.739
 6047SOL    HW218516   3.723   0.991   7.780
 6048SOL     OW18517   4.599   1.646   7.785
 6048SOL    HW118518   4.522   1.611   7.731
 6048SOL    HW218519   4.567   1.717   7.847
 6049SOL     OW18520   3.954   2.490   0.113
 6049SOL    HW118521   3.861   2.488   0.150
 6049SOL    HW218522   3.955   2.451   0.021
 6050SOL     OW18523   3.949   2.137   0.996
 6050SOL    HW118524   3.984   2.120   1.088
 6050SOL    HW218525   3.861   2.092   0.984
 6051SOL     OW18526   3.743   2.230   0.647
 6051SOL    HW118527   3.661   2.273   0.686
 6051SOL    HW218528   3.715   2.157   0.584
 6052SOL     OW18529   4.293   3.137   1.165
 6052SOL    HW118530   4.200   3.130   1.128
 6052SOL    HW218531   4.304   3.226   1.209
 6053SOL     OW18532   4.859   2.565   0.717
 6053SOL    HW118533   4.916   2.643   0.692
 6053SOL    HW218534   4.799   2.591   0.793
 6054SOL     OW18535   4.492   3.006   1.023
 6054SOL    HW118536   4.414   3.023   1.083
 6054SOL    HW218537   4.526   3.093   0.987
 6055SOL     OW18538   4.574   2.660   1.823
 6055SOL    HW118539   4.570   2.736   1.888
 6055SOL    HW218540   4.596   2.696   1.732
 6056SOL     OW18541   4.409   2.874   0.665
 6056SOL    HW118542   4.478   2.858   0.735
 6056SOL    HW218543   4.336   2.931   0.703
 6057SOL     OW18544   4.410   3.023   1.803
 6057SOL    HW118545   4.470   3.102   1.817
 6057SOL    HW218546   4.324   3.054   1.762
 6058SOL     OW18547   4.059   3.297   1.061
 6058SOL    HW118548   3.981   3.266   1.008
 6058SOL    HW218549   4.117   3.355   1.004
 6059SOL     OW18550   4.162   2.254   1.499
 6059SOL    HW118551   4.244   2.198   1.508
 6059SOL    HW218552   4.081   2.196   1.503
 6060SOL     OW18553   3.955   3.575   0.483
 6060SOL    HW118554   3.989   3.652   0.537
 6060SOL    HW218555   3.999   3.575   0.393
 6061SOL     OW18556   4.851   3.203   1.690
 6061SOL    HW118557   4.898   3.203   1.778
 6061SOL    HW218558   4.803   3.116   1.679
 6062SOL     OW18559   3.954   3.296   0.538
 6062SOL    HW118560   3.928   3.392   0.538
 6062SOL    HW218561   3.883   3.242   0.583
 6063SOL     OW18562   3.964   2.953   0.886
 6063SOL    HW118563   3.978   2.869   0.938
 6063SOL    HW218564   3.909   3.017   0.941
 6064SOL     OW18565   4.344   3.648   1.439
 6064SOL    HW118566   4.252   3.631   1.474
 6064SOL    HW218567   4.372   3.740   1.465
 6065SOL     OW18568   4.330   2.826   0.123
 6065SOL    HW118569   4.337   2.910   0.069
 6065SOL    HW218570   4.376   2.839   0.211
 6066SOL     OW18571   3.846   2.505   0.563
 6066SOL    HW118572   3.801   2.417   0.580
 6066SOL    HW218573   3.845   2.559   0.647
 6067SOL     OW18574   3.751   3.458   0.117
 6067SOL    HW118575   3.732   3.362   0.138
 6067SOL    HW218576   3.718   3.516   0.192
 6068SOL     OW18577   3.837   2.599   1.597
 6068SOL    HW118578   3.925   2.586   1.642
 6068SOL    HW218579   3.824   2.696   1.575
 6069SOL     OW18580   4.337   3.227   0.726
 6069SOL    HW118581   4.288   3.140   0.735
 6069SOL    HW218582   4.314   3.270   0.639
 6070SOL     OW18583   4.533   1.866   0.502
 6070SOL    HW118584   4.573   1.957   0.493
 6070SOL    HW218585   4.433   1.874   0.508
 6071SOL     OW18586   3.921   2.838   1.264
 6071SOL    HW118587   4.010   2.793   1.250
 6071SOL    HW218588   3.848   2.773   1.245
 6072SOL     OW18589   4.041   2.113   1.801
 6072SOL    HW118590   4.112   2.184   1.807
 6072SOL    HW218591   3.953   2.152   1.829
 6073SOL     OW18592   4.322   2.591   0.270
 6073SOL    HW118593   4.346   2.660   0.202
 6073SOL    HW218594   4.244   2.624   0.324
 6074SOL     OW18595   4.531   2.467   1.465
 6074SOL    HW118596   4.484   2.464   1.554
 6074SOL    HW218597   4.480   2.412   1.399
 6075SOL     OW18598   4.697   2.752   1.572
 6075SOL    HW118599   4.743   2.668   1.543
 6075SOL    HW218600   4.641   2.786   1.497
 6076SOL     OW18601   4.715   2.272   1.242
 6076SOL    HW118602   4.638   2.306   1.296
 6076SOL    HW218603   4.681   2.221   1.163
 6077SOL     OW18604   4.765   2.563   0.429
 6077SOL    HW118605   4.791   2.559   0.525
 6077SOL    HW218606   4.680   2.512   0.415
 6078SOL     OW18607   3.800   2.673   0.789
 6078SOL    HW118608   3.899   2.661   0.798
 6078SOL    HW218609   3.776   2.768   0.810
 6079SOL     OW18610   3.854   3.683   1.571
 6079SOL    HW118611   3.844   3.668   1.670
 6079SOL    HW218612   3.768   3.719   1.535
 6080SOL     OW18613   4.589   2.210   0.195
 6080SOL    HW118614   4.648   2.273   0.146
 6080SOL    HW218615   4.608   2.116   0.166
 6081SOL     OW18616   4.274   2.058   0.885
 6081SOL    HW118617   4.269   2.053   0.985
 6081SOL    HW218618   4.276   2.154   0.856
 6082SOL     OW18619   4.732   3.318   0.477
 6082SOL    HW118620   4.686   3.390   0.425
 6082SOL    HW218621   4.728   3.338   0.575
 6083SOL     OW18622   4.075   3.663   0.853
 6083SOL    HW118623   4.125   3.577   0.859
 6083SOL    HW218624   4.140   3.740   0.850
 6084SOL     OW18625   4.951   3.412   1.506
 6084SOL    HW118626   4.957   3.335   1.570
 6084SOL    HW218627   4.899   3.386   1.426
 6085SOL     OW18628   4.045   2.805   0.242
 6085SOL    HW118629   4.127   2.844   0.200
 6085SOL    HW218630   4.018   2.723   0.193
 6086SOL     OW18631   4.185   3.128   1.727
 6086SOL    HW118632   4.135   3.129   1.641
 6086SOL    HW218633   4.122   3.110   1.803
 6087SOL     OW18634   4.835   3.638   0.237
 6087SOL    HW118635   4.775   3.576   0.287
 6087SOL    HW218636   4.866   3.594   0.152
 6088SOL     OW18637   3.926   2.147   1.498
 6088SOL    HW118638   3.846   2.207   1.485
 6088SOL    HW218639   3.916   2.098   1.584
 6089SOL     OW18640   4.188   3.605   0.323
 6089SOL    HW118641   4.221   3.644   0.409
 6089SOL    HW218642   4.264   3.598   0.258
 6090SOL     OW18643   3.973   3.647   1.241
 6090SOL    HW118644   4.030   3.582   1.291
 6090SOL    HW218645   3.957   3.614   1.148
 6091SOL     OW18646   4.664   3.560   0.904
 6091SOL    HW118647   4.744   3.503   0.925
 6091SOL    HW218648   4.615   3.520   0.827
 6092SOL     OW18649   4.106   2.562   0.480
 6092SOL    HW118650   4.151   2.472   0.477
 6092SOL    HW218651   4.012   2.551   0.513
 6093SOL     OW18652   4.338   1.984   0.117
 6093SOL    HW118653   4.436   1.962   0.124
 6093SOL    HW218654   4.307   1.967   0.024
 6094SOL     OW18655   4.505   2.126   1.749
 6094SOL    HW118656   4.572   2.065   1.792
 6094SOL    HW218657   4.432   2.145   1.814
 6095SOL     OW18658   4.612   3.376   1.195
 6095SOL    HW118659   4.589   3.351   1.101
 6095SOL    HW218660   4.673   3.307   1.234
 6096SOL     OW18661   4.527   3.264   0.924
 6096SOL    HW118662   4.617   3.278   0.882
 6096SOL    HW218663   4.456   3.266   0.853
 6097SOL     OW18664   4.646   2.365   0.899
 6097SOL    HW118665   4.621   2.356   0.803
 6097SOL    HW218666   4.694   2.283   0.930
 6098SOL     OW18667   4.263   1.926   0.512
 6098SOL    HW118668   4.182   1.927   0.570
 6098SOL    HW218669   4.266   2.009   0.457
 6099SOL     OW18670   4.021   1.897   0.171
 6099SOL    HW118671   4.070   1.981   0.150
 6099SOL    HW218672   4.083   1.832   0.216
 6100SOL     OW18673   4.659   2.098   0.480
 6100SOL    HW118674   4.611   2.139   0.402
 6100SOL    HW218675   4.758   2.096   0.461
 6101SOL     OW18676   4.800   2.545   1.464
 6101SOL    HW118677   4.720   2.484   1.467
 6101SOL    HW218678   4.881   2.492   1.440
 6102SOL     OW18679   4.951   3.432   0.793
 6102SOL    HW118680   4.972   3.506   0.728
 6102SOL    HW218681   5.019   3.432   0.866
 6103SOL     OW18682   4.183   3.014   0.741
 6103SOL    HW118683   4.112   2.987   0.806
 6103SOL    HW218684   4.157   2.986   0.648
 6104SOL     OW18685   4.995   3.659   0.591
 6104SOL    HW118686   5.039   3.723   0.527
 6104SOL    HW218687   4.945   3.711   0.661
 6105SOL     OW18688   4.756   2.411   0.016
 6105SOL    HW118689   4.715   2.493  -0.023
 6105SOL    HW218690   4.820   2.437   0.089
 6106SOL     OW18691   3.802   2.418   1.386
 6106SOL    HW118692   3.894   2.417   1.345
 6106SOL    HW218693   3.796   2.492   1.453
 6107SOL     OW18694   4.285   2.084   1.147
 6107SOL    HW118695   4.323   2.000   1.184
 6107SOL    HW218696   4.197   2.103   1.191
 6108SOL     OW18697   4.590   2.316   0.642
 6108SOL    HW118698   4.558   2.388   0.580
 6108SOL    HW218699   4.614   2.235   0.589
 6109SOL     OW18700   4.741   1.901   0.753
 6109SOL    HW118701   4.669   1.906   0.684
 6109SOL    HW218702   4.717   1.832   0.822
 6110SOL     OW18703   4.212   3.247   0.174
 6110SOL    HW118704   4.125   3.232   0.221
 6110SOL    HW218705   4.195   3.273   0.079
 6111SOL     OW18706   4.251   2.118   0.328
 6111SOL    HW118707   4.278   2.059   0.253
 6111SOL    HW218708   4.251   2.213   0.297
 6112SOL     OW18709   4.788   3.209   1.340
 6112SOL    HW118710   4.708   3.186   1.395
 6112SOL    HW218711   4.871   3.183   1.389
 6113SOL     OW18712   4.835   3.057   1.100
 6113SOL    HW118713   4.795   3.101   1.181
 6113SOL    HW218714   4.794   3.094   1.017
 6114SOL     OW18715   4.639   1.951   1.402
 6114SOL    HW118716   4.664   1.931   1.307
 6114SOL    HW218717   4.711   2.007   1.444
 6115SOL     OW18718   4.704   2.978   1.719
 6115SOL    HW118719   4.605   2.984   1.729
 6115SOL    HW218720   4.727   2.898   1.663
 6116SOL     OW18721   4.429   2.912   0.368
 6116SOL    HW118722   4.415   2.919   0.467
 6116SOL    HW218723   4.513   2.861   0.350
 6117SOL     OW18724   4.134   2.675   1.251
 6117SOL    HW118725   4.220   2.687   1.301
 6117SOL    HW218726   4.092   2.588   1.278
 6118SOL     OW18727   3.788   3.426   1.331
 6118SOL    HW118728   3.742   3.508   1.297
 6118SOL    HW218729   3.886   3.445   1.340
 6119SOL     OW18730   4.091   2.962   0.501
 6119SOL    HW118731   4.084   3.045   0.445
 6119SOL    HW218732   4.095   2.882   0.441
 6120SOL     OW18733   4.290   2.399   0.865
 6120SOL    HW118734   4.302   2.465   0.791
 6120SOL    HW218735   4.336   2.433   0.948
 6121SOL     OW18736   4.976   3.210   0.388
 6121SOL    HW118737   5.026   3.287   0.428
 6121SOL    HW218738   4.881   3.212   0.420
 6122SOL     OW18739   4.078   3.372   1.329
 6122SOL    HW118740   4.057   3.328   1.242
 6122SOL    HW218741   4.175   3.398   1.332
 6123SOL     OW18742   4.126   2.613   1.598
 6123SOL    HW118743   4.194   2.668   1.551
 6123SOL    HW218744   4.166   2.525   1.625
 6124SOL     OW18745   4.737   1.967   1.770
 6124SOL    HW118746   4.743   2.052   1.718
 6124SOL    HW218747   4.769   1.891   1.713
 6125SOL     OW18748   4.228   1.912   1.740
 6125SOL    HW118749   4.186   1.855   1.670
 6125SOL    HW218750   4.162   1.981   1.772
 6126SOL     OW18751   4.297   2.732   1.029
 6126SOL    HW118752   4.341   2.821   1.020
 6126SOL    HW218753   4.234   2.732   1.106
 6127SOL     OW18754   5.084   2.724   1.045
 6127SOL    HW118755   5.009   2.724   0.979
 6127SOL    HW218756   5.121   2.632   1.054
 6128SOL     OW18757   4.933   2.387   0.275
 6128SOL    HW118758   4.946   2.303   0.329
 6128SOL    HW218759   4.904   2.461   0.335
 6129SOL     OW18760   4.031   2.075   1.231
 6129SOL    HW118761   4.008   2.112   1.321
 6129SOL    HW218762   4.001   1.980   1.225
 6130SOL     OW18763   3.761   3.172   1.282
 6130SOL    HW118764   3.814   3.123   1.350
 6130SOL    HW218765   3.783   3.270   1.287
 6131SOL     OW18766   4.456   2.496   1.064
 6131SOL    HW118767   4.515   2.470   0.988
 6131SOL    HW218768   4.428   2.592   1.053
 6132SOL     OW18769   4.031   1.925   0.618
 6132SOL    HW118770   4.020   2.019   0.651
 6132SOL    HW218771   4.026   1.862   0.695
 6133SOL     OW18772   4.747   2.628   0.966
 6133SOL    HW118773   4.762   2.649   1.062
 6133SOL    HW218774   4.717   2.533   0.957
 6134SOL     OW18775   4.704   3.435   1.700
 6134SOL    HW118776   4.684   3.479   1.612
 6134SOL    HW218777   4.743   3.344   1.684
 6135SOL     OW18778   4.074   2.760   1.804
 6135SOL    HW118779   4.150   2.804   1.852
 6135SOL    HW218780   4.109   2.713   1.722
 6136SOL     OW18781   5.027   2.700   0.042
 6136SOL    HW118782   5.061   2.607   0.057
 6136SOL    HW218783   5.045   2.727  -0.053
 6137SOL     OW18784   4.792   3.195   0.849
 6137SOL    HW118785   4.799   3.111   0.794
 6137SOL    HW218786   4.854   3.264   0.813
 6138SOL     OW18787   4.043   2.672   0.949
 6138SOL    HW118788   4.136   2.708   0.954
 6138SOL    HW218789   4.037   2.587   1.001
 6139SOL     OW18790   4.063   2.371   1.006
 6139SOL    HW118791   4.011   2.288   0.989
 6139SOL    HW218792   4.140   2.376   0.942
 6140SOL     OW18793   4.862   2.242   1.678
 6140SOL    HW118794   4.817   2.305   1.742
 6140SOL    HW218795   4.955   2.273   1.661
 6141SOL     OW18796   4.884   2.069   1.477
 6141SOL    HW118797   4.884   2.133   1.554
 6141SOL    HW218798   4.912   2.117   1.394
 6142SOL     OW18799   3.732   3.188   0.200
 6142SOL    HW118800   3.639   3.209   0.169
 6142SOL    HW218801   3.742   3.089   0.213
 6143SOL     OW18802   3.812   3.663   0.927
 6143SOL    HW118803   3.770   3.577   0.900
 6143SOL    HW218804   3.906   3.666   0.893
 6144SOL     OW18805   4.228   3.430   0.910
 6144SOL    HW118806   4.294   3.504   0.919
 6144SOL    HW218807   4.272   3.351   0.868
 6145SOL     OW18808   4.726   2.658   1.238
 6145SOL    HW118809   4.767   2.626   1.324
 6145SOL    HW218810   4.630   2.631   1.235
 6146SOL     OW18811   3.764   2.406   1.114
 6146SOL    HW118812   3.849   2.373   1.073
 6146SOL    HW218813   3.777   2.421   1.212
 6147SOL     OW18814   3.913   2.382   1.722
 6147SOL    HW118815   3.972   2.342   1.652
 6147SOL    HW218816   3.855   2.453   1.681
 6148SOL     OW18817   4.539   2.434   0.325
 6148SOL    HW118818   4.546   2.345   0.279
 6148SOL    HW218819   4.445   2.468   0.317
 6149SOL     OW18820   3.976   3.426   1.744
 6149SOL    HW118821   3.946   3.483   1.820
 6149SOL    HW218822   3.969   3.329   1.770
 6150SOL     OW18823   4.395   2.326   1.269
 6150SOL    HW118824   4.361   2.237   1.239
 6150SOL    HW218825   4.421   2.380   1.189
 6151SOL     OW18826   4.654   3.540   1.465
 6151SOL    HW118827   4.630   3.522   1.370
 6151SOL    HW218828   4.684   3.634   1.475
 6152SOL     OW18829   4.197   2.362   0.191
 6152SOL    HW118830   4.258   2.442   0.195
 6152SOL    HW218831   4.102   2.393   0.198
 6153SOL     OW18832   3.883   2.999   1.466
 6153SOL    HW118833   3.905   2.938   1.542
 6153SOL    HW218834   3.893   2.950   1.380
 6154SOL     OW18835   4.976   3.593   1.128
 6154SOL    HW118836   5.060   3.598   1.074
 6154SOL    HW218837   4.953   3.497   1.146
 6155SOL     OW18838   3.807   3.120   1.022
 6155SOL    HW118839   3.802   3.119   1.122
 6155SOL    HW218840   3.724   3.079   0.984
 6156SOL     OW18841   4.412   3.524   1.716
 6156SOL    HW118842   4.356   3.605   1.725
 6156SOL    HW218843   4.464   3.528   1.630
 6157SOL     OW18844   4.627   1.948   0.133
 6157SOL    HW118845   4.678   1.949   0.047
 6157SOL    HW218846   4.683   1.906   0.204
 6158SOL     OW18847   3.854   3.656   1.851
 6158SOL    HW118848   3.813   3.582   1.904
 6158SOL    HW218849   3.918   3.707   1.909
 6159SOL     OW18850   4.554   3.135   1.422
 6159SOL    HW118851   4.549   3.168   1.517
 6159SOL    HW218852   4.468   3.154   1.376
 6160SOL     OW18853   4.396   3.478   0.154
 6160SOL    HW118854   4.405   3.488   0.055
 6160SOL    HW218855   4.356   3.389   0.175
 6161SOL     OW18856   3.987   2.188   0.720
 6161SOL    HW118857   3.908   2.239   0.686
 6161SOL    HW218858   3.978   2.173   0.818
 6162SOL     OW18859   4.546   2.864   1.372
 6162SOL    HW118860   4.586   2.863   1.280
 6162SOL    HW218861   4.556   2.956   1.412
 6163SOL     OW18862   4.640   2.772   0.291
 6163SOL    HW118863   4.703   2.810   0.223
 6163SOL    HW218864   4.680   2.689   0.330
 6164SOL     OW18865   4.096   3.150   1.490
 6164SOL    HW118866   4.083   3.243   1.456
 6164SOL    HW218867   4.012   3.098   1.477
 6165SOL     OW18868   4.763   2.960   0.696
 6165SOL    HW118869   4.693   2.913   0.750
 6165SOL    HW218870   4.822   2.892   0.653
 6166SOL     OW18871   4.738   2.098   0.971
 6166SOL    HW118872   4.730   2.062   0.878
 6166SOL    HW218873   4.736   2.022   1.036
 6167SOL     OW18874   4.314   3.349   0.491
 6167SOL    HW118875   4.356   3.291   0.421
 6167SOL    HW218876   4.270   3.428   0.447
 6168SOL     OW18877   3.979   3.210   0.290
 6168SOL    HW118878   3.883   3.211   0.263
 6168SOL    HW218879   3.991   3.263   0.374
 6169SOL     OW18880   3.829   2.875   1.726
 6169SOL    HW118881   3.752   2.842   1.780
 6169SOL    HW218882   3.914   2.845   1.768
 6170SOL     OW18883   4.396   2.065   1.489
 6170SOL    HW118884   4.486   2.049   1.449
 6170SOL    HW218885   4.404   2.070   1.588
 6171SOL     OW18886   3.796   2.028   0.318
 6171SOL    HW118887   3.779   2.111   0.264
 6171SOL    HW218888   3.886   1.991   0.296
 6172SOL     OW18889   4.337   2.704   1.431
 6172SOL    HW118890   4.393   2.785   1.414
 6172SOL    HW218891   4.396   2.624   1.434
 6173SOL     OW18892   4.440   2.427   1.708
 6173SOL    HW118893   4.459   2.492   1.782
 6173SOL    HW218894   4.500   2.347   1.717
 6174SOL     OW18895   4.114   3.603   1.560
 6174SOL    HW118896   4.023   3.644   1.558
 6174SOL    HW218897   4.107   3.509   1.592
 6175SOL     OW18898   4.318   2.607   0.652
 6175SOL    HW118899   4.368   2.692   0.633
 6175SOL    HW218900   4.230   2.609   0.604
 6176SOL     OW18901   4.583   3.236   0.016
 6176SOL    HW118902   4.537   3.251   0.104
 6176SOL    HW218903   4.627   3.321  -0.014
 6177SOL     OW18904   4.385   3.652   0.953
 6177SOL    HW118905   4.339   3.740   0.940
 6177SOL    HW218906   4.484   3.664   0.946
 6178SOL     OW18907   4.583   2.818   0.861
 6178SOL    HW118908   4.637   2.749   0.909
 6178SOL    HW218909   4.551   2.887   0.927
 6179SOL     OW18910   4.807   2.846   0.087
 6179SOL    HW118911   4.784   2.899   0.005
 6179SOL    HW218912   4.888   2.790   0.068
 6180SOL     OW18913   3.945   3.176   1.844
 6180SOL    HW118914   3.880   3.103   1.823
 6180SOL    HW218915   3.949   3.190   1.942
 6181SOL     OW18916   3.803   3.102   0.653
 6181SOL    HW118917   3.802   3.055   0.741
 6181SOL    HW218918   3.885   3.074   0.602
 6182SOL     OW18919   4.396   3.253   1.624
 6182SOL    HW118920   4.318   3.203   1.662
 6182SOL    HW218921   4.393   3.348   1.655
 6183SOL     OW18922   4.152   2.286   0.520
 6183SOL    HW118923   4.182   2.214   0.458
 6183SOL    HW218924   4.113   2.246   0.603
 6184SOL     OW18925   4.041   2.409   1.280
 6184SOL    HW118926   4.079   2.350   1.352
 6184SOL    HW218927   4.081   2.383   1.192
 6185SOL     OW18928   4.536   3.448   0.687
 6185SOL    HW118929   4.568   3.458   0.593
 6185SOL    HW218930   4.457   3.386   0.689
 6186SOL     OW18931   4.725   1.896   1.154
 6186SOL    HW118932   4.662   1.824   1.123
 6186SOL    HW218933   4.818   1.860   1.154
 6187SOL     OW18934   4.494   3.192   0.301
 6187SOL    HW118935   4.448   3.105   0.318
 6187SOL    HW218936   4.585   3.189   0.342
 6188SOL     OW18937   4.342   3.429   1.284
 6188SOL    HW118938   4.337   3.511   1.341
 6188SOL    HW218939   4.431   3.426   1.239
 6189SOL     OW18940   3.763   2.939   0.300
 6189SOL    HW118941   3.862   2.928   0.291
 6189SOL    HW218942   3.723   2.853   0.332
 6190SOL     OW18943   4.599   3.508   0.337
 6190SOL    HW118944   4.522   3.473   0.283
 6190SOL    HW218945   4.567   3.579   0.399
 6191SOL     OW18946   3.954   2.490   1.975
 6191SOL    HW118947   3.861   2.488   2.012
 6191SOL    HW218948   3.955   2.451   1.883
 6192SOL     OW18949   3.949   2.137   2.858
 6192SOL    HW118950   3.984   2.120   2.950
 6192SOL    HW218951   3.861   2.092   2.846
 6193SOL     OW18952   3.743   2.230   2.509
 6193SOL    HW118953   3.661   2.273   2.548
 6193SOL    HW218954   3.715   2.157   2.446
 6194SOL     OW18955   4.293   3.137   3.027
 6194SOL    HW118956   4.200   3.130   2.990
 6194SOL    HW218957   4.304   3.226   3.071
 6195SOL     OW18958   4.859   2.565   2.579
 6195SOL    HW118959   4.916   2.643   2.554
 6195SOL    HW218960   4.799   2.591   2.655
 6196SOL     OW18961   4.492   3.006   2.885
 6196SOL    HW118962   4.414   3.023   2.945
 6196SOL    HW218963   4.526   3.093   2.849
 6197SOL     OW18964   4.574   2.660   3.685
 6197SOL    HW118965   4.570   2.736   3.750
 6197SOL    HW218966   4.596   2.696   3.594
 6198SOL     OW18967   4.409   2.874   2.527
 6198SOL    HW118968   4.478   2.858   2.597
 6198SOL    HW218969   4.336   2.931   2.565
 6199SOL     OW18970   4.410   3.023   3.665
 6199SOL    HW118971   4.470   3.102   3.679
 6199SOL    HW218972   4.324   3.054   3.624
 6200SOL     OW18973   4.059   3.297   2.923
 6200SOL    HW118974   3.981   3.266   2.870
 6200SOL    HW218975   4.117   3.355   2.866
 6201SOL     OW18976   4.162   2.254   3.361
 6201SOL    HW118977   4.244   2.198   3.370
 6201SOL    HW218978   4.081   2.196   3.365
 6202SOL     OW18979   3.955   3.575   2.345
 6202SOL    HW118980   3.989   3.652   2.399
 6202SOL    HW218981   3.999   3.575   2.255
 6203SOL     OW18982   4.851   3.203   3.552
 6203SOL    HW118983   4.898   3.203   3.640
 6203SOL    HW218984   4.803   3.116   3.541
 6204SOL     OW18985   3.954   3.296   2.400
 6204SOL    HW118986   3.928   3.392   2.400
 6204SOL    HW218987   3.883   3.242   2.445
 6205SOL     OW18988   3.964   2.953   2.748
 6205SOL    HW118989   3.978   2.869   2.800
 6205SOL    HW218990   3.909   3.017   2.803
 6206SOL     OW18991   4.344   3.648   3.301
 6206SOL    HW118992   4.252   3.631   3.336
 6206SOL    HW218993   4.372   3.740   3.327
 6207SOL     OW18994   4.330   2.826   1.985
 6207SOL    HW118995   4.337   2.910   1.931
 6207SOL    HW218996   4.376   2.839   2.073
 6208SOL     OW18997   3.846   2.505   2.425
 6208SOL    HW118998   3.801   2.417   2.442
 6208SOL    HW218999   3.845   2.559   2.509
 6209SOL     OW19000   3.751   3.458   1.979
 6209SOL    HW119001   3.732   3.362   2.000
 6209SOL    HW219002   3.718   3.516   2.054
 6210SOL     OW19003   3.837   2.599   3.459
 6210SOL    HW119004   3.925   2.586   3.504
 6210SOL    HW219005   3.824   2.696   3.437
 6211SOL     OW19006   4.337   3.227   2.588
 6211SOL    HW119007   4.288   3.140   2.597
 6211SOL    HW219008   4.314   3.270   2.501
 6212SOL     OW19009   4.533   1.866   2.364
 6212SOL    HW119010   4.573   1.957   2.355
 6212SOL    HW219011   4.433   1.874   2.370
 6213SOL     OW19012   3.921   2.838   3.126
 6213SOL    HW119013   4.010   2.793   3.112
 6213SOL    HW219014   3.848   2.773   3.107
 6214SOL     OW19015   4.041   2.113   3.663
 6214SOL    HW119016   4.112   2.184   3.669
 6214SOL    HW219017   3.953   2.152   3.691
 6215SOL     OW19018   4.322   2.591   2.132
 6215SOL    HW119019   4.346   2.660   2.064
 6215SOL    HW219020   4.244   2.624   2.186
 6216SOL     OW19021   4.531   2.467   3.327
 6216SOL    HW119022   4.484   2.464   3.416
 6216SOL    HW219023   4.480   2.412   3.261
 6217SOL     OW19024   4.697   2.752   3.434
 6217SOL    HW119025   4.743   2.668   3.405
 6217SOL    HW219026   4.641   2.786   3.359
 6218SOL     OW19027   4.715   2.272   3.104
 6218SOL    HW119028   4.638   2.306   3.158
 6218SOL    HW219029   4.681   2.221   3.025
 6219SOL     OW19030   4.765   2.563   2.291
 6219SOL    HW119031   4.791   2.559   2.387
 6219SOL    HW219032   4.680   2.512   2.277
 6220SOL     OW19033   3.800   2.673   2.651
 6220SOL    HW119034   3.899   2.661   2.660
 6220SOL    HW219035   3.776   2.768   2.672
 6221SOL     OW19036   3.854   3.683   3.433
 6221SOL    HW119037   3.844   3.668   3.532
 6221SOL    HW219038   3.768   3.719   3.397
 6222SOL     OW19039   4.589   2.210   2.057
 6222SOL    HW119040   4.648   2.273   2.008
 6222SOL    HW219041   4.608   2.116   2.028
 6223SOL     OW19042   4.274   2.058   2.747
 6223SOL    HW119043   4.269   2.053   2.847
 6223SOL    HW219044   4.276   2.154   2.718
 6224SOL     OW19045   4.732   3.318   2.339
 6224SOL    HW119046   4.686   3.390   2.287
 6224SOL    HW219047   4.728   3.338   2.437
 6225SOL     OW19048   4.075   3.663   2.715
 6225SOL    HW119049   4.125   3.577   2.721
 6225SOL    HW219050   4.140   3.740   2.712
 6226SOL     OW19051   4.951   3.412   3.368
 6226SOL    HW119052   4.957   3.335   3.432
 6226SOL    HW219053   4.899   3.386   3.288
 6227SOL     OW19054   4.045   2.805   2.104
 6227SOL    HW119055   4.127   2.844   2.062
 6227SOL    HW219056   4.018   2.723   2.055
 6228SOL     OW19057   4.185   3.128   3.589
 6228SOL    HW119058   4.135   3.129   3.503
 6228SOL    HW219059   4.122   3.110   3.665
 6229SOL     OW19060   4.835   3.638   2.099
 6229SOL    HW119061   4.775   3.576   2.149
 6229SOL    HW219062   4.866   3.594   2.014
 6230SOL     OW19063   3.926   2.147   3.360
 6230SOL    HW119064   3.846   2.207   3.347
 6230SOL    HW219065   3.916   2.098   3.446
 6231SOL     OW19066   4.188   3.605   2.185
 6231SOL    HW119067   4.221   3.644   2.271
 6231SOL    HW219068   4.264   3.598   2.120
 6232SOL     OW19069   3.973   3.647   3.103
 6232SOL    HW119070   4.030   3.582   3.153
 6232SOL    HW219071   3.957   3.614   3.010
 6233SOL     OW19072   4.664   3.560   2.766
 6233SOL    HW119073   4.744   3.503   2.787
 6233SOL    HW219074   4.615   3.520   2.689
 6234SOL     OW19075   4.106   2.562   2.342
 6234SOL    HW119076   4.151   2.472   2.339
 6234SOL    HW219077   4.012   2.551   2.375
 6235SOL     OW19078   4.338   1.984   1.979
 6235SOL    HW119079   4.436   1.962   1.986
 6235SOL    HW219080   4.307   1.967   1.886
 6236SOL     OW19081   4.505   2.126   3.611
 6236SOL    HW119082   4.572   2.065   3.654
 6236SOL    HW219083   4.432   2.145   3.676
 6237SOL     OW19084   4.612   3.376   3.057
 6237SOL    HW119085   4.589   3.351   2.963
 6237SOL    HW219086   4.673   3.307   3.096
 6238SOL     OW19087   4.527   3.264   2.786
 6238SOL    HW119088   4.617   3.278   2.744
 6238SOL    HW219089   4.456   3.266   2.715
 6239SOL     OW19090   4.646   2.365   2.761
 6239SOL    HW119091   4.621   2.356   2.665
 6239SOL    HW219092   4.694   2.283   2.792
 6240SOL     OW19093   4.263   1.926   2.374
 6240SOL    HW119094   4.182   1.927   2.432
 6240SOL    HW219095   4.266   2.009   2.319
 6241SOL     OW19096   4.021   1.897   2.033
 6241SOL    HW119097   4.070   1.981   2.012
 6241SOL    HW219098   4.083   1.832   2.078
 6242SOL     OW19099   4.659   2.098   2.342
 6242SOL    HW119100   4.611   2.139   2.264
 6242SOL    HW219101   4.758   2.096   2.323
 6243SOL     OW19102   4.800   2.545   3.326
 6243SOL    HW119103   4.720   2.484   3.329
 6243SOL    HW219104   4.881   2.492   3.302
 6244SOL     OW19105   4.951   3.432   2.655
 6244SOL    HW119106   4.972   3.506   2.590
 6244SOL    HW219107   5.019   3.432   2.728
 6245SOL     OW19108   4.183   3.014   2.603
 6245SOL    HW119109   4.112   2.987   2.668
 6245SOL    HW219110   4.157   2.986   2.510
 6246SOL     OW19111   4.995   3.659   2.453
 6246SOL    HW119112   5.039   3.723   2.389
 6246SOL    HW219113   4.945   3.711   2.523
 6247SOL     OW19114   4.756   2.411   1.878
 6247SOL    HW119115   4.715   2.493   1.839
 6247SOL    HW219116   4.820   2.437   1.951
 6248SOL     OW19117   3.802   2.418   3.248
 6248SOL    HW119118   3.894   2.417   3.207
 6248SOL    HW219119   3.796   2.492   3.315
 6249SOL     OW19120   4.285   2.084   3.009
 6249SOL    HW119121   4.323   2.000   3.046
 6249SOL    HW219122   4.197   2.103   3.053
 6250SOL     OW19123   4.590   2.316   2.504
 6250SOL    HW119124   4.558   2.388   2.442
 6250SOL    HW219125   4.614   2.235   2.451
 6251SOL     OW19126   4.741   1.901   2.615
 6251SOL    HW119127   4.669   1.906   2.546
 6251SOL    HW219128   4.717   1.832   2.684
 6252SOL     OW19129   4.212   3.247   2.036
 6252SOL    HW119130   4.125   3.232   2.083
 6252SOL    HW219131   4.195   3.273   1.941
 6253SOL     OW19132   4.251   2.118   2.190
 6253SOL    HW119133   4.278   2.059   2.115
 6253SOL    HW219134   4.251   2.213   2.159
 6254SOL     OW19135   4.788   3.209   3.202
 6254SOL    HW119136   4.708   3.186   3.257
 6254SOL    HW219137   4.871   3.183   3.251
 6255SOL     OW19138   4.835   3.057   2.962
 6255SOL    HW119139   4.795   3.101   3.043
 6255SOL    HW219140   4.794   3.094   2.879
 6256SOL     OW19141   4.639   1.951   3.264
 6256SOL    HW119142   4.664   1.931   3.169
 6256SOL    HW219143   4.711   2.007   3.306
 6257SOL     OW19144   4.704   2.978   3.581
 6257SOL    HW119145   4.605   2.984   3.591
 6257SOL    HW219146   4.727   2.898   3.525
 6258SOL     OW19147   4.429   2.912   2.230
 6258SOL    HW119148   4.415   2.919   2.329
 6258SOL    HW219149   4.513   2.861   2.212
 6259SOL     OW19150   4.134   2.675   3.113
 6259SOL    HW119151   4.220   2.687   3.163
 6259SOL    HW219152   4.092   2.588   3.140
 6260SOL     OW19153   3.788   3.426   3.193
 6260SOL    HW119154   3.742   3.508   3.159
 6260SOL    HW219155   3.886   3.445   3.202
 6261SOL     OW19156   4.091   2.962   2.363
 6261SOL    HW119157   4.084   3.045   2.307
 6261SOL    HW219158   4.095   2.882   2.303
 6262SOL     OW19159   4.290   2.399   2.727
 6262SOL    HW119160   4.302   2.465   2.653
 6262SOL    HW219161   4.336   2.433   2.810
 6263SOL     OW19162   4.976   3.210   2.250
 6263SOL    HW119163   5.026   3.287   2.290
 6263SOL    HW219164   4.881   3.212   2.282
 6264SOL     OW19165   4.078   3.372   3.191
 6264SOL    HW119166   4.057   3.328   3.104
 6264SOL    HW219167   4.175   3.398   3.194
 6265SOL     OW19168   4.126   2.613   3.460
 6265SOL    HW119169   4.194   2.668   3.413
 6265SOL    HW219170   4.166   2.525   3.487
 6266SOL     OW19171   4.737   1.967   3.632
 6266SOL    HW119172   4.743   2.052   3.580
 6266SOL    HW219173   4.769   1.891   3.575
 6267SOL     OW19174   4.228   1.912   3.602
 6267SOL    HW119175   4.186   1.855   3.532
 6267SOL    HW219176   4.162   1.981   3.634
 6268SOL     OW19177   4.297   2.732   2.891
 6268SOL    HW119178   4.341   2.821   2.882
 6268SOL    HW219179   4.234   2.732   2.968
 6269SOL     OW19180   5.084   2.724   2.907
 6269SOL    HW119181   5.009   2.724   2.841
 6269SOL    HW219182   5.121   2.632   2.916
 6270SOL     OW19183   4.933   2.387   2.137
 6270SOL    HW119184   4.946   2.303   2.191
 6270SOL    HW219185   4.904   2.461   2.197
 6271SOL     OW19186   4.031   2.075   3.093
 6271SOL    HW119187   4.008   2.112   3.183
 6271SOL    HW219188   4.001   1.980   3.087
 6272SOL     OW19189   3.761   3.172   3.144
 6272SOL    HW119190   3.814   3.123   3.212
 6272SOL    HW219191   3.783   3.270   3.149
 6273SOL     OW19192   4.456   2.496   2.926
 6273SOL    HW119193   4.515   2.470   2.850
 6273SOL    HW219194   4.428   2.592   2.915
 6274SOL     OW19195   4.031   1.925   2.480
 6274SOL    HW119196   4.020   2.019   2.513
 6274SOL    HW219197   4.026   1.862   2.557
 6275SOL     OW19198   4.747   2.628   2.828
 6275SOL    HW119199   4.762   2.649   2.924
 6275SOL    HW219200   4.717   2.533   2.819
 6276SOL     OW19201   4.704   3.435   3.562
 6276SOL    HW119202   4.684   3.479   3.474
 6276SOL    HW219203   4.743   3.344   3.546
 6277SOL     OW19204   4.074   2.760   3.666
 6277SOL    HW119205   4.150   2.804   3.714
 6277SOL    HW219206   4.109   2.713   3.584
 6278SOL     OW19207   5.264   2.136   1.987
 6278SOL    HW119208   5.203   2.061   2.010
 6278SOL    HW219209   5.286   2.188   2.070
 6279SOL     OW19210   4.792   3.195   2.711
 6279SOL    HW119211   4.799   3.111   2.656
 6279SOL    HW219212   4.854   3.264   2.675
 6280SOL     OW19213   4.043   2.672   2.811
 6280SOL    HW119214   4.136   2.708   2.816
 6280SOL    HW219215   4.037   2.587   2.863
 6281SOL     OW19216   4.063   2.371   2.868
 6281SOL    HW119217   4.011   2.288   2.851
 6281SOL    HW219218   4.140   2.376   2.804
 6282SOL     OW19219   4.862   2.242   3.540
 6282SOL    HW119220   4.817   2.305   3.604
 6282SOL    HW219221   4.955   2.273   3.523
 6283SOL     OW19222   4.884   2.069   3.339
 6283SOL    HW119223   4.884   2.133   3.416
 6283SOL    HW219224   4.912   2.117   3.256
 6284SOL     OW19225   3.732   3.188   2.062
 6284SOL    HW119226   3.639   3.209   2.031
 6284SOL    HW219227   3.742   3.089   2.075
 6285SOL     OW19228   3.812   3.663   2.789
 6285SOL    HW119229   3.770   3.577   2.762
 6285SOL    HW219230   3.906   3.666   2.755
 6286SOL     OW19231   4.228   3.430   2.772
 6286SOL    HW119232   4.294   3.504   2.781
 6286SOL    HW219233   4.272   3.351   2.730
 6287SOL     OW19234   4.726   2.658   3.100
 6287SOL    HW119235   4.767   2.626   3.186
 6287SOL    HW219236   4.630   2.631   3.097
 6288SOL     OW19237   3.764   2.406   2.976
 6288SOL    HW119238   3.849   2.373   2.935
 6288SOL    HW219239   3.777   2.421   3.074
 6289SOL     OW19240   3.913   2.382   3.584
 6289SOL    HW119241   3.972   2.342   3.514
 6289SOL    HW219242   3.855   2.453   3.543
 6290SOL     OW19243   4.539   2.434   2.187
 6290SOL    HW119244   4.546   2.345   2.141
 6290SOL    HW219245   4.445   2.468   2.179
 6291SOL     OW19246   3.976   3.426   3.606
 6291SOL    HW119247   3.946   3.483   3.682
 6291SOL    HW219248   3.969   3.329   3.632
 6292SOL     OW19249   4.395   2.326   3.131
 6292SOL    HW119250   4.361   2.237   3.101
 6292SOL    HW219251   4.421   2.380   3.051
 6293SOL     OW19252   4.654   3.540   3.327
 6293SOL    HW119253   4.630   3.522   3.232
 6293SOL    HW219254   4.684   3.634   3.337
 6294SOL     OW19255   4.197   2.362   2.053
 6294SOL    HW119256   4.258   2.442   2.057
 6294SOL    HW219257   4.102   2.393   2.060
 6295SOL     OW19258   3.883   2.999   3.328
 6295SOL    HW119259   3.905   2.938   3.404
 6295SOL    HW219260   3.893   2.950   3.242
 6296SOL     OW19261   4.976   3.593   2.990
 6296SOL    HW119262   5.060   3.598   2.936
 6296SOL    HW219263   4.953   3.497   3.008
 6297SOL     OW19264   3.807   3.120   2.884
 6297SOL    HW119265   3.802   3.119   2.984
 6297SOL    HW219266   3.724   3.079   2.846
 6298SOL     OW19267   4.412   3.524   3.578
 6298SOL    HW119268   4.356   3.605   3.587
 6298SOL    HW219269   4.464   3.528   3.492
 6299SOL     OW19270   3.854   3.656   3.713
 6299SOL    HW119271   3.813   3.582   3.766
 6299SOL    HW219272   3.918   3.707   3.771
 6300SOL     OW19273   4.554   3.135   3.284
 6300SOL    HW119274   4.549   3.168   3.379
 6300SOL    HW219275   4.468   3.154   3.238
 6301SOL     OW19276   4.396   3.478   2.016
 6301SOL    HW119277   4.405   3.488   1.917
 6301SOL    HW219278   4.356   3.389   2.037
 6302SOL     OW19279   3.987   2.188   2.582
 6302SOL    HW119280   3.908   2.239   2.548
 6302SOL    HW219281   3.978   2.173   2.680
 6303SOL     OW19282   4.546   2.864   3.234
 6303SOL    HW119283   4.586   2.863   3.142
 6303SOL    HW219284   4.556   2.956   3.274
 6304SOL     OW19285   4.640   2.772   2.153
 6304SOL    HW119286   4.703   2.810   2.085
 6304SOL    HW219287   4.680   2.689   2.192
 6305SOL     OW19288   4.096   3.150   3.352
 6305SOL    HW119289   4.083   3.243   3.318
 6305SOL    HW219290   4.012   3.098   3.339
 6306SOL     OW19291   4.763   2.960   2.558
 6306SOL    HW119292   4.693   2.913   2.612
 6306SOL    HW219293   4.822   2.892   2.515
 6307SOL     OW19294   4.738   2.098   2.833
 6307SOL    HW119295   4.730   2.062   2.740
 6307SOL    HW219296   4.736   2.022   2.898
 6308SOL     OW19297   4.314   3.349   2.353
 6308SOL    HW119298   4.356   3.291   2.283
 6308SOL    HW219299   4.270   3.428   2.309
 6309SOL     OW19300   3.979   3.210   2.152
 6309SOL    HW119301   3.883   3.211   2.125
 6309SOL    HW219302   3.991   3.263   2.236
 6310SOL     OW19303   3.829   2.875   3.588
 6310SOL    HW119304   3.752   2.842   3.642
 6310SOL    HW219305   3.914   2.845   3.630
 6311SOL     OW19306   4.396   2.065   3.351
 6311SOL    HW119307   4.486   2.049   3.311
 6311SOL    HW219308   4.404   2.070   3.450
 6312SOL     OW19309   3.799   2.207   1.895
 6312SOL    HW119310   3.707   2.179   1.866
 6312SOL    HW219311   3.830   2.284   1.839
 6313SOL     OW19312   3.796   2.028   2.180
 6313SOL    HW119313   3.779   2.111   2.126
 6313SOL    HW219314   3.886   1.991   2.158
 6314SOL     OW19315   4.337   2.704   3.293
 6314SOL    HW119316   4.393   2.785   3.276
 6314SOL    HW219317   4.396   2.624   3.296
 6315SOL     OW19318   4.440   2.427   3.570
 6315SOL    HW119319   4.459   2.492   3.644
 6315SOL    HW219320   4.500   2.347   3.579
 6316SOL     OW19321   4.114   3.603   3.422
 6316SOL    HW119322   4.023   3.644   3.420
 6316SOL    HW219323   4.107   3.509   3.454
 6317SOL     OW19324   4.318   2.607   2.514
 6317SOL    HW119325   4.368   2.692   2.495
 6317SOL    HW219326   4.230   2.609   2.466
 6318SOL     OW19327   4.583   3.236   1.878
 6318SOL    HW119328   4.537   3.251   1.966
 6318SOL    HW219329   4.627   3.321   1.848
 6319SOL     OW19330   4.385   3.652   2.815
 6319SOL    HW119331   4.339   3.740   2.802
 6319SOL    HW219332   4.484   3.664   2.808
 6320SOL     OW19333   4.583   2.818   2.723
 6320SOL    HW119334   4.637   2.749   2.771
 6320SOL    HW219335   4.551   2.887   2.789
 6321SOL     OW19336   4.807   2.846   1.949
 6321SOL    HW119337   4.784   2.899   1.867
 6321SOL    HW219338   4.888   2.790   1.930
 6322SOL     OW19339   3.945   3.176   3.706
 6322SOL    HW119340   3.880   3.103   3.685
 6322SOL    HW219341   3.949   3.190   3.804
 6323SOL     OW19342   3.803   3.102   2.515
 6323SOL    HW119343   3.802   3.055   2.603
 6323SOL    HW219344   3.885   3.074   2.464
 6324SOL     OW19345   4.396   3.253   3.486
 6324SOL    HW119346   4.318   3.203   3.524
 6324SOL    HW219347   4.393   3.348   3.517
 6325SOL     OW19348   4.152   2.286   2.382
 6325SOL    HW119349   4.182   2.214   2.320
 6325SOL    HW219350   4.113   2.246   2.465
 6326SOL     OW19351   4.041   2.409   3.142
 6326SOL    HW119352   4.079   2.350   3.214
 6326SOL    HW219353   4.081   2.383   3.054
 6327SOL     OW19354   4.536   3.448   2.549
 6327SOL    HW119355   4.568   3.458   2.455
 6327SOL    HW219356   4.457   3.386   2.551
 6328SOL     OW19357   4.725   1.896   3.016
 6328SOL    HW119358   4.662   1.824   2.985
 6328SOL    HW219359   4.818   1.860   3.016
 6329SOL     OW19360   4.494   3.192   2.163
 6329SOL    HW119361   4.448   3.105   2.180
 6329SOL    HW219362   4.585   3.189   2.204
 6330SOL     OW19363   4.342   3.429   3.146
 6330SOL    HW119364   4.337   3.511   3.203
 6330SOL    HW219365   4.431   3.426   3.101
 6331SOL     OW19366   3.763   2.939   2.162
 6331SOL    HW119367   3.862   2.928   2.153
 6331SOL    HW219368   3.723   2.853   2.194
 6332SOL     OW19369   4.599   3.508   2.199
 6332SOL    HW119370   4.522   3.473   2.145
 6332SOL    HW219371   4.567   3.579   2.261
 6333SOL     OW19372   3.954   2.490   3.837
 6333SOL    HW119373   3.861   2.488   3.874
 6333SOL    HW219374   3.955   2.451   3.745
 6334SOL     OW19375   3.949   2.137   4.720
 6334SOL    HW119376   3.984   2.120   4.812
 6334SOL    HW219377   3.861   2.092   4.708
 6335SOL     OW19378   3.743   2.230   4.371
 6335SOL    HW119379   3.661   2.273   4.410
 6335SOL    HW219380   3.715   2.157   4.308
 6336SOL     OW19381   4.293   3.137   4.889
 6336SOL    HW119382   4.200   3.130   4.852
 6336SOL    HW219383   4.304   3.226   4.933
 6337SOL     OW19384   4.859   2.565   4.441
 6337SOL    HW119385   4.916   2.643   4.416
 6337SOL    HW219386   4.799   2.591   4.517
 6338SOL     OW19387   4.492   3.006   4.747
 6338SOL    HW119388   4.414   3.023   4.807
 6338SOL    HW219389   4.526   3.093   4.711
 6339SOL     OW19390   4.574   2.660   5.547
 6339SOL    HW119391   4.570   2.736   5.612
 6339SOL    HW219392   4.596   2.696   5.456
 6340SOL     OW19393   4.409   2.874   4.389
 6340SOL    HW119394   4.478   2.858   4.459
 6340SOL    HW219395   4.336   2.931   4.427
 6341SOL     OW19396   4.410   3.023   5.527
 6341SOL    HW119397   4.470   3.102   5.541
 6341SOL    HW219398   4.324   3.054   5.486
 6342SOL     OW19399   4.059   3.297   4.785
 6342SOL    HW119400   3.981   3.266   4.732
 6342SOL    HW219401   4.117   3.355   4.728
 6343SOL     OW19402   4.162   2.254   5.223
 6343SOL    HW119403   4.244   2.198   5.232
 6343SOL    HW219404   4.081   2.196   5.227
 6344SOL     OW19405   3.955   3.575   4.207
 6344SOL    HW119406   3.989   3.652   4.261
 6344SOL    HW219407   3.999   3.575   4.117
 6345SOL     OW19408   4.851   3.203   5.414
 6345SOL    HW119409   4.898   3.203   5.502
 6345SOL    HW219410   4.803   3.116   5.403
 6346SOL     OW19411   3.954   3.296   4.262
 6346SOL    HW119412   3.928   3.392   4.262
 6346SOL    HW219413   3.883   3.242   4.307
 6347SOL     OW19414   3.964   2.953   4.610
 6347SOL    HW119415   3.978   2.869   4.662
 6347SOL    HW219416   3.909   3.017   4.665
 6348SOL     OW19417   4.344   3.648   5.163
 6348SOL    HW119418   4.252   3.631   5.198
 6348SOL    HW219419   4.372   3.740   5.189
 6349SOL     OW19420   4.330   2.826   3.847
 6349SOL    HW119421   4.337   2.910   3.793
 6349SOL    HW219422   4.376   2.839   3.935
 6350SOL     OW19423   3.846   2.505   4.287
 6350SOL    HW119424   3.801   2.417   4.304
 6350SOL    HW219425   3.845   2.559   4.371
 6351SOL     OW19426   3.751   3.458   3.841
 6351SOL    HW119427   3.732   3.362   3.862
 6351SOL    HW219428   3.718   3.516   3.916
 6352SOL     OW19429   3.837   2.599   5.321
 6352SOL    HW119430   3.925   2.586   5.366
 6352SOL    HW219431   3.824   2.696   5.299
 6353SOL     OW19432   4.337   3.227   4.450
 6353SOL    HW119433   4.288   3.140   4.459
 6353SOL    HW219434   4.314   3.270   4.363
 6354SOL     OW19435   4.533   1.866   4.226
 6354SOL    HW119436   4.573   1.957   4.217
 6354SOL    HW219437   4.433   1.874   4.232
 6355SOL     OW19438   3.921   2.838   4.988
 6355SOL    HW119439   4.010   2.793   4.974
 6355SOL    HW219440   3.848   2.773   4.969
 6356SOL     OW19441   4.041   2.113   5.525
 6356SOL    HW119442   4.112   2.184   5.531
 6356SOL    HW219443   3.953   2.152   5.553
 6357SOL     OW19444   4.322   2.591   3.994
 6357SOL    HW119445   4.346   2.660   3.926
 6357SOL    HW219446   4.244   2.624   4.048
 6358SOL     OW19447   4.531   2.467   5.189
 6358SOL    HW119448   4.484   2.464   5.278
 6358SOL    HW219449   4.480   2.412   5.123
 6359SOL     OW19450   4.697   2.752   5.296
 6359SOL    HW119451   4.743   2.668   5.267
 6359SOL    HW219452   4.641   2.786   5.221
 6360SOL     OW19453   4.715   2.272   4.966
 6360SOL    HW119454   4.638   2.306   5.020
 6360SOL    HW219455   4.681   2.221   4.887
 6361SOL     OW19456   4.765   2.563   4.153
 6361SOL    HW119457   4.791   2.559   4.249
 6361SOL    HW219458   4.680   2.512   4.139
 6362SOL     OW19459   3.800   2.673   4.513
 6362SOL    HW119460   3.899   2.661   4.522
 6362SOL    HW219461   3.776   2.768   4.534
 6363SOL     OW19462   3.854   3.683   5.295
 6363SOL    HW119463   3.844   3.668   5.394
 6363SOL    HW219464   3.768   3.719   5.259
 6364SOL     OW19465   4.589   2.210   3.919
 6364SOL    HW119466   4.648   2.273   3.870
 6364SOL    HW219467   4.608   2.116   3.890
 6365SOL     OW19468   4.274   2.058   4.609
 6365SOL    HW119469   4.269   2.053   4.709
 6365SOL    HW219470   4.276   2.154   4.580
 6366SOL     OW19471   4.732   3.318   4.201
 6366SOL    HW119472   4.686   3.390   4.149
 6366SOL    HW219473   4.728   3.338   4.299
 6367SOL     OW19474   4.075   3.663   4.577
 6367SOL    HW119475   4.125   3.577   4.583
 6367SOL    HW219476   4.140   3.740   4.574
 6368SOL     OW19477   4.951   3.412   5.230
 6368SOL    HW119478   4.957   3.335   5.294
 6368SOL    HW219479   4.899   3.386   5.150
 6369SOL     OW19480   4.045   2.805   3.966
 6369SOL    HW119481   4.127   2.844   3.924
 6369SOL    HW219482   4.018   2.723   3.917
 6370SOL     OW19483   4.185   3.128   5.451
 6370SOL    HW119484   4.135   3.129   5.365
 6370SOL    HW219485   4.122   3.110   5.527
 6371SOL     OW19486   4.835   3.638   3.961
 6371SOL    HW119487   4.775   3.576   4.011
 6371SOL    HW219488   4.866   3.594   3.876
 6372SOL     OW19489   3.926   2.147   5.222
 6372SOL    HW119490   3.846   2.207   5.209
 6372SOL    HW219491   3.916   2.098   5.308
 6373SOL     OW19492   4.188   3.605   4.047
 6373SOL    HW119493   4.221   3.644   4.133
 6373SOL    HW219494   4.264   3.598   3.982
 6374SOL     OW19495   3.973   3.647   4.965
 6374SOL    HW119496   4.030   3.582   5.015
 6374SOL    HW219497   3.957   3.614   4.872
 6375SOL     OW19498   4.664   3.560   4.628
 6375SOL    HW119499   4.744   3.503   4.649
 6375SOL    HW219500   4.615   3.520   4.551
 6376SOL     OW19501   4.106   2.562   4.204
 6376SOL    HW119502   4.151   2.472   4.201
 6376SOL    HW219503   4.012   2.551   4.237
 6377SOL     OW19504   4.338   1.984   3.841
 6377SOL    HW119505   4.436   1.962   3.848
 6377SOL    HW219506   4.307   1.967   3.748
 6378SOL     OW19507   4.505   2.126   5.473
 6378SOL    HW119508   4.572   2.065   5.516
 6378SOL    HW219509   4.432   2.145   5.538
 6379SOL     OW19510   4.612   3.376   4.919
 6379SOL    HW119511   4.589   3.351   4.825
 6379SOL    HW219512   4.673   3.307   4.958
 6380SOL     OW19513   4.527   3.264   4.648
 6380SOL    HW119514   4.617   3.278   4.606
 6380SOL    HW219515   4.456   3.266   4.577
 6381SOL     OW19516   4.646   2.365   4.623
 6381SOL    HW119517   4.621   2.356   4.527
 6381SOL    HW219518   4.694   2.283   4.654
 6382SOL     OW19519   4.263   1.926   4.236
 6382SOL    HW119520   4.182   1.927   4.294
 6382SOL    HW219521   4.266   2.009   4.181
 6383SOL     OW19522   4.021   1.897   3.895
 6383SOL    HW119523   4.070   1.981   3.874
 6383SOL    HW219524   4.083   1.832   3.940
 6384SOL     OW19525   4.659   2.098   4.204
 6384SOL    HW119526   4.611   2.139   4.126
 6384SOL    HW219527   4.758   2.096   4.185
 6385SOL     OW19528   4.800   2.545   5.188
 6385SOL    HW119529   4.720   2.484   5.191
 6385SOL    HW219530   4.881   2.492   5.164
 6386SOL     OW19531   4.951   3.432   4.517
 6386SOL    HW119532   4.972   3.506   4.452
 6386SOL    HW219533   5.019   3.432   4.590
 6387SOL     OW19534   4.183   3.014   4.465
 6387SOL    HW119535   4.112   2.987   4.530
 6387SOL    HW219536   4.157   2.986   4.372
 6388SOL     OW19537   4.995   3.659   4.315
 6388SOL    HW119538   5.039   3.723   4.251
 6388SOL    HW219539   4.945   3.711   4.385
 6389SOL     OW19540   4.756   2.411   3.740
 6389SOL    HW119541   4.715   2.493   3.701
 6389SOL    HW219542   4.820   2.437   3.813
 6390SOL     OW19543   3.802   2.418   5.110
 6390SOL    HW119544   3.894   2.417   5.069
 6390SOL    HW219545   3.796   2.492   5.177
 6391SOL     OW19546   4.285   2.084   4.871
 6391SOL    HW119547   4.323   2.000   4.908
 6391SOL    HW219548   4.197   2.103   4.915
 6392SOL     OW19549   4.590   2.316   4.366
 6392SOL    HW119550   4.558   2.388   4.304
 6392SOL    HW219551   4.614   2.235   4.313
 6393SOL     OW19552   4.741   1.901   4.477
 6393SOL    HW119553   4.669   1.906   4.408
 6393SOL    HW219554   4.717   1.832   4.546
 6394SOL     OW19555   4.212   3.247   3.898
 6394SOL    HW119556   4.125   3.232   3.945
 6394SOL    HW219557   4.195   3.273   3.803
 6395SOL     OW19558   4.251   2.118   4.052
 6395SOL    HW119559   4.278   2.059   3.977
 6395SOL    HW219560   4.251   2.213   4.021
 6396SOL     OW19561   4.788   3.209   5.064
 6396SOL    HW119562   4.708   3.186   5.119
 6396SOL    HW219563   4.871   3.183   5.113
 6397SOL     OW19564   4.835   3.057   4.824
 6397SOL    HW119565   4.795   3.101   4.905
 6397SOL    HW219566   4.794   3.094   4.741
 6398SOL     OW19567   4.639   1.951   5.126
 6398SOL    HW119568   4.664   1.931   5.031
 6398SOL    HW219569   4.711   2.007   5.168
 6399SOL     OW19570   4.704   2.978   5.443
 6399SOL    HW119571   4.605   2.984   5.453
 6399SOL    HW219572   4.727   2.898   5.387
 6400SOL     OW19573   4.429   2.912   4.092
 6400SOL    HW119574   4.415   2.919   4.191
 6400SOL    HW219575   4.513   2.861   4.074
 6401SOL     OW19576   4.134   2.675   4.975
 6401SOL    HW119577   4.220   2.687   5.025
 6401SOL    HW219578   4.092   2.588   5.002
 6402SOL     OW19579   3.788   3.426   5.055
 6402SOL    HW119580   3.742   3.508   5.021
 6402SOL    HW219581   3.886   3.445   5.064
 6403SOL     OW19582   4.091   2.962   4.225
 6403SOL    HW119583   4.084   3.045   4.169
 6403SOL    HW219584   4.095   2.882   4.165
 6404SOL     OW19585   4.290   2.399   4.589
 6404SOL    HW119586   4.302   2.465   4.515
 6404SOL    HW219587   4.336   2.433   4.672
 6405SOL     OW19588   4.976   3.210   4.112
 6405SOL    HW119589   5.026   3.287   4.152
 6405SOL    HW219590   4.881   3.212   4.144
 6406SOL     OW19591   4.078   3.372   5.053
 6406SOL    HW119592   4.057   3.328   4.966
 6406SOL    HW219593   4.175   3.398   5.056
 6407SOL     OW19594   4.126   2.613   5.322
 6407SOL    HW119595   4.194   2.668   5.275
 6407SOL    HW219596   4.166   2.525   5.349
 6408SOL     OW19597   4.737   1.967   5.494
 6408SOL    HW119598   4.743   2.052   5.442
 6408SOL    HW219599   4.769   1.891   5.437
 6409SOL     OW19600   4.228   1.912   5.464
 6409SOL    HW119601   4.186   1.855   5.394
 6409SOL    HW219602   4.162   1.981   5.496
 6410SOL     OW19603   4.297   2.732   4.753
 6410SOL    HW119604   4.341   2.821   4.744
 6410SOL    HW219605   4.234   2.732   4.830
 6411SOL     OW19606   5.084   2.724   4.769
 6411SOL    HW119607   5.009   2.724   4.703
 6411SOL    HW219608   5.121   2.632   4.778
 6412SOL     OW19609   4.933   2.387   3.999
 6412SOL    HW119610   4.946   2.303   4.053
 6412SOL    HW219611   4.904   2.461   4.059
 6413SOL     OW19612   4.031   2.075   4.955
 6413SOL    HW119613   4.008   2.112   5.045
 6413SOL    HW219614   4.001   1.980   4.949
 6414SOL     OW19615   3.761   3.172   5.006
 6414SOL    HW119616   3.814   3.123   5.074
 6414SOL    HW219617   3.783   3.270   5.011
 6415SOL     OW19618   4.456   2.496   4.788
 6415SOL    HW119619   4.515   2.470   4.712
 6415SOL    HW219620   4.428   2.592   4.777
 6416SOL     OW19621   4.031   1.925   4.342
 6416SOL    HW119622   4.020   2.019   4.375
 6416SOL    HW219623   4.026   1.862   4.419
 6417SOL     OW19624   4.747   2.628   4.690
 6417SOL    HW119625   4.762   2.649   4.786
 6417SOL    HW219626   4.717   2.533   4.681
 6418SOL     OW19627   4.704   3.435   5.424
 6418SOL    HW119628   4.684   3.479   5.336
 6418SOL    HW219629   4.743   3.344   5.408
 6419SOL     OW19630   4.074   2.760   5.528
 6419SOL    HW119631   4.150   2.804   5.576
 6419SOL    HW219632   4.109   2.713   5.446
 6420SOL     OW19633   5.264   2.136   3.849
 6420SOL    HW119634   5.203   2.061   3.872
 6420SOL    HW219635   5.286   2.188   3.932
 6421SOL     OW19636   4.792   3.195   4.573
 6421SOL    HW119637   4.799   3.111   4.518
 6421SOL    HW219638   4.854   3.264   4.537
 6422SOL     OW19639   4.043   2.672   4.673
 6422SOL    HW119640   4.136   2.708   4.678
 6422SOL    HW219641   4.037   2.587   4.725
 6423SOL     OW19642   4.063   2.371   4.730
 6423SOL    HW119643   4.011   2.288   4.713
 6423SOL    HW219644   4.140   2.376   4.666
 6424SOL     OW19645   4.862   2.242   5.402
 6424SOL    HW119646   4.817   2.305   5.466
 6424SOL    HW219647   4.955   2.273   5.385
 6425SOL     OW19648   4.884   2.069   5.201
 6425SOL    HW119649   4.884   2.133   5.278
 6425SOL    HW219650   4.912   2.117   5.118
 6426SOL     OW19651   3.732   3.188   3.924
 6426SOL    HW119652   3.639   3.209   3.893
 6426SOL    HW219653   3.742   3.089   3.937
 6427SOL     OW19654   3.812   3.663   4.651
 6427SOL    HW119655   3.770   3.577   4.624
 6427SOL    HW219656   3.906   3.666   4.617
 6428SOL     OW19657   4.228   3.430   4.634
 6428SOL    HW119658   4.294   3.504   4.643
 6428SOL    HW219659   4.272   3.351   4.592
 6429SOL     OW19660   4.726   2.658   4.962
 6429SOL    HW119661   4.767   2.626   5.048
 6429SOL    HW219662   4.630   2.631   4.959
 6430SOL     OW19663   3.764   2.406   4.838
 6430SOL    HW119664   3.849   2.373   4.797
 6430SOL    HW219665   3.777   2.421   4.936
 6431SOL     OW19666   3.913   2.382   5.446
 6431SOL    HW119667   3.972   2.342   5.376
 6431SOL    HW219668   3.855   2.453   5.405
 6432SOL     OW19669   4.539   2.434   4.049
 6432SOL    HW119670   4.546   2.345   4.003
 6432SOL    HW219671   4.445   2.468   4.041
 6433SOL     OW19672   3.976   3.426   5.468
 6433SOL    HW119673   3.946   3.483   5.544
 6433SOL    HW219674   3.969   3.329   5.494
 6434SOL     OW19675   4.395   2.326   4.993
 6434SOL    HW119676   4.361   2.237   4.963
 6434SOL    HW219677   4.421   2.380   4.913
 6435SOL     OW19678   4.654   3.540   5.189
 6435SOL    HW119679   4.630   3.522   5.094
 6435SOL    HW219680   4.684   3.634   5.199
 6436SOL     OW19681   4.197   2.362   3.915
 6436SOL    HW119682   4.258   2.442   3.919
 6436SOL    HW219683   4.102   2.393   3.922
 6437SOL     OW19684   3.883   2.999   5.190
 6437SOL    HW119685   3.905   2.938   5.266
 6437SOL    HW219686   3.893   2.950   5.104
 6438SOL     OW19687   4.976   3.593   4.852
 6438SOL    HW119688   5.060   3.598   4.798
 6438SOL    HW219689   4.953   3.497   4.870
 6439SOL     OW19690   3.807   3.120   4.746
 6439SOL    HW119691   3.802   3.119   4.846
 6439SOL    HW219692   3.724   3.079   4.708
 6440SOL     OW19693   4.412   3.524   5.440
 6440SOL    HW119694   4.356   3.605   5.449
 6440SOL    HW219695   4.464   3.528   5.354
 6441SOL     OW19696   3.854   3.656   5.575
 6441SOL    HW119697   3.813   3.582   5.628
 6441SOL    HW219698   3.918   3.707   5.633
 6442SOL     OW19699   4.554   3.135   5.146
 6442SOL    HW119700   4.549   3.168   5.241
 6442SOL    HW219701   4.468   3.154   5.100
 6443SOL     OW19702   4.396   3.478   3.878
 6443SOL    HW119703   4.405   3.488   3.779
 6443SOL    HW219704   4.356   3.389   3.899
 6444SOL     OW19705   3.987   2.188   4.444
 6444SOL    HW119706   3.908   2.239   4.410
 6444SOL    HW219707   3.978   2.173   4.542
 6445SOL     OW19708   4.546   2.864   5.096
 6445SOL    HW119709   4.586   2.863   5.004
 6445SOL    HW219710   4.556   2.956   5.136
 6446SOL     OW19711   4.640   2.772   4.015
 6446SOL    HW119712   4.703   2.810   3.947
 6446SOL    HW219713   4.680   2.689   4.054
 6447SOL     OW19714   4.096   3.150   5.214
 6447SOL    HW119715   4.083   3.243   5.180
 6447SOL    HW219716   4.012   3.098   5.201
 6448SOL     OW19717   4.763   2.960   4.420
 6448SOL    HW119718   4.693   2.913   4.474
 6448SOL    HW219719   4.822   2.892   4.377
 6449SOL     OW19720   4.738   2.098   4.695
 6449SOL    HW119721   4.730   2.062   4.602
 6449SOL    HW219722   4.736   2.022   4.760
 6450SOL     OW19723   4.314   3.349   4.215
 6450SOL    HW119724   4.356   3.291   4.145
 6450SOL    HW219725   4.270   3.428   4.171
 6451SOL     OW19726   3.979   3.210   4.014
 6451SOL    HW119727   3.883   3.211   3.987
 6451SOL    HW219728   3.991   3.263   4.098
 6452SOL     OW19729   3.829   2.875   5.450
 6452SOL    HW119730   3.752   2.842   5.504
 6452SOL    HW219731   3.914   2.845   5.492
 6453SOL     OW19732   4.396   2.065   5.213
 6453SOL    HW119733   4.486   2.049   5.173
 6453SOL    HW219734   4.404   2.070   5.312
 6454SOL     OW19735   3.799   2.207   3.757
 6454SOL    HW119736   3.707   2.179   3.728
 6454SOL    HW219737   3.830   2.284   3.701
 6455SOL     OW19738   3.796   2.028   4.042
 6455SOL    HW119739   3.779   2.111   3.988
 6455SOL    HW219740   3.886   1.991   4.020
 6456SOL     OW19741   4.337   2.704   5.155
 6456SOL    HW119742   4.393   2.785   5.138
 6456SOL    HW219743   4.396   2.624   5.158
 6457SOL     OW19744   4.440   2.427   5.432
 6457SOL    HW119745   4.459   2.492   5.506
 6457SOL    HW219746   4.500   2.347   5.441
 6458SOL     OW19747   4.114   3.603   5.284
 6458SOL    HW119748   4.023   3.644   5.282
 6458SOL    HW219749   4.107   3.509   5.316
 6459SOL     OW19750   4.318   2.607   4.376
 6459SOL    HW119751   4.368   2.692   4.357
 6459SOL    HW219752   4.230   2.609   4.328
 6460SOL     OW19753   4.583   3.236   3.740
 6460SOL    HW119754   4.537   3.251   3.828
 6460SOL    HW219755   4.627   3.321   3.710
 6461SOL     OW19756   4.385   3.652   4.677
 6461SOL    HW119757   4.339   3.740   4.664
 6461SOL    HW219758   4.484   3.664   4.670
 6462SOL     OW19759   4.583   2.818   4.585
 6462SOL    HW119760   4.637   2.749   4.633
 6462SOL    HW219761   4.551   2.887   4.651
 6463SOL     OW19762   4.807   2.846   3.811
 6463SOL    HW119763   4.784   2.899   3.729
 6463SOL    HW219764   4.888   2.790   3.792
 6464SOL     OW19765   3.945   3.176   5.568
 6464SOL    HW119766   3.880   3.103   5.547
 6464SOL    HW219767   3.949   3.190   5.666
 6465SOL     OW19768   3.803   3.102   4.377
 6465SOL    HW119769   3.802   3.055   4.465
 6465SOL    HW219770   3.885   3.074   4.326
 6466SOL     OW19771   4.396   3.253   5.348
 6466SOL    HW119772   4.318   3.203   5.386
 6466SOL    HW219773   4.393   3.348   5.379
 6467SOL     OW19774   4.152   2.286   4.244
 6467SOL    HW119775   4.182   2.214   4.182
 6467SOL    HW219776   4.113   2.246   4.327
 6468SOL     OW19777   4.041   2.409   5.004
 6468SOL    HW119778   4.079   2.350   5.076
 6468SOL    HW219779   4.081   2.383   4.916
 6469SOL     OW19780   4.536   3.448   4.411
 6469SOL    HW119781   4.568   3.458   4.317
 6469SOL    HW219782   4.457   3.386   4.413
 6470SOL     OW19783   4.725   1.896   4.878
 6470SOL    HW119784   4.662   1.824   4.847
 6470SOL    HW219785   4.818   1.860   4.878
 6471SOL     OW19786   4.494   3.192   4.025
 6471SOL    HW119787   4.448   3.105   4.042
 6471SOL    HW219788   4.585   3.189   4.066
 6472SOL     OW19789   4.342   3.429   5.008
 6472SOL    HW119790   4.337   3.511   5.065
 6472SOL    HW219791   4.431   3.426   4.963
 6473SOL     OW19792   3.763   2.939   4.024
 6473SOL    HW119793   3.862   2.928   4.015
 6473SOL    HW219794   3.723   2.853   4.056
 6474SOL     OW19795   4.599   3.508   4.061
 6474SOL    HW119796   4.522   3.473   4.007
 6474SOL    HW219797   4.567   3.579   4.123
 6475SOL     OW19798   3.954   2.490   5.699
 6475SOL    HW119799   3.861   2.488   5.736
 6475SOL    HW219800   3.955   2.451   5.607
 6476SOL     OW19801   3.949   2.137   6.582
 6476SOL    HW119802   3.984   2.120   6.674
 6476SOL    HW219803   3.861   2.092   6.570
 6477SOL     OW19804   3.743   2.230   6.233
 6477SOL    HW119805   3.661   2.273   6.272
 6477SOL    HW219806   3.715   2.157   6.170
 6478SOL     OW19807   4.293   3.137   6.751
 6478SOL    HW119808   4.200   3.130   6.714
 6478SOL    HW219809   4.304   3.226   6.795
 6479SOL     OW19810   4.859   2.565   6.303
 6479SOL    HW119811   4.916   2.643   6.278
 6479SOL    HW219812   4.799   2.591   6.379
 6480SOL     OW19813   4.492   3.006   6.609
 6480SOL    HW119814   4.414   3.023   6.669
 6480SOL    HW219815   4.526   3.093   6.573
 6481SOL     OW19816   4.574   2.660   7.409
 6481SOL    HW119817   4.570   2.736   7.474
 6481SOL    HW219818   4.596   2.696   7.318
 6482SOL     OW19819   4.409   2.874   6.251
 6482SOL    HW119820   4.478   2.858   6.321
 6482SOL    HW219821   4.336   2.931   6.289
 6483SOL     OW19822   4.410   3.023   7.389
 6483SOL    HW119823   4.470   3.102   7.403
 6483SOL    HW219824   4.324   3.054   7.348
 6484SOL     OW19825   4.059   3.297   6.647
 6484SOL    HW119826   3.981   3.266   6.594
 6484SOL    HW219827   4.117   3.355   6.590
 6485SOL     OW19828   4.162   2.254   7.085
 6485SOL    HW119829   4.244   2.198   7.094
 6485SOL    HW219830   4.081   2.196   7.089
 6486SOL     OW19831   3.955   3.575   6.069
 6486SOL    HW119832   3.989   3.652   6.123
 6486SOL    HW219833   3.999   3.575   5.979
 6487SOL     OW19834   4.851   3.203   7.276
 6487SOL    HW119835   4.898   3.203   7.364
 6487SOL    HW219836   4.803   3.116   7.265
 6488SOL     OW19837   3.954   3.296   6.124
 6488SOL    HW119838   3.928   3.392   6.124
 6488SOL    HW219839   3.883   3.242   6.169
 6489SOL     OW19840   3.964   2.953   6.472
 6489SOL    HW119841   3.978   2.869   6.524
 6489SOL    HW219842   3.909   3.017   6.527
 6490SOL     OW19843   4.344   3.648   7.025
 6490SOL    HW119844   4.252   3.631   7.060
 6490SOL    HW219845   4.372   3.740   7.051
 6491SOL     OW19846   4.330   2.826   5.709
 6491SOL    HW119847   4.337   2.910   5.655
 6491SOL    HW219848   4.376   2.839   5.797
 6492SOL     OW19849   3.846   2.505   6.149
 6492SOL    HW119850   3.801   2.417   6.166
 6492SOL    HW219851   3.845   2.559   6.233
 6493SOL     OW19852   3.751   3.458   5.703
 6493SOL    HW119853   3.732   3.362   5.724
 6493SOL    HW219854   3.718   3.516   5.778
 6494SOL     OW19855   3.837   2.599   7.183
 6494SOL    HW119856   3.925   2.586   7.228
 6494SOL    HW219857   3.824   2.696   7.161
 6495SOL     OW19858   4.337   3.227   6.312
 6495SOL    HW119859   4.288   3.140   6.321
 6495SOL    HW219860   4.314   3.270   6.225
 6496SOL     OW19861   4.533   1.866   6.088
 6496SOL    HW119862   4.573   1.957   6.079
 6496SOL    HW219863   4.433   1.874   6.094
 6497SOL     OW19864   3.921   2.838   6.850
 6497SOL    HW119865   4.010   2.793   6.836
 6497SOL    HW219866   3.848   2.773   6.831
 6498SOL     OW19867   4.041   2.113   7.387
 6498SOL    HW119868   4.112   2.184   7.393
 6498SOL    HW219869   3.953   2.152   7.415
 6499SOL     OW19870   4.322   2.591   5.856
 6499SOL    HW119871   4.346   2.660   5.788
 6499SOL    HW219872   4.244   2.624   5.910
 6500SOL     OW19873   4.531   2.467   7.051
 6500SOL    HW119874   4.484   2.464   7.140
 6500SOL    HW219875   4.480   2.412   6.985
 6501SOL     OW19876   4.697   2.752   7.158
 6501SOL    HW119877   4.743   2.668   7.129
 6501SOL    HW219878   4.641   2.786   7.083
 6502SOL     OW19879   4.715   2.272   6.828
 6502SOL    HW119880   4.638   2.306   6.882
 6502SOL    HW219881   4.681   2.221   6.749
 6503SOL     OW19882   4.765   2.563   6.015
 6503SOL    HW119883   4.791   2.559   6.111
 6503SOL    HW219884   4.680   2.512   6.001
 6504SOL     OW19885   3.800   2.673   6.375
 6504SOL    HW119886   3.899   2.661   6.384
 6504SOL    HW219887   3.776   2.768   6.396
 6505SOL     OW19888   3.854   3.683   7.157
 6505SOL    HW119889   3.844   3.668   7.256
 6505SOL    HW219890   3.768   3.719   7.121
 6506SOL     OW19891   4.589   2.210   5.781
 6506SOL    HW119892   4.648   2.273   5.732
 6506SOL    HW219893   4.608   2.116   5.752
 6507SOL     OW19894   4.274   2.058   6.471
 6507SOL    HW119895   4.269   2.053   6.571
 6507SOL    HW219896   4.276   2.154   6.442
 6508SOL     OW19897   4.732   3.318   6.063
 6508SOL    HW119898   4.686   3.390   6.011
 6508SOL    HW219899   4.728   3.338   6.161
 6509SOL     OW19900   4.075   3.663   6.439
 6509SOL    HW119901   4.125   3.577   6.445
 6509SOL    HW219902   4.140   3.740   6.436
 6510SOL     OW19903   4.951   3.412   7.092
 6510SOL    HW119904   4.957   3.335   7.156
 6510SOL    HW219905   4.899   3.386   7.012
 6511SOL     OW19906   4.045   2.805   5.828
 6511SOL    HW119907   4.127   2.844   5.786
 6511SOL    HW219908   4.018   2.723   5.779
 6512SOL     OW19909   4.185   3.128   7.313
 6512SOL    HW119910   4.135   3.129   7.227
 6512SOL    HW219911   4.122   3.110   7.389
 6513SOL     OW19912   4.835   3.638   5.823
 6513SOL    HW119913   4.775   3.576   5.873
 6513SOL    HW219914   4.866   3.594   5.738
 6514SOL     OW19915   3.926   2.147   7.084
 6514SOL    HW119916   3.846   2.207   7.071
 6514SOL    HW219917   3.916   2.098   7.170
 6515SOL     OW19918   4.188   3.605   5.909
 6515SOL    HW119919   4.221   3.644   5.995
 6515SOL    HW219920   4.264   3.598   5.844
 6516SOL     OW19921   3.973   3.647   6.827
 6516SOL    HW119922   4.030   3.582   6.877
 6516SOL    HW219923   3.957   3.614   6.734
 6517SOL     OW19924   4.664   3.560   6.490
 6517SOL    HW119925   4.744   3.503   6.511
 6517SOL    HW219926   4.615   3.520   6.413
 6518SOL     OW19927   4.106   2.562   6.066
 6518SOL    HW119928   4.151   2.472   6.063
 6518SOL    HW219929   4.012   2.551   6.099
 6519SOL     OW19930   4.338   1.984   5.703
 6519SOL    HW119931   4.436   1.962   5.710
 6519SOL    HW219932   4.307   1.967   5.610
 6520SOL     OW19933   4.505   2.126   7.335
 6520SOL    HW119934   4.572   2.065   7.378
 6520SOL    HW219935   4.432   2.145   7.400
 6521SOL     OW19936   4.612   3.376   6.781
 6521SOL    HW119937   4.589   3.351   6.687
 6521SOL    HW219938   4.673   3.307   6.820
 6522SOL     OW19939   4.527   3.264   6.510
 6522SOL    HW119940   4.617   3.278   6.468
 6522SOL    HW219941   4.456   3.266   6.439
 6523SOL     OW19942   4.646   2.365   6.485
 6523SOL    HW119943   4.621   2.356   6.389
 6523SOL    HW219944   4.694   2.283   6.516
 6524SOL     OW19945   4.263   1.926   6.098
 6524SOL    HW119946   4.182   1.927   6.156
 6524SOL    HW219947   4.266   2.009   6.043
 6525SOL     OW19948   4.021   1.897   5.757
 6525SOL    HW119949   4.070   1.981   5.736
 6525SOL    HW219950   4.083   1.832   5.802
 6526SOL     OW19951   4.659   2.098   6.066
 6526SOL    HW119952   4.611   2.139   5.988
 6526SOL    HW219953   4.758   2.096   6.047
 6527SOL     OW19954   4.800   2.545   7.050
 6527SOL    HW119955   4.720   2.484   7.053
 6527SOL    HW219956   4.881   2.492   7.026
 6528SOL     OW19957   4.951   3.432   6.379
 6528SOL    HW119958   4.972   3.506   6.314
 6528SOL    HW219959   5.019   3.432   6.452
 6529SOL     OW19960   4.183   3.014   6.327
 6529SOL    HW119961   4.112   2.987   6.392
 6529SOL    HW219962   4.157   2.986   6.234
 6530SOL     OW19963   4.995   3.659   6.177
 6530SOL    HW119964   5.039   3.723   6.113
 6530SOL    HW219965   4.945   3.711   6.247
 6531SOL     OW19966   4.756   2.411   5.602
 6531SOL    HW119967   4.715   2.493   5.563
 6531SOL    HW219968   4.820   2.437   5.675
 6532SOL     OW19969   3.802   2.418   6.972
 6532SOL    HW119970   3.894   2.417   6.931
 6532SOL    HW219971   3.796   2.492   7.039
 6533SOL     OW19972   4.285   2.084   6.733
 6533SOL    HW119973   4.323   2.000   6.770
 6533SOL    HW219974   4.197   2.103   6.777
 6534SOL     OW19975   4.590   2.316   6.228
 6534SOL    HW119976   4.558   2.388   6.166
 6534SOL    HW219977   4.614   2.235   6.175
 6535SOL     OW19978   4.741   1.901   6.339
 6535SOL    HW119979   4.669   1.906   6.270
 6535SOL    HW219980   4.717   1.832   6.408
 6536SOL     OW19981   4.212   3.247   5.760
 6536SOL    HW119982   4.125   3.232   5.807
 6536SOL    HW219983   4.195   3.273   5.665
 6537SOL     OW19984   4.251   2.118   5.914
 6537SOL    HW119985   4.278   2.059   5.839
 6537SOL    HW219986   4.251   2.213   5.883
 6538SOL     OW19987   4.788   3.209   6.926
 6538SOL    HW119988   4.708   3.186   6.981
 6538SOL    HW219989   4.871   3.183   6.975
 6539SOL     OW19990   4.835   3.057   6.686
 6539SOL    HW119991   4.795   3.101   6.767
 6539SOL    HW219992   4.794   3.094   6.603
 6540SOL     OW19993   4.639   1.951   6.988
 6540SOL    HW119994   4.664   1.931   6.893
 6540SOL    HW219995   4.711   2.007   7.030
 6541SOL     OW19996   4.704   2.978   7.305
 6541SOL    HW119997   4.605   2.984   7.315
 6541SOL    HW219998   4.727   2.898   7.249
 6542SOL     OW19999   4.429   2.912   5.954
 6542SOL    HW120000   4.415   2.919   6.053
 6542SOL    HW220001   4.513   2.861   5.936
 6543SOL     OW20002   4.134   2.675   6.837
 6543SOL    HW120003   4.220   2.687   6.887
 6543SOL    HW220004   4.092   2.588   6.864
 6544SOL     OW20005   3.788   3.426   6.917
 6544SOL    HW120006   3.742   3.508   6.883
 6544SOL    HW220007   3.886   3.445   6.926
 6545SOL     OW20008   4.091   2.962   6.087
 6545SOL    HW120009   4.084   3.045   6.031
 6545SOL    HW220010   4.095   2.882   6.027
 6546SOL     OW20011   4.290   2.399   6.451
 6546SOL    HW120012   4.302   2.465   6.377
 6546SOL    HW220013   4.336   2.433   6.534
 6547SOL     OW20014   4.976   3.210   5.974
 6547SOL    HW120015   5.026   3.287   6.014
 6547SOL    HW220016   4.881   3.212   6.006
 6548SOL     OW20017   4.078   3.372   6.915
 6548SOL    HW120018   4.057   3.328   6.828
 6548SOL    HW220019   4.175   3.398   6.918
 6549SOL     OW20020   4.126   2.613   7.184
 6549SOL    HW120021   4.194   2.668   7.137
 6549SOL    HW220022   4.166   2.525   7.211
 6550SOL     OW20023   4.737   1.967   7.356
 6550SOL    HW120024   4.743   2.052   7.304
 6550SOL    HW220025   4.769   1.891   7.299
 6551SOL     OW20026   4.228   1.912   7.326
 6551SOL    HW120027   4.186   1.855   7.256
 6551SOL    HW220028   4.162   1.981   7.358
 6552SOL     OW20029   4.297   2.732   6.615
 6552SOL    HW120030   4.341   2.821   6.606
 6552SOL    HW220031   4.234   2.732   6.692
 6553SOL     OW20032   5.084   2.724   6.631
 6553SOL    HW120033   5.009   2.724   6.565
 6553SOL    HW220034   5.121   2.632   6.640
 6554SOL     OW20035   4.933   2.387   5.861
 6554SOL    HW120036   4.946   2.303   5.915
 6554SOL    HW220037   4.904   2.461   5.921
 6555SOL     OW20038   4.031   2.075   6.817
 6555SOL    HW120039   4.008   2.112   6.907
 6555SOL    HW220040   4.001   1.980   6.811
 6556SOL     OW20041   3.761   3.172   6.868
 6556SOL    HW120042   3.814   3.123   6.936
 6556SOL    HW220043   3.783   3.270   6.873
 6557SOL     OW20044   4.456   2.496   6.650
 6557SOL    HW120045   4.515   2.470   6.574
 6557SOL    HW220046   4.428   2.592   6.639
 6558SOL     OW20047   4.031   1.925   6.204
 6558SOL    HW120048   4.020   2.019   6.237
 6558SOL    HW220049   4.026   1.862   6.281
 6559SOL     OW20050   4.747   2.628   6.552
 6559SOL    HW120051   4.762   2.649   6.648
 6559SOL    HW220052   4.717   2.533   6.543
 6560SOL     OW20053   4.704   3.435   7.286
 6560SOL    HW120054   4.684   3.479   7.198
 6560SOL    HW220055   4.743   3.344   7.270
 6561SOL     OW20056   4.074   2.760   7.390
 6561SOL    HW120057   4.150   2.804   7.438
 6561SOL    HW220058   4.109   2.713   7.308
 6562SOL     OW20059   5.264   2.136   5.711
 6562SOL    HW120060   5.203   2.061   5.734
 6562SOL    HW220061   5.286   2.188   5.794
 6563SOL     OW20062   4.792   3.195   6.435
 6563SOL    HW120063   4.799   3.111   6.380
 6563SOL    HW220064   4.854   3.264   6.399
 6564SOL     OW20065   4.043   2.672   6.535
 6564SOL    HW120066   4.136   2.708   6.540
 6564SOL    HW220067   4.037   2.587   6.587
 6565SOL     OW20068   4.063   2.371   6.592
 6565SOL    HW120069   4.011   2.288   6.575
 6565SOL    HW220070   4.140   2.376   6.528
 6566SOL     OW20071   4.862   2.242   7.264
 6566SOL    HW120072   4.817   2.305   7.328
 6566SOL    HW220073   4.955   2.273   7.247
 6567SOL     OW20074   4.884   2.069   7.063
 6567SOL    HW120075   4.884   2.133   7.140
 6567SOL    HW220076   4.912   2.117   6.980
 6568SOL     OW20077   3.732   3.188   5.786
 6568SOL    HW120078   3.639   3.209   5.755
 6568SOL    HW220079   3.742   3.089   5.799
 6569SOL     OW20080   3.812   3.663   6.513
 6569SOL    HW120081   3.770   3.577   6.486
 6569SOL    HW220082   3.906   3.666   6.479
 6570SOL     OW20083   4.228   3.430   6.496
 6570SOL    HW120084   4.294   3.504   6.505
 6570SOL    HW220085   4.272   3.351   6.454
 6571SOL     OW20086   4.726   2.658   6.824
 6571SOL    HW120087   4.767   2.626   6.910
 6571SOL    HW220088   4.630   2.631   6.821
 6572SOL     OW20089   3.764   2.406   6.700
 6572SOL    HW120090   3.849   2.373   6.659
 6572SOL    HW220091   3.777   2.421   6.798
 6573SOL     OW20092   3.913   2.382   7.308
 6573SOL    HW120093   3.972   2.342   7.238
 6573SOL    HW220094   3.855   2.453   7.267
 6574SOL     OW20095   4.539   2.434   5.911
 6574SOL    HW120096   4.546   2.345   5.865
 6574SOL    HW220097   4.445   2.468   5.903
 6575SOL     OW20098   3.976   3.426   7.330
 6575SOL    HW120099   3.946   3.483   7.406
 6575SOL    HW220100   3.969   3.329   7.356
 6576SOL     OW20101   4.395   2.326   6.855
 6576SOL    HW120102   4.361   2.237   6.825
 6576SOL    HW220103   4.421   2.380   6.775
 6577SOL     OW20104   4.654   3.540   7.051
 6577SOL    HW120105   4.630   3.522   6.956
 6577SOL    HW220106   4.684   3.634   7.061
 6578SOL     OW20107   4.197   2.362   5.777
 6578SOL    HW120108   4.258   2.442   5.781
 6578SOL    HW220109   4.102   2.393   5.784
 6579SOL     OW20110   3.883   2.999   7.052
 6579SOL    HW120111   3.905   2.938   7.128
 6579SOL    HW220112   3.893   2.950   6.966
 6580SOL     OW20113   4.976   3.593   6.714
 6580SOL    HW120114   5.060   3.598   6.660
 6580SOL    HW220115   4.953   3.497   6.732
 6581SOL     OW20116   3.807   3.120   6.608
 6581SOL    HW120117   3.802   3.119   6.708
 6581SOL    HW220118   3.724   3.079   6.570
 6582SOL     OW20119   4.412   3.524   7.302
 6582SOL    HW120120   4.356   3.605   7.311
 6582SOL    HW220121   4.464   3.528   7.216
 6583SOL     OW20122   3.854   3.656   7.437
 6583SOL    HW120123   3.813   3.582   7.490
 6583SOL    HW220124   3.918   3.707   7.495
 6584SOL     OW20125   4.554   3.135   7.008
 6584SOL    HW120126   4.549   3.168   7.103
 6584SOL    HW220127   4.468   3.154   6.962
 6585SOL     OW20128   4.396   3.478   5.740
 6585SOL    HW120129   4.405   3.488   5.641
 6585SOL    HW220130   4.356   3.389   5.761
 6586SOL     OW20131   3.987   2.188   6.306
 6586SOL    HW120132   3.908   2.239   6.272
 6586SOL    HW220133   3.978   2.173   6.404
 6587SOL     OW20134   4.546   2.864   6.958
 6587SOL    HW120135   4.586   2.863   6.866
 6587SOL    HW220136   4.556   2.956   6.998
 6588SOL     OW20137   4.640   2.772   5.877
 6588SOL    HW120138   4.703   2.810   5.809
 6588SOL    HW220139   4.680   2.689   5.916
 6589SOL     OW20140   4.096   3.150   7.076
 6589SOL    HW120141   4.083   3.243   7.042
 6589SOL    HW220142   4.012   3.098   7.063
 6590SOL     OW20143   4.763   2.960   6.282
 6590SOL    HW120144   4.693   2.913   6.336
 6590SOL    HW220145   4.822   2.892   6.239
 6591SOL     OW20146   4.738   2.098   6.557
 6591SOL    HW120147   4.730   2.062   6.464
 6591SOL    HW220148   4.736   2.022   6.622
 6592SOL     OW20149   4.314   3.349   6.077
 6592SOL    HW120150   4.356   3.291   6.007
 6592SOL    HW220151   4.270   3.428   6.033
 6593SOL     OW20152   3.979   3.210   5.876
 6593SOL    HW120153   3.883   3.211   5.849
 6593SOL    HW220154   3.991   3.263   5.960
 6594SOL     OW20155   3.829   2.875   7.312
 6594SOL    HW120156   3.752   2.842   7.366
 6594SOL    HW220157   3.914   2.845   7.354
 6595SOL     OW20158   4.396   2.065   7.075
 6595SOL    HW120159   4.486   2.049   7.035
 6595SOL    HW220160   4.404   2.070   7.174
 6596SOL     OW20161   3.799   2.207   5.619
 6596SOL    HW120162   3.707   2.179   5.590
 6596SOL    HW220163   3.830   2.284   5.563
 6597SOL     OW20164   3.796   2.028   5.904
 6597SOL    HW120165   3.779   2.111   5.850
 6597SOL    HW220166   3.886   1.991   5.882
 6598SOL     OW20167   4.337   2.704   7.017
 6598SOL    HW120168   4.393   2.785   7.000
 6598SOL    HW220169   4.396   2.624   7.020
 6599SOL     OW20170   4.440   2.427   7.294
 6599SOL    HW120171   4.459   2.492   7.368
 6599SOL    HW220172   4.500   2.347   7.303
 6600SOL     OW20173   4.114   3.603   7.146
 6600SOL    HW120174   4.023   3.644   7.144
 6600SOL    HW220175   4.107   3.509   7.178
 6601SOL     OW20176   4.318   2.607   6.238
 6601SOL    HW120177   4.368   2.692   6.219
 6601SOL    HW220178   4.230   2.609   6.190
 6602SOL     OW20179   4.583   3.236   5.602
 6602SOL    HW120180   4.537   3.251   5.690
 6602SOL    HW220181   4.627   3.321   5.572
 6603SOL     OW20182   4.385   3.652   6.539
 6603SOL    HW120183   4.339   3.740   6.526
 6603SOL    HW220184   4.484   3.664   6.532
 6604SOL     OW20185   4.583   2.818   6.447
 6604SOL    HW120186   4.637   2.749   6.495
 6604SOL    HW220187   4.551   2.887   6.513
 6605SOL     OW20188   4.807   2.846   5.673
 6605SOL    HW120189   4.784   2.899   5.591
 6605SOL    HW220190   4.888   2.790   5.654
 6606SOL     OW20191   3.945   3.176   7.430
 6606SOL    HW120192   3.880   3.103   7.409
 6606SOL    HW220193   3.949   3.190   7.528
 6607SOL     OW20194   3.803   3.102   6.239
 6607SOL    HW120195   3.802   3.055   6.327
 6607SOL    HW220196   3.885   3.074   6.188
 6608SOL     OW20197   4.396   3.253   7.210
 6608SOL    HW120198   4.318   3.203   7.248
 6608SOL    HW220199   4.393   3.348   7.241
 6609SOL     OW20200   4.152   2.286   6.106
 6609SOL    HW120201   4.182   2.214   6.044
 6609SOL    HW220202   4.113   2.246   6.189
 6610SOL     OW20203   4.041   2.409   6.866
 6610SOL    HW120204   4.079   2.350   6.938
 6610SOL    HW220205   4.081   2.383   6.778
 6611SOL     OW20206   4.536   3.448   6.273
 6611SOL    HW120207   4.568   3.458   6.179
 6611SOL    HW220208   4.457   3.386   6.275
 6612SOL     OW20209   4.725   1.896   6.740
 6612SOL    HW120210   4.662   1.824   6.709
 6612SOL    HW220211   4.818   1.860   6.740
 6613SOL     OW20212   4.494   3.192   5.887
 6613SOL    HW120213   4.448   3.105   5.904
 6613SOL    HW220214   4.585   3.189   5.928
 6614SOL     OW20215   4.342   3.429   6.870
 6614SOL    HW120216   4.337   3.511   6.927
 6614SOL    HW220217   4.431   3.426   6.825
 6615SOL     OW20218   3.763   2.939   5.886
 6615SOL    HW120219   3.862   2.928   5.877
 6615SOL    HW220220   3.723   2.853   5.918
 6616SOL     OW20221   4.599   3.508   5.923
 6616SOL    HW120222   4.522   3.473   5.869
 6616SOL    HW220223   4.567   3.579   5.985
 6617SOL     OW20224   3.954   2.490   7.561
 6617SOL    HW120225   3.861   2.488   7.598
 6617SOL    HW220226   3.955   2.451   7.469
 6618SOL     OW20227   3.949   2.137   8.444
 6618SOL    HW120228   3.984   2.120   8.536
 6618SOL    HW220229   3.861   2.092   8.432
 6619SOL     OW20230   3.743   2.230   8.095
 6619SOL    HW120231   3.661   2.273   8.134
 6619SOL    HW220232   3.715   2.157   8.032
 6620SOL     OW20233   4.293   3.137   8.613
 6620SOL    HW120234   4.200   3.130   8.576
 6620SOL    HW220235   4.304   3.226   8.657
 6621SOL     OW20236   4.859   2.565   8.165
 6621SOL    HW120237   4.916   2.643   8.140
 6621SOL    HW220238   4.799   2.591   8.241
 6622SOL     OW20239   4.492   3.006   8.471
 6622SOL    HW120240   4.414   3.023   8.531
 6622SOL    HW220241   4.526   3.093   8.435
 6623SOL     OW20242   4.409   2.874   8.113
 6623SOL    HW120243   4.478   2.858   8.183
 6623SOL    HW220244   4.336   2.931   8.151
 6624SOL     OW20245   4.059   3.297   8.509
 6624SOL    HW120246   3.981   3.266   8.456
 6624SOL    HW220247   4.117   3.355   8.452
 6625SOL     OW20248   4.162   2.254   8.947
 6625SOL    HW120249   4.244   2.198   8.956
 6625SOL    HW220250   4.081   2.196   8.951
 6626SOL     OW20251   3.955   3.575   7.931
 6626SOL    HW120252   3.989   3.652   7.985
 6626SOL    HW220253   3.999   3.575   7.841
 6627SOL     OW20254   3.954   3.296   7.986
 6627SOL    HW120255   3.928   3.392   7.986
 6627SOL    HW220256   3.883   3.242   8.031
 6628SOL     OW20257   3.964   2.953   8.334
 6628SOL    HW120258   3.978   2.869   8.386
 6628SOL    HW220259   3.909   3.017   8.389
 6629SOL     OW20260   4.344   3.648   8.887
 6629SOL    HW120261   4.252   3.631   8.922
 6629SOL    HW220262   4.372   3.740   8.913
 6630SOL     OW20263   4.330   2.826   7.571
 6630SOL    HW120264   4.337   2.910   7.517
 6630SOL    HW220265   4.376   2.839   7.659
 6631SOL     OW20266   3.846   2.505   8.011
 6631SOL    HW120267   3.801   2.417   8.028
 6631SOL    HW220268   3.845   2.559   8.095
 6632SOL     OW20269   3.751   3.458   7.565
 6632SOL    HW120270   3.732   3.362   7.586
 6632SOL    HW220271   3.718   3.516   7.640
 6633SOL     OW20272   4.337   3.227   8.174
 6633SOL    HW120273   4.288   3.140   8.183
 6633SOL    HW220274   4.314   3.270   8.087
 6634SOL     OW20275   4.533   1.866   7.950
 6634SOL    HW120276   4.573   1.957   7.941
 6634SOL    HW220277   4.433   1.874   7.956
 6635SOL     OW20278   3.921   2.838   8.712
 6635SOL    HW120279   4.010   2.793   8.698
 6635SOL    HW220280   3.848   2.773   8.693
 6636SOL     OW20281   4.041   2.113   9.249
 6636SOL    HW120282   4.112   2.184   9.255
 6636SOL    HW220283   3.953   2.152   9.277
 6637SOL     OW20284   4.322   2.591   7.718
 6637SOL    HW120285   4.346   2.660   7.650
 6637SOL    HW220286   4.244   2.624   7.772
 6638SOL     OW20287   4.531   2.467   8.913
 6638SOL    HW120288   4.484   2.464   9.002
 6638SOL    HW220289   4.480   2.412   8.847
 6639SOL     OW20290   4.715   2.272   8.690
 6639SOL    HW120291   4.638   2.306   8.744
 6639SOL    HW220292   4.681   2.221   8.611
 6640SOL     OW20293   4.765   2.563   7.877
 6640SOL    HW120294   4.791   2.559   7.973
 6640SOL    HW220295   4.680   2.512   7.863
 6641SOL     OW20296   3.800   2.673   8.237
 6641SOL    HW120297   3.899   2.661   8.246
 6641SOL    HW220298   3.776   2.768   8.258
 6642SOL     OW20299   3.854   3.683   9.019
 6642SOL    HW120300   3.844   3.668   9.118
 6642SOL    HW220301   3.768   3.719   8.983
 6643SOL     OW20302   4.589   2.210   7.643
 6643SOL    HW120303   4.648   2.273   7.594
 6643SOL    HW220304   4.608   2.116   7.614
 6644SOL     OW20305   4.274   2.058   8.333
 6644SOL    HW120306   4.269   2.053   8.433
 6644SOL    HW220307   4.276   2.154   8.304
 6645SOL     OW20308   4.732   3.318   7.925
 6645SOL    HW120309   4.686   3.390   7.873
 6645SOL    HW220310   4.728   3.338   8.023
 6646SOL     OW20311   4.075   3.663   8.301
 6646SOL    HW120312   4.125   3.577   8.307
 6646SOL    HW220313   4.140   3.740   8.298
 6647SOL     OW20314   4.045   2.805   7.690
 6647SOL    HW120315   4.127   2.844   7.648
 6647SOL    HW220316   4.018   2.723   7.641
 6648SOL     OW20317   4.835   3.638   7.685
 6648SOL    HW120318   4.775   3.576   7.735
 6648SOL    HW220319   4.866   3.594   7.600
 6649SOL     OW20320   3.926   2.147   8.946
 6649SOL    HW120321   3.846   2.207   8.933
 6649SOL    HW220322   3.916   2.098   9.032
 6650SOL     OW20323   4.188   3.605   7.771
 6650SOL    HW120324   4.221   3.644   7.857
 6650SOL    HW220325   4.264   3.598   7.706
 6651SOL     OW20326   3.973   3.647   8.689
 6651SOL    HW120327   4.030   3.582   8.739
 6651SOL    HW220328   3.957   3.614   8.596
 6652SOL     OW20329   4.664   3.560   8.352
 6652SOL    HW120330   4.744   3.503   8.373
 6652SOL    HW220331   4.615   3.520   8.275
 6653SOL     OW20332   4.106   2.562   7.928
 6653SOL    HW120333   4.151   2.472   7.925
 6653SOL    HW220334   4.012   2.551   7.961
 6654SOL     OW20335   4.338   1.984   7.565
 6654SOL    HW120336   4.436   1.962   7.572
 6654SOL    HW220337   4.307   1.967   7.472
 6655SOL     OW20338   4.612   3.376   8.643
 6655SOL    HW120339   4.589   3.351   8.549
 6655SOL    HW220340   4.673   3.307   8.682
 6656SOL     OW20341   4.527   3.264   8.372
 6656SOL    HW120342   4.617   3.278   8.330
 6656SOL    HW220343   4.456   3.266   8.301
 6657SOL     OW20344   4.646   2.365   8.347
 6657SOL    HW120345   4.621   2.356   8.251
 6657SOL    HW220346   4.694   2.283   8.378
 6658SOL     OW20347   4.263   1.926   7.960
 6658SOL    HW120348   4.182   1.927   8.018
 6658SOL    HW220349   4.266   2.009   7.905
 6659SOL     OW20350   4.021   1.897   7.619
 6659SOL    HW120351   4.070   1.981   7.598
 6659SOL    HW220352   4.083   1.832   7.664
 6660SOL     OW20353   4.659   2.098   7.928
 6660SOL    HW120354   4.611   2.139   7.850
 6660SOL    HW220355   4.758   2.096   7.909
 6661SOL     OW20356   4.951   3.432   8.241
 6661SOL    HW120357   4.972   3.506   8.176
 6661SOL    HW220358   5.019   3.432   8.314
 6662SOL     OW20359   4.183   3.014   8.189
 6662SOL    HW120360   4.112   2.987   8.254
 6662SOL    HW220361   4.157   2.986   8.096
 6663SOL     OW20362   4.995   3.659   8.039
 6663SOL    HW120363   5.039   3.723   7.975
 6663SOL    HW220364   4.945   3.711   8.109
 6664SOL     OW20365   4.756   2.411   7.464
 6664SOL    HW120366   4.715   2.493   7.425
 6664SOL    HW220367   4.820   2.437   7.537
 6665SOL     OW20368   3.802   2.418   8.834
 6665SOL    HW120369   3.894   2.417   8.793
 6665SOL    HW220370   3.796   2.492   8.901
 6666SOL     OW20371   4.285   2.084   8.595
 6666SOL    HW120372   4.323   2.000   8.632
 6666SOL    HW220373   4.197   2.103   8.639
 6667SOL     OW20374   4.590   2.316   8.090
 6667SOL    HW120375   4.558   2.388   8.028
 6667SOL    HW220376   4.614   2.235   8.037
 6668SOL     OW20377   4.741   1.901   8.201
 6668SOL    HW120378   4.669   1.906   8.132
 6668SOL    HW220379   4.717   1.832   8.270
 6669SOL     OW20380   4.212   3.247   7.622
 6669SOL    HW120381   4.125   3.232   7.669
 6669SOL    HW220382   4.195   3.273   7.527
 6670SOL     OW20383   4.251   2.118   7.776
 6670SOL    HW120384   4.278   2.059   7.701
 6670SOL    HW220385   4.251   2.213   7.745
 6671SOL     OW20386   4.788   3.209   8.788
 6671SOL    HW120387   4.708   3.186   8.843
 6671SOL    HW220388   4.871   3.183   8.837
 6672SOL     OW20389   4.835   3.057   8.548
 6672SOL    HW120390   4.795   3.101   8.629
 6672SOL    HW220391   4.794   3.094   8.465
 6673SOL     OW20392   4.639   1.951   8.850
 6673SOL    HW120393   4.664   1.931   8.755
 6673SOL    HW220394   4.711   2.007   8.892
 6674SOL     OW20395   4.429   2.912   7.816
 6674SOL    HW120396   4.415   2.919   7.915
 6674SOL    HW220397   4.513   2.861   7.798
 6675SOL     OW20398   4.134   2.675   8.699
 6675SOL    HW120399   4.220   2.687   8.749
 6675SOL    HW220400   4.092   2.588   8.726
 6676SOL     OW20401   3.788   3.426   8.779
 6676SOL    HW120402   3.742   3.508   8.745
 6676SOL    HW220403   3.886   3.445   8.788
 6677SOL     OW20404   4.091   2.962   7.949
 6677SOL    HW120405   4.084   3.045   7.893
 6677SOL    HW220406   4.095   2.882   7.889
 6678SOL     OW20407   4.290   2.399   8.313
 6678SOL    HW120408   4.302   2.465   8.239
 6678SOL    HW220409   4.336   2.433   8.396
 6679SOL     OW20410   4.976   3.210   7.836
 6679SOL    HW120411   5.026   3.287   7.876
 6679SOL    HW220412   4.881   3.212   7.868
 6680SOL     OW20413   4.078   3.372   8.777
 6680SOL    HW120414   4.057   3.328   8.690
 6680SOL    HW220415   4.175   3.398   8.780
 6681SOL     OW20416   4.126   2.613   9.046
 6681SOL    HW120417   4.194   2.668   8.999
 6681SOL    HW220418   4.166   2.525   9.073
 6682SOL     OW20419   4.297   2.732   8.477
 6682SOL    HW120420   4.341   2.821   8.468
 6682SOL    HW220421   4.234   2.732   8.554
 6683SOL     OW20422   5.084   2.724   8.493
 6683SOL    HW120423   5.009   2.724   8.427
 6683SOL    HW220424   5.121   2.632   8.502
 6684SOL     OW20425   4.933   2.387   7.723
 6684SOL    HW120426   4.946   2.303   7.777
 6684SOL    HW220427   4.904   2.461   7.783
 6685SOL     OW20428   4.031   2.075   8.679
 6685SOL    HW120429   4.008   2.112   8.769
 6685SOL    HW220430   4.001   1.980   8.673
 6686SOL     OW20431   3.761   3.172   8.730
 6686SOL    HW120432   3.814   3.123   8.798
 6686SOL    HW220433   3.783   3.270   8.735
 6687SOL     OW20434   4.456   2.496   8.512
 6687SOL    HW120435   4.515   2.470   8.436
 6687SOL    HW220436   4.428   2.592   8.501
 6688SOL     OW20437   4.031   1.925   8.066
 6688SOL    HW120438   4.020   2.019   8.099
 6688SOL    HW220439   4.026   1.862   8.143
 6689SOL     OW20440   4.747   2.628   8.414
 6689SOL    HW120441   4.762   2.649   8.510
 6689SOL    HW220442   4.717   2.533   8.405
 6690SOL     OW20443   4.704   3.435   9.148
 6690SOL    HW120444   4.684   3.479   9.060
 6690SOL    HW220445   4.743   3.344   9.132
 6691SOL     OW20446   5.264   2.136   7.573
 6691SOL    HW120447   5.203   2.061   7.596
 6691SOL    HW220448   5.286   2.188   7.656
 6692SOL     OW20449   4.792   3.195   8.297
 6692SOL    HW120450   4.799   3.111   8.242
 6692SOL    HW220451   4.854   3.264   8.261
 6693SOL     OW20452   4.043   2.672   8.397
 6693SOL    HW120453   4.136   2.708   8.402
 6693SOL    HW220454   4.037   2.587   8.449
 6694SOL     OW20455   4.063   2.371   8.454
 6694SOL    HW120456   4.011   2.288   8.437
 6694SOL    HW220457   4.140   2.376   8.390
 6695SOL     OW20458   4.862   2.242   9.126
 6695SOL    HW120459   4.817   2.305   9.190
 6695SOL    HW220460   4.955   2.273   9.109
 6696SOL     OW20461   3.732   3.188   7.648
 6696SOL    HW120462   3.639   3.209   7.617
 6696SOL    HW220463   3.742   3.089   7.661
 6697SOL     OW20464   3.812   3.663   8.375
 6697SOL    HW120465   3.770   3.577   8.348
 6697SOL    HW220466   3.906   3.666   8.341
 6698SOL     OW20467   4.228   3.430   8.358
 6698SOL    HW120468   4.294   3.504   8.367
 6698SOL    HW220469   4.272   3.351   8.316
 6699SOL     OW20470   4.726   2.658   8.686
 6699SOL    HW120471   4.767   2.626   8.772
 6699SOL    HW220472   4.630   2.631   8.683
 6700SOL     OW20473   3.764   2.406   8.562
 6700SOL    HW120474   3.849   2.373   8.521
 6700SOL    HW220475   3.777   2.421   8.660
 6701SOL     OW20476   4.539   2.434   7.773
 6701SOL    HW120477   4.546   2.345   7.727
 6701SOL    HW220478   4.445   2.468   7.765
 6702SOL     OW20479   4.395   2.326   8.717
 6702SOL    HW120480   4.361   2.237   8.687
 6702SOL    HW220481   4.421   2.380   8.637
 6703SOL     OW20482   4.654   3.540   8.913
 6703SOL    HW120483   4.630   3.522   8.818
 6703SOL    HW220484   4.684   3.634   8.923
 6704SOL     OW20485   4.197   2.362   7.639
 6704SOL    HW120486   4.258   2.442   7.643
 6704SOL    HW220487   4.102   2.393   7.646
 6705SOL     OW20488   3.883   2.999   8.914
 6705SOL    HW120489   3.905   2.938   8.990
 6705SOL    HW220490   3.893   2.950   8.828
 6706SOL     OW20491   4.976   3.593   8.576
 6706SOL    HW120492   5.060   3.598   8.522
 6706SOL    HW220493   4.953   3.497   8.594
 6707SOL     OW20494   3.807   3.120   8.470
 6707SOL    HW120495   3.802   3.119   8.570
 6707SOL    HW220496   3.724   3.079   8.432
 6708SOL     OW20497   4.396   3.478   7.602
 6708SOL    HW120498   4.405   3.488   7.503
 6708SOL    HW220499   4.356   3.389   7.623
 6709SOL     OW20500   3.987   2.188   8.168
 6709SOL    HW120501   3.908   2.239   8.134
 6709SOL    HW220502   3.978   2.173   8.266
 6710SOL     OW20503   4.546   2.864   8.820
 6710SOL    HW120504   4.586   2.863   8.728
 6710SOL    HW220505   4.556   2.956   8.860
 6711SOL     OW20506   4.640   2.772   7.739
 6711SOL    HW120507   4.703   2.810   7.671
 6711SOL    HW220508   4.680   2.689   7.778
 6712SOL     OW20509   4.096   3.150   8.938
 6712SOL    HW120510   4.083   3.243   8.904
 6712SOL    HW220511   4.012   3.098   8.925
 6713SOL     OW20512   4.763   2.960   8.144
 6713SOL    HW120513   4.693   2.913   8.198
 6713SOL    HW220514   4.822   2.892   8.101
 6714SOL     OW20515   4.738   2.098   8.419
 6714SOL    HW120516   4.730   2.062   8.326
 6714SOL    HW220517   4.736   2.022   8.484
 6715SOL     OW20518   4.314   3.349   7.939
 6715SOL    HW120519   4.356   3.291   7.869
 6715SOL    HW220520   4.270   3.428   7.895
 6716SOL     OW20521   3.979   3.210   7.738
 6716SOL    HW120522   3.883   3.211   7.711
 6716SOL    HW220523   3.991   3.263   7.822
 6717SOL     OW20524   3.799   2.207   7.481
 6717SOL    HW120525   3.707   2.179   7.452
 6717SOL    HW220526   3.830   2.284   7.425
 6718SOL     OW20527   3.796   2.028   7.766
 6718SOL    HW120528   3.779   2.111   7.712
 6718SOL    HW220529   3.886   1.991   7.744
 6719SOL     OW20530   4.337   2.704   8.879
 6719SOL    HW120531   4.393   2.785   8.862
 6719SOL    HW220532   4.396   2.624   8.882
 6720SOL     OW20533   4.114   3.603   9.008
 6720SOL    HW120534   4.023   3.644   9.006
 6720SOL    HW220535   4.107   3.509   9.040
 6721SOL     OW20536   4.318   2.607   8.100
 6721SOL    HW120537   4.368   2.692   8.081
 6721SOL    HW220538   4.230   2.609   8.052
 6722SOL     OW20539   4.583   3.236   7.464
 6722SOL    HW120540   4.537   3.251   7.552
 6722SOL    HW220541   4.627   3.321   7.434
 6723SOL     OW20542   4.385   3.652   8.401
 6723SOL    HW120543   4.339   3.740   8.388
 6723SOL    HW220544   4.484   3.664   8.394
 6724SOL     OW20545   4.583   2.818   8.309
 6724SOL    HW120546   4.637   2.749   8.357
 6724SOL    HW220547   4.551   2.887   8.375
 6725SOL     OW20548   4.807   2.846   7.535
 6725SOL    HW120549   4.784   2.899   7.453
 6725SOL    HW220550   4.888   2.790   7.516
 6726SOL     OW20551   3.803   3.102   8.101
 6726SOL    HW120552   3.802   3.055   8.189
 6726SOL    HW220553   3.885   3.074   8.050
 6727SOL     OW20554   4.152   2.286   7.968
 6727SOL    HW120555   4.182   2.214   7.906
 6727SOL    HW220556   4.113   2.246   8.051
 6728SOL     OW20557   4.041   2.409   8.728
 6728SOL    HW120558   4.079   2.350   8.800
 6728SOL    HW220559   4.081   2.383   8.640
 6729SOL     OW20560   4.536   3.448   8.135
 6729SOL    HW120561   4.568   3.458   8.041
 6729SOL    HW220562   4.457   3.386   8.137
 6730SOL     OW20563   4.725   1.896   8.602
 6730SOL    HW120564   4.662   1.824   8.571
 6730SOL    HW220565   4.818   1.860   8.602
 6731SOL     OW20566   4.494   3.192   7.749
 6731SOL    HW120567   4.448   3.105   7.766
 6731SOL    HW220568   4.585   3.189   7.790
 6732SOL     OW20569   4.342   3.429   8.732
 6732SOL    HW120570   4.337   3.511   8.789
 6732SOL    HW220571   4.431   3.426   8.687
 6733SOL     OW20572   3.763   2.939   7.748
 6733SOL    HW120573   3.862   2.928   7.739
 6733SOL    HW220574   3.723   2.853   7.780
 6734SOL     OW20575   4.599   3.508   7.785
 6734SOL    HW120576   4.522   3.473   7.731
 6734SOL    HW220577   4.567   3.579   7.847
 6735SOL     OW20578   3.954   4.352   0.113
 6735SOL    HW120579   3.861   4.350   0.150
 6735SOL    HW220580   3.955   4.313   0.021
 6736SOL     OW20581   3.949   3.999   0.996
 6736SOL    HW120582   3.984   3.982   1.088
 6736SOL    HW220583   3.861   3.954   0.984
 6737SOL     OW20584   3.743   4.092   0.647
 6737SOL    HW120585   3.661   4.135   0.686
 6737SOL    HW220586   3.715   4.019   0.584
 6738SOL     OW20587   4.859   4.427   0.717
 6738SOL    HW120588   4.916   4.505   0.692
 6738SOL    HW220589   4.799   4.453   0.793
 6739SOL     OW20590   4.492   4.868   1.023
 6739SOL    HW120591   4.414   4.885   1.083
 6739SOL    HW220592   4.526   4.955   0.987
 6740SOL     OW20593   4.574   4.522   1.823
 6740SOL    HW120594   4.570   4.598   1.888
 6740SOL    HW220595   4.596   4.558   1.732
 6741SOL     OW20596   4.409   4.736   0.665
 6741SOL    HW120597   4.478   4.720   0.735
 6741SOL    HW220598   4.336   4.793   0.703
 6742SOL     OW20599   4.410   4.885   1.803
 6742SOL    HW120600   4.470   4.964   1.817
 6742SOL    HW220601   4.324   4.916   1.762
 6743SOL     OW20602   4.162   4.116   1.499
 6743SOL    HW120603   4.244   4.060   1.508
 6743SOL    HW220604   4.081   4.058   1.503
 6744SOL     OW20605   3.964   4.815   0.886
 6744SOL    HW120606   3.978   4.731   0.938
 6744SOL    HW220607   3.909   4.879   0.941
 6745SOL     OW20608   4.330   4.688   0.123
 6745SOL    HW120609   4.337   4.772   0.069
 6745SOL    HW220610   4.376   4.701   0.211
 6746SOL     OW20611   3.846   4.367   0.563
 6746SOL    HW120612   3.801   4.279   0.580
 6746SOL    HW220613   3.845   4.421   0.647
 6747SOL     OW20614   3.837   4.461   1.597
 6747SOL    HW120615   3.925   4.448   1.642
 6747SOL    HW220616   3.824   4.558   1.575
 6748SOL     OW20617   4.533   3.728   0.502
 6748SOL    HW120618   4.573   3.819   0.493
 6748SOL    HW220619   4.433   3.736   0.508
 6749SOL     OW20620   3.921   4.700   1.264
 6749SOL    HW120621   4.010   4.655   1.250
 6749SOL    HW220622   3.848   4.635   1.245
 6750SOL     OW20623   4.041   3.975   1.801
 6750SOL    HW120624   4.112   4.046   1.807
 6750SOL    HW220625   3.953   4.014   1.829
 6751SOL     OW20626   4.322   4.453   0.270
 6751SOL    HW120627   4.346   4.522   0.202
 6751SOL    HW220628   4.244   4.486   0.324
 6752SOL     OW20629   4.531   4.329   1.465
 6752SOL    HW120630   4.484   4.326   1.554
 6752SOL    HW220631   4.480   4.274   1.399
 6753SOL     OW20632   4.697   4.614   1.572
 6753SOL    HW120633   4.743   4.530   1.543
 6753SOL    HW220634   4.641   4.648   1.497
 6754SOL     OW20635   4.715   4.134   1.242
 6754SOL    HW120636   4.638   4.168   1.296
 6754SOL    HW220637   4.681   4.083   1.163
 6755SOL     OW20638   4.765   4.425   0.429
 6755SOL    HW120639   4.791   4.421   0.525
 6755SOL    HW220640   4.680   4.374   0.415
 6756SOL     OW20641   3.800   4.535   0.789
 6756SOL    HW120642   3.899   4.523   0.798
 6756SOL    HW220643   3.776   4.630   0.810
 6757SOL     OW20644   4.589   4.072   0.195
 6757SOL    HW120645   4.648   4.135   0.146
 6757SOL    HW220646   4.608   3.978   0.166
 6758SOL     OW20647   4.274   3.920   0.885
 6758SOL    HW120648   4.269   3.915   0.985
 6758SOL    HW220649   4.276   4.016   0.856
 6759SOL     OW20650   4.045   4.667   0.242
 6759SOL    HW120651   4.127   4.706   0.200
 6759SOL    HW220652   4.018   4.585   0.193
 6760SOL     OW20653   3.926   4.009   1.498
 6760SOL    HW120654   3.846   4.069   1.485
 6760SOL    HW220655   3.916   3.960   1.584
 6761SOL     OW20656   4.106   4.424   0.480
 6761SOL    HW120657   4.151   4.334   0.477
 6761SOL    HW220658   4.012   4.413   0.513
 6762SOL     OW20659   4.338   3.846   0.117
 6762SOL    HW120660   4.436   3.824   0.124
 6762SOL    HW220661   4.307   3.829   0.024
 6763SOL     OW20662   4.505   3.988   1.749
 6763SOL    HW120663   4.572   3.927   1.792
 6763SOL    HW220664   4.432   4.007   1.814
 6764SOL     OW20665   4.646   4.227   0.899
 6764SOL    HW120666   4.621   4.218   0.803
 6764SOL    HW220667   4.694   4.145   0.930
 6765SOL     OW20668   4.263   3.788   0.512
 6765SOL    HW120669   4.182   3.789   0.570
 6765SOL    HW220670   4.266   3.871   0.457
 6766SOL     OW20671   4.021   3.759   0.171
 6766SOL    HW120672   4.070   3.843   0.150
 6766SOL    HW220673   4.083   3.694   0.216
 6767SOL     OW20674   4.659   3.960   0.480
 6767SOL    HW120675   4.611   4.001   0.402
 6767SOL    HW220676   4.758   3.958   0.461
 6768SOL     OW20677   4.800   4.407   1.464
 6768SOL    HW120678   4.720   4.346   1.467
 6768SOL    HW220679   4.881   4.354   1.440
 6769SOL     OW20680   4.183   4.876   0.741
 6769SOL    HW120681   4.112   4.849   0.806
 6769SOL    HW220682   4.157   4.848   0.648
 6770SOL     OW20683   4.756   4.273   0.016
 6770SOL    HW120684   4.715   4.355  -0.023
 6770SOL    HW220685   4.820   4.299   0.089
 6771SOL     OW20686   3.802   4.280   1.386
 6771SOL    HW120687   3.894   4.279   1.345
 6771SOL    HW220688   3.796   4.354   1.453
 6772SOL     OW20689   4.285   3.946   1.147
 6772SOL    HW120690   4.323   3.862   1.184
 6772SOL    HW220691   4.197   3.965   1.191
 6773SOL     OW20692   4.590   4.178   0.642
 6773SOL    HW120693   4.558   4.250   0.580
 6773SOL    HW220694   4.614   4.097   0.589
 6774SOL     OW20695   4.741   3.763   0.753
 6774SOL    HW120696   4.669   3.768   0.684
 6774SOL    HW220697   4.717   3.694   0.822
 6775SOL     OW20698   4.251   3.980   0.328
 6775SOL    HW120699   4.278   3.921   0.253
 6775SOL    HW220700   4.251   4.075   0.297
 6776SOL     OW20701   4.639   3.813   1.402
 6776SOL    HW120702   4.664   3.793   1.307
 6776SOL    HW220703   4.711   3.869   1.444
 6777SOL     OW20704   4.704   4.840   1.719
 6777SOL    HW120705   4.605   4.846   1.729
 6777SOL    HW220706   4.727   4.760   1.663
 6778SOL     OW20707   4.429   4.774   0.368
 6778SOL    HW120708   4.415   4.781   0.467
 6778SOL    HW220709   4.513   4.723   0.350
 6779SOL     OW20710   4.134   4.537   1.251
 6779SOL    HW120711   4.220   4.549   1.301
 6779SOL    HW220712   4.092   4.450   1.278
 6780SOL     OW20713   4.091   4.824   0.501
 6780SOL    HW120714   4.084   4.907   0.445
 6780SOL    HW220715   4.095   4.744   0.441
 6781SOL     OW20716   4.290   4.261   0.865
 6781SOL    HW120717   4.302   4.327   0.791
 6781SOL    HW220718   4.336   4.295   0.948
 6782SOL     OW20719   4.126   4.475   1.598
 6782SOL    HW120720   4.194   4.530   1.551
 6782SOL    HW220721   4.166   4.387   1.625
 6783SOL     OW20722   4.737   3.829   1.770
 6783SOL    HW120723   4.743   3.914   1.718
 6783SOL    HW220724   4.769   3.753   1.713
 6784SOL     OW20725   4.228   3.774   1.740
 6784SOL    HW120726   4.186   3.717   1.670
 6784SOL    HW220727   4.162   3.843   1.772
 6785SOL     OW20728   4.297   4.594   1.029
 6785SOL    HW120729   4.341   4.683   1.020
 6785SOL    HW220730   4.234   4.594   1.106
 6786SOL     OW20731   5.084   4.586   1.045
 6786SOL    HW120732   5.009   4.586   0.979
 6786SOL    HW220733   5.121   4.494   1.054
 6787SOL     OW20734   4.933   4.249   0.275
 6787SOL    HW120735   4.946   4.165   0.329
 6787SOL    HW220736   4.904   4.323   0.335
 6788SOL     OW20737   4.031   3.937   1.231
 6788SOL    HW120738   4.008   3.974   1.321
 6788SOL    HW220739   4.001   3.842   1.225
 6789SOL     OW20740   4.456   4.358   1.064
 6789SOL    HW120741   4.515   4.332   0.988
 6789SOL    HW220742   4.428   4.454   1.053
 6790SOL     OW20743   4.031   3.787   0.618
 6790SOL    HW120744   4.020   3.881   0.651
 6790SOL    HW220745   4.026   3.724   0.695
 6791SOL     OW20746   4.747   4.490   0.966
 6791SOL    HW120747   4.762   4.511   1.062
 6791SOL    HW220748   4.717   4.395   0.957
 6792SOL     OW20749   4.074   4.622   1.804
 6792SOL    HW120750   4.150   4.666   1.852
 6792SOL    HW220751   4.109   4.575   1.722
 6793SOL     OW20752   5.027   4.562   0.042
 6793SOL    HW120753   5.061   4.469   0.057
 6793SOL    HW220754   5.045   4.589  -0.053
 6794SOL     OW20755   4.043   4.534   0.949
 6794SOL    HW120756   4.136   4.570   0.954
 6794SOL    HW220757   4.037   4.449   1.001
 6795SOL     OW20758   4.063   4.233   1.006
 6795SOL    HW120759   4.011   4.150   0.989
 6795SOL    HW220760   4.140   4.238   0.942
 6796SOL     OW20761   4.862   4.104   1.678
 6796SOL    HW120762   4.817   4.167   1.742
 6796SOL    HW220763   4.955   4.135   1.661
 6797SOL     OW20764   4.884   3.931   1.477
 6797SOL    HW120765   4.884   3.995   1.554
 6797SOL    HW220766   4.912   3.979   1.394
 6798SOL     OW20767   3.732   5.050   0.200
 6798SOL    HW120768   3.639   5.071   0.169
 6798SOL    HW220769   3.742   4.951   0.213
 6799SOL     OW20770   4.726   4.520   1.238
 6799SOL    HW120771   4.767   4.488   1.324
 6799SOL    HW220772   4.630   4.493   1.235
 6800SOL     OW20773   3.764   4.268   1.114
 6800SOL    HW120774   3.849   4.235   1.073
 6800SOL    HW220775   3.777   4.283   1.212
 6801SOL     OW20776   3.913   4.244   1.722
 6801SOL    HW120777   3.972   4.204   1.652
 6801SOL    HW220778   3.855   4.315   1.681
 6802SOL     OW20779   4.539   4.296   0.325
 6802SOL    HW120780   4.546   4.207   0.279
 6802SOL    HW220781   4.445   4.330   0.317
 6803SOL     OW20782   4.395   4.188   1.269
 6803SOL    HW120783   4.361   4.099   1.239
 6803SOL    HW220784   4.421   4.242   1.189
 6804SOL     OW20785   4.197   4.224   0.191
 6804SOL    HW120786   4.258   4.304   0.195
 6804SOL    HW220787   4.102   4.255   0.198
 6805SOL     OW20788   3.883   4.861   1.466
 6805SOL    HW120789   3.905   4.800   1.542
 6805SOL    HW220790   3.893   4.812   1.380
 6806SOL     OW20791   3.807   4.982   1.022
 6806SOL    HW120792   3.802   4.981   1.122
 6806SOL    HW220793   3.724   4.941   0.984
 6807SOL     OW20794   4.627   3.810   0.133
 6807SOL    HW120795   4.678   3.811   0.047
 6807SOL    HW220796   4.683   3.768   0.204
 6808SOL     OW20797   3.987   4.050   0.720
 6808SOL    HW120798   3.908   4.101   0.686
 6808SOL    HW220799   3.978   4.035   0.818
 6809SOL     OW20800   4.546   4.726   1.372
 6809SOL    HW120801   4.586   4.725   1.280
 6809SOL    HW220802   4.556   4.818   1.412
 6810SOL     OW20803   4.640   4.634   0.291
 6810SOL    HW120804   4.703   4.672   0.223
 6810SOL    HW220805   4.680   4.551   0.330
 6811SOL     OW20806   4.096   5.012   1.490
 6811SOL    HW120807   4.083   5.105   1.456
 6811SOL    HW220808   4.012   4.960   1.477
 6812SOL     OW20809   4.763   4.822   0.696
 6812SOL    HW120810   4.693   4.775   0.750
 6812SOL    HW220811   4.822   4.754   0.653
 6813SOL     OW20812   4.738   3.960   0.971
 6813SOL    HW120813   4.730   3.924   0.878
 6813SOL    HW220814   4.736   3.884   1.036
 6814SOL     OW20815   3.829   4.737   1.726
 6814SOL    HW120816   3.752   4.704   1.780
 6814SOL    HW220817   3.914   4.707   1.768
 6815SOL     OW20818   4.396   3.927   1.489
 6815SOL    HW120819   4.486   3.911   1.449
 6815SOL    HW220820   4.404   3.932   1.588
 6816SOL     OW20821   3.796   3.890   0.318
 6816SOL    HW120822   3.779   3.973   0.264
 6816SOL    HW220823   3.886   3.853   0.296
 6817SOL     OW20824   4.337   4.566   1.431
 6817SOL    HW120825   4.393   4.647   1.414
 6817SOL    HW220826   4.396   4.486   1.434
 6818SOL     OW20827   4.440   4.289   1.708
 6818SOL    HW120828   4.459   4.354   1.782
 6818SOL    HW220829   4.500   4.209   1.717
 6819SOL     OW20830   4.318   4.469   0.652
 6819SOL    HW120831   4.368   4.554   0.633
 6819SOL    HW220832   4.230   4.471   0.604
 6820SOL     OW20833   4.583   4.680   0.861
 6820SOL    HW120834   4.637   4.611   0.909
 6820SOL    HW220835   4.551   4.749   0.927
 6821SOL     OW20836   4.807   4.708   0.087
 6821SOL    HW120837   4.784   4.761   0.005
 6821SOL    HW220838   4.888   4.652   0.068
 6822SOL     OW20839   3.803   4.964   0.653
 6822SOL    HW120840   3.802   4.917   0.741
 6822SOL    HW220841   3.885   4.936   0.602
 6823SOL     OW20842   4.152   4.148   0.520
 6823SOL    HW120843   4.182   4.076   0.458
 6823SOL    HW220844   4.113   4.108   0.603
 6824SOL     OW20845   4.041   4.271   1.280
 6824SOL    HW120846   4.079   4.212   1.352
 6824SOL    HW220847   4.081   4.245   1.192
 6825SOL     OW20848   4.725   3.758   1.154
 6825SOL    HW120849   4.662   3.686   1.123
 6825SOL    HW220850   4.818   3.722   1.154
 6826SOL     OW20851   4.494   5.054   0.301
 6826SOL    HW120852   4.448   4.967   0.318
 6826SOL    HW220853   4.585   5.051   0.342
 6827SOL     OW20854   3.763   4.801   0.300
 6827SOL    HW120855   3.862   4.790   0.291
 6827SOL    HW220856   3.723   4.715   0.332
 6828SOL     OW20857   3.954   4.352   1.975
 6828SOL    HW120858   3.861   4.350   2.012
 6828SOL    HW220859   3.955   4.313   1.883
 6829SOL     OW20860   3.949   3.999   2.858
 6829SOL    HW120861   3.984   3.982   2.950
 6829SOL    HW220862   3.861   3.954   2.846
 6830SOL     OW20863   3.743   4.092   2.509
 6830SOL    HW120864   3.661   4.135   2.548
 6830SOL    HW220865   3.715   4.019   2.446
 6831SOL     OW20866   4.859   4.427   2.579
 6831SOL    HW120867   4.916   4.505   2.554
 6831SOL    HW220868   4.799   4.453   2.655
 6832SOL     OW20869   4.492   4.868   2.885
 6832SOL    HW120870   4.414   4.885   2.945
 6832SOL    HW220871   4.526   4.955   2.849
 6833SOL     OW20872   4.574   4.522   3.685
 6833SOL    HW120873   4.570   4.598   3.750
 6833SOL    HW220874   4.596   4.558   3.594
 6834SOL     OW20875   4.409   4.736   2.527
 6834SOL    HW120876   4.478   4.720   2.597
 6834SOL    HW220877   4.336   4.793   2.565
 6835SOL     OW20878   4.410   4.885   3.665
 6835SOL    HW120879   4.470   4.964   3.679
 6835SOL    HW220880   4.324   4.916   3.624
 6836SOL     OW20881   4.162   4.116   3.361
 6836SOL    HW120882   4.244   4.060   3.370
 6836SOL    HW220883   4.081   4.058   3.365
 6837SOL     OW20884   3.964   4.815   2.748
 6837SOL    HW120885   3.978   4.731   2.800
 6837SOL    HW220886   3.909   4.879   2.803
 6838SOL     OW20887   4.330   4.688   1.985
 6838SOL    HW120888   4.337   4.772   1.931
 6838SOL    HW220889   4.376   4.701   2.073
 6839SOL     OW20890   3.846   4.367   2.425
 6839SOL    HW120891   3.801   4.279   2.442
 6839SOL    HW220892   3.845   4.421   2.509
 6840SOL     OW20893   3.837   4.461   3.459
 6840SOL    HW120894   3.925   4.448   3.504
 6840SOL    HW220895   3.824   4.558   3.437
 6841SOL     OW20896   4.533   3.728   2.364
 6841SOL    HW120897   4.573   3.819   2.355
 6841SOL    HW220898   4.433   3.736   2.370
 6842SOL     OW20899   3.921   4.700   3.126
 6842SOL    HW120900   4.010   4.655   3.112
 6842SOL    HW220901   3.848   4.635   3.107
 6843SOL     OW20902   4.041   3.975   3.663
 6843SOL    HW120903   4.112   4.046   3.669
 6843SOL    HW220904   3.953   4.014   3.691
 6844SOL     OW20905   4.322   4.453   2.132
 6844SOL    HW120906   4.346   4.522   2.064
 6844SOL    HW220907   4.244   4.486   2.186
 6845SOL     OW20908   4.531   4.329   3.327
 6845SOL    HW120909   4.484   4.326   3.416
 6845SOL    HW220910   4.480   4.274   3.261
 6846SOL     OW20911   4.697   4.614   3.434
 6846SOL    HW120912   4.743   4.530   3.405
 6846SOL    HW220913   4.641   4.648   3.359
 6847SOL     OW20914   4.715   4.134   3.104
 6847SOL    HW120915   4.638   4.168   3.158
 6847SOL    HW220916   4.681   4.083   3.025
 6848SOL     OW20917   4.765   4.425   2.291
 6848SOL    HW120918   4.791   4.421   2.387
 6848SOL    HW220919   4.680   4.374   2.277
 6849SOL     OW20920   3.800   4.535   2.651
 6849SOL    HW120921   3.899   4.523   2.660
 6849SOL    HW220922   3.776   4.630   2.672
 6850SOL     OW20923   4.589   4.072   2.057
 6850SOL    HW120924   4.648   4.135   2.008
 6850SOL    HW220925   4.608   3.978   2.028
 6851SOL     OW20926   4.274   3.920   2.747
 6851SOL    HW120927   4.269   3.915   2.847
 6851SOL    HW220928   4.276   4.016   2.718
 6852SOL     OW20929   4.045   4.667   2.104
 6852SOL    HW120930   4.127   4.706   2.062
 6852SOL    HW220931   4.018   4.585   2.055
 6853SOL     OW20932   3.926   4.009   3.360
 6853SOL    HW120933   3.846   4.069   3.347
 6853SOL    HW220934   3.916   3.960   3.446
 6854SOL     OW20935   4.106   4.424   2.342
 6854SOL    HW120936   4.151   4.334   2.339
 6854SOL    HW220937   4.012   4.413   2.375
 6855SOL     OW20938   4.338   3.846   1.979
 6855SOL    HW120939   4.436   3.824   1.986
 6855SOL    HW220940   4.307   3.829   1.886
 6856SOL     OW20941   4.505   3.988   3.611
 6856SOL    HW120942   4.572   3.927   3.654
 6856SOL    HW220943   4.432   4.007   3.676
 6857SOL     OW20944   4.646   4.227   2.761
 6857SOL    HW120945   4.621   4.218   2.665
 6857SOL    HW220946   4.694   4.145   2.792
 6858SOL     OW20947   4.263   3.788   2.374
 6858SOL    HW120948   4.182   3.789   2.432
 6858SOL    HW220949   4.266   3.871   2.319
 6859SOL     OW20950   5.158   4.912   1.903
 6859SOL    HW120951   5.190   4.836   1.960
 6859SOL    HW220952   5.066   4.939   1.933
 6860SOL     OW20953   4.021   3.759   2.033
 6860SOL    HW120954   4.070   3.843   2.012
 6860SOL    HW220955   4.083   3.694   2.078
 6861SOL     OW20956   4.659   3.960   2.342
 6861SOL    HW120957   4.611   4.001   2.264
 6861SOL    HW220958   4.758   3.958   2.323
 6862SOL     OW20959   4.800   4.407   3.326
 6862SOL    HW120960   4.720   4.346   3.329
 6862SOL    HW220961   4.881   4.354   3.302
 6863SOL     OW20962   4.183   4.876   2.603
 6863SOL    HW120963   4.112   4.849   2.668
 6863SOL    HW220964   4.157   4.848   2.510
 6864SOL     OW20965   4.756   4.273   1.878
 6864SOL    HW120966   4.715   4.355   1.839
 6864SOL    HW220967   4.820   4.299   1.951
 6865SOL     OW20968   3.802   4.280   3.248
 6865SOL    HW120969   3.894   4.279   3.207
 6865SOL    HW220970   3.796   4.354   3.315
 6866SOL     OW20971   4.285   3.946   3.009
 6866SOL    HW120972   4.323   3.862   3.046
 6866SOL    HW220973   4.197   3.965   3.053
 6867SOL     OW20974   4.590   4.178   2.504
 6867SOL    HW120975   4.558   4.250   2.442
 6867SOL    HW220976   4.614   4.097   2.451
 6868SOL     OW20977   4.741   3.763   2.615
 6868SOL    HW120978   4.669   3.768   2.546
 6868SOL    HW220979   4.717   3.694   2.684
 6869SOL     OW20980   4.251   3.980   2.190
 6869SOL    HW120981   4.278   3.921   2.115
 6869SOL    HW220982   4.251   4.075   2.159
 6870SOL     OW20983   4.639   3.813   3.264
 6870SOL    HW120984   4.664   3.793   3.169
 6870SOL    HW220985   4.711   3.869   3.306
 6871SOL     OW20986   4.704   4.840   3.581
 6871SOL    HW120987   4.605   4.846   3.591
 6871SOL    HW220988   4.727   4.760   3.525
 6872SOL     OW20989   4.429   4.774   2.230
 6872SOL    HW120990   4.415   4.781   2.329
 6872SOL    HW220991   4.513   4.723   2.212
 6873SOL     OW20992   4.134   4.537   3.113
 6873SOL    HW120993   4.220   4.549   3.163
 6873SOL    HW220994   4.092   4.450   3.140
 6874SOL     OW20995   4.091   4.824   2.363
 6874SOL    HW120996   4.084   4.907   2.307
 6874SOL    HW220997   4.095   4.744   2.303
 6875SOL     OW20998   4.290   4.261   2.727
 6875SOL    HW120999   4.302   4.327   2.653
 6875SOL    HW221000   4.336   4.295   2.810
 6876SOL     OW21001   4.126   4.475   3.460
 6876SOL    HW121002   4.194   4.530   3.413
 6876SOL    HW221003   4.166   4.387   3.487
 6877SOL     OW21004   4.737   3.829   3.632
 6877SOL    HW121005   4.743   3.914   3.580
 6877SOL    HW221006   4.769   3.753   3.575
 6878SOL     OW21007   4.228   3.774   3.602
 6878SOL    HW121008   4.186   3.717   3.532
 6878SOL    HW221009   4.162   3.843   3.634
 6879SOL     OW21010   4.297   4.594   2.891
 6879SOL    HW121011   4.341   4.683   2.882
 6879SOL    HW221012   4.234   4.594   2.968
 6880SOL     OW21013   5.084   4.586   2.907
 6880SOL    HW121014   5.009   4.586   2.841
 6880SOL    HW221015   5.121   4.494   2.916
 6881SOL     OW21016   4.933   4.249   2.137
 6881SOL    HW121017   4.946   4.165   2.191
 6881SOL    HW221018   4.904   4.323   2.197
 6882SOL     OW21019   4.031   3.937   3.093
 6882SOL    HW121020   4.008   3.974   3.183
 6882SOL    HW221021   4.001   3.842   3.087
 6883SOL     OW21022   4.456   4.358   2.926
 6883SOL    HW121023   4.515   4.332   2.850
 6883SOL    HW221024   4.428   4.454   2.915
 6884SOL     OW21025   4.031   3.787   2.480
 6884SOL    HW121026   4.020   3.881   2.513
 6884SOL    HW221027   4.026   3.724   2.557
 6885SOL     OW21028   4.747   4.490   2.828
 6885SOL    HW121029   4.762   4.511   2.924
 6885SOL    HW221030   4.717   4.395   2.819
 6886SOL     OW21031   4.074   4.622   3.666
 6886SOL    HW121032   4.150   4.666   3.714
 6886SOL    HW221033   4.109   4.575   3.584
 6887SOL     OW21034   5.264   3.998   1.987
 6887SOL    HW121035   5.203   3.923   2.010
 6887SOL    HW221036   5.286   4.050   2.070
 6888SOL     OW21037   4.043   4.534   2.811
 6888SOL    HW121038   4.136   4.570   2.816
 6888SOL    HW221039   4.037   4.449   2.863
 6889SOL     OW21040   4.063   4.233   2.868
 6889SOL    HW121041   4.011   4.150   2.851
 6889SOL    HW221042   4.140   4.238   2.804
 6890SOL     OW21043   4.862   4.104   3.540
 6890SOL    HW121044   4.817   4.167   3.604
 6890SOL    HW221045   4.955   4.135   3.523
 6891SOL     OW21046   4.884   3.931   3.339
 6891SOL    HW121047   4.884   3.995   3.416
 6891SOL    HW221048   4.912   3.979   3.256
 6892SOL     OW21049   3.732   5.050   2.062
 6892SOL    HW121050   3.639   5.071   2.031
 6892SOL    HW221051   3.742   4.951   2.075
 6893SOL     OW21052   4.726   4.520   3.100
 6893SOL    HW121053   4.767   4.488   3.186
 6893SOL    HW221054   4.630   4.493   3.097
 6894SOL     OW21055   3.764   4.268   2.976
 6894SOL    HW121056   3.849   4.235   2.935
 6894SOL    HW221057   3.777   4.283   3.074
 6895SOL     OW21058   3.913   4.244   3.584
 6895SOL    HW121059   3.972   4.204   3.514
 6895SOL    HW221060   3.855   4.315   3.543
 6896SOL     OW21061   4.539   4.296   2.187
 6896SOL    HW121062   4.546   4.207   2.141
 6896SOL    HW221063   4.445   4.330   2.179
 6897SOL     OW21064   4.395   4.188   3.131
 6897SOL    HW121065   4.361   4.099   3.101
 6897SOL    HW221066   4.421   4.242   3.051
 6898SOL     OW21067   4.197   4.224   2.053
 6898SOL    HW121068   4.258   4.304   2.057
 6898SOL    HW221069   4.102   4.255   2.060
 6899SOL     OW21070   3.883   4.861   3.328
 6899SOL    HW121071   3.905   4.800   3.404
 6899SOL    HW221072   3.893   4.812   3.242
 6900SOL     OW21073   3.807   4.982   2.884
 6900SOL    HW121074   3.802   4.981   2.984
 6900SOL    HW221075   3.724   4.941   2.846
 6901SOL     OW21076   3.987   4.050   2.582
 6901SOL    HW121077   3.908   4.101   2.548
 6901SOL    HW221078   3.978   4.035   2.680
 6902SOL     OW21079   4.546   4.726   3.234
 6902SOL    HW121080   4.586   4.725   3.142
 6902SOL    HW221081   4.556   4.818   3.274
 6903SOL     OW21082   4.640   4.634   2.153
 6903SOL    HW121083   4.703   4.672   2.085
 6903SOL    HW221084   4.680   4.551   2.192
 6904SOL     OW21085   4.096   5.012   3.352
 6904SOL    HW121086   4.083   5.105   3.318
 6904SOL    HW221087   4.012   4.960   3.339
 6905SOL     OW21088   4.763   4.822   2.558
 6905SOL    HW121089   4.693   4.775   2.612
 6905SOL    HW221090   4.822   4.754   2.515
 6906SOL     OW21091   4.738   3.960   2.833
 6906SOL    HW121092   4.730   3.924   2.740
 6906SOL    HW221093   4.736   3.884   2.898
 6907SOL     OW21094   3.829   4.737   3.588
 6907SOL    HW121095   3.752   4.704   3.642
 6907SOL    HW221096   3.914   4.707   3.630
 6908SOL     OW21097   4.396   3.927   3.351
 6908SOL    HW121098   4.486   3.911   3.311
 6908SOL    HW221099   4.404   3.932   3.450
 6909SOL     OW21100   3.799   4.069   1.895
 6909SOL    HW121101   3.707   4.041   1.866
 6909SOL    HW221102   3.830   4.146   1.839
 6910SOL     OW21103   3.796   3.890   2.180
 6910SOL    HW121104   3.779   3.973   2.126
 6910SOL    HW221105   3.886   3.853   2.158
 6911SOL     OW21106   4.337   4.566   3.293
 6911SOL    HW121107   4.393   4.647   3.276
 6911SOL    HW221108   4.396   4.486   3.296
 6912SOL     OW21109   4.440   4.289   3.570
 6912SOL    HW121110   4.459   4.354   3.644
 6912SOL    HW221111   4.500   4.209   3.579
 6913SOL     OW21112   4.318   4.469   2.514
 6913SOL    HW121113   4.368   4.554   2.495
 6913SOL    HW221114   4.230   4.471   2.466
 6914SOL     OW21115   4.583   4.680   2.723
 6914SOL    HW121116   4.637   4.611   2.771
 6914SOL    HW221117   4.551   4.749   2.789
 6915SOL     OW21118   4.807   4.708   1.949
 6915SOL    HW121119   4.784   4.761   1.867
 6915SOL    HW221120   4.888   4.652   1.930
 6916SOL     OW21121   3.803   4.964   2.515
 6916SOL    HW121122   3.802   4.917   2.603
 6916SOL    HW221123   3.885   4.936   2.464
 6917SOL     OW21124   4.152   4.148   2.382
 6917SOL    HW121125   4.182   4.076   2.320
 6917SOL    HW221126   4.113   4.108   2.465
 6918SOL     OW21127   4.041   4.271   3.142
 6918SOL    HW121128   4.079   4.212   3.214
 6918SOL    HW221129   4.081   4.245   3.054
 6919SOL     OW21130   4.725   3.758   3.016
 6919SOL    HW121131   4.662   3.686   2.985
 6919SOL    HW221132   4.818   3.722   3.016
 6920SOL     OW21133   4.494   5.054   2.163
 6920SOL    HW121134   4.448   4.967   2.180
 6920SOL    HW221135   4.585   5.051   2.204
 6921SOL     OW21136   3.763   4.801   2.162
 6921SOL    HW121137   3.862   4.790   2.153
 6921SOL    HW221138   3.723   4.715   2.194
 6922SOL     OW21139   3.954   4.352   3.837
 6922SOL    HW121140   3.861   4.350   3.874
 6922SOL    HW221141   3.955   4.313   3.745
 6923SOL     OW21142   3.949   3.999   4.720
 6923SOL    HW121143   3.984   3.982   4.812
 6923SOL    HW221144   3.861   3.954   4.708
 6924SOL     OW21145   3.743   4.092   4.371
 6924SOL    HW121146   3.661   4.135   4.410
 6924SOL    HW221147   3.715   4.019   4.308
 6925SOL     OW21148   4.859   4.427   4.441
 6925SOL    HW121149   4.916   4.505   4.416
 6925SOL    HW221150   4.799   4.453   4.517
 6926SOL     OW21151   4.492   4.868   4.747
 6926SOL    HW121152   4.414   4.885   4.807
 6926SOL    HW221153   4.526   4.955   4.711
 6927SOL     OW21154   4.574   4.522   5.547
 6927SOL    HW121155   4.570   4.598   5.612
 6927SOL    HW221156   4.596   4.558   5.456
 6928SOL     OW21157   4.409   4.736   4.389
 6928SOL    HW121158   4.478   4.720   4.459
 6928SOL    HW221159   4.336   4.793   4.427
 6929SOL     OW21160   4.410   4.885   5.527
 6929SOL    HW121161   4.470   4.964   5.541
 6929SOL    HW221162   4.324   4.916   5.486
 6930SOL     OW21163   4.162   4.116   5.223
 6930SOL    HW121164   4.244   4.060   5.232
 6930SOL    HW221165   4.081   4.058   5.227
 6931SOL     OW21166   3.964   4.815   4.610
 6931SOL    HW121167   3.978   4.731   4.662
 6931SOL    HW221168   3.909   4.879   4.665
 6932SOL     OW21169   4.330   4.688   3.847
 6932SOL    HW121170   4.337   4.772   3.793
 6932SOL    HW221171   4.376   4.701   3.935
 6933SOL     OW21172   3.846   4.367   4.287
 6933SOL    HW121173   3.801   4.279   4.304
 6933SOL    HW221174   3.845   4.421   4.371
 6934SOL     OW21175   3.837   4.461   5.321
 6934SOL    HW121176   3.925   4.448   5.366
 6934SOL    HW221177   3.824   4.558   5.299
 6935SOL     OW21178   4.533   3.728   4.226
 6935SOL    HW121179   4.573   3.819   4.217
 6935SOL    HW221180   4.433   3.736   4.232
 6936SOL     OW21181   3.921   4.700   4.988
 6936SOL    HW121182   4.010   4.655   4.974
 6936SOL    HW221183   3.848   4.635   4.969
 6937SOL     OW21184   4.041   3.975   5.525
 6937SOL    HW121185   4.112   4.046   5.531
 6937SOL    HW221186   3.953   4.014   5.553
 6938SOL     OW21187   4.322   4.453   3.994
 6938SOL    HW121188   4.346   4.522   3.926
 6938SOL    HW221189   4.244   4.486   4.048
 6939SOL     OW21190   4.531   4.329   5.189
 6939SOL    HW121191   4.484   4.326   5.278
 6939SOL    HW221192   4.480   4.274   5.123
 6940SOL     OW21193   4.697   4.614   5.296
 6940SOL    HW121194   4.743   4.530   5.267
 6940SOL    HW221195   4.641   4.648   5.221
 6941SOL     OW21196   4.715   4.134   4.966
 6941SOL    HW121197   4.638   4.168   5.020
 6941SOL    HW221198   4.681   4.083   4.887
 6942SOL     OW21199   4.765   4.425   4.153
 6942SOL    HW121200   4.791   4.421   4.249
 6942SOL    HW221201   4.680   4.374   4.139
 6943SOL     OW21202   3.800   4.535   4.513
 6943SOL    HW121203   3.899   4.523   4.522
 6943SOL    HW221204   3.776   4.630   4.534
 6944SOL     OW21205   4.589   4.072   3.919
 6944SOL    HW121206   4.648   4.135   3.870
 6944SOL    HW221207   4.608   3.978   3.890
 6945SOL     OW21208   4.274   3.920   4.609
 6945SOL    HW121209   4.269   3.915   4.709
 6945SOL    HW221210   4.276   4.016   4.580
 6946SOL     OW21211   4.045   4.667   3.966
 6946SOL    HW121212   4.127   4.706   3.924
 6946SOL    HW221213   4.018   4.585   3.917
 6947SOL     OW21214   3.926   4.009   5.222
 6947SOL    HW121215   3.846   4.069   5.209
 6947SOL    HW221216   3.916   3.960   5.308
 6948SOL     OW21217   4.106   4.424   4.204
 6948SOL    HW121218   4.151   4.334   4.201
 6948SOL    HW221219   4.012   4.413   4.237
 6949SOL     OW21220   4.338   3.846   3.841
 6949SOL    HW121221   4.436   3.824   3.848
 6949SOL    HW221222   4.307   3.829   3.748
 6950SOL     OW21223   4.505   3.988   5.473
 6950SOL    HW121224   4.572   3.927   5.516
 6950SOL    HW221225   4.432   4.007   5.538
 6951SOL     OW21226   4.646   4.227   4.623
 6951SOL    HW121227   4.621   4.218   4.527
 6951SOL    HW221228   4.694   4.145   4.654
 6952SOL     OW21229   4.263   3.788   4.236
 6952SOL    HW121230   4.182   3.789   4.294
 6952SOL    HW221231   4.266   3.871   4.181
 6953SOL     OW21232   5.158   4.912   3.765
 6953SOL    HW121233   5.190   4.836   3.822
 6953SOL    HW221234   5.066   4.939   3.795
 6954SOL     OW21235   4.021   3.759   3.895
 6954SOL    HW121236   4.070   3.843   3.874
 6954SOL    HW221237   4.083   3.694   3.940
 6955SOL     OW21238   4.659   3.960   4.204
 6955SOL    HW121239   4.611   4.001   4.126
 6955SOL    HW221240   4.758   3.958   4.185
 6956SOL     OW21241   4.800   4.407   5.188
 6956SOL    HW121242   4.720   4.346   5.191
 6956SOL    HW221243   4.881   4.354   5.164
 6957SOL     OW21244   4.183   4.876   4.465
 6957SOL    HW121245   4.112   4.849   4.530
 6957SOL    HW221246   4.157   4.848   4.372
 6958SOL     OW21247   4.756   4.273   3.740
 6958SOL    HW121248   4.715   4.355   3.701
 6958SOL    HW221249   4.820   4.299   3.813
 6959SOL     OW21250   3.802   4.280   5.110
 6959SOL    HW121251   3.894   4.279   5.069
 6959SOL    HW221252   3.796   4.354   5.177
 6960SOL     OW21253   4.285   3.946   4.871
 6960SOL    HW121254   4.323   3.862   4.908
 6960SOL    HW221255   4.197   3.965   4.915
 6961SOL     OW21256   4.590   4.178   4.366
 6961SOL    HW121257   4.558   4.250   4.304
 6961SOL    HW221258   4.614   4.097   4.313
 6962SOL     OW21259   4.741   3.763   4.477
 6962SOL    HW121260   4.669   3.768   4.408
 6962SOL    HW221261   4.717   3.694   4.546
 6963SOL     OW21262   4.251   3.980   4.052
 6963SOL    HW121263   4.278   3.921   3.977
 6963SOL    HW221264   4.251   4.075   4.021
 6964SOL     OW21265   4.639   3.813   5.126
 6964SOL    HW121266   4.664   3.793   5.031
 6964SOL    HW221267   4.711   3.869   5.168
 6965SOL     OW21268   4.704   4.840   5.443
 6965SOL    HW121269   4.605   4.846   5.453
 6965SOL    HW221270   4.727   4.760   5.387
 6966SOL     OW21271   4.429   4.774   4.092
 6966SOL    HW121272   4.415   4.781   4.191
 6966SOL    HW221273   4.513   4.723   4.074
 6967SOL     OW21274   4.134   4.537   4.975
 6967SOL    HW121275   4.220   4.549   5.025
 6967SOL    HW221276   4.092   4.450   5.002
 6968SOL     OW21277   4.091   4.824   4.225
 6968SOL    HW121278   4.084   4.907   4.169
 6968SOL    HW221279   4.095   4.744   4.165
 6969SOL     OW21280   4.290   4.261   4.589
 6969SOL    HW121281   4.302   4.327   4.515
 6969SOL    HW221282   4.336   4.295   4.672
 6970SOL     OW21283   4.126   4.475   5.322
 6970SOL    HW121284   4.194   4.530   5.275
 6970SOL    HW221285   4.166   4.387   5.349
 6971SOL     OW21286   4.737   3.829   5.494
 6971SOL    HW121287   4.743   3.914   5.442
 6971SOL    HW221288   4.769   3.753   5.437
 6972SOL     OW21289   4.228   3.774   5.464
 6972SOL    HW121290   4.186   3.717   5.394
 6972SOL    HW221291   4.162   3.843   5.496
 6973SOL     OW21292   4.297   4.594   4.753
 6973SOL    HW121293   4.341   4.683   4.744
 6973SOL    HW221294   4.234   4.594   4.830
 6974SOL     OW21295   5.084   4.586   4.769
 6974SOL    HW121296   5.009   4.586   4.703
 6974SOL    HW221297   5.121   4.494   4.778
 6975SOL     OW21298   4.933   4.249   3.999
 6975SOL    HW121299   4.946   4.165   4.053
 6975SOL    HW221300   4.904   4.323   4.059
 6976SOL     OW21301   4.031   3.937   4.955
 6976SOL    HW121302   4.008   3.974   5.045
 6976SOL    HW221303   4.001   3.842   4.949
 6977SOL     OW21304   4.456   4.358   4.788
 6977SOL    HW121305   4.515   4.332   4.712
 6977SOL    HW221306   4.428   4.454   4.777
 6978SOL     OW21307   4.031   3.787   4.342
 6978SOL    HW121308   4.020   3.881   4.375
 6978SOL    HW221309   4.026   3.724   4.419
 6979SOL     OW21310   4.747   4.490   4.690
 6979SOL    HW121311   4.762   4.511   4.786
 6979SOL    HW221312   4.717   4.395   4.681
 6980SOL     OW21313   4.074   4.622   5.528
 6980SOL    HW121314   4.150   4.666   5.576
 6980SOL    HW221315   4.109   4.575   5.446
 6981SOL     OW21316   5.264   3.998   3.849
 6981SOL    HW121317   5.203   3.923   3.872
 6981SOL    HW221318   5.286   4.050   3.932
 6982SOL     OW21319   4.043   4.534   4.673
 6982SOL    HW121320   4.136   4.570   4.678
 6982SOL    HW221321   4.037   4.449   4.725
 6983SOL     OW21322   4.063   4.233   4.730
 6983SOL    HW121323   4.011   4.150   4.713
 6983SOL    HW221324   4.140   4.238   4.666
 6984SOL     OW21325   4.862   4.104   5.402
 6984SOL    HW121326   4.817   4.167   5.466
 6984SOL    HW221327   4.955   4.135   5.385
 6985SOL     OW21328   4.884   3.931   5.201
 6985SOL    HW121329   4.884   3.995   5.278
 6985SOL    HW221330   4.912   3.979   5.118
 6986SOL     OW21331   3.732   5.050   3.924
 6986SOL    HW121332   3.639   5.071   3.893
 6986SOL    HW221333   3.742   4.951   3.937
 6987SOL     OW21334   4.726   4.520   4.962
 6987SOL    HW121335   4.767   4.488   5.048
 6987SOL    HW221336   4.630   4.493   4.959
 6988SOL     OW21337   3.764   4.268   4.838
 6988SOL    HW121338   3.849   4.235   4.797
 6988SOL    HW221339   3.777   4.283   4.936
 6989SOL     OW21340   3.913   4.244   5.446
 6989SOL    HW121341   3.972   4.204   5.376
 6989SOL    HW221342   3.855   4.315   5.405
 6990SOL     OW21343   4.539   4.296   4.049
 6990SOL    HW121344   4.546   4.207   4.003
 6990SOL    HW221345   4.445   4.330   4.041
 6991SOL     OW21346   4.395   4.188   4.993
 6991SOL    HW121347   4.361   4.099   4.963
 6991SOL    HW221348   4.421   4.242   4.913
 6992SOL     OW21349   4.197   4.224   3.915
 6992SOL    HW121350   4.258   4.304   3.919
 6992SOL    HW221351   4.102   4.255   3.922
 6993SOL     OW21352   3.883   4.861   5.190
 6993SOL    HW121353   3.905   4.800   5.266
 6993SOL    HW221354   3.893   4.812   5.104
 6994SOL     OW21355   3.807   4.982   4.746
 6994SOL    HW121356   3.802   4.981   4.846
 6994SOL    HW221357   3.724   4.941   4.708
 6995SOL     OW21358   3.987   4.050   4.444
 6995SOL    HW121359   3.908   4.101   4.410
 6995SOL    HW221360   3.978   4.035   4.542
 6996SOL     OW21361   4.546   4.726   5.096
 6996SOL    HW121362   4.586   4.725   5.004
 6996SOL    HW221363   4.556   4.818   5.136
 6997SOL     OW21364   4.640   4.634   4.015
 6997SOL    HW121365   4.703   4.672   3.947
 6997SOL    HW221366   4.680   4.551   4.054
 6998SOL     OW21367   4.096   5.012   5.214
 6998SOL    HW121368   4.083   5.105   5.180
 6998SOL    HW221369   4.012   4.960   5.201
 6999SOL     OW21370   4.763   4.822   4.420
 6999SOL    HW121371   4.693   4.775   4.474
 6999SOL    HW221372   4.822   4.754   4.377
 7000SOL     OW21373   4.738   3.960   4.695
 7000SOL    HW121374   4.730   3.924   4.602
 7000SOL    HW221375   4.736   3.884   4.760
 7001SOL     OW21376   3.829   4.737   5.450
 7001SOL    HW121377   3.752   4.704   5.504
 7001SOL    HW221378   3.914   4.707   5.492
 7002SOL     OW21379   4.396   3.927   5.213
 7002SOL    HW121380   4.486   3.911   5.173
 7002SOL    HW221381   4.404   3.932   5.312
 7003SOL     OW21382   3.799   4.069   3.757
 7003SOL    HW121383   3.707   4.041   3.728
 7003SOL    HW221384   3.830   4.146   3.701
 7004SOL     OW21385   3.796   3.890   4.042
 7004SOL    HW121386   3.779   3.973   3.988
 7004SOL    HW221387   3.886   3.853   4.020
 7005SOL     OW21388   4.337   4.566   5.155
 7005SOL    HW121389   4.393   4.647   5.138
 7005SOL    HW221390   4.396   4.486   5.158
 7006SOL     OW21391   4.440   4.289   5.432
 7006SOL    HW121392   4.459   4.354   5.506
 7006SOL    HW221393   4.500   4.209   5.441
 7007SOL     OW21394   4.318   4.469   4.376
 7007SOL    HW121395   4.368   4.554   4.357
 7007SOL    HW221396   4.230   4.471   4.328
 7008SOL     OW21397   4.583   4.680   4.585
 7008SOL    HW121398   4.637   4.611   4.633
 7008SOL    HW221399   4.551   4.749   4.651
 7009SOL     OW21400   4.807   4.708   3.811
 7009SOL    HW121401   4.784   4.761   3.729
 7009SOL    HW221402   4.888   4.652   3.792
 7010SOL     OW21403   3.803   4.964   4.377
 7010SOL    HW121404   3.802   4.917   4.465
 7010SOL    HW221405   3.885   4.936   4.326
 7011SOL     OW21406   4.152   4.148   4.244
 7011SOL    HW121407   4.182   4.076   4.182
 7011SOL    HW221408   4.113   4.108   4.327
 7012SOL     OW21409   4.041   4.271   5.004
 7012SOL    HW121410   4.079   4.212   5.076
 7012SOL    HW221411   4.081   4.245   4.916
 7013SOL     OW21412   4.725   3.758   4.878
 7013SOL    HW121413   4.662   3.686   4.847
 7013SOL    HW221414   4.818   3.722   4.878
 7014SOL     OW21415   4.494   5.054   4.025
 7014SOL    HW121416   4.448   4.967   4.042
 7014SOL    HW221417   4.585   5.051   4.066
 7015SOL     OW21418   3.763   4.801   4.024
 7015SOL    HW121419   3.862   4.790   4.015
 7015SOL    HW221420   3.723   4.715   4.056
 7016SOL     OW21421   3.954   4.352   5.699
 7016SOL    HW121422   3.861   4.350   5.736
 7016SOL    HW221423   3.955   4.313   5.607
 7017SOL     OW21424   3.949   3.999   6.582
 7017SOL    HW121425   3.984   3.982   6.674
 7017SOL    HW221426   3.861   3.954   6.570
 7018SOL     OW21427   3.743   4.092   6.233
 7018SOL    HW121428   3.661   4.135   6.272
 7018SOL    HW221429   3.715   4.019   6.170
 7019SOL     OW21430   4.859   4.427   6.303
 7019SOL    HW121431   4.916   4.505   6.278
 7019SOL    HW221432   4.799   4.453   6.379
 7020SOL     OW21433   4.492   4.868   6.609
 7020SOL    HW121434   4.414   4.885   6.669
 7020SOL    HW221435   4.526   4.955   6.573
 7021SOL     OW21436   4.574   4.522   7.409
 7021SOL    HW121437   4.570   4.598   7.474
 7021SOL    HW221438   4.596   4.558   7.318
 7022SOL     OW21439   4.409   4.736   6.251
 7022SOL    HW121440   4.478   4.720   6.321
 7022SOL    HW221441   4.336   4.793   6.289
 7023SOL     OW21442   4.410   4.885   7.389
 7023SOL    HW121443   4.470   4.964   7.403
 7023SOL    HW221444   4.324   4.916   7.348
 7024SOL     OW21445   4.162   4.116   7.085
 7024SOL    HW121446   4.244   4.060   7.094
 7024SOL    HW221447   4.081   4.058   7.089
 7025SOL     OW21448   3.964   4.815   6.472
 7025SOL    HW121449   3.978   4.731   6.524
 7025SOL    HW221450   3.909   4.879   6.527
 7026SOL     OW21451   4.330   4.688   5.709
 7026SOL    HW121452   4.337   4.772   5.655
 7026SOL    HW221453   4.376   4.701   5.797
 7027SOL     OW21454   3.846   4.367   6.149
 7027SOL    HW121455   3.801   4.279   6.166
 7027SOL    HW221456   3.845   4.421   6.233
 7028SOL     OW21457   3.837   4.461   7.183
 7028SOL    HW121458   3.925   4.448   7.228
 7028SOL    HW221459   3.824   4.558   7.161
 7029SOL     OW21460   4.533   3.728   6.088
 7029SOL    HW121461   4.573   3.819   6.079
 7029SOL    HW221462   4.433   3.736   6.094
 7030SOL     OW21463   3.921   4.700   6.850
 7030SOL    HW121464   4.010   4.655   6.836
 7030SOL    HW221465   3.848   4.635   6.831
 7031SOL     OW21466   4.041   3.975   7.387
 7031SOL    HW121467   4.112   4.046   7.393
 7031SOL    HW221468   3.953   4.014   7.415
 7032SOL     OW21469   4.322   4.453   5.856
 7032SOL    HW121470   4.346   4.522   5.788
 7032SOL    HW221471   4.244   4.486   5.910
 7033SOL     OW21472   4.531   4.329   7.051
 7033SOL    HW121473   4.484   4.326   7.140
 7033SOL    HW221474   4.480   4.274   6.985
 7034SOL     OW21475   4.697   4.614   7.158
 7034SOL    HW121476   4.743   4.530   7.129
 7034SOL    HW221477   4.641   4.648   7.083
 7035SOL     OW21478   4.715   4.134   6.828
 7035SOL    HW121479   4.638   4.168   6.882
 7035SOL    HW221480   4.681   4.083   6.749
 7036SOL     OW21481   4.765   4.425   6.015
 7036SOL    HW121482   4.791   4.421   6.111
 7036SOL    HW221483   4.680   4.374   6.001
 7037SOL     OW21484   3.800   4.535   6.375
 7037SOL    HW121485   3.899   4.523   6.384
 7037SOL    HW221486   3.776   4.630   6.396
 7038SOL     OW21487   4.589   4.072   5.781
 7038SOL    HW121488   4.648   4.135   5.732
 7038SOL    HW221489   4.608   3.978   5.752
 7039SOL     OW21490   4.274   3.920   6.471
 7039SOL    HW121491   4.269   3.915   6.571
 7039SOL    HW221492   4.276   4.016   6.442
 7040SOL     OW21493   4.045   4.667   5.828
 7040SOL    HW121494   4.127   4.706   5.786
 7040SOL    HW221495   4.018   4.585   5.779
 7041SOL     OW21496   3.926   4.009   7.084
 7041SOL    HW121497   3.846   4.069   7.071
 7041SOL    HW221498   3.916   3.960   7.170
 7042SOL     OW21499   4.106   4.424   6.066
 7042SOL    HW121500   4.151   4.334   6.063
 7042SOL    HW221501   4.012   4.413   6.099
 7043SOL     OW21502   4.338   3.846   5.703
 7043SOL    HW121503   4.436   3.824   5.710
 7043SOL    HW221504   4.307   3.829   5.610
 7044SOL     OW21505   4.505   3.988   7.335
 7044SOL    HW121506   4.572   3.927   7.378
 7044SOL    HW221507   4.432   4.007   7.400
 7045SOL     OW21508   4.646   4.227   6.485
 7045SOL    HW121509   4.621   4.218   6.389
 7045SOL    HW221510   4.694   4.145   6.516
 7046SOL     OW21511   4.263   3.788   6.098
 7046SOL    HW121512   4.182   3.789   6.156
 7046SOL    HW221513   4.266   3.871   6.043
 7047SOL     OW21514   5.158   4.912   5.627
 7047SOL    HW121515   5.190   4.836   5.684
 7047SOL    HW221516   5.066   4.939   5.657
 7048SOL     OW21517   4.021   3.759   5.757
 7048SOL    HW121518   4.070   3.843   5.736
 7048SOL    HW221519   4.083   3.694   5.802
 7049SOL     OW21520   4.659   3.960   6.066
 7049SOL    HW121521   4.611   4.001   5.988
 7049SOL    HW221522   4.758   3.958   6.047
 7050SOL     OW21523   4.800   4.407   7.050
 7050SOL    HW121524   4.720   4.346   7.053
 7050SOL    HW221525   4.881   4.354   7.026
 7051SOL     OW21526   4.183   4.876   6.327
 7051SOL    HW121527   4.112   4.849   6.392
 7051SOL    HW221528   4.157   4.848   6.234
 7052SOL     OW21529   4.756   4.273   5.602
 7052SOL    HW121530   4.715   4.355   5.563
 7052SOL    HW221531   4.820   4.299   5.675
 7053SOL     OW21532   3.802   4.280   6.972
 7053SOL    HW121533   3.894   4.279   6.931
 7053SOL    HW221534   3.796   4.354   7.039
 7054SOL     OW21535   4.285   3.946   6.733
 7054SOL    HW121536   4.323   3.862   6.770
 7054SOL    HW221537   4.197   3.965   6.777
 7055SOL     OW21538   4.590   4.178   6.228
 7055SOL    HW121539   4.558   4.250   6.166
 7055SOL    HW221540   4.614   4.097   6.175
 7056SOL     OW21541   4.741   3.763   6.339
 7056SOL    HW121542   4.669   3.768   6.270
 7056SOL    HW221543   4.717   3.694   6.408
 7057SOL     OW21544   4.251   3.980   5.914
 7057SOL    HW121545   4.278   3.921   5.839
 7057SOL    HW221546   4.251   4.075   5.883
 7058SOL     OW21547   4.639   3.813   6.988
 7058SOL    HW121548   4.664   3.793   6.893
 7058SOL    HW221549   4.711   3.869   7.030
 7059SOL     OW21550   4.704   4.840   7.305
 7059SOL    HW121551   4.605   4.846   7.315
 7059SOL    HW221552   4.727   4.760   7.249
 7060SOL     OW21553   4.429   4.774   5.954
 7060SOL    HW121554   4.415   4.781   6.053
 7060SOL    HW221555   4.513   4.723   5.936
 7061SOL     OW21556   4.134   4.537   6.837
 7061SOL    HW121557   4.220   4.549   6.887
 7061SOL    HW221558   4.092   4.450   6.864
 7062SOL     OW21559   4.091   4.824   6.087
 7062SOL    HW121560   4.084   4.907   6.031
 7062SOL    HW221561   4.095   4.744   6.027
 7063SOL     OW21562   4.290   4.261   6.451
 7063SOL    HW121563   4.302   4.327   6.377
 7063SOL    HW221564   4.336   4.295   6.534
 7064SOL     OW21565   4.126   4.475   7.184
 7064SOL    HW121566   4.194   4.530   7.137
 7064SOL    HW221567   4.166   4.387   7.211
 7065SOL     OW21568   4.737   3.829   7.356
 7065SOL    HW121569   4.743   3.914   7.304
 7065SOL    HW221570   4.769   3.753   7.299
 7066SOL     OW21571   4.228   3.774   7.326
 7066SOL    HW121572   4.186   3.717   7.256
 7066SOL    HW221573   4.162   3.843   7.358
 7067SOL     OW21574   4.297   4.594   6.615
 7067SOL    HW121575   4.341   4.683   6.606
 7067SOL    HW221576   4.234   4.594   6.692
 7068SOL     OW21577   5.084   4.586   6.631
 7068SOL    HW121578   5.009   4.586   6.565
 7068SOL    HW221579   5.121   4.494   6.640
 7069SOL     OW21580   4.933   4.249   5.861
 7069SOL    HW121581   4.946   4.165   5.915
 7069SOL    HW221582   4.904   4.323   5.921
 7070SOL     OW21583   4.031   3.937   6.817
 7070SOL    HW121584   4.008   3.974   6.907
 7070SOL    HW221585   4.001   3.842   6.811
 7071SOL     OW21586   4.456   4.358   6.650
 7071SOL    HW121587   4.515   4.332   6.574
 7071SOL    HW221588   4.428   4.454   6.639
 7072SOL     OW21589   4.031   3.787   6.204
 7072SOL    HW121590   4.020   3.881   6.237
 7072SOL    HW221591   4.026   3.724   6.281
 7073SOL     OW21592   4.747   4.490   6.552
 7073SOL    HW121593   4.762   4.511   6.648
 7073SOL    HW221594   4.717   4.395   6.543
 7074SOL     OW21595   4.074   4.622   7.390
 7074SOL    HW121596   4.150   4.666   7.438
 7074SOL    HW221597   4.109   4.575   7.308
 7075SOL     OW21598   5.264   3.998   5.711
 7075SOL    HW121599   5.203   3.923   5.734
 7075SOL    HW221600   5.286   4.050   5.794
 7076SOL     OW21601   4.043   4.534   6.535
 7076SOL    HW121602   4.136   4.570   6.540
 7076SOL    HW221603   4.037   4.449   6.587
 7077SOL     OW21604   4.063   4.233   6.592
 7077SOL    HW121605   4.011   4.150   6.575
 7077SOL    HW221606   4.140   4.238   6.528
 7078SOL     OW21607   4.862   4.104   7.264
 7078SOL    HW121608   4.817   4.167   7.328
 7078SOL    HW221609   4.955   4.135   7.247
 7079SOL     OW21610   4.884   3.931   7.063
 7079SOL    HW121611   4.884   3.995   7.140
 7079SOL    HW221612   4.912   3.979   6.980
 7080SOL     OW21613   3.732   5.050   5.786
 7080SOL    HW121614   3.639   5.071   5.755
 7080SOL    HW221615   3.742   4.951   5.799
 7081SOL     OW21616   4.726   4.520   6.824
 7081SOL    HW121617   4.767   4.488   6.910
 7081SOL    HW221618   4.630   4.493   6.821
 7082SOL     OW21619   3.764   4.268   6.700
 7082SOL    HW121620   3.849   4.235   6.659
 7082SOL    HW221621   3.777   4.283   6.798
 7083SOL     OW21622   3.913   4.244   7.308
 7083SOL    HW121623   3.972   4.204   7.238
 7083SOL    HW221624   3.855   4.315   7.267
 7084SOL     OW21625   4.539   4.296   5.911
 7084SOL    HW121626   4.546   4.207   5.865
 7084SOL    HW221627   4.445   4.330   5.903
 7085SOL     OW21628   4.395   4.188   6.855
 7085SOL    HW121629   4.361   4.099   6.825
 7085SOL    HW221630   4.421   4.242   6.775
 7086SOL     OW21631   4.197   4.224   5.777
 7086SOL    HW121632   4.258   4.304   5.781
 7086SOL    HW221633   4.102   4.255   5.784
 7087SOL     OW21634   3.883   4.861   7.052
 7087SOL    HW121635   3.905   4.800   7.128
 7087SOL    HW221636   3.893   4.812   6.966
 7088SOL     OW21637   3.807   4.982   6.608
 7088SOL    HW121638   3.802   4.981   6.708
 7088SOL    HW221639   3.724   4.941   6.570
 7089SOL     OW21640   3.987   4.050   6.306
 7089SOL    HW121641   3.908   4.101   6.272
 7089SOL    HW221642   3.978   4.035   6.404
 7090SOL     OW21643   4.546   4.726   6.958
 7090SOL    HW121644   4.586   4.725   6.866
 7090SOL    HW221645   4.556   4.818   6.998
 7091SOL     OW21646   4.640   4.634   5.877
 7091SOL    HW121647   4.703   4.672   5.809
 7091SOL    HW221648   4.680   4.551   5.916
 7092SOL     OW21649   4.096   5.012   7.076
 7092SOL    HW121650   4.083   5.105   7.042
 7092SOL    HW221651   4.012   4.960   7.063
 7093SOL     OW21652   4.763   4.822   6.282
 7093SOL    HW121653   4.693   4.775   6.336
 7093SOL    HW221654   4.822   4.754   6.239
 7094SOL     OW21655   4.738   3.960   6.557
 7094SOL    HW121656   4.730   3.924   6.464
 7094SOL    HW221657   4.736   3.884   6.622
 7095SOL     OW21658   3.829   4.737   7.312
 7095SOL    HW121659   3.752   4.704   7.366
 7095SOL    HW221660   3.914   4.707   7.354
 7096SOL     OW21661   4.396   3.927   7.075
 7096SOL    HW121662   4.486   3.911   7.035
 7096SOL    HW221663   4.404   3.932   7.174
 7097SOL     OW21664   3.799   4.069   5.619
 7097SOL    HW121665   3.707   4.041   5.590
 7097SOL    HW221666   3.830   4.146   5.563
 7098SOL     OW21667   3.796   3.890   5.904
 7098SOL    HW121668   3.779   3.973   5.850
 7098SOL    HW221669   3.886   3.853   5.882
 7099SOL     OW21670   4.337   4.566   7.017
 7099SOL    HW121671   4.393   4.647   7.000
 7099SOL    HW221672   4.396   4.486   7.020
 7100SOL     OW21673   4.440   4.289   7.294
 7100SOL    HW121674   4.459   4.354   7.368
 7100SOL    HW221675   4.500   4.209   7.303
 7101SOL     OW21676   4.318   4.469   6.238
 7101SOL    HW121677   4.368   4.554   6.219
 7101SOL    HW221678   4.230   4.471   6.190
 7102SOL     OW21679   4.583   4.680   6.447
 7102SOL    HW121680   4.637   4.611   6.495
 7102SOL    HW221681   4.551   4.749   6.513
 7103SOL     OW21682   4.807   4.708   5.673
 7103SOL    HW121683   4.784   4.761   5.591
 7103SOL    HW221684   4.888   4.652   5.654
 7104SOL     OW21685   3.803   4.964   6.239
 7104SOL    HW121686   3.802   4.917   6.327
 7104SOL    HW221687   3.885   4.936   6.188
 7105SOL     OW21688   4.152   4.148   6.106
 7105SOL    HW121689   4.182   4.076   6.044
 7105SOL    HW221690   4.113   4.108   6.189
 7106SOL     OW21691   4.041   4.271   6.866
 7106SOL    HW121692   4.079   4.212   6.938
 7106SOL    HW221693   4.081   4.245   6.778
 7107SOL     OW21694   4.725   3.758   6.740
 7107SOL    HW121695   4.662   3.686   6.709
 7107SOL    HW221696   4.818   3.722   6.740
 7108SOL     OW21697   4.494   5.054   5.887
 7108SOL    HW121698   4.448   4.967   5.904
 7108SOL    HW221699   4.585   5.051   5.928
 7109SOL     OW21700   3.763   4.801   5.886
 7109SOL    HW121701   3.862   4.790   5.877
 7109SOL    HW221702   3.723   4.715   5.918
 7110SOL     OW21703   3.954   4.352   7.561
 7110SOL    HW121704   3.861   4.350   7.598
 7110SOL    HW221705   3.955   4.313   7.469
 7111SOL     OW21706   3.949   3.999   8.444
 7111SOL    HW121707   3.984   3.982   8.536
 7111SOL    HW221708   3.861   3.954   8.432
 7112SOL     OW21709   3.743   4.092   8.095
 7112SOL    HW121710   3.661   4.135   8.134
 7112SOL    HW221711   3.715   4.019   8.032
 7113SOL     OW21712   4.859   4.427   8.165
 7113SOL    HW121713   4.916   4.505   8.140
 7113SOL    HW221714   4.799   4.453   8.241
 7114SOL     OW21715   4.492   4.868   8.471
 7114SOL    HW121716   4.414   4.885   8.531
 7114SOL    HW221717   4.526   4.955   8.435
 7115SOL     OW21718   4.409   4.736   8.113
 7115SOL    HW121719   4.478   4.720   8.183
 7115SOL    HW221720   4.336   4.793   8.151
 7116SOL     OW21721   4.162   4.116   8.947
 7116SOL    HW121722   4.244   4.060   8.956
 7116SOL    HW221723   4.081   4.058   8.951
 7117SOL     OW21724   3.964   4.815   8.334
 7117SOL    HW121725   3.978   4.731   8.386
 7117SOL    HW221726   3.909   4.879   8.389
 7118SOL     OW21727   4.330   4.688   7.571
 7118SOL    HW121728   4.337   4.772   7.517
 7118SOL    HW221729   4.376   4.701   7.659
 7119SOL     OW21730   3.846   4.367   8.011
 7119SOL    HW121731   3.801   4.279   8.028
 7119SOL    HW221732   3.845   4.421   8.095
 7120SOL     OW21733   4.533   3.728   7.950
 7120SOL    HW121734   4.573   3.819   7.941
 7120SOL    HW221735   4.433   3.736   7.956
 7121SOL     OW21736   3.921   4.700   8.712
 7121SOL    HW121737   4.010   4.655   8.698
 7121SOL    HW221738   3.848   4.635   8.693
 7122SOL     OW21739   4.041   3.975   9.249
 7122SOL    HW121740   4.112   4.046   9.255
 7122SOL    HW221741   3.953   4.014   9.277
 7123SOL     OW21742   4.322   4.453   7.718
 7123SOL    HW121743   4.346   4.522   7.650
 7123SOL    HW221744   4.244   4.486   7.772
 7124SOL     OW21745   4.531   4.329   8.913
 7124SOL    HW121746   4.484   4.326   9.002
 7124SOL    HW221747   4.480   4.274   8.847
 7125SOL     OW21748   4.715   4.134   8.690
 7125SOL    HW121749   4.638   4.168   8.744
 7125SOL    HW221750   4.681   4.083   8.611
 7126SOL     OW21751   4.765   4.425   7.877
 7126SOL    HW121752   4.791   4.421   7.973
 7126SOL    HW221753   4.680   4.374   7.863
 7127SOL     OW21754   3.800   4.535   8.237
 7127SOL    HW121755   3.899   4.523   8.246
 7127SOL    HW221756   3.776   4.630   8.258
 7128SOL     OW21757   4.589   4.072   7.643
 7128SOL    HW121758   4.648   4.135   7.594
 7128SOL    HW221759   4.608   3.978   7.614
 7129SOL     OW21760   4.274   3.920   8.333
 7129SOL    HW121761   4.269   3.915   8.433
 7129SOL    HW221762   4.276   4.016   8.304
 7130SOL     OW21763   4.045   4.667   7.690
 7130SOL    HW121764   4.127   4.706   7.648
 7130SOL    HW221765   4.018   4.585   7.641
 7131SOL     OW21766   3.926   4.009   8.946
 7131SOL    HW121767   3.846   4.069   8.933
 7131SOL    HW221768   3.916   3.960   9.032
 7132SOL     OW21769   4.106   4.424   7.928
 7132SOL    HW121770   4.151   4.334   7.925
 7132SOL    HW221771   4.012   4.413   7.961
 7133SOL     OW21772   4.338   3.846   7.565
 7133SOL    HW121773   4.436   3.824   7.572
 7133SOL    HW221774   4.307   3.829   7.472
 7134SOL     OW21775   4.646   4.227   8.347
 7134SOL    HW121776   4.621   4.218   8.251
 7134SOL    HW221777   4.694   4.145   8.378
 7135SOL     OW21778   4.263   3.788   7.960
 7135SOL    HW121779   4.182   3.789   8.018
 7135SOL    HW221780   4.266   3.871   7.905
 7136SOL     OW21781   5.158   4.912   7.489
 7136SOL    HW121782   5.190   4.836   7.546
 7136SOL    HW221783   5.066   4.939   7.519
 7137SOL     OW21784   4.021   3.759   7.619
 7137SOL    HW121785   4.070   3.843   7.598
 7137SOL    HW221786   4.083   3.694   7.664
 7138SOL     OW21787   4.659   3.960   7.928
 7138SOL    HW121788   4.611   4.001   7.850
 7138SOL    HW221789   4.758   3.958   7.909
 7139SOL     OW21790   4.183   4.876   8.189
 7139SOL    HW121791   4.112   4.849   8.254
 7139SOL    HW221792   4.157   4.848   8.096
 7140SOL     OW21793   4.756   4.273   7.464
 7140SOL    HW121794   4.715   4.355   7.425
 7140SOL    HW221795   4.820   4.299   7.537
 7141SOL     OW21796   3.802   4.280   8.834
 7141SOL    HW121797   3.894   4.279   8.793
 7141SOL    HW221798   3.796   4.354   8.901
 7142SOL     OW21799   4.285   3.946   8.595
 7142SOL    HW121800   4.323   3.862   8.632
 7142SOL    HW221801   4.197   3.965   8.639
 7143SOL     OW21802   4.590   4.178   8.090
 7143SOL    HW121803   4.558   4.250   8.028
 7143SOL    HW221804   4.614   4.097   8.037
 7144SOL     OW21805   4.741   3.763   8.201
 7144SOL    HW121806   4.669   3.768   8.132
 7144SOL    HW221807   4.717   3.694   8.270
 7145SOL     OW21808   4.251   3.980   7.776
 7145SOL    HW121809   4.278   3.921   7.701
 7145SOL    HW221810   4.251   4.075   7.745
 7146SOL     OW21811   4.639   3.813   8.850
 7146SOL    HW121812   4.664   3.793   8.755
 7146SOL    HW221813   4.711   3.869   8.892
 7147SOL     OW21814   4.429   4.774   7.816
 7147SOL    HW121815   4.415   4.781   7.915
 7147SOL    HW221816   4.513   4.723   7.798
 7148SOL     OW21817   4.134   4.537   8.699
 7148SOL    HW121818   4.220   4.549   8.749
 7148SOL    HW221819   4.092   4.450   8.726
 7149SOL     OW21820   4.091   4.824   7.949
 7149SOL    HW121821   4.084   4.907   7.893
 7149SOL    HW221822   4.095   4.744   7.889
 7150SOL     OW21823   4.290   4.261   8.313
 7150SOL    HW121824   4.302   4.327   8.239
 7150SOL    HW221825   4.336   4.295   8.396
 7151SOL     OW21826   4.126   4.475   9.046
 7151SOL    HW121827   4.194   4.530   8.999
 7151SOL    HW221828   4.166   4.387   9.073
 7152SOL     OW21829   4.297   4.594   8.477
 7152SOL    HW121830   4.341   4.683   8.468
 7152SOL    HW221831   4.234   4.594   8.554
 7153SOL     OW21832   5.084   4.586   8.493
 7153SOL    HW121833   5.009   4.586   8.427
 7153SOL    HW221834   5.121   4.494   8.502
 7154SOL     OW21835   4.933   4.249   7.723
 7154SOL    HW121836   4.946   4.165   7.777
 7154SOL    HW221837   4.904   4.323   7.783
 7155SOL     OW21838   4.031   3.937   8.679
 7155SOL    HW121839   4.008   3.974   8.769
 7155SOL    HW221840   4.001   3.842   8.673
 7156SOL     OW21841   4.456   4.358   8.512
 7156SOL    HW121842   4.515   4.332   8.436
 7156SOL    HW221843   4.428   4.454   8.501
 7157SOL     OW21844   4.031   3.787   8.066
 7157SOL    HW121845   4.020   3.881   8.099
 7157SOL    HW221846   4.026   3.724   8.143
 7158SOL     OW21847   4.747   4.490   8.414
 7158SOL    HW121848   4.762   4.511   8.510
 7158SOL    HW221849   4.717   4.395   8.405
 7159SOL     OW21850   5.264   3.998   7.573
 7159SOL    HW121851   5.203   3.923   7.596
 7159SOL    HW221852   5.286   4.050   7.656
 7160SOL     OW21853   4.043   4.534   8.397
 7160SOL    HW121854   4.136   4.570   8.402
 7160SOL    HW221855   4.037   4.449   8.449
 7161SOL     OW21856   4.063   4.233   8.454
 7161SOL    HW121857   4.011   4.150   8.437
 7161SOL    HW221858   4.140   4.238   8.390
 7162SOL     OW21859   4.862   4.104   9.126
 7162SOL    HW121860   4.817   4.167   9.190
 7162SOL    HW221861   4.955   4.135   9.109
 7163SOL     OW21862   3.732   5.050   7.648
 7163SOL    HW121863   3.639   5.071   7.617
 7163SOL    HW221864   3.742   4.951   7.661
 7164SOL     OW21865   4.726   4.520   8.686
 7164SOL    HW121866   4.767   4.488   8.772
 7164SOL    HW221867   4.630   4.493   8.683
 7165SOL     OW21868   3.764   4.268   8.562
 7165SOL    HW121869   3.849   4.235   8.521
 7165SOL    HW221870   3.777   4.283   8.660
 7166SOL     OW21871   4.539   4.296   7.773
 7166SOL    HW121872   4.546   4.207   7.727
 7166SOL    HW221873   4.445   4.330   7.765
 7167SOL     OW21874   4.395   4.188   8.717
 7167SOL    HW121875   4.361   4.099   8.687
 7167SOL    HW221876   4.421   4.242   8.637
 7168SOL     OW21877   4.197   4.224   7.639
 7168SOL    HW121878   4.258   4.304   7.643
 7168SOL    HW221879   4.102   4.255   7.646
 7169SOL     OW21880   3.883   4.861   8.914
 7169SOL    HW121881   3.905   4.800   8.990
 7169SOL    HW221882   3.893   4.812   8.828
 7170SOL     OW21883   3.807   4.982   8.470
 7170SOL    HW121884   3.802   4.981   8.570
 7170SOL    HW221885   3.724   4.941   8.432
 7171SOL     OW21886   3.987   4.050   8.168
 7171SOL    HW121887   3.908   4.101   8.134
 7171SOL    HW221888   3.978   4.035   8.266
 7172SOL     OW21889   4.546   4.726   8.820
 7172SOL    HW121890   4.586   4.725   8.728
 7172SOL    HW221891   4.556   4.818   8.860
 7173SOL     OW21892   4.640   4.634   7.739
 7173SOL    HW121893   4.703   4.672   7.671
 7173SOL    HW221894   4.680   4.551   7.778
 7174SOL     OW21895   4.096   5.012   8.938
 7174SOL    HW121896   4.083   5.105   8.904
 7174SOL    HW221897   4.012   4.960   8.925
 7175SOL     OW21898   4.763   4.822   8.144
 7175SOL    HW121899   4.693   4.775   8.198
 7175SOL    HW221900   4.822   4.754   8.101
 7176SOL     OW21901   4.738   3.960   8.419
 7176SOL    HW121902   4.730   3.924   8.326
 7176SOL    HW221903   4.736   3.884   8.484
 7177SOL     OW21904   3.799   4.069   7.481
 7177SOL    HW121905   3.707   4.041   7.452
 7177SOL    HW221906   3.830   4.146   7.425
 7178SOL     OW21907   3.796   3.890   7.766
 7178SOL    HW121908   3.779   3.973   7.712
 7178SOL    HW221909   3.886   3.853   7.744
 7179SOL     OW21910   4.337   4.566   8.879
 7179SOL    HW121911   4.393   4.647   8.862
 7179SOL    HW221912   4.396   4.486   8.882
 7180SOL     OW21913   4.318   4.469   8.100
 7180SOL    HW121914   4.368   4.554   8.081
 7180SOL    HW221915   4.230   4.471   8.052
 7181SOL     OW21916   4.583   4.680   8.309
 7181SOL    HW121917   4.637   4.611   8.357
 7181SOL    HW221918   4.551   4.749   8.375
 7182SOL     OW21919   4.807   4.708   7.535
 7182SOL    HW121920   4.784   4.761   7.453
 7182SOL    HW221921   4.888   4.652   7.516
 7183SOL     OW21922   3.803   4.964   8.101
 7183SOL    HW121923   3.802   4.917   8.189
 7183SOL    HW221924   3.885   4.936   8.050
 7184SOL     OW21925   4.152   4.148   7.968
 7184SOL    HW121926   4.182   4.076   7.906
 7184SOL    HW221927   4.113   4.108   8.051
 7185SOL     OW21928   4.041   4.271   8.728
 7185SOL    HW121929   4.079   4.212   8.800
 7185SOL    HW221930   4.081   4.245   8.640
 7186SOL     OW21931   4.725   3.758   8.602
 7186SOL    HW121932   4.662   3.686   8.571
 7186SOL    HW221933   4.818   3.722   8.602
 7187SOL     OW21934   4.494   5.054   7.749
 7187SOL    HW121935   4.448   4.967   7.766
 7187SOL    HW221936   4.585   5.051   7.790
 7188SOL     OW21937   3.763   4.801   7.748
 7188SOL    HW121938   3.862   4.790   7.739
 7188SOL    HW221939   3.723   4.715   7.780
   5.00000   5.00000   9.00000
