2gCDOH_2PEG_l8
22230
    1LIG      O    1   2.820   2.903   8.074
    1LIG      C    2   2.805   2.888   0.135
    1LIG     C1    3   2.896   2.772   0.184
    1LIG     O1    4   2.827   2.697   0.282
    1LIG     C2    5   2.853   2.745   0.413
    1LIG     C3    6   2.755   2.861   0.450
    1LIG     O2    7   2.780   2.906   0.583
    1LIG     C4    8   2.725   2.816   0.681
    1LIG     C5    9   2.829   2.702   0.712
    1LIG     O3   10   2.815   2.646   0.839
    1LIG     C6   11   2.886   2.712   0.940
    1LIG     C7   12   2.806   2.839   0.978
    1LIG     O4   13   2.849   2.893   1.101
    1LIG     C8   14   2.780   2.833   1.208
    1LIG     C9   15   2.870   2.720   1.262
    1LIG     O5   16   2.814   2.669   1.378
    1LIG    C10   17   2.868   2.727   1.490
    1LIG    C11   18   2.782   2.850   1.528
    1LIG     O6   19   2.837   2.907   1.643
    1LIG    C12   20   2.782   2.847   1.756
    1LIG    C13   21   2.862   2.721   1.798
    1LIG     O7   22   2.807   2.669   1.914
    1LIG    C14   23   2.862   2.731   2.026
    1LIG    C15   24   2.767   2.847   2.070
    1LIG     O8   25   2.823   2.918   2.178
    1LIG    C16   26   2.771   2.872   2.299
    1LIG    C17   27   2.847   2.743   2.339
    1LIG     O9   28   2.776   2.680   2.440
    1LIG    C18   29   2.819   2.718   2.566
    1LIG    C19   30   2.745   2.844   2.615
    1LIG    O10   31   2.832   2.901   2.711
    1LIG    C20   32   2.808   2.843   2.837
    1LIG    C21   33   2.887   2.713   2.866
    1LIG    O11   34   2.831   2.657   2.983
    1LIG    C22   35   2.874   2.725   3.099
    1LIG    C23   36   2.769   2.834   3.143
    1LIG    O12   37   2.817   2.902   3.258
    1LIG    C24   38   2.771   2.844   3.378
    1LIG    C25   39   2.854   2.714   3.410
    1LIG    O13   40   2.815   2.656   3.533
    1LIG    C26   41   2.860   2.727   3.644
    1LIG    C27   42   2.754   2.832   3.683
    1LIG    O14   43   2.679   2.799   3.798
    1LIG    C28   44   2.750   2.812   3.918
    1LIG    C29   45   2.831   2.682   3.951
    1LIG    O15   46   2.809   2.649   4.085
    1LIG    C30   47   2.879   2.738   4.169
    1LIG    C31   48   2.783   2.853   4.209
    1LIG    O16   49   2.831   2.914   4.325
    1LIG    C32   50   2.777   2.855   4.441
    1LIG    C33   51   2.856   2.727   4.482
    1LIG    O17   52   2.794   2.660   4.588
    1LIG    C34   53   2.833   2.704   4.713
    1LIG    C35   54   2.747   2.825   4.755
    1LIG    O18   55   2.820   2.898   4.848
    1LIG    C36   56   2.793   2.855   4.977
    1LIG    C37   57   2.887   2.737   5.014
    1LIG    O19   58   2.829   2.666   5.120
    1LIG    C38   59   2.873   2.719   5.241
    1LIG    C39   60   2.776   2.834   5.283
    1LIG    O20   61   2.834   2.900   5.391
    1LIG    C40   62   2.784   2.846   5.510
    1LIG    C41   63   2.863   2.717   5.548
    1LIG    O21   64   2.808   2.664   5.665
    1LIG    C42   65   2.860   2.726   5.778
    1LIG    C43   66   2.764   2.843   5.820
    1LIG    O22   67   2.820   2.919   5.924
    1LIG    C44   68   2.769   2.877   6.047
    1LIG    C45   69   2.850   2.755   6.095
    1LIG    O23   70   2.776   2.691   6.194
    1LIG    C46   71   2.821   2.724   6.320
    1LIG    C47   72   2.752   2.852   6.367
    1LIG    O24   73   2.837   2.901   6.467
    1LIG    C48   74   2.803   2.839   6.589
    1LIG    C49   75   2.881   2.710   6.621
    1LIG    O25   76   2.830   2.666   6.745
    1LIG    C50   77   2.877   2.746   6.853
    1LIG    C51   78   2.771   2.856   6.894
    1LIG    O26   79   2.800   2.908   7.024
    1LIG    C52   80   2.735   2.833   7.125
    1LIG    C53   81   2.829   2.714   7.161
    1LIG    O27   82   2.794   2.650   7.281
    1LIG    C54   83   2.840   2.716   7.395
    1LIG    C55   84   2.729   2.814   7.441
    1LIG    O28   85   2.676   2.779   7.568
    1LIG    C56   86   2.748   2.835   7.677
    1LIG    C57   87   2.870   2.743   7.714
    1LIG    O29   88   2.838   2.653   7.819
    1LIG    C58   89   2.880   2.704   7.945
    1LIG    C59   90   2.766   2.789   8.008
    1LIG      H   91   2.699   2.865   0.158
    1LIG     H1   92   2.830   2.981   0.186
    1LIG     H2   93   2.991   2.811   0.221
    1LIG     H3   94   2.918   2.700   0.106
    1LIG     H4   95   2.958   2.775   0.424
    1LIG     H5   96   2.838   2.656   0.473
    1LIG     H6   97   2.651   2.830   0.439
    1LIG     H7   98   2.771   2.946   0.383
    1LIG     H8   99   2.631   2.775   0.644
    1LIG     H9  100   2.696   2.875   0.768
    1LIG    H10  101   2.931   2.738   0.698
    1LIG    H11  102   2.813   2.616   0.647
    1LIG    H12  103   2.988   2.737   0.910
    1LIG    H13  104   2.892   2.639   1.019
    1LIG    H14  105   2.699   2.816   0.980
    1LIG    H15  106   2.825   2.917   0.904
    1LIG    H16  107   2.680   2.796   1.181
    1LIG    H17  108   2.764   2.915   1.277
    1LIG    H18  109   2.973   2.754   1.277
    1LIG    H19  110   2.873   2.633   1.197
    1LIG    H20  111   2.974   2.752   1.479
    1LIG    H21  112   2.862   2.645   1.559
    1LIG    H22  113   2.676   2.823   1.540
    1LIG    H23  114   2.789   2.928   1.455
    1LIG    H24  115   2.675   2.823   1.745
    1LIG    H25  116   2.794   2.927   1.826
    1LIG    H26  117   2.969   2.745   1.807
    1LIG    H27  118   2.854   2.635   1.733
    1LIG    H28  119   2.964   2.768   2.009
    1LIG    H29  120   2.872   2.647   2.093
    1LIG    H30  121   2.666   2.810   2.091
    1LIG    H31  122   2.753   2.925   1.998
    1LIG    H32  123   2.663   2.852   2.291
    1LIG    H33  124   2.788   2.953   2.369
    1LIG    H34  125   2.952   2.762   2.363
    1LIG    H35  126   2.843   2.666   2.265
    1LIG    H36  127   2.927   2.736   2.566
    1LIG    H37  128   2.797   2.633   2.629
    1LIG    H38  129   2.647   2.818   2.656
    1LIG    H39  130   2.728   2.919   2.540
    1LIG    H40  131   2.701   2.823   2.852
    1LIG    H41  132   2.841   2.919   2.908
    1LIG    H42  133   2.993   2.735   2.880
    1LIG    H43  134   2.880   2.635   2.791
    1LIG    H44  135   2.973   2.769   3.086
    1LIG    H45  136   2.885   2.644   3.170
    1LIG    H46  137   2.669   2.792   3.161
    1LIG    H47  138   2.754   2.913   3.070
    1LIG    H48  139   2.664   2.822   3.372
    1LIG    H49  140   2.786   2.920   3.455
    1LIG    H50  141   2.961   2.737   3.409
    1LIG    H51  142   2.831   2.636   3.340
    1LIG    H52  143   2.954   2.778   3.622
    1LIG    H53  144   2.882   2.654   3.722
    1LIG    H54  145   2.679   2.845   3.604
    1LIG    H55  146   2.808   2.925   3.697
    1LIG    H56  147   2.672   2.824   3.993
    1LIG    H57  148   2.813   2.902   3.917
    1LIG    H58  149   2.938   2.689   3.938
    1LIG    H59  150   2.801   2.599   3.889
    1LIG    H60  151   2.968   2.780   4.122
    1LIG    H61  152   2.919   2.678   4.248
    1LIG    H62  153   2.679   2.818   4.221
    1LIG    H63  154   2.782   2.931   4.132
    1LIG    H64  155   2.670   2.833   4.430
    1LIG    H65  156   2.788   2.935   4.514
    1LIG    H66  157   2.961   2.749   4.504
    1LIG    H67  158   2.850   2.648   4.408
    1LIG    H68  159   2.940   2.727   4.715
    1LIG    H69  160   2.815   2.619   4.779
    1LIG    H70  161   2.649   2.795   4.793
    1LIG    H71  162   2.724   2.895   4.677
    1LIG    H72  163   2.687   2.827   4.989
    1LIG    H73  164   2.814   2.943   5.038
    1LIG    H74  165   2.988   2.772   5.037
    1LIG    H75  166   2.899   2.662   4.937
    1LIG    H76  167   2.977   2.754   5.237
    1LIG    H77  168   2.871   2.633   5.305
    1LIG    H78  169   2.675   2.799   5.303
    1LIG    H79  170   2.765   2.912   5.210
    1LIG    H80  171   2.677   2.824   5.504
    1LIG    H81  172   2.803   2.927   5.578
    1LIG    H82  173   2.969   2.740   5.557
    1LIG    H83  174   2.849   2.635   5.480
    1LIG    H84  175   2.962   2.761   5.764
    1LIG    H85  176   2.863   2.644   5.848
    1LIG    H86  177   2.664   2.805   5.844
    1LIG    H87  178   2.745   2.917   5.744
    1LIG    H88  179   2.662   2.851   6.040
    1LIG    H89  180   2.779   2.962   6.113
    1LIG    H90  181   2.951   2.783   6.125
    1LIG    H91  182   2.862   2.677   6.022
    1LIG    H92  183   2.929   2.738   6.321
    1LIG    H93  184   2.797   2.640   6.383
    1LIG    H94  185   2.650   2.832   6.401
    1LIG    H95  186   2.745   2.930   6.292
    1LIG    H96  187   2.695   2.819   6.596
    1LIG    H97  188   2.830   2.914   6.660
    1LIG    H98  189   2.988   2.729   6.628
    1LIG    H99  190   2.867   2.627   6.552
    1LIG   H100  191   2.974   2.791   6.830
    1LIG   H101  192   2.898   2.675   6.930
    1LIG   H102  193   2.669   2.817   6.888
    1LIG   H103  194   2.773   2.944   6.830
    1LIG   H104  195   2.637   2.799   7.090
    1LIG   H105  196   2.715   2.900   7.208
    1LIG   H106  197   2.934   2.746   7.160
    1LIG   H107  198   2.813   2.638   7.086
    1LIG   H108  199   2.934   2.768   7.375
    1LIG   H109  200   2.856   2.635   7.465
    1LIG   H110  201   2.645   2.808   7.370
    1LIG   H111  202   2.765   2.917   7.444
    1LIG   H112  203   2.676   2.843   7.757
    1LIG   H113  204   2.782   2.936   7.654
    1LIG   H114  205   2.955   2.806   7.740
    1LIG   H115  206   2.904   2.681   7.633
    1LIG   H116  207   2.971   2.764   7.935
    1LIG   H117  208   2.903   2.618   8.009
    1LIG   H118  209   2.691   2.823   7.938
    1LIG   H119  210   2.712   2.726   8.078
    2LIG      O  211   2.636   2.492   8.047
    2LIG      C  212   2.630   2.497   0.111
    2LIG     C1  213   2.497   2.434   0.161
    2LIG     O1  214   2.440   2.516   0.261
    2LIG     C2  215   2.468   2.465   0.388
    2LIG     C3  216   2.588   2.535   0.446
    2LIG     O2  217   2.604   2.478   0.574
    2LIG     C4  218   2.526   2.547   0.671
    2LIG     C5  219   2.406   2.466   0.726
    2LIG     O3  220   2.356   2.526   0.848
    2LIG     C6  221   2.425   2.485   0.967
    2LIG     C7  222   2.549   2.573   0.997
    2LIG     O4  223   2.633   2.505   1.087
    2LIG     C8  224   2.596   2.522   1.219
    2LIG     C9  225   2.513   2.403   1.266
    2LIG     O5  226   2.566   2.361   1.391
    2LIG    C10  227   2.506   2.430   1.501
    2LIG    C11  228   2.569   2.570   1.524
    2LIG     O6  229   2.499   2.638   1.628
    2LIG    C12  230   2.532   2.584   1.756
    2LIG    C13  231   2.429   2.474   1.792
    2LIG     O7  232   2.367   2.516   1.908
    2LIG    C14  233   2.427   2.459   2.022
    2LIG    C15  234   2.564   2.527   2.057
    2LIG     O8  235   2.617   2.471   2.176
    2LIG    C16  236   2.567   2.532   2.295
    2LIG    C17  237   2.429   2.473   2.337
    2LIG     O9  238   2.371   2.547   2.442
    2LIG    C18  239   2.404   2.492   2.566
    2LIG    C19  240   2.525   2.573   2.613
    2LIG    O10  241   2.609   2.496   2.698
    2LIG    C20  242   2.585   2.529   2.833
    2LIG    C21  243   2.447   2.470   2.870
    2LIG    O11  244   2.400   2.509   2.997
    2LIG    C22  245   2.463   2.435   3.097
    2LIG    C23  246   2.582   2.519   3.145
    2LIG    O12  247   2.619   2.474   3.272
    2LIG    C24  248   2.557   2.548   3.376
    2LIG    C25  249   2.415   2.496   3.409
    2LIG    O13  250   2.358   2.567   3.519
    2LIG    C26  251   2.396   2.514   3.645
    2LIG    C27  252   2.520   2.591   3.691
    2LIG    O14  253   2.603   2.508   3.770
    2LIG    C28  254   2.566   2.512   3.907
    2LIG    C29  255   2.457   2.409   3.938
    2LIG    O15  256   2.491   2.340   4.060
    2LIG    C30  257   2.465   2.416   4.178
    2LIG    C31  258   2.580   2.515   4.207
    2LIG    O16  259   2.611   2.513   4.344
    2LIG    C32  260   2.523   2.594   4.421
    2LIG    C33  261   2.400   2.511   4.466
    2LIG    O17  262   2.344   2.562   4.587
    2LIG    C34  263   2.400   2.499   4.704
    2LIG    C35  264   2.518   2.582   4.755
    2LIG    O18  265   2.605   2.500   4.830
    2LIG    C36  266   2.600   2.529   4.967
    2LIG    C37  267   2.501   2.433   5.033
    2LIG    O19  268   2.567   2.367   5.141
    2LIG    C38  269   2.523   2.418   5.266
    2LIG    C39  270   2.573   2.564   5.284
    2LIG    O20  271   2.489   2.631   5.378
    2LIG    C40  272   2.518   2.585   5.510
    2LIG    C41  273   2.414   2.479   5.555
    2LIG    O21  274   2.358   2.520   5.679
    2LIG    C42  275   2.427   2.472   5.794
    2LIG    C43  276   2.559   2.551   5.814
    2LIG    O22  277   2.646   2.492   5.910
    2LIG    C44  278   2.608   2.520   6.043
    2LIG    C45  279   2.495   2.426   6.084
    2LIG    O23  280   2.519   2.377   6.215
    2LIG    C46  281   2.442   2.448   6.312
    2LIG    C47  282   2.511   2.583   6.351
    2LIG    O24  283   2.456   2.639   6.472
    2LIG    C48  284   2.524   2.595   6.592
    2LIG    C49  285   2.451   2.469   6.646
    2LIG    O25  286   2.535   2.385   6.725
    2LIG    C50  287   2.515   2.406   6.863
    2LIG    C51  288   2.611   2.516   6.907
    2LIG    O26  289   2.631   2.504   7.047
    2LIG    C52  290   2.532   2.573   7.122
    2LIG    C53  291   2.416   2.480   7.157
    2LIG    O27  292   2.359   2.524   7.279
    2LIG    C54  293   2.414   2.453   7.392
    2LIG    C55  294   2.552   2.513   7.437
    2LIG    O28  295   2.608   2.449   7.553
    2LIG    C56  296   2.570   2.509   7.677
    2LIG    C57  297   2.435   2.450   7.719
    2LIG    O29  298   2.372   2.531   7.816
    2LIG    C58  299   2.411   2.493   7.946
    2LIG    C59  300   2.534   2.576   7.988
    2LIG      H  301   2.637   2.601   0.144
    2LIG     H1  302   2.715   2.445   0.155
    2LIG     H2  303   2.510   2.330   0.193
    2LIG     H3  304   2.420   2.429   0.086
    2LIG     H4  305   2.488   2.357   0.387
    2LIG     H5  306   2.382   2.483   0.452
    2LIG     H6  307   2.570   2.643   0.452
    2LIG     H7  308   2.678   2.517   0.386
    2LIG     H8  309   2.488   2.644   0.636
    2LIG     H9  310   2.601   2.568   0.744
    2LIG    H10  311   2.433   2.361   0.742
    2LIG    H11  312   2.327   2.471   0.652
    2LIG    H12  313   2.451   2.379   0.960
    2LIG    H13  314   2.358   2.499   1.051
    2LIG    H14  315   2.521   2.673   1.033
    2LIG    H15  316   2.612   2.588   0.914
    2LIG    H16  317   2.543   2.617   1.233
    2LIG    H17  318   2.688   2.521   1.276
    2LIG    H18  319   2.517   2.322   1.194
    2LIG    H19  320   2.410   2.437   1.276
    2LIG    H20  321   2.519   2.367   1.590
    2LIG    H21  322   2.399   2.445   1.484
    2LIG    H22  323   2.560   2.633   1.436
    2LIG    H23  324   2.674   2.558   1.552
    2LIG    H24  325   2.531   2.665   1.830
    2LIG    H25  326   2.633   2.540   1.756
    2LIG    H26  327   2.478   2.377   1.805
    2LIG    H27  328   2.352   2.464   1.716
    2LIG    H28  329   2.441   2.350   2.011
    2LIG    H29  330   2.350   2.476   2.094
    2LIG    H30  331   2.553   2.636   2.066
    2LIG    H31  332   2.636   2.506   1.977
    2LIG    H32  333   2.563   2.641   2.285
    2LIG    H33  334   2.639   2.504   2.371
    2LIG    H34  335   2.444   2.367   2.361
    2LIG    H35  336   2.351   2.481   2.266
    2LIG    H36  337   2.426   2.385   2.560
    2LIG    H37  338   2.315   2.505   2.628
    2LIG    H38  339   2.494   2.668   2.659
    2LIG    H39  340   2.585   2.601   2.528
    2LIG    H40  341   2.588   2.638   2.847
    2LIG    H41  342   2.665   2.483   2.892
    2LIG    H42  343   2.448   2.360   2.861
    2LIG    H43  344   2.372   2.510   2.804
    2LIG    H44  345   2.497   2.337   3.062
    2LIG    H45  346   2.388   2.417   3.173
    2LIG    H46  347   2.554   2.626   3.146
    2LIG    H47  348   2.668   2.506   3.081
    2LIG    H48  349   2.551   2.655   3.351
    2LIG    H49  350   2.624   2.533   3.459
    2LIG    H50  351   2.420   2.389   3.428
    2LIG    H51  352   2.346   2.515   3.326
    2LIG    H52  353   2.416   2.407   3.640
    2LIG    H53  354   2.316   2.531   3.718
    2LIG    H54  355   2.486   2.679   3.745
    2LIG    H55  356   2.579   2.630   3.609
    2LIG    H56  357   2.533   2.613   3.935
    2LIG    H57  358   2.655   2.487   3.963
    2LIG    H58  359   2.452   2.336   3.858
    2LIG    H59  360   2.359   2.458   3.948
    2LIG    H60  361   2.453   2.347   4.262
    2LIG    H61  362   2.373   2.473   4.167
    2LIG    H62  363   2.554   2.617   4.175
    2LIG    H63  364   2.670   2.481   4.155
    2LIG    H64  365   2.494   2.686   4.369
    2LIG    H65  366   2.584   2.626   4.502
    2LIG    H66  367   2.429   2.406   4.478
    2LIG    H67  368   2.325   2.514   4.386
    2LIG    H68  369   2.437   2.400   4.680
    2LIG    H69  370   2.325   2.491   4.783
    2LIG    H70  371   2.483   2.671   4.807
    2LIG    H71  372   2.581   2.617   4.677
    2LIG    H72  373   2.568   2.633   4.985
    2LIG    H73  374   2.700   2.515   5.009
    2LIG    H74  375   2.463   2.360   4.961
    2LIG    H75  376   2.417   2.493   5.068
    2LIG    H76  377   2.560   2.355   5.348
    2LIG    H77  378   2.414   2.420   5.269
    2LIG    H78  379   2.566   2.623   5.192
    2LIG    H79  380   2.676   2.564   5.318
    2LIG    H80  381   2.516   2.672   5.577
    2LIG    H81  382   2.618   2.541   5.515
    2LIG    H82  383   2.462   2.380   5.565
    2LIG    H83  384   2.334   2.470   5.481
    2LIG    H84  385   2.448   2.364   5.783
    2LIG    H85  386   2.361   2.486   5.879
    2LIG    H86  387   2.536   2.655   5.841
    2LIG    H87  388   2.616   2.550   5.722
    2LIG    H88  389   2.577   2.625   6.055
    2LIG    H89  390   2.694   2.499   6.107
    2LIG    H90  391   2.491   2.340   6.016
    2LIG    H91  392   2.401   2.481   6.080
    2LIG    H92  393   2.437   2.377   6.393
    2LIG    H93  394   2.339   2.466   6.278
    2LIG    H94  395   2.499   2.655   6.270
    2LIG    H95  396   2.617   2.563   6.363
    2LIG    H96  397   2.519   2.674   6.668
    2LIG    H97  398   2.630   2.575   6.572
    2LIG    H98  399   2.414   2.406   6.568
    2LIG    H99  400   2.362   2.501   6.700
    2LIG   H100  401   2.534   2.313   6.918
    2LIG   H101  402   2.412   2.438   6.884
    2LIG   H102  403   2.569   2.615   6.882
    2LIG   H103  404   2.705   2.502   6.855
    2LIG   H104  405   2.494   2.661   7.069
    2LIG   H105  406   2.578   2.612   7.213
    2LIG   H106  407   2.452   2.377   7.165
    2LIG   H107  408   2.341   2.487   7.078
    2LIG   H108  409   2.425   2.346   7.371
    2LIG   H109  410   2.336   2.465   7.465
    2LIG   H110  411   2.540   2.621   7.453
    2LIG   H111  412   2.626   2.496   7.359
    2LIG   H112  413   2.559   2.617   7.670
    2LIG   H113  414   2.646   2.487   7.753
    2LIG   H114  415   2.450   2.347   7.753
    2LIG   H115  416   2.364   2.445   7.639
    2LIG   H116  417   2.436   2.386   7.950
    2LIG   H117  418   2.327   2.512   8.013
    2LIG   H118  419   2.577   2.629   7.902
    2LIG   H119  420   2.502   2.653   8.059
    3MOL     C1  421   1.961   2.854   3.451
    3MOL     H1  422   1.856   2.823   3.455
    3MOL     O1  423   1.998   2.916   3.575
    3MOL     C2  424   2.134   2.966   3.585
    3MOL     H2  425   2.204   2.882   3.578
    3MOL     C3  426   2.152   3.033   3.725
    3MOL     H3  427   2.259   3.038   3.748
    3MOL     H4  428   2.105   2.968   3.800
    3MOL     O2  429   2.095   3.164   3.733
    3MOL     H5  430   2.072   3.177   3.827
    3MOL     C4  431   1.979   2.956   3.335
    3MOL     H6  432   1.912   3.040   3.356
    3MOL     O3  433   1.946   2.899   3.209
    3MOL     H7  434   1.966   2.802   3.215
    3MOL     C5  435   2.124   3.008   3.331
    3MOL     H8  436   2.192   2.924   3.311
    3MOL     O4  437   2.139   3.109   3.229
    3MOL     H9  438   2.147   3.061   3.143
    3MOL     C6  439   2.160   3.066   3.469
    3MOL    H10  440   2.097   3.154   3.484
    3MOL     O5  441   2.300   3.102   3.466
    3MOL     C7  442   2.328   3.231   3.522
    3MOL    H11  443   2.237   3.276   3.562
    3MOL     O6  444   2.422   3.216   3.631
    3MOL     C8  445   2.552   3.167   3.595
    3MOL    H12  446   2.543   3.066   3.552
    3MOL     C9  447   2.637   3.159   3.724
    3MOL    H13  448   2.720   3.091   3.706
    3MOL    H14  449   2.575   3.118   3.805
    3MOL     O7  450   2.694   3.283   3.764
    3MOL    H15  451   2.767   3.303   3.701
    3MOL    C10  452   2.384   3.325   3.413
    3MOL    H16  453   2.398   3.424   3.459
    3MOL     O8  454   2.292   3.336   3.305
    3MOL    H17  455   2.254   3.245   3.292
    3MOL    C11  456   2.521   3.276   3.363
    3MOL    H18  457   2.508   3.176   3.318
    3MOL     O9  458   2.576   3.367   3.267
    3MOL    H19  459   2.512   3.442   3.254
    3MOL    C12  460   2.612   3.263   3.488
    3MOL    H20  461   2.619   3.361   3.534
    3MOL    O10  462   2.742   3.216   3.448
    3MOL    C13  463   2.848   3.312   3.465
    3MOL    H21  464   2.807   3.413   3.483
    3MOL    O11  465   2.930   3.271   3.576
    3MOL    C14  466   2.990   3.141   3.558
    3MOL    H22  467   2.911   3.066   3.544
    3MOL    C15  468   3.069   3.101   3.684
    3MOL    H23  469   3.088   2.994   3.672
    3MOL    H24  470   3.007   3.116   3.774
    3MOL    O12  471   3.195   3.166   3.699
    3MOL    H25  472   3.261   3.102   3.666
    3MOL    C16  473   2.931   3.318   3.334
    3MOL    H26  474   3.005   3.399   3.344
    3MOL    O13  475   2.844   3.344   3.226
    3MOL    H27  476   2.754   3.331   3.263
    3MOL    C17  477   3.005   3.186   3.308
    3MOL    H28  478   2.930   3.110   3.285
    3MOL    O14  479   3.096   3.199   3.199
    3MOL    H29  480   3.043   3.199   3.115
    3MOL    C18  481   3.081   3.141   3.434
    3MOL    H30  482   3.165   3.210   3.451
    3MOL    O15  483   3.126   3.007   3.410
    3MOL    C19  484   3.269   2.987   3.411
    3MOL    H31  485   3.324   3.082   3.412
    3MOL    O16  486   3.301   2.910   3.530
    3MOL    C20  487   3.240   2.778   3.534
    3MOL    H32  488   3.132   2.789   3.527
    3MOL    C21  489   3.270   2.708   3.669
    3MOL    H33  490   3.189   2.638   3.692
    3MOL    H34  491   3.271   2.784   3.746
    3MOL    O17  492   3.394   2.638   3.669
    3MOL    H35  493   3.371   2.543   3.657
    3MOL    C22  494   3.310   2.909   3.281
    3MOL    H36  495   3.419   2.902   3.278
    3MOL    O18  496   3.262   2.978   3.167
    3MOL    H37  497   3.196   3.043   3.198
    3MOL    C23  498   3.250   2.767   3.281
    3MOL    H38  499   3.141   2.777   3.278
    3MOL    O19  500   3.295   2.691   3.168
    3MOL    H39  501   3.279   2.744   3.086
    3MOL    C24  502   3.289   2.697   3.412
    3MOL    H40  503   3.398   2.688   3.416
    3MOL    O20  504   3.225   2.568   3.412
    3MOL    C25  505   3.316   2.456   3.424
    3MOL    H41  506   3.421   2.488   3.415
    3MOL    O21  507   3.294   2.396   3.554
    3MOL    C26  508   3.161   2.343   3.578
    3MOL    H42  509   3.088   2.425   3.574
    3MOL    C27  510   3.158   2.280   3.720
    3MOL    H43  511   3.055   2.262   3.751
    3MOL    H44  512   3.203   2.350   3.791
    3MOL    O22  513   3.225   2.155   3.724
    3MOL    H45  514   3.221   2.122   3.816
    3MOL    C28  515   3.287   2.354   3.312
    3MOL    H46  516   3.358   2.271   3.322
    3MOL    O23  517   3.304   2.416   3.185
    3MOL    H47  518   3.289   2.513   3.200
    3MOL    C29  519   3.145   2.297   3.324
    3MOL    H48  520   3.074   2.379   3.311
    3MOL    O24  521   3.122   2.195   3.223
    3MOL    H49  522   3.069   2.239   3.152
    3MOL    C30  523   3.126   2.240   3.466
    3MOL    H50  524   3.192   2.153   3.476
    3MOL    O25  525   2.988   2.202   3.479
    3MOL    C31  526   2.963   2.074   3.542
    3MOL    H51  527   3.055   2.033   3.586
    3MOL    O26  528   2.865   2.093   3.647
    3MOL    C32  529   2.738   2.148   3.602
    3MOL    H52  530   2.756   2.246   3.554
    3MOL    C33  531   2.645   2.174   3.724
    3MOL    H53  532   2.568   2.246   3.694
    3MOL    H54  533   2.703   2.220   3.804
    3MOL    O27  534   2.581   2.055   3.773
    3MOL    H55  535   2.488   2.061   3.742
    3MOL    C34  536   2.910   1.977   3.435
    3MOL    H56  537   2.893   1.879   3.482
    3MOL    O28  538   3.004   1.964   3.330
    3MOL    H57  539   3.031   2.056   3.307
    3MOL    C35  540   2.777   2.030   3.377
    3MOL    H58  541   2.796   2.129   3.334
    3MOL    O29  542   2.724   1.941   3.275
    3MOL    H59  543   2.790   1.941   3.201
    3MOL    C36  544   2.679   2.050   3.497
    3MOL    H60  545   2.664   1.954   3.548
    3MOL    O30  546   2.555   2.103   3.445
    3MOL    C37  547   2.450   2.005   3.440
    3MOL    H61  548   2.491   1.905   3.450
    3MOL    O31  549   2.358   2.029   3.548
    3MOL    C38  550   2.295   2.159   3.547
    3MOL    H62  551   2.373   2.235   3.549
    3MOL    C39  552   2.210   2.174   3.674
    3MOL    H63  553   2.130   2.100   3.673
    3MOL    H64  554   2.165   2.274   3.674
    3MOL    O32  555   2.290   2.158   3.791
    3MOL    H65  556   2.240   2.199   3.864
    3MOL    C40  557   2.375   2.017   3.304
    3MOL    H66  558   2.299   1.939   3.300
    3MOL    O33  559   2.467   2.001   3.196
    3MOL    H67  560   2.558   2.011   3.235
    3MOL    C41  561   2.305   2.153   3.292
    3MOL    H68  562   2.382   2.230   3.293
    3MOL    O34  563   2.232   2.157   3.169
    3MOL    H69  564   2.280   2.092   3.113
    3MOL    C42  565   2.213   2.174   3.415
    3MOL    H70  566   2.133   2.099   3.414
    3MOL    O35  567   2.162   2.308   3.406
    3MOL    C43  568   2.018   2.321   3.410
    3MOL    H71  569   1.971   2.222   3.409
    3MOL    O36  570   1.982   2.390   3.532
    3MOL    C44  571   2.032   2.526   3.546
    3MOL    H72  572   2.141   2.523   3.544
    3MOL    C45  573   1.992   2.584   3.685
    3MOL    H73  574   1.882   2.583   3.693
    3MOL    H74  575   2.024   2.688   3.691
    3MOL    O37  576   2.050   2.509   3.793
    3MOL    H75  577   1.981   2.505   3.863
    3MOL    C46  578   1.970   2.401   3.287
    3MOL    H76  579   1.860   2.407   3.290
    3MOL    O38  580   2.011   2.339   3.165
    3MOL    H77  581   2.091   2.286   3.184
    3MOL    C47  582   2.025   2.545   3.292
    3MOL    H78  583   2.135   2.538   3.290
    3MOL    O39  584   1.980   2.619   3.179
    3MOL    H79  585   1.981   2.557   3.103
    3MOL    C48  586   1.984   2.611   3.425
    3MOL    H80  587   1.875   2.620   3.429
    3MOL    O40  588   2.048   2.740   3.429
    4MOL     C1  589   1.955   2.860   4.608
    4MOL     H1  590   1.850   2.831   4.616
    4MOL     O1  591   1.999   2.920   4.733
    4MOL     C2  592   2.136   2.967   4.736
    4MOL     H2  593   2.204   2.883   4.717
    4MOL     C3  594   2.167   3.023   4.878
    4MOL     H3  595   2.276   3.027   4.891
    4MOL     H4  596   2.129   2.952   4.952
    4MOL     O2  597   2.110   3.153   4.900
    4MOL     H5  598   2.018   3.140   4.935
    4MOL     C4  599   1.972   2.963   4.492
    4MOL     H6  600   1.905   3.047   4.511
    4MOL     O3  601   1.936   2.901   4.368
    4MOL     H7  602   1.984   2.816   4.366
    4MOL     C5  603   2.118   3.015   4.486
    4MOL     H8  604   2.184   2.930   4.467
    4MOL     O4  605   2.135   3.114   4.383
    4MOL     H9  606   2.157   3.061   4.302
    4MOL     C6  607   2.154   3.073   4.623
    4MOL    H10  608   2.087   3.158   4.642
    4MOL     O5  609   2.292   3.118   4.616
    4MOL     C7  610   2.318   3.247   4.675
    4MOL    H11  611   2.226   3.290   4.716
    4MOL     O6  612   2.413   3.230   4.781
    4MOL     C8  613   2.543   3.180   4.740
    4MOL    H12  614   2.531   3.081   4.693
    4MOL     C9  615   2.630   3.164   4.867
    4MOL    H13  616   2.715   3.102   4.841
    4MOL    H14  617   2.570   3.112   4.942
    4MOL     O7  618   2.680   3.289   4.917
    4MOL    H15  619   2.776   3.288   4.894
    4MOL    C10  620   2.373   3.345   4.568
    4MOL    H16  621   2.387   3.443   4.616
    4MOL     O8  622   2.278   3.355   4.464
    4MOL    H17  623   2.255   3.262   4.441
    4MOL    C11  624   2.511   3.298   4.516
    4MOL    H18  625   2.499   3.201   4.466
    4MOL     O9  626   2.568   3.394   4.424
    4MOL    H19  627   2.514   3.392   4.341
    4MOL    C12  628   2.603   3.279   4.638
    4MOL    H20  629   2.614   3.377   4.687
    4MOL    O10  630   2.731   3.231   4.591
    4MOL    C13  631   2.843   3.318   4.619
    4MOL    H21  632   2.809   3.419   4.646
    4MOL    O11  633   2.920   3.261   4.728
    4MOL    C14  634   2.976   3.128   4.701
    4MOL    H22  635   2.894   3.059   4.677
    4MOL    C15  636   3.051   3.073   4.826
    4MOL    H23  637   3.062   2.964   4.816
    4MOL    H24  638   2.988   3.090   4.914
    4MOL    O12  639   3.180   3.130   4.845
    4MOL    H25  640   3.243   3.070   4.800
    4MOL    C16  641   2.930   3.330   4.492
    4MOL    H26  642   3.012   3.400   4.513
    4MOL    O13  643   2.852   3.379   4.385
    4MOL    H27  644   2.758   3.359   4.406
    4MOL    C17  645   2.992   3.193   4.455
    4MOL    H28  646   2.910   3.124   4.431
    4MOL    O14  647   3.079   3.208   4.342
    4MOL    H29  648   3.053   3.293   4.301
    4MOL    C18  649   3.068   3.139   4.578
    4MOL    H30  650   3.150   3.207   4.601
    4MOL    O15  651   3.116   3.008   4.543
    4MOL    C19  652   3.259   2.992   4.546
    4MOL    H31  653   3.311   3.089   4.547
    4MOL    O16  654   3.292   2.915   4.665
    4MOL    C20  655   3.230   2.783   4.668
    4MOL    H32  656   3.122   2.794   4.657
    4MOL    C21  657   3.257   2.715   4.803
    4MOL    H33  658   3.189   2.630   4.817
    4MOL    H34  659   3.236   2.788   4.883
    4MOL    O17  660   3.392   2.672   4.812
    4MOL    H35  661   3.392   2.575   4.829
    4MOL    C22  662   3.302   2.917   4.418
    4MOL    H36  663   3.411   2.916   4.417
    4MOL    O18  664   3.252   2.984   4.304
    4MOL    H37  665   3.190   3.053   4.339
    4MOL    C23  666   3.251   2.772   4.415
    4MOL    H38  667   3.142   2.777   4.408
    4MOL    O19  668   3.303   2.702   4.301
    4MOL    H39  669   3.315   2.771   4.233
    4MOL    C24  670   3.286   2.702   4.548
    4MOL    H40  671   3.395   2.695   4.557
    4MOL    O20  672   3.224   2.572   4.546
    4MOL    C25  673   3.314   2.460   4.555
    4MOL    H41  674   3.419   2.492   4.541
    4MOL    O21  675   3.300   2.400   4.686
    4MOL    C26  676   3.168   2.348   4.718
    4MOL    H42  677   3.095   2.430   4.718
    4MOL    C27  678   3.173   2.286   4.860
    4MOL    H43  679   3.070   2.260   4.891
    4MOL    H44  680   3.209   2.362   4.930
    4MOL    O22  681   3.257   2.169   4.865
    4MOL    H45  682   3.246   2.131   4.955
    4MOL    C28  683   3.278   2.357   4.446
    4MOL    H46  684   3.353   2.276   4.448
    4MOL    O23  685   3.278   2.420   4.319
    4MOL    H47  686   3.268   2.516   4.340
    4MOL    C29  687   3.139   2.297   4.467
    4MOL    H48  688   3.065   2.377   4.455
    4MOL    O24  689   3.116   2.193   4.370
    4MOL    H49  690   3.168   2.218   4.291
    4MOL    C30  691   3.127   2.243   4.610
    4MOL    H50  692   3.191   2.155   4.619
    4MOL    O25  693   2.989   2.209   4.628
    4MOL    C31  694   2.965   2.084   4.694
    4MOL    H51  695   3.055   2.044   4.741
    4MOL    O26  696   2.865   2.108   4.796
    4MOL    C32  697   2.737   2.155   4.746
    4MOL    H52  698   2.751   2.250   4.692
    4MOL    C33  699   2.643   2.182   4.865
    4MOL    H53  700   2.561   2.244   4.827
    4MOL    H54  701   2.697   2.239   4.941
    4MOL    O27  702   2.588   2.063   4.921
    4MOL    H55  703   2.491   2.077   4.921
    4MOL    C34  704   2.913   1.981   4.590
    4MOL    H56  705   2.903   1.885   4.642
    4MOL    O28  706   3.006   1.968   4.483
    4MOL    H57  707   3.029   2.062   4.459
    4MOL    C35  708   2.777   2.023   4.533
    4MOL    H58  709   2.792   2.119   4.481
    4MOL    O29  710   2.726   1.925   4.441
    4MOL    H59  711   2.805   1.882   4.400
    4MOL    C36  712   2.680   2.049   4.650
    4MOL    H60  713   2.666   1.955   4.706
    4MOL    O30  714   2.555   2.095   4.594
    4MOL    C37  715   2.452   1.994   4.587
    4MOL    H61  716   2.496   1.893   4.597
    4MOL    O31  717   2.355   2.017   4.692
    4MOL    C38  718   2.295   2.148   4.691
    4MOL    H62  719   2.375   2.222   4.693
    4MOL    C39  720   2.213   2.167   4.819
    4MOL    H63  721   2.141   2.085   4.831
    4MOL    H64  722   2.156   2.261   4.813
    4MOL    O32  723   2.302   2.172   4.930
    4MOL    H65  724   2.255   2.146   5.012
    4MOL    C40  725   2.381   2.004   4.451
    4MOL    H66  726   2.310   1.921   4.447
    4MOL    O33  727   2.478   1.989   4.349
    4MOL    H67  728   2.564   1.992   4.397
    4MOL    C41  729   2.306   2.139   4.435
    4MOL    H68  730   2.383   2.216   4.432
    4MOL    O34  731   2.230   2.140   4.313
    4MOL    H69  732   2.294   2.122   4.238
    4MOL    C42  733   2.215   2.168   4.560
    4MOL    H70  734   2.130   2.098   4.560
    4MOL    O35  735   2.169   2.306   4.554
    4MOL    C43  736   2.025   2.325   4.550
    4MOL    H71  737   1.975   2.228   4.543
    4MOL    O36  738   1.978   2.391   4.671
    4MOL    C44  739   2.017   2.530   4.694
    4MOL    H72  740   2.125   2.537   4.708
    4MOL    C45  741   1.944   2.584   4.821
    4MOL    H73  742   1.842   2.610   4.793
    4MOL    H74  743   1.993   2.676   4.853
    4MOL    O37  744   1.940   2.490   4.931
    4MOL    H75  745   2.021   2.504   4.984
    4MOL    C46  746   1.985   2.409   4.424
    4MOL    H76  747   1.876   2.402   4.414
    4MOL    O38  748   2.048   2.355   4.307
    4MOL    H77  749   2.072   2.264   4.328
    4MOL    C47  750   2.021   2.557   4.438
    4MOL    H78  751   2.130   2.566   4.435
    4MOL    O39  752   1.963   2.632   4.330
    4MOL    H79  753   2.018   2.608   4.249
    4MOL    C48  754   1.975   2.617   4.572
    4MOL    H80  755   1.866   2.626   4.570
    4MOL    O40  756   2.039   2.746   4.582
    5SOL     OW  757   0.222   0.621   0.109
    5SOL    HW1  758   0.169   0.576   0.174
    5SOL    HW2  759   0.248   0.553   0.047
    6SOL     OW  760   0.233   0.281   0.990
    6SOL    HW1  761   0.251   0.242   1.075
    6SOL    HW2  762   0.152   0.238   0.961
    7SOL     OW  763   0.001   0.407   0.662
    7SOL    HW1  764   5.208   0.430   0.668
    7SOL    HW2  765   0.002   0.316   0.632
    8SOL     OW  766   0.575   1.286   1.184
    8SOL    HW1  767   0.493   1.293   1.136
    8SOL    HW2  768   0.591   1.374   1.218
    9SOL     OW  769   1.562   1.513   0.708
    9SOL    HW1  770   1.520   1.491   0.791
    9SOL    HW2  771   1.491   1.516   0.644
   10SOL     OW  772   1.132   0.698   0.701
   10SOL    HW1  773   1.180   0.779   0.687
   10SOL    HW2  774   1.084   0.712   0.783
   11SOL     OW  775   1.772   0.599   0.231
   11SOL    HW1  776   1.727   0.605   0.146
   11SOL    HW2  777   1.730   0.525   0.275
   12SOL     OW  778   0.754   1.140   1.040
   12SOL    HW1  779   0.688   1.175   1.100
   12SOL    HW2  780   0.790   1.218   0.997
   13SOL     OW  781   0.867   0.776   1.822
   13SOL    HW1  782   0.859   0.847   1.885
   13SOL    HW2  783   0.891   0.818   1.740
   14SOL     OW  784   0.684   1.000   0.649
   14SOL    HW1  785   0.750   0.990   0.717
   14SOL    HW2  786   0.617   1.055   0.690
   15SOL     OW  787   0.710   1.150   1.814
   15SOL    HW1  788   0.759   1.228   1.841
   15SOL    HW2  789   0.629   1.184   1.777
   16SOL     OW  790   0.358   1.404   1.061
   16SOL    HW1  791   0.271   1.401   1.022
   16SOL    HW2  792   0.406   1.466   1.005
   17SOL     OW  793   1.460   1.500   1.356
   17SOL    HW1  794   1.512   1.580   1.365
   17SOL    HW2  795   1.397   1.504   1.427
   18SOL     OW  796   0.450   0.399   1.488
   18SOL    HW1  797   0.530   0.346   1.483
   18SOL    HW2  798   0.379   0.335   1.496
   19SOL     OW  799   1.610   0.451   0.738
   19SOL    HW1  800   1.531   0.471   0.687
   19SOL    HW2  801   1.625   0.530   0.790
   20SOL     OW  802   0.217   1.731   0.464
   20SOL    HW1  803   0.258   1.787   0.531
   20SOL    HW2  804   0.288   1.708   0.405
   21SOL     OW  805   1.137   1.342   1.693
   21SOL    HW1  806   1.178   1.336   1.779
   21SOL    HW2  807   1.085   1.262   1.686
   22SOL     OW  808   0.220   1.449   0.532
   22SOL    HW1  809   0.200   1.543   0.539
   22SOL    HW2  810   0.160   1.407   0.592
   23SOL     OW  811   0.255   1.078   0.878
   23SOL    HW1  812   0.261   0.991   0.917
   23SOL    HW2  813   0.200   1.128   0.938
   24SOL     OW  814   0.613   1.790   1.432
   24SOL    HW1  815   0.529   1.773   1.475
   24SOL    HW2  816   0.633   1.881   1.455
   25SOL     OW  817   0.619   0.958   0.140
   25SOL    HW1  818   0.576   1.038   0.110
   25SOL    HW2  819   0.677   0.988   0.210
   26SOL     OW  820   1.587   0.136   1.456
   26SOL    HW1  821   1.610   0.220   1.417
   26SOL    HW2  822   1.582   0.153   1.550
   27SOL     OW  823   0.128   0.639   0.583
   27SOL    HW1  824   0.093   0.555   0.610
   27SOL    HW2  825   0.098   0.701   0.650
   28SOL     OW  826   1.846   1.758   0.330
   28SOL    HW1  827   1.911   1.728   0.394
   28SOL    HW2  828   1.870   1.849   0.312
   29SOL     OW  829   0.032   1.583   0.104
   29SOL    HW1  830   0.024   1.498   0.147
   29SOL    HW2  831   0.007   1.646   0.171
   30SOL     OW  832   1.689   0.919   0.645
   30SOL    HW1  833   1.770   0.875   0.622
   30SOL    HW2  834   1.666   0.970   0.568
   31SOL     OW  835   1.646   1.104   0.434
   31SOL    HW1  836   1.727   1.117   0.385
   31SOL    HW2  837   1.652   1.167   0.507
   32SOL     OW  838   0.131   0.750   1.586
   32SOL    HW1  839   0.225   0.764   1.585
   32SOL    HW2  840   0.093   0.836   1.601
   33SOL     OW  841   0.616   1.387   0.734
   33SOL    HW1  842   0.568   1.305   0.745
   33SOL    HW2  843   0.599   1.413   0.643
   34SOL     OW  844   1.288   1.238   1.423
   34SOL    HW1  845   1.320   1.170   1.363
   34SOL    HW2  846   1.346   1.232   1.499
   35SOL     OW  847   0.817   0.029   0.529
   35SOL    HW1  848   0.845   0.116   0.499
   35SOL    HW2  849   0.721   0.031   0.522
   36SOL     OW  850   0.174   0.943   1.279
   36SOL    HW1  851   0.265   0.914   1.270
   36SOL    HW2  852   0.134   0.925   1.194
   37SOL     OW  853   1.508   1.008   0.213
   37SOL    HW1  854   1.446   0.943   0.247
   37SOL    HW2  855   1.561   1.032   0.289
   38SOL     OW  856   1.185   1.807   1.623
   38SOL    HW1  857   1.194   1.867   1.549
   38SOL    HW2  858   1.202   1.720   1.586
   39SOL     OW  859   0.329   0.278   1.797
   39SOL    HW1  860   0.388   0.338   1.844
   39SOL    HW2  861   0.248   0.280   1.848
   40SOL     OW  862   1.467   1.419   0.951
   40SOL    HW1  863   1.399   1.435   1.016
   40SOL    HW2  864   1.454   1.328   0.924
   41SOL     OW  865   1.659   1.743   0.581
   41SOL    HW1  866   1.638   1.714   0.493
   41SOL    HW2  867   1.634   1.669   0.637
   42SOL     OW  868   0.596   0.713   0.280
   42SOL    HW1  869   0.616   0.794   0.233
   42SOL    HW2  870   0.535   0.740   0.349
   43SOL     OW  871   1.277   0.348   0.932
   43SOL    HW1  872   1.187   0.319   0.944
   43SOL    HW2  873   1.327   0.298   0.996
   44SOL     OW  874   1.587   1.671   0.320
   44SOL    HW1  875   1.678   1.700   0.312
   44SOL    HW2  876   1.559   1.654   0.230
   45SOL     OW  877   0.794   0.618   1.450
   45SOL    HW1  878   0.766   0.596   1.539
   45SOL    HW2  879   0.753   0.552   1.395
   46SOL     OW  880   1.394   0.475   1.678
   46SOL    HW1  881   1.397   0.520   1.763
   46SOL    HW2  882   1.458   0.404   1.687
   47SOL     OW  883   0.954   0.887   1.583
   47SOL    HW1  884   1.008   0.817   1.547
   47SOL    HW2  885   0.906   0.921   1.508
   48SOL     OW  886   0.993   0.417   1.234
   48SOL    HW1  887   0.907   0.437   1.271
   48SOL    HW2  888   0.975   0.369   1.154
   49SOL     OW  889   1.053   0.699   0.428
   49SOL    HW1  890   1.069   0.691   0.522
   49SOL    HW2  891   0.970   0.653   0.414
   50SOL     OW  892   0.067   0.791   0.816
   50SOL    HW1  893   0.149   0.794   0.864
   50SOL    HW2  894   0.068   0.869   0.761
   51SOL     OW  895   0.129   1.885   1.585
   51SOL    HW1  896   0.133   1.857   1.676
   51SOL    HW2  897   0.060   1.831   1.546
   52SOL     OW  898   0.887   0.359   0.203
   52SOL    HW1  899   0.931   0.407   0.132
   52SOL    HW2  900   0.868   0.273   0.166
   53SOL     OW  901   1.707   0.573   1.828
   53SOL    HW1  902   1.670   0.647   1.779
   53SOL    HW2  903   1.737   0.513   1.761
   54SOL     OW  904   1.377   1.142   0.541
   54SOL    HW1  905   1.455   1.129   0.488
   54SOL    HW2  906   1.324   1.204   0.492
   55SOL     OW  907   0.536   0.201   0.884
   55SOL    HW1  908   0.553   0.221   0.976
   55SOL    HW2  909   0.548   0.285   0.839
   56SOL     OW  910   1.003   1.444   0.472
   56SOL    HW1  911   0.967   1.517   0.422
   56SOL    HW2  912   0.984   1.465   0.563
   57SOL     OW  913   0.358   1.803   0.869
   57SOL    HW1  914   0.398   1.717   0.883
   57SOL    HW2  915   0.423   1.865   0.901
   58SOL     OW  916   1.800   1.057   0.869
   58SOL    HW1  917   1.746   1.036   0.792
   58SOL    HW2  918   1.737   1.062   0.941
   59SOL     OW  919   1.228   1.539   1.513
   59SOL    HW1  920   1.214   1.466   1.574
   59SOL    HW2  921   1.163   1.525   1.444
   60SOL     OW  922   0.327   0.949   0.251
   60SOL    HW1  923   0.407   0.966   0.202
   60SOL    HW2  924   0.319   0.853   0.250
   61SOL     OW  925   1.479   0.745   0.726
   61SOL    HW1  926   1.471   0.702   0.811
   61SOL    HW2  927   1.557   0.800   0.734
   62SOL     OW  928   0.465   1.264   1.738
   62SOL    HW1  929   0.439   1.270   1.646
   62SOL    HW2  930   0.383   1.265   1.787
   63SOL     OW  931   1.107   1.781   0.223
   63SOL    HW1  932   1.051   1.741   0.289
   63SOL    HW2  933   1.128   1.710   0.163
   64SOL     OW  934   0.197   0.279   1.494
   64SOL    HW1  935   0.160   0.367   1.487
   64SOL    HW2  936   0.207   0.265   1.588
   65SOL     OW  937   1.634   1.373   0.082
   65SOL    HW1  938   1.593   1.459   0.083
   65SOL    HW2  939   1.563   1.312   0.064
   66SOL     OW  940   0.470   1.733   0.325
   66SOL    HW1  941   0.513   1.794   0.385
   66SOL    HW2  942   0.540   1.707   0.264
   67SOL     OW  943   1.416   0.100   0.446
   67SOL    HW1  944   1.409   0.080   0.353
   67SOL    HW2  945   1.507   0.127   0.458
   68SOL     OW  946   0.278   1.801   1.211
   68SOL    HW1  947   0.306   1.723   1.259
   68SOL    HW2  948   0.224   1.767   1.139
   69SOL     OW  949   0.939   1.699   0.898
   69SOL    HW1  950   1.016   1.647   0.920
   69SOL    HW2  951   0.895   1.649   0.829
   70SOL     OW  952   0.380   0.698   0.474
   70SOL    HW1  953   0.412   0.609   0.485
   70SOL    HW2  954   0.289   0.694   0.503
   71SOL     OW  955   1.538   0.228   1.723
   71SOL    HW1  956   1.546   0.245   1.817
   71SOL    HW2  957   1.462   0.170   1.715
   72SOL     OW  958   0.625   0.138   0.122
   72SOL    HW1  959   0.716   0.110   0.133
   72SOL    HW2  960   0.597   0.097   0.040
   73SOL     OW  961   0.780   0.313   1.767
   73SOL    HW1  962   0.840   0.238   1.766
   73SOL    HW2  963   0.734   0.306   1.851
   74SOL     OW  964   0.877   1.522   1.193
   74SOL    HW1  965   0.861   1.485   1.106
   74SOL    HW2  966   0.947   1.467   1.230
   75SOL     OW  967   1.341   0.589   1.432
   75SOL    HW1  968   1.371   0.558   1.517
   75SOL    HW2  969   1.376   0.677   1.424
   76SOL     OW  970   0.816   1.393   0.941
   76SOL    HW1  971   0.901   1.382   0.897
   76SOL    HW2  972   0.752   1.396   0.869
   77SOL     OW  973   0.928   0.511   0.902
   77SOL    HW1  974   0.904   0.502   0.810
   77SOL    HW2  975   0.958   0.423   0.927
   78SOL     OW  976   0.549   0.058   0.508
   78SOL    HW1  977   0.469   0.057   0.560
   78SOL    HW2  978   0.536   0.128   0.444
   79SOL     OW  979   1.433   1.199   0.036
   79SOL    HW1  980   1.457   1.126   0.092
   79SOL    HW2  981   1.345   1.225   0.065
   80SOL     OW  982   0.319   0.075   0.198
   80SOL    HW1  983   0.382   0.143   0.175
   80SOL    HW2  984   0.368   5.293   0.189
   81SOL     OW  985   0.946   0.260   0.454
   81SOL    HW1  986   0.919   0.305   0.373
   81SOL    HW2  987   1.038   0.283   0.465
   82SOL     OW  988   1.081   0.682   1.459
   82SOL    HW1  989   1.013   0.615   1.464
   82SOL    HW2  990   1.162   0.633   1.452
   83SOL     OW  991   1.223   1.570   0.794
   83SOL    HW1  992   1.238   1.636   0.727
   83SOL    HW2  993   1.291   1.585   0.859
   84SOL     OW  994   0.469   1.152   0.731
   84SOL    HW1  995   0.400   1.131   0.794
   84SOL    HW2  996   0.428   1.136   0.645
   85SOL     OW  997   1.267   1.794   0.608
   85SOL    HW1  998   1.317   1.857   0.557
   85SOL    HW2  999   1.200   1.846   0.651
   86SOL     OW 1000   1.029   0.527   0.032
   86SOL    HW1 1001   0.992   0.610   0.003
   86SOL    HW2 1002   1.093   0.551   0.099
   87SOL     OW 1003   0.101   0.529   1.413
   87SOL    HW1 1004   0.180   0.549   1.364
   87SOL    HW2 1005   0.079   0.611   1.458
   88SOL     OW 1006   0.560   0.240   1.159
   88SOL    HW1 1007   0.592   0.154   1.185
   88SOL    HW2 1008   0.467   0.240   1.183
   89SOL     OW 1009   0.868   0.461   0.640
   89SOL    HW1 1010   0.824   0.515   0.573
   89SOL    HW2 1011   0.889   0.380   0.594
   90SOL     OW 1012   0.978   0.061   0.763
   90SOL    HW1 1013   0.914   0.057   0.692
   90SOL    HW2 1014   0.986   5.271   0.792
   91SOL     OW 1015   1.437   1.162   0.857
   91SOL    HW1 1016   1.367   1.097   0.856
   91SOL    HW2 1017   1.461   1.173   0.764
   92SOL     OW 1018   1.466   0.607   0.976
   92SOL    HW1 1019   1.415   0.526   0.979
   92SOL    HW2 1020   1.526   0.601   1.050
   93SOL     OW 1021   1.848   0.814   0.387
   93SOL    HW1 1022   1.900   0.762   0.448
   93SOL    HW2 1023   1.818   0.751   0.322
   94SOL     OW 1024   0.483   1.441   0.173
   94SOL    HW1 1025   0.410   1.402   0.222
   94SOL    HW2 1026   0.489   1.389   0.093
   95SOL     OW 1027   1.672   1.265   0.646
   95SOL    HW1 1028   1.767   1.268   0.660
   95SOL    HW2 1029   1.642   1.354   0.667
   96SOL     OW 1030   1.399   0.577   0.088
   96SOL    HW1 1031   1.336   0.559   0.157
   96SOL    HW2 1032   1.452   0.497   0.083
   97SOL     OW 1033   0.523   0.268   0.328
   97SOL    HW1 1034   0.566   0.214   0.263
   97SOL    HW2 1035   0.506   0.351   0.282
   98SOL     OW 1036   1.752   1.240   1.571
   98SOL    HW1 1037   1.839   1.201   1.568
   98SOL    HW2 1038   1.767   1.330   1.600
   99SOL     OW 1039   1.058   1.353   1.333
   99SOL    HW1 1040   0.983   1.322   1.384
   99SOL    HW2 1041   1.134   1.312   1.375
  100SOL     OW 1042   1.608   1.626   1.655
  100SOL    HW1 1043   1.602   1.660   1.565
  100SOL    HW2 1044   1.691   1.578   1.656
  101SOL     OW 1045   1.130   1.205   1.105
  101SOL    HW1 1046   1.070   1.242   1.169
  101SOL    HW2 1047   1.098   1.237   1.021
  102SOL     OW 1048   1.627   1.098   1.077
  102SOL    HW1 1049   1.622   1.160   1.150
  102SOL    HW2 1050   1.549   1.115   1.025
  103SOL     OW 1051   0.905   0.107   1.388
  103SOL    HW1 1052   0.936   0.073   1.304
  103SOL    HW2 1053   0.982   0.149   1.426
  104SOL     OW 1054   0.984   1.115   1.723
  104SOL    HW1 1055   0.892   1.131   1.744
  104SOL    HW2 1056   0.983   1.037   1.667
  105SOL     OW 1057   0.715   1.063   0.382
  105SOL    HW1 1058   0.698   1.045   0.474
  105SOL    HW2 1059   0.793   1.011   0.361
  106SOL     OW 1060   0.421   0.821   1.253
  106SOL    HW1 1061   0.490   0.827   1.319
  106SOL    HW2 1062   0.386   0.733   1.262
  107SOL     OW 1063   1.266   0.378   1.274
  107SOL    HW1 1064   1.299   0.455   1.320
  107SOL    HW2 1065   1.176   0.401   1.251
  108SOL     OW 1066   0.103   1.624   1.366
  108SOL    HW1 1067   0.080   1.629   1.273
  108SOL    HW2 1068   0.189   1.582   1.368
  109SOL     OW 1069   0.344   1.109   0.487
  109SOL    HW1 1070   0.342   1.189   0.433
  109SOL    HW2 1071   0.358   1.038   0.424
  110SOL     OW 1072   0.555   0.536   0.860
  110SOL    HW1 1073   0.570   0.595   0.785
  110SOL    HW2 1074   0.621   0.562   0.924
  111SOL     OW 1075   1.247   1.347   0.394
  111SOL    HW1 1076   1.303   1.420   0.423
  111SOL    HW2 1077   1.160   1.370   0.426
  112SOL     OW 1078   1.283   1.458   1.147
  112SOL    HW1 1079   1.338   1.461   1.225
  112SOL    HW2 1080   1.227   1.381   1.160
  113SOL     OW 1081   1.581   0.625   0.482
  113SOL    HW1 1082   1.531   0.673   0.548
  113SOL    HW2 1083   1.615   0.693   0.423
  114SOL     OW 1084   0.352   1.520   1.310
  114SOL    HW1 1085   0.341   1.476   1.226
  114SOL    HW2 1086   0.446   1.537   1.316
  115SOL     OW 1087   0.416   0.741   1.603
  115SOL    HW1 1088   0.474   0.789   1.544
  115SOL    HW2 1089   0.461   0.658   1.619
  116SOL     OW 1090   1.603   0.779   1.682
  116SOL    HW1 1091   1.517   0.820   1.676
  116SOL    HW2 1092   1.655   0.821   1.614
  117SOL     OW 1093   1.048   0.118   1.784
  117SOL    HW1 1094   1.074   0.197   1.737
  117SOL    HW2 1095   1.052   0.048   1.719
  118SOL     OW 1096   0.483   0.059   1.737
  118SOL    HW1 1097   0.425   5.292   1.702
  118SOL    HW2 1098   0.426   0.134   1.754
  119SOL     OW 1099   0.586   0.874   1.033
  119SOL    HW1 1100   0.617   0.964   1.031
  119SOL    HW2 1101   0.529   0.869   1.109
  120SOL     OW 1102   1.356   0.859   1.029
  120SOL    HW1 1103   1.273   0.849   0.983
  120SOL    HW2 1104   1.398   0.773   1.022
  121SOL     OW 1105   1.201   0.527   0.269
  121SOL    HW1 1106   1.210   0.448   0.322
  121SOL    HW2 1107   1.160   0.590   0.328
  122SOL     OW 1108   0.304   0.205   1.246
  122SOL    HW1 1109   0.262   0.236   1.326
  122SOL    HW2 1110   0.298   0.109   1.251
  123SOL     OW 1111   0.067   1.318   1.280
  123SOL    HW1 1112   0.091   1.259   1.351
  123SOL    HW2 1113   5.296   1.371   1.315
  124SOL     OW 1114   0.726   0.632   1.060
  124SOL    HW1 1115   0.800   0.615   1.001
  124SOL    HW2 1116   0.697   0.721   1.037
  125SOL     OW 1117   1.735   0.959   1.853
  125SOL    HW1 1118   1.690   0.896   1.797
  125SOL    HW2 1119   1.675   0.974   1.927
  126SOL     OW 1120   0.318   0.066   0.656
  126SOL    HW1 1121   0.300   0.160   0.662
  126SOL    HW2 1122   0.323   0.037   0.747
  127SOL     OW 1123   1.623   0.380   0.366
  127SOL    HW1 1124   1.649   0.313   0.429
  127SOL    HW2 1125   1.597   0.454   0.420
  128SOL     OW 1126   1.028   0.759   0.960
  128SOL    HW1 1127   1.024   0.777   1.054
  128SOL    HW2 1128   1.001   0.668   0.951
  129SOL     OW 1129   0.982   1.566   1.718
  129SOL    HW1 1130   0.967   1.610   1.634
  129SOL    HW2 1131   1.026   1.484   1.694
  130SOL     OW 1132   1.854   1.505   1.605
  130SOL    HW1 1133   1.873   1.531   1.515
  130SOL    HW2 1134   1.935   1.522   1.653
  131SOL     OW 1135   0.354   0.917   1.807
  131SOL    HW1 1136   0.435   0.938   1.854
  131SOL    HW2 1137   0.380   0.852   1.741
  132SOL     OW 1138   1.519   0.305   0.126
  132SOL    HW1 1139   1.485   0.217   0.139
  132SOL    HW2 1140   1.560   0.328   0.209
  133SOL     OW 1141   1.295   0.823   0.021
  133SOL    HW1 1142   1.333   0.737   0.038
  133SOL    HW2 1143   1.357   0.865   8.041
  134SOL     OW 1144   1.067   1.336   0.855
  134SOL    HW1 1145   1.070   1.264   0.792
  134SOL    HW2 1146   1.127   1.401   0.819
  135SOL     OW 1147   0.313   0.809   0.949
  135SOL    HW1 1148   0.407   0.827   0.945
  135SOL    HW2 1149   0.308   0.718   0.980
  136SOL     OW 1150   0.336   0.527   1.015
  136SOL    HW1 1151   0.299   0.440   1.000
  136SOL    HW2 1152   0.411   0.531   0.956
  137SOL     OW 1153   1.135   0.377   1.689
  137SOL    HW1 1154   1.087   0.432   1.752
  137SOL    HW2 1155   1.222   0.417   1.685
  138SOL     OW 1156   1.133   0.223   1.466
  138SOL    HW1 1157   1.137   0.282   1.542
  138SOL    HW2 1158   1.188   0.264   1.400
  139SOL     OW 1159   0.010   1.327   0.201
  139SOL    HW1 1160   5.238   1.311   0.140
  139SOL    HW2 1161   0.015   1.247   0.254
  140SOL     OW 1162   0.094   1.782   0.949
  140SOL    HW1 1163   0.059   1.712   0.895
  140SOL    HW2 1164   0.182   1.798   0.915
  141SOL     OW 1165   0.505   1.573   0.907
  141SOL    HW1 1166   0.572   1.639   0.928
  141SOL    HW2 1167   0.548   1.513   0.847
  142SOL     OW 1168   0.982   0.792   1.226
  142SOL    HW1 1169   1.038   0.769   1.300
  142SOL    HW2 1170   0.897   0.753   1.248
  143SOL     OW 1171   0.036   0.570   1.121
  143SOL    HW1 1172   0.116   0.537   1.080
  143SOL    HW2 1173   0.037   0.532   1.209
  144SOL     OW 1174   0.167   0.516   1.717
  144SOL    HW1 1175   0.251   0.495   1.677
  144SOL    HW2 1176   0.137   0.595   1.671
  145SOL     OW 1177   1.378   0.938   1.658
  145SOL    HW1 1178   1.399   1.031   1.656
  145SOL    HW2 1179   1.375   0.912   1.566
  146SOL     OW 1180   0.819   0.571   0.368
  146SOL    HW1 1181   0.829   0.499   0.305
  146SOL    HW2 1182   0.741   0.618   0.337
  147SOL     OW 1183   1.642   0.601   1.185
  147SOL    HW1 1184   1.631   0.542   1.259
  147SOL    HW2 1185   1.729   0.582   1.151
  148SOL     OW 1186   0.256   1.556   1.734
  148SOL    HW1 1187   0.234   1.619   1.803
  148SOL    HW2 1188   0.250   1.470   1.778
  149SOL     OW 1189   0.700   0.452   1.260
  149SOL    HW1 1190   0.650   0.378   1.227
  149SOL    HW2 1191   0.699   0.516   1.189
  150SOL     OW 1192   0.928   1.679   1.468
  150SOL    HW1 1193   0.901   1.643   1.383
  150SOL    HW2 1194   0.922   1.774   1.457
  151SOL     OW 1195   0.470   0.491   0.175
  151SOL    HW1 1196   0.537   0.555   0.195
  151SOL    HW2 1197   0.387   0.535   0.195
  152SOL     OW 1198   0.148   1.137   1.471
  152SOL    HW1 1199   0.145   1.089   1.554
  152SOL    HW2 1200   0.159   1.069   1.404
  153SOL     OW 1201   1.325   1.046   1.223
  153SOL    HW1 1202   1.348   0.983   1.155
  153SOL    HW2 1203   1.255   1.099   1.183
  154SOL     OW 1204   1.306   0.849   0.308
  154SOL    HW1 1205   1.229   0.818   0.357
  154SOL    HW2 1206   1.282   0.836   0.216
  155SOL     OW 1207   1.773   1.743   1.151
  155SOL    HW1 1208   1.833   1.769   1.081
  155SOL    HW2 1209   1.748   1.653   1.129
  156SOL     OW 1210   1.241   1.733   1.112
  156SOL    HW1 1211   1.323   1.754   1.067
  156SOL    HW2 1212   1.247   1.639   1.130
  157SOL     OW 1213   0.082   1.215   1.027
  157SOL    HW1 1214   0.069   1.241   1.118
  157SOL    HW2 1215   5.294   1.205   0.992
  158SOL     OW 1216   0.678   1.667   1.731
  158SOL    HW1 1217   0.621   1.744   1.725
  158SOL    HW2 1218   0.743   1.679   1.662
  159SOL     OW 1219   0.893   0.086   0.139
  159SOL    HW1 1220   0.943   0.075   0.058
  159SOL    HW2 1221   0.908   0.004   0.187
  160SOL     OW 1222   1.712   0.150   0.503
  160SOL    HW1 1223   1.786   0.129   0.446
  160SOL    HW2 1224   1.705   0.075   0.563
  161SOL     OW 1225   1.390   1.568   0.487
  161SOL    HW1 1226   1.453   1.601   0.423
  161SOL    HW2 1227   1.342   1.646   0.516
  162SOL     OW 1228   0.146   1.798   1.842
  162SOL    HW1 1229   0.091   1.735   1.889
  162SOL    HW2 1230   0.193   1.845   1.911
  163SOL     OW 1231   1.277   0.926   0.672
  163SOL    HW1 1232   1.351   0.866   0.679
  163SOL    HW2 1233   1.311   0.999   0.619
  164SOL     OW 1234   0.813   1.273   1.429
  164SOL    HW1 1235   0.784   1.314   1.511
  164SOL    HW2 1236   0.743   1.294   1.367
  165SOL     OW 1237   0.678   1.621   0.156
  165SOL    HW1 1238   0.682   1.629   0.060
  165SOL    HW2 1239   0.617   1.549   0.171
  166SOL     OW 1240   1.625   1.727   1.391
  166SOL    HW1 1241   1.675   1.733   1.310
  166SOL    HW2 1242   1.611   1.817   1.418
  167SOL     OW 1243   1.846   0.155   0.956
  167SOL    HW1 1244   1.843   0.060   0.949
  167SOL    HW2 1245   1.760   0.185   0.927
  168SOL     OW 1246   0.271   0.329   0.718
  168SOL    HW1 1247   0.184   0.365   0.703
  168SOL    HW2 1248   0.274   0.314   0.813
  169SOL     OW 1249   1.157   1.580   0.051
  169SOL    HW1 1250   1.172   1.488   0.072
  169SOL    HW2 1251   1.169   1.586   8.036
  170SOL     OW 1252   0.824   1.006   1.373
  170SOL    HW1 1253   0.868   1.001   1.288
  170SOL    HW2 1254   0.823   1.099   1.394
  171SOL     OW 1255   0.918   0.913   0.297
  171SOL    HW1 1256   0.972   0.938   0.222
  171SOL    HW2 1257   0.966   0.842   0.340
  172SOL     OW 1258   1.510   1.623   0.061
  172SOL    HW1 1259   1.415   1.624   0.050
  172SOL    HW2 1260   1.545   1.626   8.052
  173SOL     OW 1261   0.367   1.304   1.493
  173SOL    HW1 1262   0.359   1.378   1.433
  173SOL    HW2 1263   0.291   1.249   1.474
  174SOL     OW 1264   1.610   1.283   1.280
  174SOL    HW1 1265   1.670   1.271   1.354
  174SOL    HW2 1266   1.550   1.351   1.309
  175SOL     OW 1267   1.053   1.108   0.707
  175SOL    HW1 1268   0.982   1.056   0.746
  175SOL    HW2 1269   1.116   1.042   0.676
  176SOL     OW 1270   1.019   0.243   0.969
  176SOL    HW1 1271   0.999   0.198   0.887
  176SOL    HW2 1272   1.012   0.176   1.036
  177SOL     OW 1273   0.603   1.486   0.479
  177SOL    HW1 1274   0.646   1.437   0.409
  177SOL    HW2 1275   0.534   1.536   0.434
  178SOL     OW 1276   1.725   0.386   1.378
  178SOL    HW1 1277   1.796   0.451   1.377
  178SOL    HW2 1278   1.757   0.317   1.320
  179SOL     OW 1279   0.270   1.324   0.300
  179SOL    HW1 1280   0.184   1.334   0.258
  179SOL    HW2 1281   0.261   1.372   0.383
  180SOL     OW 1282   0.117   1.016   1.717
  180SOL    HW1 1283   0.046   0.982   1.771
  180SOL    HW2 1284   0.197   0.985   1.760
  181SOL     OW 1285   0.675   0.217   1.491
  181SOL    HW1 1286   0.758   0.199   1.446
  181SOL    HW2 1287   0.700   0.262   1.571
  182SOL     OW 1288   0.085   0.355   8.079
  182SOL    HW1 1289   0.005   0.320   0.038
  182SOL    HW2 1290   0.061   0.443   8.050
  183SOL     OW 1291   1.429   0.858   1.400
  183SOL    HW1 1292   1.380   0.919   1.344
  183SOL    HW2 1293   1.518   0.861   1.365
  184SOL     OW 1294   0.080   0.142   0.287
  184SOL    HW1 1295   0.079   0.238   0.281
  184SOL    HW2 1296   0.169   0.117   0.264
  185SOL     OW 1297   1.184   1.316   0.121
  185SOL    HW1 1298   1.089   1.307   0.120
  185SOL    HW2 1299   1.207   1.318   0.214
  186SOL     OW 1300   0.620   0.831   1.436
  186SOL    HW1 1301   0.675   0.907   1.420
  186SOL    HW2 1302   0.681   0.758   1.443
  187SOL     OW 1303   1.483   1.777   0.979
  187SOL    HW1 1304   1.506   1.838   0.909
  187SOL    HW2 1305   1.567   1.758   1.022
  188SOL     OW 1306   0.713   0.573   1.703
  188SOL    HW1 1307   0.757   0.636   1.760
  188SOL    HW2 1308   0.743   0.488   1.733
  189SOL     OW 1309   1.472   1.199   1.631
  189SOL    HW1 1310   1.460   1.213   1.725
  189SOL    HW2 1311   1.565   1.215   1.617
  190SOL     OW 1312   0.377   1.743   1.564
  190SOL    HW1 1313   0.294   1.789   1.548
  190SOL    HW2 1314   0.351   1.662   1.609
  191SOL     OW 1315   1.669   0.881   1.255
  191SOL    HW1 1316   1.663   0.796   1.212
  191SOL    HW2 1317   1.659   0.944   1.184
  192SOL     OW 1318   1.216   0.328   0.473
  192SOL    HW1 1319   1.274   0.253   0.458
  192SOL    HW2 1320   1.255   0.374   0.547
  193SOL     OW 1321   0.588   0.736   0.669
  193SOL    HW1 1322   0.627   0.823   0.656
  193SOL    HW2 1323   0.518   0.731   0.604
  194SOL     OW 1324   1.766   0.362   1.649
  194SOL    HW1 1325   1.747   0.377   1.556
  194SOL    HW2 1326   1.694   0.306   1.679
  195SOL     OW 1327   1.745   0.934   1.512
  195SOL    HW1 1328   1.741   1.028   1.525
  195SOL    HW2 1329   1.730   0.921   1.418
  196SOL     OW 1330   0.896   1.371   0.038
  196SOL    HW1 1331   0.833   1.362   0.110
  196SOL    HW2 1332   0.878   1.458   0.002
  197SOL     OW 1333   0.664   1.793   0.942
  197SOL    HW1 1334   0.643   1.884   0.920
  197SOL    HW2 1335   0.759   1.788   0.936
  198SOL     OW 1336   0.868   0.967   0.854
  198SOL    HW1 1337   0.918   0.896   0.894
  198SOL    HW2 1338   0.833   1.016   0.929
  199SOL     OW 1339   1.076   0.975   0.085
  199SOL    HW1 1340   1.068   1.041   0.016
  199SOL    HW2 1341   1.154   0.924   0.061
  200SOL     OW 1342   1.853   1.554   0.844
  200SOL    HW1 1343   1.774   1.543   0.791
  200SOL    HW2 1344   1.845   1.488   0.913
  201SOL     OW 1345   0.226   1.304   1.861
  201SOL    HW1 1346   0.158   1.242   1.835
  201SOL    HW2 1347   0.214   1.315   1.955
  202SOL     OW 1348   0.096   1.234   0.661
  202SOL    HW1 1349   0.099   1.189   0.745
  202SOL    HW2 1350   0.173   1.201   0.613
  203SOL     OW 1351   0.682   1.403   1.629
  203SOL    HW1 1352   0.601   1.361   1.659
  203SOL    HW2 1353   0.677   1.492   1.665
  204SOL     OW 1354   1.812   0.176   1.232
  204SOL    HW1 1355   1.777   0.087   1.235
  204SOL    HW2 1356   1.833   0.190   1.139
  205SOL     OW 1357   0.430   0.440   0.521
  205SOL    HW1 1358   0.466   0.367   0.472
  205SOL    HW2 1359   0.386   0.400   0.596
  206SOL     OW 1360   1.700   1.489   1.095
  206SOL    HW1 1361   1.619   1.466   1.049
  206SOL    HW2 1362   1.710   1.419   1.160
  207SOL     OW 1363   0.338   0.562   1.289
  207SOL    HW1 1364   0.394   0.504   1.339
  207SOL    HW2 1365   0.350   0.535   1.198
  208SOL     OW 1366   0.829   1.577   0.677
  208SOL    HW1 1367   0.814   1.634   0.601
  208SOL    HW2 1368   0.753   1.519   0.679
  209SOL     OW 1369   1.428   0.219   1.117
  209SOL    HW1 1370   1.463   0.143   1.164
  209SOL    HW2 1371   1.379   0.268   1.183
  210SOL     OW 1372   1.001   0.020   1.140
  210SOL    HW1 1373   0.951   5.253   1.094
  210SOL    HW2 1374   1.088   5.281   1.153
  211SOL     OW 1375   0.772   1.326   0.308
  211SOL    HW1 1376   0.741   1.237   0.325
  211SOL    HW2 1377   0.852   1.334   0.359
  212SOL     OW 1378   0.623   1.555   1.288
  212SOL    HW1 1379   0.624   1.638   1.337
  212SOL    HW2 1380   0.710   1.550   1.248
  213SOL     OW 1381   1.395   0.047   0.168
  213SOL    HW1 1382   1.384   0.027   0.075
  213SOL    HW2 1383   1.309   0.076   0.197
  214SOL     OW 1384   1.308   0.468   0.689
  214SOL    HW1 1385   1.250   0.544   0.692
  214SOL    HW2 1386   1.297   0.426   0.774
  215SOL     OW 1387   1.595   0.216   0.883
  215SOL    HW1 1388   1.529   0.227   0.951
  215SOL    HW2 1389   1.587   0.294   0.828
  216SOL     OW 1390   0.047   1.074   0.317
  216SOL    HW1 1391   0.135   1.047   0.291
  216SOL    HW2 1392   5.297   0.992   0.321
  217SOL     OW 1393   0.884   1.654   0.347
  217SOL    HW1 1394   0.815   1.639   0.282
  217SOL    HW2 1395   0.853   1.730   0.397
  218SOL     OW 1396   0.232   0.632   1.980
  218SOL    HW1 1397   0.158   0.603   2.033
  218SOL    HW2 1398   0.212   0.602   1.891
  219SOL     OW 1399   0.233   0.281   2.852
  219SOL    HW1 1400   0.252   0.243   2.937
  219SOL    HW2 1401   0.153   0.238   2.823
  220SOL     OW 1402   5.299   0.407   2.527
  220SOL    HW1 1403   5.206   0.429   2.530
  220SOL    HW2 1404   0.001   0.317   2.495
  221SOL     OW 1405   0.575   1.286   3.046
  221SOL    HW1 1406   0.493   1.294   2.998
  221SOL    HW2 1407   0.591   1.374   3.081
  222SOL     OW 1408   1.563   1.512   2.569
  222SOL    HW1 1409   1.520   1.491   2.652
  222SOL    HW2 1410   1.491   1.516   2.506
  223SOL     OW 1411   1.132   0.698   2.562
  223SOL    HW1 1412   1.180   0.779   2.548
  223SOL    HW2 1413   1.084   0.712   2.644
  224SOL     OW 1414   1.768   0.605   2.090
  224SOL    HW1 1415   1.747   0.598   1.997
  224SOL    HW2 1416   1.732   0.525   2.129
  225SOL     OW 1417   0.754   1.140   2.902
  225SOL    HW1 1418   0.688   1.175   2.962
  225SOL    HW2 1419   0.790   1.217   2.859
  226SOL     OW 1420   0.867   0.776   3.684
  226SOL    HW1 1421   0.859   0.847   3.747
  226SOL    HW2 1422   0.891   0.818   3.602
  227SOL     OW 1423   0.685   1.002   2.508
  227SOL    HW1 1424   0.751   0.990   2.577
  227SOL    HW2 1425   0.618   1.055   2.550
  228SOL     OW 1426   0.710   1.150   3.676
  228SOL    HW1 1427   0.758   1.228   3.703
  228SOL    HW2 1428   0.629   1.184   3.639
  229SOL     OW 1429   0.358   1.404   2.922
  229SOL    HW1 1430   0.270   1.405   2.886
  229SOL    HW2 1431   0.407   1.466   2.867
  230SOL     OW 1432   1.460   1.499   3.217
  230SOL    HW1 1433   1.513   1.579   3.226
  230SOL    HW2 1434   1.397   1.504   3.289
  231SOL     OW 1435   0.450   0.399   3.349
  231SOL    HW1 1436   0.530   0.346   3.345
  231SOL    HW2 1437   0.379   0.336   3.358
  232SOL     OW 1438   1.610   0.451   2.600
  232SOL    HW1 1439   1.534   0.474   2.546
  232SOL    HW2 1440   1.627   0.530   2.652
  233SOL     OW 1441   0.232   1.714   2.339
  233SOL    HW1 1442   0.264   1.784   2.397
  233SOL    HW2 1443   0.295   1.711   2.267
  234SOL     OW 1444   1.137   1.342   3.555
  234SOL    HW1 1445   1.178   1.336   3.641
  234SOL    HW2 1446   1.085   1.262   3.548
  235SOL     OW 1447   0.222   1.445   2.402
  235SOL    HW1 1448   0.217   1.540   2.396
  235SOL    HW2 1449   0.151   1.421   2.462
  236SOL     OW 1450   0.251   1.077   2.736
  236SOL    HW1 1451   0.262   0.991   2.778
  236SOL    HW2 1452   0.199   1.127   2.799
  237SOL     OW 1453   0.613   1.790   3.295
  237SOL    HW1 1454   0.529   1.773   3.337
  237SOL    HW2 1455   0.633   1.881   3.317
  238SOL     OW 1456   0.582   0.984   1.998
  238SOL    HW1 1457   0.629   1.031   1.929
  238SOL    HW2 1458   0.623   1.014   2.079
  239SOL     OW 1459   1.586   0.136   3.317
  239SOL    HW1 1460   1.611   0.220   3.279
  239SOL    HW2 1461   1.582   0.153   3.411
  240SOL     OW 1462   0.124   0.636   2.440
  240SOL    HW1 1463   0.090   0.553   2.473
  240SOL    HW2 1464   0.098   0.701   2.505
  241SOL     OW 1465   1.842   1.758   2.196
  241SOL    HW1 1466   1.908   1.730   2.260
  241SOL    HW2 1467   1.865   1.849   2.177
  242SOL     OW 1468   0.038   1.599   1.995
  242SOL    HW1 1469   0.025   1.508   2.020
  242SOL    HW2 1470   5.281   1.649   2.053
  243SOL     OW 1471   1.689   0.918   2.504
  243SOL    HW1 1472   1.772   0.875   2.482
  243SOL    HW2 1473   1.667   0.969   2.425
  244SOL     OW 1474   1.647   1.106   2.291
  244SOL    HW1 1475   1.733   1.111   2.249
  244SOL    HW2 1476   1.652   1.168   2.364
  245SOL     OW 1477   0.131   0.750   3.447
  245SOL    HW1 1478   0.225   0.764   3.447
  245SOL    HW2 1479   0.094   0.836   3.464
  246SOL     OW 1480   0.616   1.386   2.596
  246SOL    HW1 1481   0.568   1.304   2.607
  246SOL    HW2 1482   0.598   1.413   2.506
  247SOL     OW 1483   1.288   1.238   3.285
  247SOL    HW1 1484   1.320   1.170   3.225
  247SOL    HW2 1485   1.346   1.232   3.361
  248SOL     OW 1486   0.816   0.029   2.391
  248SOL    HW1 1487   0.843   0.117   2.365
  248SOL    HW2 1488   0.720   0.031   2.383
  249SOL     OW 1489   0.174   0.944   3.141
  249SOL    HW1 1490   0.265   0.914   3.132
  249SOL    HW2 1491   0.134   0.924   3.057
  250SOL     OW 1492   1.531   0.994   2.061
  250SOL    HW1 1493   1.461   0.937   2.093
  250SOL    HW2 1494   1.573   1.029   2.140
  251SOL     OW 1495   1.187   1.808   3.485
  251SOL    HW1 1496   1.193   1.866   3.410
  251SOL    HW2 1497   1.202   1.720   3.449
  252SOL     OW 1498   0.329   0.278   3.659
  252SOL    HW1 1499   0.388   0.337   3.706
  252SOL    HW2 1500   0.248   0.280   3.710
  253SOL     OW 1501   1.466   1.420   2.812
  253SOL    HW1 1502   1.398   1.435   2.878
  253SOL    HW2 1503   1.454   1.329   2.786
  254SOL     OW 1504   1.657   1.742   2.440
  254SOL    HW1 1505   1.638   1.712   2.351
  254SOL    HW2 1506   1.634   1.668   2.496
  255SOL     OW 1507   0.594   0.720   2.128
  255SOL    HW1 1508   0.602   0.802   2.079
  255SOL    HW2 1509   0.530   0.739   2.196
  256SOL     OW 1510   1.278   0.348   2.793
  256SOL    HW1 1511   1.187   0.320   2.805
  256SOL    HW2 1512   1.328   0.298   2.857
  257SOL     OW 1513   1.580   1.670   2.171
  257SOL    HW1 1514   1.671   1.701   2.164
  257SOL    HW2 1515   1.553   1.654   2.081
  258SOL     OW 1516   0.794   0.618   3.312
  258SOL    HW1 1517   0.766   0.596   3.401
  258SOL    HW2 1518   0.752   0.552   3.257
  259SOL     OW 1519   1.394   0.475   3.540
  259SOL    HW1 1520   1.397   0.520   3.625
  259SOL    HW2 1521   1.458   0.404   3.549
  260SOL     OW 1522   0.954   0.887   3.445
  260SOL    HW1 1523   1.008   0.817   3.409
  260SOL    HW2 1524   0.906   0.921   3.369
  261SOL     OW 1525   0.993   0.417   3.097
  261SOL    HW1 1526   0.907   0.437   3.133
  261SOL    HW2 1527   0.974   0.369   3.016
  262SOL     OW 1528   1.051   0.698   2.288
  262SOL    HW1 1529   1.067   0.691   2.382
  262SOL    HW2 1530   0.968   0.652   2.275
  263SOL     OW 1531   0.070   0.788   2.673
  263SOL    HW1 1532   0.151   0.793   2.724
  263SOL    HW2 1533   0.066   0.873   2.628
  264SOL     OW 1534   0.129   1.885   3.447
  264SOL    HW1 1535   0.133   1.857   3.538
  264SOL    HW2 1536   0.060   1.831   3.408
  265SOL     OW 1537   0.875   0.366   2.050
  265SOL    HW1 1538   0.915   0.425   1.986
  265SOL    HW2 1539   0.931   0.289   2.050
  266SOL     OW 1540   1.706   0.573   3.690
  266SOL    HW1 1541   1.670   0.647   3.641
  266SOL    HW2 1542   1.738   0.513   3.622
  267SOL     OW 1543   1.377   1.142   2.403
  267SOL    HW1 1544   1.456   1.130   2.350
  267SOL    HW2 1545   1.325   1.204   2.353
  268SOL     OW 1546   0.536   0.203   2.744
  268SOL    HW1 1547   0.552   0.220   2.837
  268SOL    HW2 1548   0.549   0.287   2.701
  269SOL     OW 1549   1.004   1.443   2.333
  269SOL    HW1 1550   0.969   1.517   2.284
  269SOL    HW2 1551   0.986   1.465   2.425
  270SOL     OW 1552   0.357   1.803   2.732
  270SOL    HW1 1553   0.397   1.717   2.745
  270SOL    HW2 1554   0.423   1.866   2.763
  271SOL     OW 1555   1.799   1.056   2.731
  271SOL    HW1 1556   1.745   1.037   2.654
  271SOL    HW2 1557   1.737   1.062   2.803
  272SOL     OW 1558   1.228   1.539   3.375
  272SOL    HW1 1559   1.214   1.466   3.436
  272SOL    HW2 1560   1.164   1.525   3.306
  273SOL     OW 1561   0.316   0.952   2.110
  273SOL    HW1 1562   0.397   0.976   2.067
  273SOL    HW2 1563   0.294   0.866   2.075
  274SOL     OW 1564   1.479   0.744   2.588
  274SOL    HW1 1565   1.472   0.702   2.674
  274SOL    HW2 1566   1.557   0.799   2.596
  275SOL     OW 1567   0.465   1.264   3.600
  275SOL    HW1 1568   0.439   1.270   3.508
  275SOL    HW2 1569   0.383   1.265   3.649
  276SOL     OW 1570   1.122   1.777   2.093
  276SOL    HW1 1571   1.049   1.736   2.138
  276SOL    HW2 1572   1.146   1.716   2.023
  277SOL     OW 1573   0.198   0.280   3.356
  277SOL    HW1 1574   0.160   0.368   3.350
  277SOL    HW2 1575   0.208   0.266   3.450
  278SOL     OW 1576   1.628   1.380   1.950
  278SOL    HW1 1577   1.587   1.465   1.935
  278SOL    HW2 1578   1.560   1.316   1.930
  279SOL     OW 1579   0.471   1.735   2.181
  279SOL    HW1 1580   0.514   1.792   2.244
  279SOL    HW2 1581   0.542   1.703   2.125
  280SOL     OW 1582   1.407   0.101   2.293
  280SOL    HW1 1583   1.400   0.081   2.200
  280SOL    HW2 1584   1.500   0.121   2.306
  281SOL     OW 1585   0.277   1.801   3.073
  281SOL    HW1 1586   0.306   1.722   3.120
  281SOL    HW2 1587   0.224   1.768   3.000
  282SOL     OW 1588   0.939   1.699   2.760
  282SOL    HW1 1589   1.017   1.647   2.781
  282SOL    HW2 1590   0.895   1.649   2.692
  283SOL     OW 1591   0.385   0.696   2.340
  283SOL    HW1 1592   0.415   0.605   2.349
  283SOL    HW2 1593   0.292   0.693   2.362
  284SOL     OW 1594   1.538   0.228   3.585
  284SOL    HW1 1595   1.546   0.245   3.679
  284SOL    HW2 1596   1.462   0.170   3.577
  285SOL     OW 1597   0.621   0.132   1.969
  285SOL    HW1 1598   0.685   0.067   1.995
  285SOL    HW2 1599   0.574   0.092   1.896
  286SOL     OW 1600   0.780   0.312   3.629
  286SOL    HW1 1601   0.840   0.238   3.628
  286SOL    HW2 1602   0.735   0.307   3.713
  287SOL     OW 1603   0.877   1.522   3.056
  287SOL    HW1 1604   0.861   1.486   2.969
  287SOL    HW2 1605   0.947   1.467   3.092
  288SOL     OW 1606   1.340   0.589   3.294
  288SOL    HW1 1607   1.371   0.558   3.380
  288SOL    HW2 1608   1.377   0.677   3.286
  289SOL     OW 1609   0.816   1.393   2.803
  289SOL    HW1 1610   0.901   1.382   2.759
  289SOL    HW2 1611   0.752   1.396   2.732
  290SOL     OW 1612   0.928   0.511   2.765
  290SOL    HW1 1613   0.904   0.503   2.673
  290SOL    HW2 1614   0.958   0.423   2.790
  291SOL     OW 1615   0.548   0.058   2.366
  291SOL    HW1 1616   0.469   0.059   2.421
  291SOL    HW2 1617   0.535   0.129   2.303
  292SOL     OW 1618   1.428   1.199   1.903
  292SOL    HW1 1619   1.458   1.123   1.953
  292SOL    HW2 1620   1.343   1.220   1.940
  293SOL     OW 1621   0.316   0.066   2.047
  293SOL    HW1 1622   0.383   0.132   2.029
  293SOL    HW2 1623   0.365   5.284   2.054
  294SOL     OW 1624   0.940   0.265   2.324
  294SOL    HW1 1625   0.913   0.300   2.240
  294SOL    HW2 1626   1.035   0.275   2.325
  295SOL     OW 1627   1.081   0.682   3.321
  295SOL    HW1 1628   1.013   0.615   3.326
  295SOL    HW2 1629   1.163   0.633   3.314
  296SOL     OW 1630   1.222   1.570   2.656
  296SOL    HW1 1631   1.238   1.637   2.589
  296SOL    HW2 1632   1.291   1.584   2.721
  297SOL     OW 1633   0.468   1.151   2.592
  297SOL    HW1 1634   0.399   1.130   2.656
  297SOL    HW2 1635   0.428   1.133   2.507
  298SOL     OW 1636   1.268   1.794   2.471
  298SOL    HW1 1637   1.315   1.855   2.414
  298SOL    HW2 1638   1.201   1.847   2.513
  299SOL     OW 1639   1.025   0.545   1.885
  299SOL    HW1 1640   0.983   0.629   1.867
  299SOL    HW2 1641   1.089   0.565   1.954
  300SOL     OW 1642   0.100   0.529   3.275
  300SOL    HW1 1643   0.180   0.549   3.226
  300SOL    HW2 1644   0.079   0.611   3.320
  301SOL     OW 1645   0.560   0.239   3.020
  301SOL    HW1 1646   0.592   0.153   3.047
  301SOL    HW2 1647   0.467   0.239   3.045
  302SOL     OW 1648   0.867   0.464   2.503
  302SOL    HW1 1649   0.820   0.517   2.438
  302SOL    HW2 1650   0.890   0.384   2.456
  303SOL     OW 1651   0.979   0.061   2.625
  303SOL    HW1 1652   0.914   0.057   2.555
  303SOL    HW2 1653   0.987   5.270   2.655
  304SOL     OW 1654   1.438   1.162   2.719
  304SOL    HW1 1655   1.368   1.097   2.718
  304SOL    HW2 1656   1.462   1.173   2.627
  305SOL     OW 1657   1.466   0.607   2.838
  305SOL    HW1 1658   1.416   0.526   2.841
  305SOL    HW2 1659   1.526   0.601   2.912
  306SOL     OW 1660   1.844   0.816   2.245
  306SOL    HW1 1661   1.901   0.765   2.303
  306SOL    HW2 1662   1.817   0.753   2.178
  307SOL     OW 1663   0.491   1.419   2.019
  307SOL    HW1 1664   0.416   1.391   2.071
  307SOL    HW2 1665   0.477   1.380   1.933
  308SOL     OW 1666   1.671   1.264   2.507
  308SOL    HW1 1667   1.766   1.266   2.521
  308SOL    HW2 1668   1.642   1.353   2.528
  309SOL     OW 1669   1.394   0.572   1.933
  309SOL    HW1 1670   1.333   0.552   2.004
  309SOL    HW2 1671   1.479   0.542   1.966
  310SOL     OW 1672   0.522   0.265   2.182
  310SOL    HW1 1673   0.570   0.217   2.114
  310SOL    HW2 1674   0.501   0.350   2.142
  311SOL     OW 1675   1.752   1.240   3.434
  311SOL    HW1 1676   1.839   1.201   3.429
  311SOL    HW2 1677   1.768   1.330   3.462
  312SOL     OW 1678   1.058   1.353   3.195
  312SOL    HW1 1679   0.983   1.322   3.246
  312SOL    HW2 1680   1.134   1.312   3.236
  313SOL     OW 1681   1.608   1.625   3.516
  313SOL    HW1 1682   1.601   1.659   3.427
  313SOL    HW2 1683   1.691   1.578   3.518
  314SOL     OW 1684   1.130   1.204   2.967
  314SOL    HW1 1685   1.070   1.242   3.031
  314SOL    HW2 1686   1.098   1.237   2.883
  315SOL     OW 1687   1.627   1.097   2.939
  315SOL    HW1 1688   1.622   1.159   3.012
  315SOL    HW2 1689   1.549   1.115   2.887
  316SOL     OW 1690   0.905   0.107   3.250
  316SOL    HW1 1691   0.936   0.073   3.166
  316SOL    HW2 1692   0.982   0.150   3.288
  317SOL     OW 1693   0.984   1.115   3.585
  317SOL    HW1 1694   0.892   1.131   3.606
  317SOL    HW2 1695   0.983   1.037   3.529
  318SOL     OW 1696   0.708   1.060   2.234
  318SOL    HW1 1697   0.696   1.044   2.328
  318SOL    HW2 1698   0.784   1.007   2.210
  319SOL     OW 1699   0.421   0.821   3.115
  319SOL    HW1 1700   0.490   0.827   3.181
  319SOL    HW2 1701   0.386   0.732   3.124
  320SOL     OW 1702   1.266   0.378   3.135
  320SOL    HW1 1703   1.299   0.455   3.182
  320SOL    HW2 1704   1.176   0.401   3.113
  321SOL     OW 1705   0.102   1.623   3.228
  321SOL    HW1 1706   0.081   1.631   3.136
  321SOL    HW2 1707   0.189   1.582   3.230
  322SOL     OW 1708   0.342   1.107   2.349
  322SOL    HW1 1709   0.350   1.187   2.295
  322SOL    HW2 1710   0.350   1.035   2.286
  323SOL     OW 1711   0.555   0.536   2.722
  323SOL    HW1 1712   0.569   0.595   2.647
  323SOL    HW2 1713   0.620   0.562   2.786
  324SOL     OW 1714   1.248   1.349   2.251
  324SOL    HW1 1715   1.304   1.420   2.282
  324SOL    HW2 1716   1.161   1.370   2.285
  325SOL     OW 1717   1.282   1.458   3.009
  325SOL    HW1 1718   1.338   1.461   3.087
  325SOL    HW2 1719   1.227   1.381   3.022
  326SOL     OW 1720   1.581   0.622   2.342
  326SOL    HW1 1721   1.534   0.676   2.405
  326SOL    HW2 1722   1.626   0.685   2.286
  327SOL     OW 1723   0.352   1.520   3.172
  327SOL    HW1 1724   0.341   1.476   3.087
  327SOL    HW2 1725   0.446   1.537   3.178
  328SOL     OW 1726   0.416   0.740   3.465
  328SOL    HW1 1727   0.474   0.789   3.406
  328SOL    HW2 1728   0.461   0.658   3.481
  329SOL     OW 1729   1.602   0.779   3.544
  329SOL    HW1 1730   1.516   0.820   3.538
  329SOL    HW2 1731   1.655   0.821   3.476
  330SOL     OW 1732   1.047   0.118   3.645
  330SOL    HW1 1733   1.074   0.197   3.599
  330SOL    HW2 1734   1.052   0.048   3.580
  331SOL     OW 1735   0.483   0.059   3.599
  331SOL    HW1 1736   0.424   5.292   3.564
  331SOL    HW2 1737   0.426   0.134   3.616
  332SOL     OW 1738   0.586   0.874   2.894
  332SOL    HW1 1739   0.618   0.964   2.894
  332SOL    HW2 1740   0.529   0.869   2.971
  333SOL     OW 1741   1.356   0.859   2.891
  333SOL    HW1 1742   1.273   0.848   2.845
  333SOL    HW2 1743   1.398   0.773   2.884
  334SOL     OW 1744   1.204   0.528   2.128
  334SOL    HW1 1745   1.210   0.448   2.180
  334SOL    HW2 1746   1.162   0.591   2.186
  335SOL     OW 1747   0.304   0.205   3.108
  335SOL    HW1 1748   0.262   0.237   3.188
  335SOL    HW2 1749   0.294   0.110   3.112
  336SOL     OW 1750   0.066   1.317   3.142
  336SOL    HW1 1751   0.091   1.259   3.213
  336SOL    HW2 1752   5.295   1.371   3.178
  337SOL     OW 1753   0.726   0.632   2.921
  337SOL    HW1 1754   0.800   0.615   2.863
  337SOL    HW2 1755   0.697   0.721   2.899
  338SOL     OW 1756   1.735   0.959   3.715
  338SOL    HW1 1757   1.690   0.896   3.659
  338SOL    HW2 1758   1.675   0.974   3.789
  339SOL     OW 1759   0.319   0.068   2.518
  339SOL    HW1 1760   0.299   0.161   2.524
  339SOL    HW2 1761   0.326   0.038   2.609
  340SOL     OW 1762   1.613   0.376   2.225
  340SOL    HW1 1763   1.646   0.312   2.288
  340SOL    HW2 1764   1.593   0.453   2.278
  341SOL     OW 1765   1.028   0.759   2.822
  341SOL    HW1 1766   1.024   0.777   2.916
  341SOL    HW2 1767   1.001   0.668   2.813
  342SOL     OW 1768   0.982   1.566   3.580
  342SOL    HW1 1769   0.967   1.610   3.496
  342SOL    HW2 1770   1.026   1.484   3.556
  343SOL     OW 1771   1.855   1.505   3.467
  343SOL    HW1 1772   1.873   1.532   3.377
  343SOL    HW2 1773   1.936   1.523   3.515
  344SOL     OW 1774   0.354   0.917   3.669
  344SOL    HW1 1775   0.435   0.938   3.716
  344SOL    HW2 1776   0.381   0.852   3.603
  345SOL     OW 1777   1.525   0.271   1.988
  345SOL    HW1 1778   1.461   0.208   2.019
  345SOL    HW2 1779   1.562   0.310   2.067
  346SOL     OW 1780   1.291   0.826   1.893
  346SOL    HW1 1781   1.333   0.741   1.896
  346SOL    HW2 1782   1.322   0.865   1.811
  347SOL     OW 1783   1.067   1.336   2.717
  347SOL    HW1 1784   1.070   1.264   2.654
  347SOL    HW2 1785   1.127   1.401   2.681
  348SOL     OW 1786   0.314   0.810   2.812
  348SOL    HW1 1787   0.408   0.828   2.807
  348SOL    HW2 1788   0.308   0.719   2.842
  349SOL     OW 1789   0.336   0.527   2.877
  349SOL    HW1 1790   0.299   0.440   2.862
  349SOL    HW2 1791   0.411   0.531   2.818
  350SOL     OW 1792   1.135   0.377   3.551
  350SOL    HW1 1793   1.087   0.432   3.614
  350SOL    HW2 1794   1.222   0.417   3.547
  351SOL     OW 1795   1.133   0.223   3.328
  351SOL    HW1 1796   1.137   0.282   3.403
  351SOL    HW2 1797   1.188   0.264   3.262
  352SOL     OW 1798   0.002   1.329   2.072
  352SOL    HW1 1799   5.229   1.317   2.011
  352SOL    HW2 1800   0.012   1.243   2.114
  353SOL     OW 1801   0.094   1.781   2.814
  353SOL    HW1 1802   0.060   1.713   2.757
  353SOL    HW2 1803   0.181   1.800   2.779
  354SOL     OW 1804   0.505   1.574   2.770
  354SOL    HW1 1805   0.572   1.639   2.790
  354SOL    HW2 1806   0.548   1.513   2.710
  355SOL     OW 1807   0.982   0.792   3.088
  355SOL    HW1 1808   1.038   0.769   3.162
  355SOL    HW2 1809   0.897   0.753   3.111
  356SOL     OW 1810   0.036   0.569   2.982
  356SOL    HW1 1811   0.117   0.537   2.942
  356SOL    HW2 1812   0.037   0.533   3.071
  357SOL     OW 1813   0.166   0.517   3.579
  357SOL    HW1 1814   0.251   0.495   3.539
  357SOL    HW2 1815   0.137   0.595   3.533
  358SOL     OW 1816   1.377   0.938   3.520
  358SOL    HW1 1817   1.399   1.031   3.518
  358SOL    HW2 1818   1.375   0.912   3.428
  359SOL     OW 1819   0.814   0.572   2.225
  359SOL    HW1 1820   0.819   0.499   2.165
  359SOL    HW2 1821   0.740   0.625   2.194
  360SOL     OW 1822   1.642   0.601   3.047
  360SOL    HW1 1823   1.631   0.542   3.121
  360SOL    HW2 1824   1.729   0.581   3.013
  361SOL     OW 1825   0.256   1.556   3.596
  361SOL    HW1 1826   0.234   1.619   3.665
  361SOL    HW2 1827   0.250   1.470   3.640
  362SOL     OW 1828   0.700   0.452   3.122
  362SOL    HW1 1829   0.650   0.378   3.089
  362SOL    HW2 1830   0.699   0.516   3.051
  363SOL     OW 1831   0.928   1.679   3.330
  363SOL    HW1 1832   0.901   1.643   3.245
  363SOL    HW2 1833   0.921   1.774   3.319
  364SOL     OW 1834   0.463   0.492   2.041
  364SOL    HW1 1835   0.526   0.560   2.065
  364SOL    HW2 1836   0.380   0.538   2.032
  365SOL     OW 1837   0.148   1.137   3.333
  365SOL    HW1 1838   0.144   1.089   3.416
  365SOL    HW2 1839   0.159   1.069   3.266
  366SOL     OW 1840   1.325   1.046   3.085
  366SOL    HW1 1841   1.348   0.983   3.017
  366SOL    HW2 1842   1.255   1.099   3.045
  367SOL     OW 1843   1.312   0.857   2.168
  367SOL    HW1 1844   1.237   0.825   2.218
  367SOL    HW2 1845   1.287   0.843   2.077
  368SOL     OW 1846   1.767   1.743   3.010
  368SOL    HW1 1847   1.831   1.769   2.944
  368SOL    HW2 1848   1.747   1.652   2.988
  369SOL     OW 1849   1.242   1.734   2.975
  369SOL    HW1 1850   1.324   1.754   2.930
  369SOL    HW2 1851   1.247   1.640   2.993
  370SOL     OW 1852   0.082   1.214   2.889
  370SOL    HW1 1853   0.070   1.241   2.980
  370SOL    HW2 1854   5.294   1.204   2.855
  371SOL     OW 1855   0.678   1.667   3.593
  371SOL    HW1 1856   0.621   1.744   3.587
  371SOL    HW2 1857   0.743   1.679   3.523
  372SOL     OW 1858   1.711   0.150   2.363
  372SOL    HW1 1859   1.787   0.129   2.308
  372SOL    HW2 1860   1.705   0.076   2.424
  373SOL     OW 1861   1.391   1.568   2.348
  373SOL    HW1 1862   1.451   1.600   2.281
  373SOL    HW2 1863   1.342   1.645   2.376
  374SOL     OW 1864   0.146   1.798   3.704
  374SOL    HW1 1865   0.091   1.735   3.751
  374SOL    HW2 1866   0.193   1.845   3.773
  375SOL     OW 1867   1.277   0.926   2.533
  375SOL    HW1 1868   1.351   0.866   2.541
  375SOL    HW2 1869   1.311   0.998   2.480
  376SOL     OW 1870   0.813   1.273   3.291
  376SOL    HW1 1871   0.784   1.313   3.373
  376SOL    HW2 1872   0.743   1.295   3.229
  377SOL     OW 1873   0.672   1.620   2.017
  377SOL    HW1 1874   0.683   1.634   1.923
  377SOL    HW2 1875   0.617   1.542   2.024
  378SOL     OW 1876   1.625   1.723   3.251
  378SOL    HW1 1877   1.674   1.731   3.170
  378SOL    HW2 1878   1.617   1.813   3.283
  379SOL     OW 1879   1.846   0.155   2.819
  379SOL    HW1 1880   1.843   0.060   2.811
  379SOL    HW2 1881   1.760   0.185   2.789
  380SOL     OW 1882   0.270   0.329   2.580
  380SOL    HW1 1883   0.183   0.366   2.565
  380SOL    HW2 1884   0.274   0.314   2.674
  381SOL     OW 1885   1.207   1.605   1.894
  381SOL    HW1 1886   1.197   1.514   1.920
  381SOL    HW2 1887   1.142   1.618   1.825
  382SOL     OW 1888   0.824   1.006   3.235
  382SOL    HW1 1889   0.868   1.001   3.150
  382SOL    HW2 1890   0.823   1.099   3.256
  383SOL     OW 1891   0.915   0.910   2.152
  383SOL    HW1 1892   0.976   0.942   2.086
  383SOL    HW2 1893   0.964   0.841   2.198
  384SOL     OW 1894   1.491   1.625   1.905
  384SOL    HW1 1895   1.397   1.619   1.891
  384SOL    HW2 1896   1.528   1.632   1.817
  385SOL     OW 1897   0.367   1.304   3.355
  385SOL    HW1 1898   0.359   1.378   3.295
  385SOL    HW2 1899   0.291   1.249   3.336
  386SOL     OW 1900   1.610   1.282   3.142
  386SOL    HW1 1901   1.671   1.272   3.215
  386SOL    HW2 1902   1.550   1.351   3.171
  387SOL     OW 1903   1.053   1.108   2.569
  387SOL    HW1 1904   0.983   1.056   2.608
  387SOL    HW2 1905   1.117   1.042   2.539
  388SOL     OW 1906   1.019   0.243   2.831
  388SOL    HW1 1907   0.999   0.198   2.749
  388SOL    HW2 1908   1.012   0.176   2.898
  389SOL     OW 1909   0.602   1.487   2.343
  389SOL    HW1 1910   0.648   1.439   2.274
  389SOL    HW2 1911   0.534   1.536   2.296
  390SOL     OW 1912   1.725   0.386   3.240
  390SOL    HW1 1913   1.795   0.451   3.239
  390SOL    HW2 1914   1.757   0.317   3.182
  391SOL     OW 1915   0.261   1.348   2.155
  391SOL    HW1 1916   0.168   1.350   2.132
  391SOL    HW2 1917   0.264   1.386   2.243
  392SOL     OW 1918   0.117   1.015   3.578
  392SOL    HW1 1919   0.046   0.983   3.634
  392SOL    HW2 1920   0.197   0.985   3.622
  393SOL     OW 1921   0.675   0.217   3.353
  393SOL    HW1 1922   0.758   0.199   3.308
  393SOL    HW2 1923   0.700   0.262   3.433
  394SOL     OW 1924   0.079   0.335   1.899
  394SOL    HW1 1925   5.287   0.311   1.889
  394SOL    HW2 1926   0.093   0.404   1.834
  395SOL     OW 1927   1.429   0.858   3.262
  395SOL    HW1 1928   1.380   0.919   3.207
  395SOL    HW2 1929   1.518   0.861   3.227
  396SOL     OW 1930   0.084   0.142   2.155
  396SOL    HW1 1931   0.078   0.236   2.137
  396SOL    HW2 1932   0.171   0.117   2.124
  397SOL     OW 1933   1.179   1.338   1.979
  397SOL    HW1 1934   1.088   1.309   1.981
  397SOL    HW2 1935   1.206   1.339   2.071
  398SOL     OW 1936   0.620   0.831   3.298
  398SOL    HW1 1937   0.675   0.907   3.282
  398SOL    HW2 1938   0.681   0.758   3.305
  399SOL     OW 1939   1.485   1.779   2.844
  399SOL    HW1 1940   1.508   1.836   2.771
  399SOL    HW2 1941   1.568   1.758   2.886
  400SOL     OW 1942   0.713   0.573   3.565
  400SOL    HW1 1943   0.757   0.636   3.622
  400SOL    HW2 1944   0.743   0.488   3.595
  401SOL     OW 1945   1.472   1.199   3.493
  401SOL    HW1 1946   1.460   1.213   3.587
  401SOL    HW2 1947   1.565   1.215   3.478
  402SOL     OW 1948   0.377   1.743   3.426
  402SOL    HW1 1949   0.294   1.789   3.410
  402SOL    HW2 1950   0.351   1.662   3.471
  403SOL     OW 1951   1.668   0.881   3.117
  403SOL    HW1 1952   1.663   0.796   3.074
  403SOL    HW2 1953   1.659   0.944   3.046
  404SOL     OW 1954   1.220   0.319   2.327
  404SOL    HW1 1955   1.283   0.247   2.321
  404SOL    HW2 1956   1.250   0.370   2.401
  405SOL     OW 1957   0.589   0.737   2.532
  405SOL    HW1 1958   0.628   0.823   2.516
  405SOL    HW2 1959   0.520   0.730   2.465
  406SOL     OW 1960   1.766   0.362   3.511
  406SOL    HW1 1961   1.747   0.377   3.418
  406SOL    HW2 1962   1.694   0.306   3.541
  407SOL     OW 1963   1.745   0.934   3.374
  407SOL    HW1 1964   1.741   1.028   3.387
  407SOL    HW2 1965   1.730   0.922   3.280
  408SOL     OW 1966   0.862   1.367   1.897
  408SOL    HW1 1967   0.824   1.396   1.980
  408SOL    HW2 1968   0.881   1.447   1.849
  409SOL     OW 1969   0.664   1.793   2.804
  409SOL    HW1 1970   0.643   1.883   2.782
  409SOL    HW2 1971   0.759   1.788   2.798
  410SOL     OW 1972   0.868   0.967   2.716
  410SOL    HW1 1973   0.918   0.896   2.755
  410SOL    HW2 1974   0.833   1.016   2.791
  411SOL     OW 1975   1.077   0.987   1.950
  411SOL    HW1 1976   1.057   1.039   1.872
  411SOL    HW2 1977   1.153   0.934   1.925
  412SOL     OW 1978   1.853   1.555   2.706
  412SOL    HW1 1979   1.775   1.542   2.653
  412SOL    HW2 1980   1.845   1.489   2.776
  413SOL     OW 1981   0.226   1.304   3.723
  413SOL    HW1 1982   0.157   1.243   3.697
  413SOL    HW2 1983   0.215   1.315   3.817
  414SOL     OW 1984   0.088   1.218   2.516
  414SOL    HW1 1985   0.102   1.187   2.605
  414SOL    HW2 1986   0.176   1.217   2.477
  415SOL     OW 1987   0.682   1.403   3.491
  415SOL    HW1 1988   0.601   1.361   3.521
  415SOL    HW2 1989   0.677   1.492   3.527
  416SOL     OW 1990   1.812   0.176   3.094
  416SOL    HW1 1991   1.778   0.087   3.097
  416SOL    HW2 1992   1.833   0.190   3.001
  417SOL     OW 1993   0.433   0.436   2.384
  417SOL    HW1 1994   0.465   0.363   2.332
  417SOL    HW2 1995   0.387   0.396   2.457
  418SOL     OW 1996   1.701   1.487   2.956
  418SOL    HW1 1997   1.619   1.464   2.911
  418SOL    HW2 1998   1.711   1.418   3.022
  419SOL     OW 1999   0.338   0.562   3.151
  419SOL    HW1 2000   0.394   0.504   3.202
  419SOL    HW2 2001   0.351   0.534   3.060
  420SOL     OW 2002   0.829   1.577   2.539
  420SOL    HW1 2003   0.814   1.635   2.464
  420SOL    HW2 2004   0.753   1.520   2.541
  421SOL     OW 2005   1.428   0.219   2.978
  421SOL    HW1 2006   1.464   0.144   3.026
  421SOL    HW2 2007   1.379   0.268   3.044
  422SOL     OW 2008   1.002   0.020   3.002
  422SOL    HW1 2009   0.952   5.252   2.957
  422SOL    HW2 2010   1.088   5.281   3.016
  423SOL     OW 2011   0.772   1.333   2.179
  423SOL    HW1 2012   0.743   1.242   2.185
  423SOL    HW2 2013   0.854   1.335   2.227
  424SOL     OW 2014   0.623   1.555   3.150
  424SOL    HW1 2015   0.624   1.638   3.199
  424SOL    HW2 2016   0.710   1.550   3.110
  425SOL     OW 2017   1.354   0.037   2.024
  425SOL    HW1 2018   1.390   5.296   1.946
  425SOL    HW2 2019   1.276   5.285   2.045
  426SOL     OW 2020   1.301   0.464   2.546
  426SOL    HW1 2021   1.246   0.543   2.551
  426SOL    HW2 2022   1.294   0.424   2.633
  427SOL     OW 2023   1.594   0.215   2.744
  427SOL    HW1 2024   1.529   0.227   2.813
  427SOL    HW2 2025   1.587   0.294   2.690
  428SOL     OW 2026   0.048   1.068   2.152
  428SOL    HW1 2027   0.137   1.035   2.141
  428SOL    HW2 2028   5.299   0.994   2.188
  429SOL     OW 2029   0.886   1.653   2.203
  429SOL    HW1 2030   0.813   1.638   2.143
  429SOL    HW2 2031   0.859   1.728   2.256
  430SOL     OW 2032   0.232   0.632   3.842
  430SOL    HW1 2033   0.158   0.604   3.895
  430SOL    HW2 2034   0.212   0.601   3.753
  431SOL     OW 2035   0.233   0.281   4.714
  431SOL    HW1 2036   0.252   0.243   4.799
  431SOL    HW2 2037   0.153   0.238   4.685
  432SOL     OW 2038   5.299   0.407   4.389
  432SOL    HW1 2039   5.206   0.429   4.393
  432SOL    HW2 2040   0.001   0.316   4.357
  433SOL     OW 2041   0.575   1.286   4.908
  433SOL    HW1 2042   0.492   1.294   4.860
  433SOL    HW2 2043   0.591   1.374   4.942
  434SOL     OW 2044   1.561   1.510   4.432
  434SOL    HW1 2045   1.519   1.491   4.515
  434SOL    HW2 2046   1.489   1.515   4.369
  435SOL     OW 2047   1.131   0.698   4.424
  435SOL    HW1 2048   1.180   0.779   4.410
  435SOL    HW2 2049   1.084   0.712   4.506
  436SOL     OW 2050   1.768   0.605   3.952
  436SOL    HW1 2051   1.747   0.598   3.859
  436SOL    HW2 2052   1.732   0.525   3.991
  437SOL     OW 2053   0.754   1.140   4.764
  437SOL    HW1 2054   0.688   1.175   4.824
  437SOL    HW2 2055   0.790   1.217   4.721
  438SOL     OW 2056   0.866   0.776   5.546
  438SOL    HW1 2057   0.859   0.847   5.609
  438SOL    HW2 2058   0.891   0.818   5.464
  439SOL     OW 2059   0.685   1.002   4.370
  439SOL    HW1 2060   0.752   0.990   4.439
  439SOL    HW2 2061   0.618   1.055   4.412
  440SOL     OW 2062   0.710   1.150   5.538
  440SOL    HW1 2063   0.759   1.228   5.565
  440SOL    HW2 2064   0.629   1.184   5.501
  441SOL     OW 2065   0.358   1.404   4.784
  441SOL    HW1 2066   0.270   1.405   4.748
  441SOL    HW2 2067   0.407   1.466   4.729
  442SOL     OW 2068   1.461   1.500   5.079
  442SOL    HW1 2069   1.513   1.580   5.088
  442SOL    HW2 2070   1.398   1.505   5.151
  443SOL     OW 2071   0.450   0.399   5.211
  443SOL    HW1 2072   0.530   0.346   5.207
  443SOL    HW2 2073   0.379   0.336   5.220
  444SOL     OW 2074   1.610   0.451   4.462
  444SOL    HW1 2075   1.534   0.474   4.408
  444SOL    HW2 2076   1.627   0.530   4.514
  445SOL     OW 2077   0.232   1.714   4.201
  445SOL    HW1 2078   0.264   1.783   4.259
  445SOL    HW2 2079   0.295   1.711   4.129
  446SOL     OW 2080   1.137   1.342   5.417
  446SOL    HW1 2081   1.178   1.336   5.503
  446SOL    HW2 2082   1.085   1.262   5.410
  447SOL     OW 2083   0.222   1.445   4.264
  447SOL    HW1 2084   0.217   1.540   4.258
  447SOL    HW2 2085   0.151   1.421   4.324
  448SOL     OW 2086   0.250   1.077   4.598
  448SOL    HW1 2087   0.262   0.991   4.640
  448SOL    HW2 2088   0.198   1.127   4.661
  449SOL     OW 2089   0.612   1.790   5.156
  449SOL    HW1 2090   0.528   1.773   5.199
  449SOL    HW2 2091   0.633   1.881   5.179
  450SOL     OW 2092   0.581   0.984   3.860
  450SOL    HW1 2093   0.629   1.031   3.791
  450SOL    HW2 2094   0.623   1.014   3.941
  451SOL     OW 2095   1.586   0.136   5.179
  451SOL    HW1 2096   1.611   0.220   5.141
  451SOL    HW2 2097   1.582   0.153   5.273
  452SOL     OW 2098   0.124   0.636   4.301
  452SOL    HW1 2099   0.090   0.553   4.336
  452SOL    HW2 2100   0.098   0.701   4.367
  453SOL     OW 2101   1.839   1.758   4.055
  453SOL    HW1 2102   1.904   1.725   4.117
  453SOL    HW2 2103   1.866   1.848   4.038
  454SOL     OW 2104   0.038   1.599   3.857
  454SOL    HW1 2105   0.025   1.508   3.882
  454SOL    HW2 2106   5.281   1.649   3.915
  455SOL     OW 2107   1.689   0.918   4.366
  455SOL    HW1 2108   1.772   0.876   4.345
  455SOL    HW2 2109   1.667   0.969   4.287
  456SOL     OW 2110   1.647   1.106   4.153
  456SOL    HW1 2111   1.733   1.111   4.112
  456SOL    HW2 2112   1.652   1.167   4.226
  457SOL     OW 2113   0.131   0.750   5.309
  457SOL    HW1 2114   0.226   0.764   5.309
  457SOL    HW2 2115   0.094   0.836   5.326
  458SOL     OW 2116   0.616   1.386   4.458
  458SOL    HW1 2117   0.568   1.304   4.469
  458SOL    HW2 2118   0.598   1.413   4.368
  459SOL     OW 2119   1.288   1.237   5.147
  459SOL    HW1 2120   1.320   1.170   5.087
  459SOL    HW2 2121   1.346   1.232   5.223
  460SOL     OW 2122   0.816   0.029   4.252
  460SOL    HW1 2123   0.843   0.117   4.227
  460SOL    HW2 2124   0.720   0.031   4.245
  461SOL     OW 2125   0.174   0.944   5.003
  461SOL    HW1 2126   0.265   0.914   4.994
  461SOL    HW2 2127   0.134   0.924   4.918
  462SOL     OW 2128   1.531   0.994   3.923
  462SOL    HW1 2129   1.461   0.937   3.955
  462SOL    HW2 2130   1.573   1.029   4.002
  463SOL     OW 2131   1.184   1.807   5.347
  463SOL    HW1 2132   1.195   1.867   5.273
  463SOL    HW2 2133   1.202   1.720   5.311
  464SOL     OW 2134   0.329   0.278   5.521
  464SOL    HW1 2135   0.388   0.337   5.567
  464SOL    HW2 2136   0.248   0.280   5.572
  465SOL     OW 2137   1.466   1.419   4.675
  465SOL    HW1 2138   1.398   1.435   4.741
  465SOL    HW2 2139   1.454   1.328   4.649
  466SOL     OW 2140   1.659   1.734   4.301
  466SOL    HW1 2141   1.638   1.703   4.213
  466SOL    HW2 2142   1.633   1.662   4.359
  467SOL     OW 2143   0.594   0.720   3.990
  467SOL    HW1 2144   0.602   0.801   3.941
  467SOL    HW2 2145   0.530   0.739   4.058
  468SOL     OW 2146   1.278   0.348   4.655
  468SOL    HW1 2147   1.187   0.320   4.667
  468SOL    HW2 2148   1.328   0.298   4.719
  469SOL     OW 2149   1.579   1.669   4.033
  469SOL    HW1 2150   1.669   1.702   4.026
  469SOL    HW2 2151   1.552   1.653   3.943
  470SOL     OW 2152   0.794   0.618   5.174
  470SOL    HW1 2153   0.766   0.596   5.263
  470SOL    HW2 2154   0.752   0.552   5.119
  471SOL     OW 2155   1.394   0.475   5.402
  471SOL    HW1 2156   1.397   0.520   5.487
  471SOL    HW2 2157   1.458   0.404   5.410
  472SOL     OW 2158   0.953   0.887   5.307
  472SOL    HW1 2159   1.008   0.817   5.271
  472SOL    HW2 2160   0.906   0.922   5.231
  473SOL     OW 2161   0.993   0.417   4.959
  473SOL    HW1 2162   0.907   0.438   4.995
  473SOL    HW2 2163   0.974   0.369   4.878
  474SOL     OW 2164   1.051   0.698   4.150
  474SOL    HW1 2165   1.067   0.691   4.244
  474SOL    HW2 2166   0.968   0.652   4.137
  475SOL     OW 2167   0.071   0.788   4.535
  475SOL    HW1 2168   0.151   0.793   4.586
  475SOL    HW2 2169   0.066   0.873   4.490
  476SOL     OW 2170   0.129   1.885   5.309
  476SOL    HW1 2171   0.133   1.857   5.400
  476SOL    HW2 2172   0.060   1.831   5.270
  477SOL     OW 2173   0.875   0.366   3.912
  477SOL    HW1 2174   0.915   0.425   3.848
  477SOL    HW2 2175   0.931   0.289   3.912
  478SOL     OW 2176   1.706   0.573   5.552
  478SOL    HW1 2177   1.670   0.647   5.503
  478SOL    HW2 2178   1.738   0.513   5.485
  479SOL     OW 2179   1.377   1.142   4.265
  479SOL    HW1 2180   1.456   1.130   4.212
  479SOL    HW2 2181   1.325   1.204   4.215
  480SOL     OW 2182   0.536   0.203   4.606
  480SOL    HW1 2183   0.552   0.220   4.699
  480SOL    HW2 2184   0.549   0.287   4.563
  481SOL     OW 2185   1.004   1.443   4.195
  481SOL    HW1 2186   0.968   1.517   4.146
  481SOL    HW2 2187   0.986   1.465   4.287
  482SOL     OW 2188   0.357   1.803   4.594
  482SOL    HW1 2189   0.398   1.718   4.607
  482SOL    HW2 2190   0.423   1.866   4.625
  483SOL     OW 2191   1.799   1.055   4.593
  483SOL    HW1 2192   1.745   1.038   4.516
  483SOL    HW2 2193   1.737   1.061   4.665
  484SOL     OW 2194   1.228   1.539   5.237
  484SOL    HW1 2195   1.214   1.466   5.298
  484SOL    HW2 2196   1.164   1.525   5.167
  485SOL     OW 2197   0.316   0.952   3.972
  485SOL    HW1 2198   0.397   0.976   3.929
  485SOL    HW2 2199   0.294   0.866   3.937
  486SOL     OW 2200   1.479   0.744   4.450
  486SOL    HW1 2201   1.472   0.702   4.536
  486SOL    HW2 2202   1.557   0.799   4.457
  487SOL     OW 2203   0.465   1.264   5.462
  487SOL    HW1 2204   0.439   1.270   5.370
  487SOL    HW2 2205   0.383   1.265   5.511
  488SOL     OW 2206   1.122   1.778   3.954
  488SOL    HW1 2207   1.049   1.736   4.000
  488SOL    HW2 2208   1.145   1.716   3.885
  489SOL     OW 2209   0.198   0.280   5.218
  489SOL    HW1 2210   0.160   0.368   5.212
  489SOL    HW2 2211   0.208   0.266   5.312
  490SOL     OW 2212   1.628   1.380   3.812
  490SOL    HW1 2213   1.587   1.465   3.797
  490SOL    HW2 2214   1.560   1.316   3.792
  491SOL     OW 2215   0.471   1.735   4.043
  491SOL    HW1 2216   0.514   1.792   4.106
  491SOL    HW2 2217   0.542   1.703   3.987
  492SOL     OW 2218   1.407   0.101   4.155
  492SOL    HW1 2219   1.400   0.081   4.062
  492SOL    HW2 2220   1.500   0.121   4.168
  493SOL     OW 2221   0.277   1.801   4.935
  493SOL    HW1 2222   0.307   1.723   4.981
  493SOL    HW2 2223   0.225   1.767   4.862
  494SOL     OW 2224   0.939   1.699   4.623
  494SOL    HW1 2225   1.017   1.648   4.644
  494SOL    HW2 2226   0.895   1.649   4.554
  495SOL     OW 2227   0.385   0.696   4.202
  495SOL    HW1 2228   0.415   0.605   4.211
  495SOL    HW2 2229   0.292   0.693   4.224
  496SOL     OW 2230   1.538   0.227   5.447
  496SOL    HW1 2231   1.546   0.245   5.541
  496SOL    HW2 2232   1.462   0.170   5.439
  497SOL     OW 2233   0.620   0.132   3.831
  497SOL    HW1 2234   0.686   0.067   3.857
  497SOL    HW2 2235   0.574   0.092   3.758
  498SOL     OW 2236   0.780   0.312   5.490
  498SOL    HW1 2237   0.840   0.238   5.491
  498SOL    HW2 2238   0.735   0.307   5.575
  499SOL     OW 2239   0.877   1.522   4.918
  499SOL    HW1 2240   0.861   1.485   4.830
  499SOL    HW2 2241   0.947   1.467   4.953
  500SOL     OW 2242   1.340   0.589   5.156
  500SOL    HW1 2243   1.371   0.558   5.241
  500SOL    HW2 2244   1.376   0.677   5.148
  501SOL     OW 2245   0.816   1.393   4.665
  501SOL    HW1 2246   0.901   1.382   4.621
  501SOL    HW2 2247   0.753   1.396   4.594
  502SOL     OW 2248   0.928   0.510   4.627
  502SOL    HW1 2249   0.903   0.503   4.535
  502SOL    HW2 2250   0.958   0.423   4.652
  503SOL     OW 2251   0.548   0.058   4.228
  503SOL    HW1 2252   0.469   0.059   4.283
  503SOL    HW2 2253   0.535   0.129   4.165
  504SOL     OW 2254   1.428   1.199   3.765
  504SOL    HW1 2255   1.458   1.123   3.815
  504SOL    HW2 2256   1.343   1.220   3.802
  505SOL     OW 2257   0.316   0.066   3.909
  505SOL    HW1 2258   0.383   0.132   3.892
  505SOL    HW2 2259   0.365   5.284   3.915
  506SOL     OW 2260   0.940   0.265   4.187
  506SOL    HW1 2261   0.913   0.300   4.102
  506SOL    HW2 2262   1.035   0.275   4.187
  507SOL     OW 2263   1.081   0.682   5.183
  507SOL    HW1 2264   1.013   0.615   5.188
  507SOL    HW2 2265   1.163   0.633   5.176
  508SOL     OW 2266   1.223   1.570   4.518
  508SOL    HW1 2267   1.239   1.637   4.451
  508SOL    HW2 2268   1.291   1.585   4.583
  509SOL     OW 2269   0.468   1.151   4.454
  509SOL    HW1 2270   0.399   1.130   4.518
  509SOL    HW2 2271   0.428   1.133   4.369
  510SOL     OW 2272   1.269   1.794   4.332
  510SOL    HW1 2273   1.316   1.855   4.276
  510SOL    HW2 2274   1.202   1.847   4.375
  511SOL     OW 2275   1.025   0.545   3.747
  511SOL    HW1 2276   0.983   0.629   3.729
  511SOL    HW2 2277   1.089   0.565   3.816
  512SOL     OW 2278   0.100   0.530   5.137
  512SOL    HW1 2279   0.180   0.549   5.088
  512SOL    HW2 2280   0.079   0.611   5.182
  513SOL     OW 2281   0.560   0.239   4.882
  513SOL    HW1 2282   0.592   0.153   4.909
  513SOL    HW2 2283   0.467   0.239   4.907
  514SOL     OW 2284   0.867   0.464   4.365
  514SOL    HW1 2285   0.820   0.517   4.301
  514SOL    HW2 2286   0.890   0.384   4.318
  515SOL     OW 2287   0.979   0.061   4.487
  515SOL    HW1 2288   0.914   0.057   4.417
  515SOL    HW2 2289   0.987   5.270   4.517
  516SOL     OW 2290   1.438   1.162   4.581
  516SOL    HW1 2291   1.368   1.097   4.580
  516SOL    HW2 2292   1.463   1.173   4.489
  517SOL     OW 2293   1.466   0.607   4.700
  517SOL    HW1 2294   1.416   0.526   4.703
  517SOL    HW2 2295   1.526   0.601   4.774
  518SOL     OW 2296   1.844   0.816   4.107
  518SOL    HW1 2297   1.901   0.765   4.165
  518SOL    HW2 2298   1.817   0.753   4.040
  519SOL     OW 2299   0.491   1.419   3.881
  519SOL    HW1 2300   0.416   1.391   3.933
  519SOL    HW2 2301   0.477   1.380   3.795
  520SOL     OW 2302   1.670   1.263   4.369
  520SOL    HW1 2303   1.765   1.265   4.383
  520SOL    HW2 2304   1.641   1.352   4.391
  521SOL     OW 2305   1.394   0.572   3.795
  521SOL    HW1 2306   1.333   0.552   3.866
  521SOL    HW2 2307   1.479   0.543   3.828
  522SOL     OW 2308   0.521   0.265   4.044
  522SOL    HW1 2309   0.570   0.217   3.976
  522SOL    HW2 2310   0.501   0.350   4.004
  523SOL     OW 2311   1.752   1.240   5.296
  523SOL    HW1 2312   1.840   1.202   5.290
  523SOL    HW2 2313   1.768   1.330   5.325
  524SOL     OW 2314   1.058   1.353   5.057
  524SOL    HW1 2315   0.983   1.322   5.108
  524SOL    HW2 2316   1.134   1.312   5.098
  525SOL     OW 2317   1.608   1.625   5.378
  525SOL    HW1 2318   1.601   1.660   5.289
  525SOL    HW2 2319   1.691   1.578   5.380
  526SOL     OW 2320   1.129   1.204   4.829
  526SOL    HW1 2321   1.071   1.243   4.894
  526SOL    HW2 2322   1.098   1.237   4.745
  527SOL     OW 2323   1.627   1.097   4.801
  527SOL    HW1 2324   1.622   1.160   4.874
  527SOL    HW2 2325   1.549   1.115   4.749
  528SOL     OW 2326   0.905   0.107   5.112
  528SOL    HW1 2327   0.936   0.073   5.028
  528SOL    HW2 2328   0.982   0.150   5.150
  529SOL     OW 2329   0.984   1.115   5.447
  529SOL    HW1 2330   0.892   1.131   5.468
  529SOL    HW2 2331   0.983   1.037   5.391
  530SOL     OW 2332   0.708   1.060   4.096
  530SOL    HW1 2333   0.696   1.044   4.190
  530SOL    HW2 2334   0.784   1.007   4.072
  531SOL     OW 2335   0.420   0.821   4.977
  531SOL    HW1 2336   0.490   0.827   5.043
  531SOL    HW2 2337   0.386   0.732   4.986
  532SOL     OW 2338   1.266   0.378   4.997
  532SOL    HW1 2339   1.299   0.455   5.044
  532SOL    HW2 2340   1.176   0.401   4.975
  533SOL     OW 2341   0.102   1.623   5.090
  533SOL    HW1 2342   0.081   1.631   4.997
  533SOL    HW2 2343   0.188   1.582   5.092
  534SOL     OW 2344   0.342   1.107   4.211
  534SOL    HW1 2345   0.350   1.187   4.158
  534SOL    HW2 2346   0.350   1.035   4.148
  535SOL     OW 2347   0.555   0.536   4.583
  535SOL    HW1 2348   0.569   0.595   4.509
  535SOL    HW2 2349   0.620   0.562   4.648
  536SOL     OW 2350   1.248   1.349   4.113
  536SOL    HW1 2351   1.304   1.420   4.144
  536SOL    HW2 2352   1.161   1.370   4.147
  537SOL     OW 2353   1.282   1.458   4.872
  537SOL    HW1 2354   1.339   1.462   4.949
  537SOL    HW2 2355   1.227   1.381   4.886
  538SOL     OW 2356   1.581   0.622   4.204
  538SOL    HW1 2357   1.534   0.675   4.268
  538SOL    HW2 2358   1.627   0.685   4.148
  539SOL     OW 2359   0.352   1.520   5.034
  539SOL    HW1 2360   0.341   1.476   4.949
  539SOL    HW2 2361   0.446   1.537   5.040
  540SOL     OW 2362   0.416   0.740   5.327
  540SOL    HW1 2363   0.474   0.789   5.268
  540SOL    HW2 2364   0.461   0.658   5.343
  541SOL     OW 2365   1.602   0.779   5.406
  541SOL    HW1 2366   1.516   0.820   5.400
  541SOL    HW2 2367   1.655   0.821   5.338
  542SOL     OW 2368   1.047   0.118   5.507
  542SOL    HW1 2369   1.074   0.197   5.461
  542SOL    HW2 2370   1.052   0.049   5.442
  543SOL     OW 2371   0.483   0.059   5.461
  543SOL    HW1 2372   0.424   5.292   5.426
  543SOL    HW2 2373   0.426   0.134   5.478
  544SOL     OW 2374   0.586   0.874   4.756
  544SOL    HW1 2375   0.618   0.964   4.756
  544SOL    HW2 2376   0.529   0.870   4.833
  545SOL     OW 2377   1.356   0.859   4.752
  545SOL    HW1 2378   1.273   0.848   4.707
  545SOL    HW2 2379   1.398   0.773   4.746
  546SOL     OW 2380   1.204   0.528   3.990
  546SOL    HW1 2381   1.210   0.448   4.042
  546SOL    HW2 2382   1.162   0.591   4.048
  547SOL     OW 2383   0.304   0.205   4.970
  547SOL    HW1 2384   0.262   0.237   5.050
  547SOL    HW2 2385   0.295   0.110   4.974
  548SOL     OW 2386   0.066   1.317   5.004
  548SOL    HW1 2387   0.091   1.259   5.075
  548SOL    HW2 2388   5.296   1.371   5.040
  549SOL     OW 2389   0.725   0.632   4.783
  549SOL    HW1 2390   0.800   0.615   4.725
  549SOL    HW2 2391   0.697   0.721   4.761
  550SOL     OW 2392   1.735   0.959   5.578
  550SOL    HW1 2393   1.690   0.897   5.521
  550SOL    HW2 2394   1.675   0.974   5.651
  551SOL     OW 2395   0.319   0.068   4.380
  551SOL    HW1 2396   0.299   0.161   4.386
  551SOL    HW2 2397   0.326   0.038   4.471
  552SOL     OW 2398   1.613   0.376   4.087
  552SOL    HW1 2399   1.646   0.312   4.150
  552SOL    HW2 2400   1.593   0.453   4.140
  553SOL     OW 2401   1.028   0.759   4.684
  553SOL    HW1 2402   1.024   0.777   4.778
  553SOL    HW2 2403   1.001   0.668   4.675
  554SOL     OW 2404   0.981   1.565   5.442
  554SOL    HW1 2405   0.967   1.610   5.359
  554SOL    HW2 2406   1.026   1.484   5.418
  555SOL     OW 2407   1.854   1.505   5.329
  555SOL    HW1 2408   1.873   1.530   5.239
  555SOL    HW2 2409   1.935   1.522   5.377
  556SOL     OW 2410   0.354   0.917   5.531
  556SOL    HW1 2411   0.435   0.938   5.578
  556SOL    HW2 2412   0.381   0.852   5.465
  557SOL     OW 2413   1.525   0.271   3.850
  557SOL    HW1 2414   1.460   0.208   3.882
  557SOL    HW2 2415   1.562   0.310   3.929
  558SOL     OW 2416   1.290   0.826   3.755
  558SOL    HW1 2417   1.333   0.741   3.758
  558SOL    HW2 2418   1.322   0.865   3.673
  559SOL     OW 2419   1.067   1.336   4.578
  559SOL    HW1 2420   1.070   1.264   4.515
  559SOL    HW2 2421   1.127   1.401   4.544
  560SOL     OW 2422   0.314   0.810   4.674
  560SOL    HW1 2423   0.408   0.828   4.670
  560SOL    HW2 2424   0.308   0.719   4.704
  561SOL     OW 2425   0.336   0.527   4.739
  561SOL    HW1 2426   0.299   0.440   4.724
  561SOL    HW2 2427   0.411   0.531   4.680
  562SOL     OW 2428   1.135   0.377   5.413
  562SOL    HW1 2429   1.087   0.432   5.476
  562SOL    HW2 2430   1.222   0.417   5.409
  563SOL     OW 2431   1.133   0.223   5.190
  563SOL    HW1 2432   1.137   0.282   5.266
  563SOL    HW2 2433   1.188   0.264   5.124
  564SOL     OW 2434   0.002   1.329   3.934
  564SOL    HW1 2435   5.229   1.317   3.873
  564SOL    HW2 2436   0.012   1.243   3.976
  565SOL     OW 2437   0.094   1.781   4.676
  565SOL    HW1 2438   0.060   1.712   4.619
  565SOL    HW2 2439   0.181   1.800   4.641
  566SOL     OW 2440   0.505   1.574   4.632
  566SOL    HW1 2441   0.572   1.639   4.652
  566SOL    HW2 2442   0.548   1.513   4.572
  567SOL     OW 2443   0.982   0.791   4.950
  567SOL    HW1 2444   1.038   0.769   5.024
  567SOL    HW2 2445   0.897   0.754   4.973
  568SOL     OW 2446   0.036   0.569   4.844
  568SOL    HW1 2447   0.117   0.537   4.804
  568SOL    HW2 2448   0.037   0.533   4.933
  569SOL     OW 2449   0.166   0.517   5.441
  569SOL    HW1 2450   0.251   0.495   5.401
  569SOL    HW2 2451   0.137   0.595   5.395
  570SOL     OW 2452   1.377   0.938   5.382
  570SOL    HW1 2453   1.399   1.031   5.380
  570SOL    HW2 2454   1.375   0.912   5.290
  571SOL     OW 2455   0.814   0.572   4.087
  571SOL    HW1 2456   0.819   0.498   4.027
  571SOL    HW2 2457   0.740   0.624   4.056
  572SOL     OW 2458   1.642   0.601   4.909
  572SOL    HW1 2459   1.631   0.542   4.983
  572SOL    HW2 2460   1.729   0.581   4.875
  573SOL     OW 2461   0.256   1.556   5.458
  573SOL    HW1 2462   0.234   1.619   5.527
  573SOL    HW2 2463   0.250   1.470   5.502
  574SOL     OW 2464   0.700   0.452   4.984
  574SOL    HW1 2465   0.649   0.378   4.950
  574SOL    HW2 2466   0.699   0.516   4.913
  575SOL     OW 2467   0.927   1.679   5.192
  575SOL    HW1 2468   0.901   1.643   5.107
  575SOL    HW2 2469   0.922   1.774   5.181
  576SOL     OW 2470   0.463   0.492   3.903
  576SOL    HW1 2471   0.526   0.560   3.927
  576SOL    HW2 2472   0.380   0.539   3.894
  577SOL     OW 2473   0.147   1.137   5.195
  577SOL    HW1 2474   0.144   1.089   5.278
  577SOL    HW2 2475   0.159   1.069   5.128
  578SOL     OW 2476   1.324   1.046   4.947
  578SOL    HW1 2477   1.348   0.983   4.879
  578SOL    HW2 2478   1.255   1.099   4.907
  579SOL     OW 2479   1.312   0.857   4.030
  579SOL    HW1 2480   1.237   0.826   4.080
  579SOL    HW2 2481   1.287   0.843   3.938
  580SOL     OW 2482   1.764   1.743   4.872
  580SOL    HW1 2483   1.829   1.772   4.808
  580SOL    HW2 2484   1.746   1.652   4.849
  581SOL     OW 2485   1.241   1.733   4.835
  581SOL    HW1 2486   1.324   1.755   4.791
  581SOL    HW2 2487   1.248   1.639   4.854
  582SOL     OW 2488   0.082   1.214   4.751
  582SOL    HW1 2489   0.070   1.241   4.842
  582SOL    HW2 2490   5.293   1.204   4.717
  583SOL     OW 2491   0.678   1.667   5.455
  583SOL    HW1 2492   0.621   1.744   5.448
  583SOL    HW2 2493   0.743   1.679   5.386
  584SOL     OW 2494   1.711   0.150   4.225
  584SOL    HW1 2495   1.787   0.129   4.170
  584SOL    HW2 2496   1.705   0.076   4.286
  585SOL     OW 2497   1.390   1.568   4.210
  585SOL    HW1 2498   1.450   1.600   4.143
  585SOL    HW2 2499   1.342   1.645   4.238
  586SOL     OW 2500   0.146   1.798   5.566
  586SOL    HW1 2501   0.091   1.735   5.614
  586SOL    HW2 2502   0.193   1.845   5.635
  587SOL     OW 2503   1.277   0.926   4.395
  587SOL    HW1 2504   1.351   0.866   4.403
  587SOL    HW2 2505   1.311   0.998   4.342
  588SOL     OW 2506   0.813   1.273   5.153
  588SOL    HW1 2507   0.784   1.313   5.236
  588SOL    HW2 2508   0.744   1.295   5.091
  589SOL     OW 2509   0.672   1.620   3.879
  589SOL    HW1 2510   0.683   1.634   3.784
  589SOL    HW2 2511   0.617   1.543   3.886
  590SOL     OW 2512   1.624   1.726   5.115
  590SOL    HW1 2513   1.673   1.733   5.033
  590SOL    HW2 2514   1.611   1.817   5.143
  591SOL     OW 2515   1.846   0.156   4.681
  591SOL    HW1 2516   1.843   0.060   4.673
  591SOL    HW2 2517   1.760   0.185   4.651
  592SOL     OW 2518   0.270   0.329   4.442
  592SOL    HW1 2519   0.183   0.366   4.427
  592SOL    HW2 2520   0.274   0.314   4.536
  593SOL     OW 2521   1.207   1.605   3.756
  593SOL    HW1 2522   1.198   1.514   3.782
  593SOL    HW2 2523   1.142   1.617   3.687
  594SOL     OW 2524   0.824   1.006   5.097
  594SOL    HW1 2525   0.868   1.001   5.012
  594SOL    HW2 2526   0.823   1.099   5.118
  595SOL     OW 2527   0.915   0.910   4.014
  595SOL    HW1 2528   0.976   0.942   3.948
  595SOL    HW2 2529   0.963   0.841   4.060
  596SOL     OW 2530   1.491   1.626   3.766
  596SOL    HW1 2531   1.397   1.618   3.752
  596SOL    HW2 2532   1.528   1.632   3.679
  597SOL     OW 2533   0.367   1.304   5.217
  597SOL    HW1 2534   0.359   1.378   5.157
  597SOL    HW2 2535   0.291   1.249   5.197
  598SOL     OW 2536   1.609   1.283   5.004
  598SOL    HW1 2537   1.672   1.272   5.076
  598SOL    HW2 2538   1.550   1.352   5.033
  599SOL     OW 2539   1.053   1.107   4.431
  599SOL    HW1 2540   0.983   1.056   4.470
  599SOL    HW2 2541   1.117   1.042   4.401
  600SOL     OW 2542   1.019   0.243   4.693
  600SOL    HW1 2543   0.999   0.198   4.611
  600SOL    HW2 2544   1.012   0.176   4.760
  601SOL     OW 2545   0.602   1.487   4.205
  601SOL    HW1 2546   0.648   1.439   4.136
  601SOL    HW2 2547   0.534   1.536   4.158
  602SOL     OW 2548   1.725   0.386   5.102
  602SOL    HW1 2549   1.795   0.451   5.101
  602SOL    HW2 2550   1.757   0.317   5.044
  603SOL     OW 2551   0.261   1.348   4.017
  603SOL    HW1 2552   0.168   1.350   3.994
  603SOL    HW2 2553   0.264   1.385   4.105
  604SOL     OW 2554   0.117   1.015   5.440
  604SOL    HW1 2555   0.046   0.983   5.496
  604SOL    HW2 2556   0.197   0.985   5.484
  605SOL     OW 2557   0.675   0.217   5.215
  605SOL    HW1 2558   0.758   0.199   5.170
  605SOL    HW2 2559   0.700   0.262   5.295
  606SOL     OW 2560   0.079   0.334   3.760
  606SOL    HW1 2561   5.286   0.312   3.752
  606SOL    HW2 2562   0.092   0.404   3.696
  607SOL     OW 2563   1.429   0.858   5.124
  607SOL    HW1 2564   1.380   0.919   5.069
  607SOL    HW2 2565   1.518   0.861   5.090
  608SOL     OW 2566   0.084   0.142   4.017
  608SOL    HW1 2567   0.078   0.236   3.999
  608SOL    HW2 2568   0.171   0.117   3.986
  609SOL     OW 2569   1.179   1.339   3.841
  609SOL    HW1 2570   1.088   1.308   3.844
  609SOL    HW2 2571   1.207   1.339   3.933
  610SOL     OW 2572   0.620   0.831   5.160
  610SOL    HW1 2573   0.675   0.907   5.144
  610SOL    HW2 2574   0.681   0.758   5.167
  611SOL     OW 2575   1.485   1.778   4.705
  611SOL    HW1 2576   1.509   1.840   4.635
  611SOL    HW2 2577   1.568   1.761   4.750
  612SOL     OW 2578   0.713   0.573   5.427
  612SOL    HW1 2579   0.757   0.636   5.484
  612SOL    HW2 2580   0.743   0.488   5.457
  613SOL     OW 2581   1.472   1.199   5.355
  613SOL    HW1 2582   1.460   1.213   5.449
  613SOL    HW2 2583   1.566   1.215   5.340
  614SOL     OW 2584   0.377   1.743   5.288
  614SOL    HW1 2585   0.294   1.789   5.272
  614SOL    HW2 2586   0.351   1.663   5.333
  615SOL     OW 2587   1.668   0.881   4.979
  615SOL    HW1 2588   1.663   0.796   4.936
  615SOL    HW2 2589   1.659   0.945   4.908
  616SOL     OW 2590   1.220   0.318   4.189
  616SOL    HW1 2591   1.283   0.246   4.183
  616SOL    HW2 2592   1.250   0.370   4.263
  617SOL     OW 2593   0.589   0.737   4.394
  617SOL    HW1 2594   0.628   0.823   4.378
  617SOL    HW2 2595   0.521   0.730   4.327
  618SOL     OW 2596   1.766   0.362   5.373
  618SOL    HW1 2597   1.747   0.377   5.280
  618SOL    HW2 2598   1.694   0.306   5.403
  619SOL     OW 2599   1.745   0.934   5.236
  619SOL    HW1 2600   1.742   1.028   5.249
  619SOL    HW2 2601   1.730   0.922   5.142
  620SOL     OW 2602   0.862   1.367   3.759
  620SOL    HW1 2603   0.824   1.395   3.842
  620SOL    HW2 2604   0.880   1.448   3.712
  621SOL     OW 2605   0.664   1.793   4.666
  621SOL    HW1 2606   0.643   1.883   4.644
  621SOL    HW2 2607   0.759   1.788   4.660
  622SOL     OW 2608   0.868   0.967   4.578
  622SOL    HW1 2609   0.918   0.896   4.617
  622SOL    HW2 2610   0.833   1.016   4.652
  623SOL     OW 2611   1.077   0.987   3.812
  623SOL    HW1 2612   1.057   1.039   3.734
  623SOL    HW2 2613   1.153   0.934   3.787
  624SOL     OW 2614   1.853   1.555   4.569
  624SOL    HW1 2615   1.775   1.543   4.514
  624SOL    HW2 2616   1.843   1.490   4.639
  625SOL     OW 2617   0.226   1.304   5.585
  625SOL    HW1 2618   0.157   1.243   5.559
  625SOL    HW2 2619   0.215   1.315   5.679
  626SOL     OW 2620   0.088   1.217   4.378
  626SOL    HW1 2621   0.102   1.187   4.467
  626SOL    HW2 2622   0.176   1.217   4.339
  627SOL     OW 2623   0.682   1.403   5.353
  627SOL    HW1 2624   0.601   1.361   5.383
  627SOL    HW2 2625   0.678   1.492   5.389
  628SOL     OW 2626   1.812   0.176   4.956
  628SOL    HW1 2627   1.778   0.087   4.959
  628SOL    HW2 2628   1.833   0.190   4.863
  629SOL     OW 2629   0.433   0.436   4.246
  629SOL    HW1 2630   0.465   0.362   4.194
  629SOL    HW2 2631   0.387   0.396   4.319
  630SOL     OW 2632   1.703   1.486   4.816
  630SOL    HW1 2633   1.620   1.464   4.772
  630SOL    HW2 2634   1.713   1.418   4.883
  631SOL     OW 2635   0.338   0.562   5.013
  631SOL    HW1 2636   0.394   0.504   5.064
  631SOL    HW2 2637   0.351   0.534   4.922
  632SOL     OW 2638   0.829   1.577   4.401
  632SOL    HW1 2639   0.815   1.635   4.326
  632SOL    HW2 2640   0.753   1.520   4.403
  633SOL     OW 2641   1.428   0.219   4.840
  633SOL    HW1 2642   1.464   0.144   4.888
  633SOL    HW2 2643   1.379   0.268   4.906
  634SOL     OW 2644   1.002   0.020   4.864
  634SOL    HW1 2645   0.952   5.252   4.819
  634SOL    HW2 2646   1.088   5.281   4.878
  635SOL     OW 2647   0.772   1.333   4.040
  635SOL    HW1 2648   0.743   1.242   4.047
  635SOL    HW2 2649   0.854   1.335   4.090
  636SOL     OW 2650   0.623   1.555   5.012
  636SOL    HW1 2651   0.624   1.638   5.061
  636SOL    HW2 2652   0.710   1.550   4.972
  637SOL     OW 2653   1.353   0.037   3.886
  637SOL    HW1 2654   1.390   5.297   3.808
  637SOL    HW2 2655   1.276   5.284   3.907
  638SOL     OW 2656   1.300   0.464   4.408
  638SOL    HW1 2657   1.246   0.543   4.413
  638SOL    HW2 2658   1.294   0.424   4.494
  639SOL     OW 2659   1.594   0.215   4.606
  639SOL    HW1 2660   1.529   0.227   4.675
  639SOL    HW2 2661   1.587   0.294   4.552
  640SOL     OW 2662   0.048   1.068   4.014
  640SOL    HW1 2663   0.137   1.035   4.003
  640SOL    HW2 2664   5.300   0.994   4.050
  641SOL     OW 2665   0.886   1.653   4.065
  641SOL    HW1 2666   0.813   1.638   4.005
  641SOL    HW2 2667   0.859   1.728   4.118
  642SOL     OW 2668   0.232   0.632   5.704
  642SOL    HW1 2669   0.158   0.604   5.757
  642SOL    HW2 2670   0.212   0.601   5.615
  643SOL     OW 2671   0.233   0.281   6.576
  643SOL    HW1 2672   0.252   0.242   6.661
  643SOL    HW2 2673   0.153   0.238   6.547
  644SOL     OW 2674   5.299   0.407   6.252
  644SOL    HW1 2675   5.206   0.429   6.255
  644SOL    HW2 2676   0.001   0.316   6.219
  645SOL     OW 2677   0.575   1.286   6.770
  645SOL    HW1 2678   0.492   1.294   6.722
  645SOL    HW2 2679   0.591   1.374   6.804
  646SOL     OW 2680   1.563   1.512   6.293
  646SOL    HW1 2681   1.520   1.491   6.376
  646SOL    HW2 2682   1.491   1.516   6.229
  647SOL     OW 2683   1.131   0.698   6.286
  647SOL    HW1 2684   1.180   0.779   6.272
  647SOL    HW2 2685   1.084   0.712   6.368
  648SOL     OW 2686   1.767   0.605   5.814
  648SOL    HW1 2687   1.747   0.598   5.721
  648SOL    HW2 2688   1.732   0.525   5.853
  649SOL     OW 2689   0.754   1.140   6.626
  649SOL    HW1 2690   0.688   1.175   6.686
  649SOL    HW2 2691   0.790   1.217   6.583
  650SOL     OW 2692   0.865   0.778   7.406
  650SOL    HW1 2693   0.858   0.852   7.466
  650SOL    HW2 2694   0.892   0.816   7.322
  651SOL     OW 2695   0.685   1.001   6.232
  651SOL    HW1 2696   0.752   0.990   6.301
  651SOL    HW2 2697   0.618   1.055   6.274
  652SOL     OW 2698   0.710   1.151   7.400
  652SOL    HW1 2699   0.759   1.229   7.427
  652SOL    HW2 2700   0.629   1.185   7.362
  653SOL     OW 2701   0.358   1.404   6.646
  653SOL    HW1 2702   0.269   1.406   6.611
  653SOL    HW2 2703   0.407   1.466   6.591
  654SOL     OW 2704   1.461   1.500   6.942
  654SOL    HW1 2705   1.512   1.580   6.951
  654SOL    HW2 2706   1.397   1.504   7.013
  655SOL     OW 2707   0.450   0.399   7.076
  655SOL    HW1 2708   0.530   0.347   7.071
  655SOL    HW2 2709   0.379   0.335   7.081
  656SOL     OW 2710   1.610   0.451   6.324
  656SOL    HW1 2711   1.534   0.474   6.270
  656SOL    HW2 2712   1.627   0.530   6.375
  657SOL     OW 2713   0.233   1.714   6.063
  657SOL    HW1 2714   0.264   1.783   6.121
  657SOL    HW2 2715   0.295   1.711   5.991
  658SOL     OW 2716   1.136   1.341   7.276
  658SOL    HW1 2717   1.177   1.338   7.363
  658SOL    HW2 2718   1.085   1.261   7.271
  659SOL     OW 2719   0.221   1.445   6.126
  659SOL    HW1 2720   0.217   1.540   6.120
  659SOL    HW2 2721   0.151   1.422   6.186
  660SOL     OW 2722   0.250   1.077   6.460
  660SOL    HW1 2723   0.262   0.991   6.502
  660SOL    HW2 2724   0.198   1.127   6.523
  661SOL     OW 2725   0.612   1.790   7.017
  661SOL    HW1 2726   0.528   1.773   7.061
  661SOL    HW2 2727   0.633   1.881   7.041
  662SOL     OW 2728   0.581   0.984   5.722
  662SOL    HW1 2729   0.629   1.031   5.653
  662SOL    HW2 2730   0.623   1.014   5.803
  663SOL     OW 2731   1.586   0.136   7.042
  663SOL    HW1 2732   1.611   0.220   7.003
  663SOL    HW2 2733   1.582   0.153   7.136
  664SOL     OW 2734   0.124   0.636   6.163
  664SOL    HW1 2735   0.090   0.553   6.198
  664SOL    HW2 2736   0.098   0.701   6.228
  665SOL     OW 2737   1.842   1.758   5.921
  665SOL    HW1 2738   1.908   1.730   5.985
  665SOL    HW2 2739   1.865   1.849   5.901
  666SOL     OW 2740   0.038   1.599   5.719
  666SOL    HW1 2741   0.025   1.508   5.744
  666SOL    HW2 2742   5.282   1.649   5.778
  667SOL     OW 2743   1.689   0.918   6.228
  667SOL    HW1 2744   1.772   0.875   6.206
  667SOL    HW2 2745   1.667   0.969   6.150
  668SOL     OW 2746   1.646   1.106   6.015
  668SOL    HW1 2747   1.732   1.111   5.973
  668SOL    HW2 2748   1.652   1.168   6.088
  669SOL     OW 2749   0.131   0.749   7.172
  669SOL    HW1 2750   0.225   0.764   7.170
  669SOL    HW2 2751   0.093   0.836   7.189
  670SOL     OW 2752   0.616   1.386   6.320
  670SOL    HW1 2753   0.568   1.304   6.331
  670SOL    HW2 2754   0.598   1.413   6.230
  671SOL     OW 2755   1.288   1.238   7.009
  671SOL    HW1 2756   1.320   1.170   6.949
  671SOL    HW2 2757   1.346   1.232   7.085
  672SOL     OW 2758   0.816   0.029   6.115
  672SOL    HW1 2759   0.843   0.117   6.089
  672SOL    HW2 2760   0.720   0.031   6.107
  673SOL     OW 2761   0.174   0.943   6.865
  673SOL    HW1 2762   0.265   0.914   6.856
  673SOL    HW2 2763   0.134   0.925   6.780
  674SOL     OW 2764   1.531   0.994   5.785
  674SOL    HW1 2765   1.461   0.937   5.818
  674SOL    HW2 2766   1.573   1.029   5.864
  675SOL     OW 2767   1.185   1.807   7.209
  675SOL    HW1 2768   1.194   1.867   7.134
  675SOL    HW2 2769   1.202   1.720   7.173
  676SOL     OW 2770   0.328   0.275   7.389
  676SOL    HW1 2771   0.388   0.337   7.430
  676SOL    HW2 2772   0.246   0.284   7.438
  677SOL     OW 2773   1.467   1.419   6.537
  677SOL    HW1 2774   1.399   1.435   6.602
  677SOL    HW2 2775   1.454   1.328   6.510
  678SOL     OW 2776   1.657   1.742   6.164
  678SOL    HW1 2777   1.639   1.712   6.075
  678SOL    HW2 2778   1.633   1.668   6.220
  679SOL     OW 2779   0.594   0.720   5.852
  679SOL    HW1 2780   0.602   0.801   5.803
  679SOL    HW2 2781   0.530   0.739   5.920
  680SOL     OW 2782   1.278   0.348   6.517
  680SOL    HW1 2783   1.187   0.320   6.530
  680SOL    HW2 2784   1.328   0.298   6.581
  681SOL     OW 2785   1.580   1.670   5.895
  681SOL    HW1 2786   1.671   1.701   5.888
  681SOL    HW2 2787   1.553   1.654   5.805
  682SOL     OW 2788   0.794   0.618   7.036
  682SOL    HW1 2789   0.765   0.597   7.125
  682SOL    HW2 2790   0.752   0.552   6.981
  683SOL     OW 2791   1.394   0.475   7.264
  683SOL    HW1 2792   1.397   0.520   7.349
  683SOL    HW2 2793   1.458   0.404   7.273
  684SOL     OW 2794   0.954   0.887   7.168
  684SOL    HW1 2795   1.009   0.818   7.132
  684SOL    HW2 2796   0.906   0.922   7.093
  685SOL     OW 2797   0.993   0.417   6.821
  685SOL    HW1 2798   0.908   0.438   6.857
  685SOL    HW2 2799   0.974   0.369   6.740
  686SOL     OW 2800   1.051   0.698   6.012
  686SOL    HW1 2801   1.067   0.691   6.106
  686SOL    HW2 2802   0.968   0.652   5.999
  687SOL     OW 2803   0.070   0.788   6.397
  687SOL    HW1 2804   0.152   0.793   6.448
  687SOL    HW2 2805   0.066   0.873   6.352
  688SOL     OW 2806   0.128   1.885   7.171
  688SOL    HW1 2807   0.131   1.858   7.262
  688SOL    HW2 2808   0.060   1.831   7.131
  689SOL     OW 2809   0.875   0.366   5.774
  689SOL    HW1 2810   0.915   0.425   5.710
  689SOL    HW2 2811   0.931   0.289   5.774
  690SOL     OW 2812   1.708   0.574   7.415
  690SOL    HW1 2813   1.670   0.648   7.367
  690SOL    HW2 2814   1.737   0.514   7.347
  691SOL     OW 2815   1.377   1.142   6.127
  691SOL    HW1 2816   1.456   1.130   6.074
  691SOL    HW2 2817   1.325   1.204   6.077
  692SOL     OW 2818   0.536   0.203   6.468
  692SOL    HW1 2819   0.553   0.221   6.561
  692SOL    HW2 2820   0.549   0.287   6.425
  693SOL     OW 2821   1.004   1.443   6.057
  693SOL    HW1 2822   0.968   1.517   6.008
  693SOL    HW2 2823   0.986   1.465   6.149
  694SOL     OW 2824   0.357   1.803   6.456
  694SOL    HW1 2825   0.398   1.718   6.469
  694SOL    HW2 2826   0.423   1.866   6.487
  695SOL     OW 2827   1.799   1.056   6.455
  695SOL    HW1 2828   1.745   1.038   6.378
  695SOL    HW2 2829   1.737   1.061   6.527
  696SOL     OW 2830   1.228   1.539   7.099
  696SOL    HW1 2831   1.214   1.466   7.159
  696SOL    HW2 2832   1.163   1.525   7.030
  697SOL     OW 2833   0.316   0.952   5.834
  697SOL    HW1 2834   0.397   0.977   5.791
  697SOL    HW2 2835   0.294   0.866   5.799
  698SOL     OW 2836   1.479   0.744   6.312
  698SOL    HW1 2837   1.472   0.702   6.398
  698SOL    HW2 2838   1.557   0.800   6.319
  699SOL     OW 2839   0.465   1.263   7.323
  699SOL    HW1 2840   0.438   1.270   7.232
  699SOL    HW2 2841   0.382   1.264   7.372
  700SOL     OW 2842   1.122   1.778   5.817
  700SOL    HW1 2843   1.049   1.736   5.862
  700SOL    HW2 2844   1.146   1.716   5.747
  701SOL     OW 2845   0.198   0.280   7.080
  701SOL    HW1 2846   0.160   0.367   7.072
  701SOL    HW2 2847   0.207   0.266   7.174
  702SOL     OW 2848   1.628   1.380   5.675
  702SOL    HW1 2849   1.587   1.465   5.659
  702SOL    HW2 2850   1.559   1.316   5.654
  703SOL     OW 2851   0.471   1.734   5.905
  703SOL    HW1 2852   0.514   1.792   5.968
  703SOL    HW2 2853   0.542   1.703   5.849
  704SOL     OW 2854   1.407   0.101   6.017
  704SOL    HW1 2855   1.400   0.081   5.924
  704SOL    HW2 2856   1.500   0.122   6.030
  705SOL     OW 2857   0.277   1.801   6.797
  705SOL    HW1 2858   0.307   1.723   6.844
  705SOL    HW2 2859   0.225   1.768   6.724
  706SOL     OW 2860   0.939   1.699   6.485
  706SOL    HW1 2861   1.017   1.648   6.505
  706SOL    HW2 2862   0.895   1.649   6.416
  707SOL     OW 2863   0.385   0.696   6.064
  707SOL    HW1 2864   0.415   0.605   6.073
  707SOL    HW2 2865   0.292   0.693   6.086
  708SOL     OW 2866   1.538   0.227   7.310
  708SOL    HW1 2867   1.545   0.245   7.404
  708SOL    HW2 2868   1.462   0.170   7.302
  709SOL     OW 2869   0.620   0.132   5.693
  709SOL    HW1 2870   0.686   0.067   5.719
  709SOL    HW2 2871   0.574   0.092   5.620
  710SOL     OW 2872   0.779   0.312   7.350
  710SOL    HW1 2873   0.842   0.240   7.351
  710SOL    HW2 2874   0.742   0.313   7.438
  711SOL     OW 2875   0.877   1.522   6.779
  711SOL    HW1 2876   0.861   1.485   6.692
  711SOL    HW2 2877   0.947   1.467   6.815
  712SOL     OW 2878   1.341   0.589   7.018
  712SOL    HW1 2879   1.371   0.558   7.103
  712SOL    HW2 2880   1.377   0.677   7.010
  713SOL     OW 2881   0.816   1.393   6.527
  713SOL    HW1 2882   0.901   1.382   6.483
  713SOL    HW2 2883   0.752   1.396   6.456
  714SOL     OW 2884   0.928   0.510   6.489
  714SOL    HW1 2885   0.903   0.503   6.397
  714SOL    HW2 2886   0.958   0.423   6.514
  715SOL     OW 2887   0.548   0.058   6.090
  715SOL    HW1 2888   0.469   0.059   6.145
  715SOL    HW2 2889   0.535   0.129   6.027
  716SOL     OW 2890   1.428   1.198   5.626
  716SOL    HW1 2891   1.458   1.123   5.677
  716SOL    HW2 2892   1.343   1.220   5.664
  717SOL     OW 2893   0.316   0.066   5.771
  717SOL    HW1 2894   0.383   0.132   5.754
  717SOL    HW2 2895   0.365   5.284   5.777
  718SOL     OW 2896   0.940   0.265   6.049
  718SOL    HW1 2897   0.913   0.300   5.964
  718SOL    HW2 2898   1.035   0.275   6.049
  719SOL     OW 2899   1.081   0.682   7.045
  719SOL    HW1 2900   1.013   0.614   7.050
  719SOL    HW2 2901   1.163   0.633   7.038
  720SOL     OW 2902   1.223   1.570   6.380
  720SOL    HW1 2903   1.238   1.637   6.313
  720SOL    HW2 2904   1.291   1.585   6.445
  721SOL     OW 2905   0.468   1.151   6.316
  721SOL    HW1 2906   0.399   1.130   6.380
  721SOL    HW2 2907   0.428   1.133   6.231
  722SOL     OW 2908   1.268   1.793   6.195
  722SOL    HW1 2909   1.315   1.855   6.138
  722SOL    HW2 2910   1.201   1.847   6.238
  723SOL     OW 2911   1.025   0.545   5.609
  723SOL    HW1 2912   0.983   0.630   5.591
  723SOL    HW2 2913   1.089   0.565   5.678
  724SOL     OW 2914   0.100   0.529   6.999
  724SOL    HW1 2915   0.180   0.549   6.950
  724SOL    HW2 2916   0.078   0.611   7.043
  725SOL     OW 2917   0.560   0.239   6.744
  725SOL    HW1 2918   0.592   0.153   6.771
  725SOL    HW2 2919   0.467   0.239   6.768
  726SOL     OW 2920   0.867   0.464   6.227
  726SOL    HW1 2921   0.820   0.517   6.163
  726SOL    HW2 2922   0.890   0.384   6.180
  727SOL     OW 2923   0.979   0.061   6.349
  727SOL    HW1 2924   0.914   0.057   6.279
  727SOL    HW2 2925   0.987   5.270   6.379
  728SOL     OW 2926   1.438   1.162   6.443
  728SOL    HW1 2927   1.368   1.097   6.442
  728SOL    HW2 2928   1.463   1.173   6.351
  729SOL     OW 2929   1.466   0.607   6.562
  729SOL    HW1 2930   1.416   0.526   6.565
  729SOL    HW2 2931   1.526   0.601   6.636
  730SOL     OW 2932   1.844   0.816   5.969
  730SOL    HW1 2933   1.901   0.765   6.027
  730SOL    HW2 2934   1.817   0.753   5.902
  731SOL     OW 2935   0.491   1.419   5.743
  731SOL    HW1 2936   0.416   1.391   5.795
  731SOL    HW2 2937   0.477   1.380   5.657
  732SOL     OW 2938   1.671   1.264   6.232
  732SOL    HW1 2939   1.766   1.266   6.245
  732SOL    HW2 2940   1.641   1.352   6.252
  733SOL     OW 2941   1.394   0.572   5.657
  733SOL    HW1 2942   1.333   0.552   5.728
  733SOL    HW2 2943   1.479   0.543   5.690
  734SOL     OW 2944   0.521   0.265   5.906
  734SOL    HW1 2945   0.570   0.217   5.838
  734SOL    HW2 2946   0.501   0.350   5.866
  735SOL     OW 2947   1.752   1.240   7.157
  735SOL    HW1 2948   1.839   1.201   7.152
  735SOL    HW2 2949   1.767   1.329   7.187
  736SOL     OW 2950   1.058   1.353   6.918
  736SOL    HW1 2951   0.983   1.322   6.970
  736SOL    HW2 2952   1.134   1.312   6.960
  737SOL     OW 2953   1.608   1.626   7.239
  737SOL    HW1 2954   1.602   1.660   7.150
  737SOL    HW2 2955   1.691   1.577   7.241
  738SOL     OW 2956   1.129   1.204   6.691
  738SOL    HW1 2957   1.071   1.242   6.756
  738SOL    HW2 2958   1.098   1.237   6.607
  739SOL     OW 2959   1.627   1.098   6.663
  739SOL    HW1 2960   1.622   1.160   6.736
  739SOL    HW2 2961   1.549   1.115   6.611
  740SOL     OW 2962   0.905   0.107   6.974
  740SOL    HW1 2963   0.935   0.073   6.890
  740SOL    HW2 2964   0.982   0.150   7.012
  741SOL     OW 2965   0.984   1.114   7.311
  741SOL    HW1 2966   0.892   1.132   7.329
  741SOL    HW2 2967   0.983   1.037   7.254
  742SOL     OW 2968   0.708   1.060   5.958
  742SOL    HW1 2969   0.696   1.044   6.052
  742SOL    HW2 2970   0.784   1.007   5.934
  743SOL     OW 2971   0.420   0.821   6.839
  743SOL    HW1 2972   0.490   0.827   6.905
  743SOL    HW2 2973   0.386   0.732   6.848
  744SOL     OW 2974   1.266   0.378   6.860
  744SOL    HW1 2975   1.299   0.455   6.906
  744SOL    HW2 2976   1.176   0.401   6.837
  745SOL     OW 2977   0.103   1.623   6.952
  745SOL    HW1 2978   0.081   1.631   6.859
  745SOL    HW2 2979   0.189   1.582   6.954
  746SOL     OW 2980   0.342   1.107   6.073
  746SOL    HW1 2981   0.351   1.187   6.020
  746SOL    HW2 2982   0.350   1.036   6.010
  747SOL     OW 2983   0.555   0.536   6.446
  747SOL    HW1 2984   0.569   0.595   6.371
  747SOL    HW2 2985   0.620   0.562   6.510
  748SOL     OW 2986   1.248   1.349   5.975
  748SOL    HW1 2987   1.304   1.420   6.006
  748SOL    HW2 2988   1.161   1.370   6.009
  749SOL     OW 2989   1.283   1.458   6.733
  749SOL    HW1 2990   1.338   1.461   6.811
  749SOL    HW2 2991   1.227   1.381   6.747
  750SOL     OW 2992   1.581   0.622   6.066
  750SOL    HW1 2993   1.534   0.676   6.129
  750SOL    HW2 2994   1.627   0.685   6.010
  751SOL     OW 2995   0.352   1.519   6.896
  751SOL    HW1 2996   0.341   1.476   6.811
  751SOL    HW2 2997   0.446   1.537   6.902
  752SOL     OW 2998   0.416   0.740   7.189
  752SOL    HW1 2999   0.474   0.789   7.130
  752SOL    HW2 3000   0.462   0.658   7.205
  753SOL     OW 3001   1.602   0.778   7.269
  753SOL    HW1 3002   1.516   0.820   7.262
  753SOL    HW2 3003   1.655   0.821   7.201
  754SOL     OW 3004   1.045   0.117   7.371
  754SOL    HW1 3005   1.075   0.196   7.327
  754SOL    HW2 3006   1.053   0.048   7.305
  755SOL     OW 3007   0.482   0.059   7.323
  755SOL    HW1 3008   0.424   5.292   7.288
  755SOL    HW2 3009   0.425   0.134   7.340
  756SOL     OW 3010   0.586   0.874   6.618
  756SOL    HW1 3011   0.618   0.964   6.617
  756SOL    HW2 3012   0.529   0.870   6.695
  757SOL     OW 3013   1.356   0.859   6.615
  757SOL    HW1 3014   1.273   0.849   6.569
  757SOL    HW2 3015   1.398   0.773   6.608
  758SOL     OW 3016   1.204   0.528   5.852
  758SOL    HW1 3017   1.210   0.448   5.905
  758SOL    HW2 3018   1.162   0.591   5.910
  759SOL     OW 3019   0.304   0.205   6.832
  759SOL    HW1 3020   0.262   0.237   6.911
  759SOL    HW2 3021   0.295   0.110   6.836
  760SOL     OW 3022   0.066   1.317   6.866
  760SOL    HW1 3023   0.091   1.259   6.937
  760SOL    HW2 3024   5.295   1.371   6.902
  761SOL     OW 3025   0.726   0.632   6.646
  761SOL    HW1 3026   0.800   0.615   6.587
  761SOL    HW2 3027   0.697   0.721   6.623
  762SOL     OW 3028   1.736   0.960   7.439
  762SOL    HW1 3029   1.688   0.897   7.384
  762SOL    HW2 3030   1.678   0.975   7.514
  763SOL     OW 3031   0.319   0.068   6.242
  763SOL    HW1 3032   0.299   0.161   6.248
  763SOL    HW2 3033   0.326   0.038   6.333
  764SOL     OW 3034   1.613   0.376   5.949
  764SOL    HW1 3035   1.646   0.312   6.012
  764SOL    HW2 3036   1.593   0.453   6.002
  765SOL     OW 3037   1.028   0.759   6.546
  765SOL    HW1 3038   1.024   0.777   6.640
  765SOL    HW2 3039   1.001   0.668   6.537
  766SOL     OW 3040   0.981   1.565   7.303
  766SOL    HW1 3041   0.967   1.610   7.220
  766SOL    HW2 3042   1.026   1.484   7.279
  767SOL     OW 3043   1.854   1.505   7.191
  767SOL    HW1 3044   1.873   1.531   7.101
  767SOL    HW2 3045   1.935   1.522   7.239
  768SOL     OW 3046   0.354   0.914   7.395
  768SOL    HW1 3047   0.435   0.938   7.439
  768SOL    HW2 3048   0.380   0.852   7.327
  769SOL     OW 3049   1.525   0.271   5.712
  769SOL    HW1 3050   1.460   0.208   5.744
  769SOL    HW2 3051   1.562   0.310   5.791
  770SOL     OW 3052   1.290   0.826   5.617
  770SOL    HW1 3053   1.333   0.741   5.620
  770SOL    HW2 3054   1.322   0.865   5.535
  771SOL     OW 3055   1.067   1.336   6.441
  771SOL    HW1 3056   1.070   1.264   6.378
  771SOL    HW2 3057   1.127   1.401   6.406
  772SOL     OW 3058   0.314   0.810   6.536
  772SOL    HW1 3059   0.408   0.828   6.531
  772SOL    HW2 3060   0.308   0.719   6.566
  773SOL     OW 3061   0.336   0.527   6.601
  773SOL    HW1 3062   0.299   0.440   6.586
  773SOL    HW2 3063   0.411   0.532   6.542
  774SOL     OW 3064   1.135   0.377   7.275
  774SOL    HW1 3065   1.088   0.431   7.338
  774SOL    HW2 3066   1.223   0.416   7.270
  775SOL     OW 3067   1.133   0.222   7.052
  775SOL    HW1 3068   1.137   0.281   7.127
  775SOL    HW2 3069   1.188   0.264   6.986
  776SOL     OW 3070   0.002   1.329   5.796
  776SOL    HW1 3071   5.229   1.317   5.735
  776SOL    HW2 3072   0.012   1.243   5.838
  777SOL     OW 3073   0.094   1.781   6.538
  777SOL    HW1 3074   0.060   1.712   6.481
  777SOL    HW2 3075   0.181   1.801   6.503
  778SOL     OW 3076   0.505   1.574   6.494
  778SOL    HW1 3077   0.572   1.639   6.514
  778SOL    HW2 3078   0.548   1.513   6.434
  779SOL     OW 3079   0.982   0.791   6.812
  779SOL    HW1 3080   1.038   0.769   6.886
  779SOL    HW2 3081   0.897   0.754   6.835
  780SOL     OW 3082   0.036   0.569   6.706
  780SOL    HW1 3083   0.117   0.537   6.666
  780SOL    HW2 3084   0.037   0.532   6.795
  781SOL     OW 3085   0.170   0.515   7.300
  781SOL    HW1 3086   0.253   0.496   7.258
  781SOL    HW2 3087   0.138   0.594   7.256
  782SOL     OW 3088   1.377   0.938   7.245
  782SOL    HW1 3089   1.399   1.031   7.243
  782SOL    HW2 3090   1.374   0.912   7.152
  783SOL     OW 3091   0.814   0.572   5.949
  783SOL    HW1 3092   0.819   0.498   5.889
  783SOL    HW2 3093   0.740   0.625   5.918
  784SOL     OW 3094   1.642   0.601   6.771
  784SOL    HW1 3095   1.631   0.542   6.845
  784SOL    HW2 3096   1.729   0.581   6.737
  785SOL     OW 3097   0.255   1.556   7.321
  785SOL    HW1 3098   0.233   1.618   7.390
  785SOL    HW2 3099   0.250   1.470   7.363
  786SOL     OW 3100   0.699   0.452   6.846
  786SOL    HW1 3101   0.649   0.378   6.812
  786SOL    HW2 3102   0.698   0.516   6.775
  787SOL     OW 3103   0.928   1.679   7.054
  787SOL    HW1 3104   0.901   1.644   6.969
  787SOL    HW2 3105   0.922   1.774   7.043
  788SOL     OW 3106   0.463   0.492   5.765
  788SOL    HW1 3107   0.526   0.560   5.789
  788SOL    HW2 3108   0.380   0.539   5.756
  789SOL     OW 3109   0.148   1.137   7.057
  789SOL    HW1 3110   0.144   1.089   7.139
  789SOL    HW2 3111   0.159   1.069   6.990
  790SOL     OW 3112   1.325   1.046   6.809
  790SOL    HW1 3113   1.348   0.983   6.741
  790SOL    HW2 3114   1.255   1.099   6.769
  791SOL     OW 3115   1.312   0.856   5.892
  791SOL    HW1 3116   1.237   0.826   5.942
  791SOL    HW2 3117   1.287   0.843   5.800
  792SOL     OW 3118   1.773   1.743   6.737
  792SOL    HW1 3119   1.834   1.769   6.667
  792SOL    HW2 3120   1.748   1.653   6.715
  793SOL     OW 3121   1.241   1.733   6.698
  793SOL    HW1 3122   1.323   1.754   6.653
  793SOL    HW2 3123   1.248   1.639   6.716
  794SOL     OW 3124   0.082   1.214   6.614
  794SOL    HW1 3125   0.070   1.241   6.704
  794SOL    HW2 3126   5.293   1.204   6.579
  795SOL     OW 3127   0.677   1.666   7.316
  795SOL    HW1 3128   0.622   1.744   7.312
  795SOL    HW2 3129   0.743   1.679   7.248
  796SOL     OW 3130   1.711   0.150   6.087
  796SOL    HW1 3131   1.787   0.129   6.032
  796SOL    HW2 3132   1.705   0.076   6.147
  797SOL     OW 3133   1.391   1.568   6.072
  797SOL    HW1 3134   1.451   1.600   6.005
  797SOL    HW2 3135   1.342   1.645   6.100
  798SOL     OW 3136   0.142   1.799   7.429
  798SOL    HW1 3137   0.090   1.735   7.478
  798SOL    HW2 3138   0.196   1.842   7.495
  799SOL     OW 3139   1.277   0.926   6.257
  799SOL    HW1 3140   1.351   0.866   6.265
  799SOL    HW2 3141   1.311   0.998   6.204
  800SOL     OW 3142   0.813   1.273   7.015
  800SOL    HW1 3143   0.784   1.313   7.097
  800SOL    HW2 3144   0.744   1.295   6.953
  801SOL     OW 3145   0.672   1.620   5.741
  801SOL    HW1 3146   0.683   1.634   5.647
  801SOL    HW2 3147   0.617   1.542   5.748
  802SOL     OW 3148   1.625   1.727   6.977
  802SOL    HW1 3149   1.675   1.733   6.895
  802SOL    HW2 3150   1.611   1.817   7.004
  803SOL     OW 3151   1.846   0.156   6.543
  803SOL    HW1 3152   1.843   0.060   6.535
  803SOL    HW2 3153   1.760   0.185   6.513
  804SOL     OW 3154   0.270   0.329   6.304
  804SOL    HW1 3155   0.183   0.366   6.289
  804SOL    HW2 3156   0.274   0.314   6.398
  805SOL     OW 3157   1.207   1.605   5.618
  805SOL    HW1 3158   1.197   1.514   5.644
  805SOL    HW2 3159   1.142   1.618   5.549
  806SOL     OW 3160   0.824   1.006   6.959
  806SOL    HW1 3161   0.868   1.001   6.874
  806SOL    HW2 3162   0.823   1.099   6.980
  807SOL     OW 3163   0.915   0.910   5.876
  807SOL    HW1 3164   0.976   0.942   5.810
  807SOL    HW2 3165   0.964   0.841   5.922
  808SOL     OW 3166   1.491   1.625   5.629
  808SOL    HW1 3167   1.397   1.619   5.614
  808SOL    HW2 3168   1.529   1.632   5.541
  809SOL     OW 3169   0.367   1.304   7.079
  809SOL    HW1 3170   0.359   1.378   7.019
  809SOL    HW2 3171   0.291   1.249   7.059
  810SOL     OW 3172   1.610   1.283   6.866
  810SOL    HW1 3173   1.670   1.271   6.940
  810SOL    HW2 3174   1.550   1.351   6.895
  811SOL     OW 3175   1.053   1.108   6.293
  811SOL    HW1 3176   0.983   1.056   6.332
  811SOL    HW2 3177   1.117   1.042   6.263
  812SOL     OW 3178   1.019   0.243   6.555
  812SOL    HW1 3179   0.999   0.198   6.473
  812SOL    HW2 3180   1.012   0.176   6.622
  813SOL     OW 3181   0.602   1.487   6.067
  813SOL    HW1 3182   0.648   1.439   5.998
  813SOL    HW2 3183   0.534   1.537   6.020
  814SOL     OW 3184   1.726   0.386   6.965
  814SOL    HW1 3185   1.795   0.451   6.963
  814SOL    HW2 3186   1.757   0.316   6.906
  815SOL     OW 3187   0.261   1.348   5.879
  815SOL    HW1 3188   0.168   1.350   5.856
  815SOL    HW2 3189   0.264   1.385   5.967
  816SOL     OW 3190   0.117   1.014   7.301
  816SOL    HW1 3191   0.045   0.986   7.358
  816SOL    HW2 3192   0.196   0.984   7.346
  817SOL     OW 3193   0.675   0.217   7.078
  817SOL    HW1 3194   0.758   0.200   7.033
  817SOL    HW2 3195   0.700   0.262   7.159
  818SOL     OW 3196   0.079   0.334   5.622
  818SOL    HW1 3197   5.286   0.312   5.614
  818SOL    HW2 3198   0.092   0.404   5.558
  819SOL     OW 3199   1.429   0.858   6.986
  819SOL    HW1 3200   1.380   0.919   6.931
  819SOL    HW2 3201   1.518   0.861   6.952
  820SOL     OW 3202   0.084   0.142   5.879
  820SOL    HW1 3203   0.078   0.236   5.861
  820SOL    HW2 3204   0.171   0.117   5.848
  821SOL     OW 3205   1.179   1.338   5.703
  821SOL    HW1 3206   1.088   1.309   5.706
  821SOL    HW2 3207   1.207   1.339   5.795
  822SOL     OW 3208   0.620   0.831   7.022
  822SOL    HW1 3209   0.675   0.907   7.005
  822SOL    HW2 3210   0.681   0.758   7.029
  823SOL     OW 3211   1.483   1.777   6.566
  823SOL    HW1 3212   1.506   1.838   6.495
  823SOL    HW2 3213   1.567   1.758   6.608
  824SOL     OW 3214   0.712   0.574   7.289
  824SOL    HW1 3215   0.756   0.636   7.346
  824SOL    HW2 3216   0.742   0.488   7.318
  825SOL     OW 3217   1.472   1.199   7.218
  825SOL    HW1 3218   1.459   1.213   7.312
  825SOL    HW2 3219   1.565   1.215   7.203
  826SOL     OW 3220   0.376   1.743   7.150
  826SOL    HW1 3221   0.294   1.789   7.134
  826SOL    HW2 3222   0.350   1.663   7.195
  827SOL     OW 3223   1.668   0.881   6.841
  827SOL    HW1 3224   1.663   0.796   6.798
  827SOL    HW2 3225   1.659   0.945   6.770
  828SOL     OW 3226   1.220   0.318   6.051
  828SOL    HW1 3227   1.283   0.246   6.045
  828SOL    HW2 3228   1.250   0.370   6.125
  829SOL     OW 3229   0.589   0.737   6.256
  829SOL    HW1 3230   0.628   0.823   6.240
  829SOL    HW2 3231   0.520   0.730   6.189
  830SOL     OW 3232   1.765   0.361   7.236
  830SOL    HW1 3233   1.747   0.377   7.144
  830SOL    HW2 3234   1.693   0.306   7.266
  831SOL     OW 3235   1.745   0.933   7.098
  831SOL    HW1 3236   1.741   1.028   7.112
  831SOL    HW2 3237   1.730   0.922   7.004
  832SOL     OW 3238   0.862   1.366   5.621
  832SOL    HW1 3239   0.824   1.396   5.704
  832SOL    HW2 3240   0.881   1.447   5.573
  833SOL     OW 3241   0.664   1.793   6.528
  833SOL    HW1 3242   0.643   1.883   6.506
  833SOL    HW2 3243   0.759   1.788   6.522
  834SOL     OW 3244   0.868   0.967   6.440
  834SOL    HW1 3245   0.918   0.896   6.479
  834SOL    HW2 3246   0.833   1.016   6.514
  835SOL     OW 3247   1.077   0.987   5.674
  835SOL    HW1 3248   1.057   1.039   5.596
  835SOL    HW2 3249   1.153   0.934   5.649
  836SOL     OW 3250   1.853   1.554   6.430
  836SOL    HW1 3251   1.775   1.542   6.376
  836SOL    HW2 3252   1.845   1.488   6.498
  837SOL     OW 3253   0.226   1.304   7.447
  837SOL    HW1 3254   0.155   1.245   7.421
  837SOL    HW2 3255   0.213   1.316   7.541
  838SOL     OW 3256   0.088   1.217   6.239
  838SOL    HW1 3257   0.102   1.187   6.329
  838SOL    HW2 3258   0.175   1.218   6.200
  839SOL     OW 3259   0.681   1.402   7.215
  839SOL    HW1 3260   0.600   1.361   7.245
  839SOL    HW2 3261   0.678   1.491   7.250
  840SOL     OW 3262   1.812   0.176   6.818
  840SOL    HW1 3263   1.777   0.087   6.821
  840SOL    HW2 3264   1.833   0.190   6.726
  841SOL     OW 3265   0.433   0.436   6.108
  841SOL    HW1 3266   0.465   0.363   6.056
  841SOL    HW2 3267   0.387   0.396   6.181
  842SOL     OW 3268   1.700   1.489   6.682
  842SOL    HW1 3269   1.619   1.466   6.635
  842SOL    HW2 3270   1.710   1.419   6.747
  843SOL     OW 3271   0.338   0.562   6.875
  843SOL    HW1 3272   0.395   0.504   6.925
  843SOL    HW2 3273   0.351   0.535   6.784
  844SOL     OW 3274   0.829   1.577   6.263
  844SOL    HW1 3275   0.815   1.635   6.188
  844SOL    HW2 3276   0.753   1.520   6.265
  845SOL     OW 3277   1.427   0.219   6.702
  845SOL    HW1 3278   1.464   0.144   6.750
  845SOL    HW2 3279   1.379   0.268   6.768
  846SOL     OW 3280   1.001   0.020   6.726
  846SOL    HW1 3281   0.952   5.252   6.680
  846SOL    HW2 3282   1.088   5.281   6.740
  847SOL     OW 3283   0.772   1.333   5.903
  847SOL    HW1 3284   0.743   1.242   5.909
  847SOL    HW2 3285   0.854   1.335   5.951
  848SOL     OW 3286   0.623   1.555   6.874
  848SOL    HW1 3287   0.624   1.638   6.922
  848SOL    HW2 3288   0.710   1.550   6.834
  849SOL     OW 3289   1.353   0.037   5.749
  849SOL    HW1 3290   1.391   5.297   5.670
  849SOL    HW2 3291   1.276   5.284   5.769
  850SOL     OW 3292   1.300   0.464   6.270
  850SOL    HW1 3293   1.246   0.543   6.275
  850SOL    HW2 3294   1.294   0.424   6.357
  851SOL     OW 3295   1.594   0.215   6.468
  851SOL    HW1 3296   1.529   0.227   6.537
  851SOL    HW2 3297   1.587   0.294   6.414
  852SOL     OW 3298   0.048   1.068   5.876
  852SOL    HW1 3299   0.137   1.035   5.865
  852SOL    HW2 3300   5.300   0.994   5.912
  853SOL     OW 3301   0.886   1.653   5.927
  853SOL    HW1 3302   0.813   1.638   5.867
  853SOL    HW2 3303   0.859   1.728   5.980
  854SOL     OW 3304   0.227   0.630   7.567
  854SOL    HW1 3305   0.152   0.590   7.610
  854SOL    HW2 3306   0.218   0.605   7.475
  855SOL     OW 3307   1.768   0.597   7.679
  855SOL    HW1 3308   1.747   0.592   7.586
  855SOL    HW2 3309   1.727   0.519   7.716
  856SOL     OW 3310   0.232   1.703   7.922
  856SOL    HW1 3311   0.264   1.751   7.998
  856SOL    HW2 3312   0.301   1.713   7.856
  857SOL     OW 3313   0.216   1.435   7.992
  857SOL    HW1 3314   0.211   1.530   7.981
  857SOL    HW2 3315   0.153   1.416   8.061
  858SOL     OW 3316   0.582   0.985   7.581
  858SOL    HW1 3317   0.628   1.032   7.512
  858SOL    HW2 3318   0.623   1.015   7.662
  859SOL     OW 3319   1.837   1.758   7.797
  859SOL    HW1 3320   1.909   1.728   7.853
  859SOL    HW2 3321   1.862   1.847   7.772
  860SOL     OW 3322   0.036   1.602   7.583
  860SOL    HW1 3323   0.028   1.509   7.604
  860SOL    HW2 3324   5.275   1.646   7.643
  861SOL     OW 3325   1.683   0.864   8.032
  861SOL    HW1 3326   1.761   0.876   0.005
  861SOL    HW2 3327   1.669   0.948   7.989
  862SOL     OW 3328   1.655   1.098   7.878
  862SOL    HW1 3329   1.743   1.124   7.849
  862SOL    HW2 3330   1.626   1.170   7.933
  863SOL     OW 3331   0.810   5.287   7.942
  863SOL    HW1 3332   0.853   0.072   7.930
  863SOL    HW2 3333   0.717   0.007   7.942
  864SOL     OW 3334   1.533   0.995   7.650
  864SOL    HW1 3335   1.466   0.937   7.684
  864SOL    HW2 3336   1.577   1.029   7.728
  865SOL     OW 3337   0.587   0.723   7.707
  865SOL    HW1 3338   0.596   0.805   7.659
  865SOL    HW2 3339   0.534   0.744   7.783
  866SOL     OW 3340   1.574   1.671   7.757
  866SOL    HW1 3341   1.665   1.699   7.766
  866SOL    HW2 3342   1.562   1.658   7.663
  867SOL     OW 3343   0.049   0.817   0.196
  867SOL    HW1 3344   0.121   0.763   0.162
  867SOL    HW2 3345   0.029   0.878   0.125
  868SOL     OW 3346   0.870   0.360   7.629
  868SOL    HW1 3347   0.913   0.423   7.571
  868SOL    HW2 3348   0.934   0.290   7.641
  869SOL     OW 3349   0.318   0.948   7.694
  869SOL    HW1 3350   0.398   0.976   7.651
  869SOL    HW2 3351   0.296   0.865   7.653
  870SOL     OW 3352   1.124   1.776   7.681
  870SOL    HW1 3353   1.047   1.736   7.722
  870SOL    HW2 3354   1.149   1.715   7.612
  871SOL     OW 3355   1.628   1.381   7.534
  871SOL    HW1 3356   1.586   1.466   7.520
  871SOL    HW2 3357   1.560   1.317   7.516
  872SOL     OW 3358   0.470   1.737   7.769
  872SOL    HW1 3359   0.516   1.791   7.834
  872SOL    HW2 3360   0.539   1.703   7.713
  873SOL     OW 3361   1.411   0.107   7.883
  873SOL    HW1 3362   1.407   0.083   7.790
  873SOL    HW2 3363   1.505   0.112   7.902
  874SOL     OW 3364   0.378   0.697   7.922
  874SOL    HW1 3365   0.399   0.603   7.926
  874SOL    HW2 3366   0.288   0.702   7.955
  875SOL     OW 3367   0.614   0.131   7.559
  875SOL    HW1 3368   0.689   0.075   7.580
  875SOL    HW2 3369   0.572   0.090   7.484
  876SOL     OW 3370   0.548   0.062   7.951
  876SOL    HW1 3371   0.456   0.046   7.974
  876SOL    HW2 3372   0.544   0.136   7.890
  877SOL     OW 3373   1.428   1.198   7.489
  877SOL    HW1 3374   1.459   1.124   7.542
  877SOL    HW2 3375   1.344   1.222   7.527
  878SOL     OW 3376   0.315   0.072   7.653
  878SOL    HW1 3377   0.374   0.129   7.604
  878SOL    HW2 3378   0.360   5.287   7.656
  879SOL     OW 3379   0.949   0.227   7.909
  879SOL    HW1 3380   0.900   0.299   7.869
  879SOL    HW2 3381   1.038   0.262   7.919
  880SOL     OW 3382   0.446   1.158   0.090
  880SOL    HW1 3383   0.374   1.186   0.147
  880SOL    HW2 3384   0.404   1.141   0.006
  881SOL     OW 3385   1.291   1.812   8.014
  881SOL    HW1 3386   1.328   1.881   7.958
  881SOL    HW2 3387   1.206   1.845   8.040
  882SOL     OW 3388   1.025   0.545   7.469
  882SOL    HW1 3389   0.983   0.629   7.454
  882SOL    HW2 3390   1.085   0.561   7.542
  883SOL     OW 3391   1.874   0.815   7.801
  883SOL    HW1 3392   1.861   0.793   7.893
  883SOL    HW2 3393   1.834   0.743   7.753
  884SOL     OW 3394   0.489   1.417   7.604
  884SOL    HW1 3395   0.415   1.389   7.657
  884SOL    HW2 3396   0.473   1.379   7.517
  885SOL     OW 3397   1.393   0.572   7.519
  885SOL    HW1 3398   1.331   0.551   7.589
  885SOL    HW2 3399   1.477   0.540   7.552
  886SOL     OW 3400   0.524   0.272   7.773
  886SOL    HW1 3401   0.566   0.219   7.706
  886SOL    HW2 3402   0.502   0.354   7.730
  887SOL     OW 3403   0.710   1.061   7.813
  887SOL    HW1 3404   0.692   1.049   7.906
  887SOL    HW2 3405   0.788   1.009   7.797
  888SOL     OW 3406   0.344   1.096   7.927
  888SOL    HW1 3407   0.343   1.180   7.882
  888SOL    HW2 3408   0.346   1.031   7.857
  889SOL     OW 3409   1.222   1.356   7.821
  889SOL    HW1 3410   1.283   1.426   7.844
  889SOL    HW2 3411   1.188   1.326   7.905
  890SOL     OW 3412   1.589   0.625   7.921
  890SOL    HW1 3413   1.575   0.682   7.996
  890SOL    HW2 3414   1.625   0.682   7.853
  891SOL     OW 3415   1.202   0.525   7.714
  891SOL    HW1 3416   1.203   0.438   7.754
  891SOL    HW2 3417   1.182   0.584   7.786
  892SOL     OW 3418   1.617   0.376   7.813
  892SOL    HW1 3419   1.638   0.309   7.878
  892SOL    HW2 3420   1.594   0.453   7.865
  893SOL     OW 3421   1.528   0.272   7.575
  893SOL    HW1 3422   1.464   0.207   7.605
  893SOL    HW2 3423   1.564   0.309   7.655
  894SOL     OW 3424   1.293   0.827   7.480
  894SOL    HW1 3425   1.334   0.741   7.482
  894SOL    HW2 3426   1.324   0.867   7.399
  895SOL     OW 3427   0.004   1.333   7.656
  895SOL    HW1 3428   5.222   1.330   7.606
  895SOL    HW2 3429   0.013   1.244   7.691
  896SOL     OW 3430   0.839   0.605   7.762
  896SOL    HW1 3431   0.831   0.514   7.732
  896SOL    HW2 3432   0.749   0.638   7.764
  897SOL     OW 3433   0.459   0.493   7.631
  897SOL    HW1 3434   0.522   0.562   7.650
  897SOL    HW2 3435   0.376   0.540   7.620
  898SOL     OW 3436   1.313   0.852   7.754
  898SOL    HW1 3437   1.226   0.856   7.794
  898SOL    HW2 3438   1.295   0.841   7.660
  899SOL     OW 3439   1.709   0.132   7.944
  899SOL    HW1 3440   1.783   0.132   7.884
  899SOL    HW2 3441   1.742   0.086   8.022
  900SOL     OW 3442   1.363   1.577   7.895
  900SOL    HW1 3443   1.438   1.598   7.840
  900SOL    HW2 3444   1.332   1.662   7.926
  901SOL     OW 3445   0.668   1.620   7.603
  901SOL    HW1 3446   0.680   1.632   7.509
  901SOL    HW2 3447   0.615   1.540   7.610
  902SOL     OW 3448   1.210   1.606   7.478
  902SOL    HW1 3449   1.198   1.515   7.505
  902SOL    HW2 3450   1.143   1.620   7.411
  903SOL     OW 3451   0.923   0.908   7.754
  903SOL    HW1 3452   0.978   0.932   7.680
  903SOL    HW2 3453   0.920   0.813   7.752
  904SOL     OW 3454   1.493   1.627   7.488
  904SOL    HW1 3455   1.398   1.619   7.476
  904SOL    HW2 3456   1.528   1.632   7.400
  905SOL     OW 3457   0.607   1.506   7.935
  905SOL    HW1 3458   0.652   1.447   7.875
  905SOL    HW2 3459   0.534   1.541   7.884
  906SOL     OW 3460   0.260   1.346   7.743
  906SOL    HW1 3461   0.168   1.351   7.718
  906SOL    HW2 3462   0.263   1.382   7.832
  907SOL     OW 3463   0.079   0.341   7.486
  907SOL    HW1 3464   5.289   0.309   7.472
  907SOL    HW2 3465   0.092   0.407   7.418
  908SOL     OW 3466   0.068   0.143   7.735
  908SOL    HW1 3467   0.068   0.238   7.722
  908SOL    HW2 3468   0.157   0.116   7.713
  909SOL     OW 3469   1.176   1.338   7.556
  909SOL    HW1 3470   1.083   1.313   7.555
  909SOL    HW2 3471   1.198   1.344   7.649
  910SOL     OW 3472   1.222   0.318   7.916
  910SOL    HW1 3473   1.288   0.249   7.910
  910SOL    HW2 3474   1.245   0.366   7.995
  911SOL     OW 3475   0.625   0.744   8.042
  911SOL    HW1 3476   0.629   0.818   0.023
  911SOL    HW2 3477   0.533   0.737   8.018
  912SOL     OW 3478   0.863   1.367   7.484
  912SOL    HW1 3479   0.825   1.397   7.567
  912SOL    HW2 3480   0.881   1.447   7.436
  913SOL     OW 3481   1.070   0.976   7.537
  913SOL    HW1 3482   1.053   1.035   7.463
  913SOL    HW2 3483   1.150   0.929   7.511
  914SOL     OW 3484   0.400   0.430   7.982
  914SOL    HW1 3485   0.447   0.368   7.926
  914SOL    HW2 3486   0.443   0.421   8.068
  915SOL     OW 3487   0.765   1.336   7.764
  915SOL    HW1 3488   0.736   1.245   7.764
  915SOL    HW2 3489   0.847   1.336   7.813
  916SOL     OW 3490   1.363   0.037   7.612
  916SOL    HW1 3491   1.378   5.290   7.530
  916SOL    HW2 3492   1.283   5.299   7.647
  917SOL     OW 3493   0.048   1.069   7.721
  917SOL    HW1 3494   0.138   1.035   7.719
  917SOL    HW2 3495   0.001   1.010   7.779
  918SOL     OW 3496   0.893   1.652   7.779
  918SOL    HW1 3497   0.817   1.629   7.727
  918SOL    HW2 3498   0.859   1.715   7.844
  919SOL     OW 3499   0.222   2.483   0.118
  919SOL    HW1 3500   0.154   2.434   0.165
  919SOL    HW2 3501   0.231   2.437   0.035
  920SOL     OW 3502   0.242   2.137   0.988
  920SOL    HW1 3503   0.256   2.103   1.077
  920SOL    HW2 3504   0.158   2.100   0.962
  921SOL     OW 3505   5.296   2.260   0.648
  921SOL    HW1 3506   5.205   2.288   0.657
  921SOL    HW2 3507   5.291   2.167   0.628
  922SOL     OW 3508   0.575   3.148   1.184
  922SOL    HW1 3509   0.493   3.155   1.136
  922SOL    HW2 3510   0.591   3.236   1.218
  923SOL     OW 3511   1.562   3.374   0.708
  923SOL    HW1 3512   1.520   3.353   0.791
  923SOL    HW2 3513   1.491   3.377   0.644
  924SOL     OW 3514   1.131   2.560   0.700
  924SOL    HW1 3515   1.180   2.641   0.686
  924SOL    HW2 3516   1.084   2.574   0.783
  925SOL     OW 3517   1.765   2.463   0.234
  925SOL    HW1 3518   1.730   2.467   0.146
  925SOL    HW2 3519   1.727   2.384   0.272
  926SOL     OW 3520   0.755   3.002   1.041
  926SOL    HW1 3521   0.688   3.037   1.100
  926SOL    HW2 3522   0.790   3.080   0.997
  927SOL     OW 3523   0.868   2.634   1.822
  927SOL    HW1 3524   0.858   2.706   1.885
  927SOL    HW2 3525   0.891   2.678   1.740
  928SOL     OW 3526   0.684   2.861   0.650
  928SOL    HW1 3527   0.750   2.852   0.718
  928SOL    HW2 3528   0.616   2.916   0.690
  929SOL     OW 3529   0.710   3.012   1.814
  929SOL    HW1 3530   0.758   3.090   1.841
  929SOL    HW2 3531   0.629   3.046   1.777
  930SOL     OW 3532   0.358   3.266   1.061
  930SOL    HW1 3533   0.271   3.263   1.022
  930SOL    HW2 3534   0.406   3.328   1.005
  931SOL     OW 3535   1.460   3.362   1.356
  931SOL    HW1 3536   1.512   3.442   1.365
  931SOL    HW2 3537   1.397   3.366   1.427
  932SOL     OW 3538   0.451   2.262   1.491
  932SOL    HW1 3539   0.525   2.201   1.493
  932SOL    HW2 3540   0.374   2.206   1.501
  933SOL     OW 3541   1.612   2.310   0.741
  933SOL    HW1 3542   1.538   2.331   0.684
  933SOL    HW2 3543   1.623   2.387   0.796
  934SOL     OW 3544   0.217   3.593   0.464
  934SOL    HW1 3545   0.258   3.648   0.531
  934SOL    HW2 3546   0.288   3.570   0.405
  935SOL     OW 3547   1.137   3.204   1.693
  935SOL    HW1 3548   1.178   3.198   1.779
  935SOL    HW2 3549   1.085   3.124   1.686
  936SOL     OW 3550   0.220   3.311   0.532
  936SOL    HW1 3551   0.200   3.405   0.539
  936SOL    HW2 3552   0.160   3.269   0.593
  937SOL     OW 3553   0.255   2.940   0.878
  937SOL    HW1 3554   0.261   2.853   0.917
  937SOL    HW2 3555   0.200   2.990   0.938
  938SOL     OW 3556   0.613   3.652   1.432
  938SOL    HW1 3557   0.529   3.635   1.475
  938SOL    HW2 3558   0.633   3.743   1.455
  939SOL     OW 3559   0.619   2.821   0.139
  939SOL    HW1 3560   0.576   2.901   0.109
  939SOL    HW2 3561   0.676   2.850   0.210
  940SOL     OW 3562   1.596   1.986   1.467
  940SOL    HW1 3563   1.605   2.068   1.418
  940SOL    HW2 3564   1.581   2.015   1.557
  941SOL     OW 3565   0.129   2.497   0.583
  941SOL    HW1 3566   0.088   2.414   0.606
  941SOL    HW2 3567   0.099   2.558   0.650
  942SOL     OW 3568   1.846   3.619   0.330
  942SOL    HW1 3569   1.911   3.590   0.394
  942SOL    HW2 3570   1.869   3.710   0.312
  943SOL     OW 3571   0.032   3.445   0.104
  943SOL    HW1 3572   0.023   3.360   0.147
  943SOL    HW2 3573   0.007   3.508   0.172
  944SOL     OW 3574   1.687   2.780   0.644
  944SOL    HW1 3575   1.769   2.737   0.619
  944SOL    HW2 3576   1.664   2.833   0.567
  945SOL     OW 3577   1.647   2.966   0.435
  945SOL    HW1 3578   1.727   2.979   0.385
  945SOL    HW2 3579   1.652   3.029   0.507
  946SOL     OW 3580   0.132   2.611   1.584
  946SOL    HW1 3581   0.227   2.625   1.585
  946SOL    HW2 3582   0.095   2.697   1.601
  947SOL     OW 3583   0.616   3.249   0.734
  947SOL    HW1 3584   0.568   3.167   0.744
  947SOL    HW2 3585   0.599   3.275   0.643
  948SOL     OW 3586   1.288   3.100   1.423
  948SOL    HW1 3587   1.320   3.032   1.363
  948SOL    HW2 3588   1.346   3.094   1.499
  949SOL     OW 3589   0.825   1.865   0.513
  949SOL    HW1 3590   0.863   1.949   0.490
  949SOL    HW2 3591   0.731   1.882   0.518
  950SOL     OW 3592   0.175   2.806   1.279
  950SOL    HW1 3593   0.266   2.776   1.270
  950SOL    HW2 3594   0.135   2.786   1.195
  951SOL     OW 3595   1.506   2.872   0.214
  951SOL    HW1 3596   1.447   2.805   0.247
  951SOL    HW2 3597   1.561   2.895   0.289
  952SOL     OW 3598   1.185   3.669   1.623
  952SOL    HW1 3599   1.194   3.729   1.548
  952SOL    HW2 3600   1.202   3.582   1.587
  953SOL     OW 3601   0.338   2.116   1.819
  953SOL    HW1 3602   0.385   2.198   1.832
  953SOL    HW2 3603   0.250   2.132   1.853
  954SOL     OW 3604   1.467   3.281   0.951
  954SOL    HW1 3605   1.399   3.297   1.016
  954SOL    HW2 3606   1.454   3.190   0.924
  955SOL     OW 3607   1.659   3.605   0.582
  955SOL    HW1 3608   1.638   3.576   0.493
  955SOL    HW2 3609   1.634   3.531   0.637
  956SOL     OW 3610   0.597   2.574   0.282
  956SOL    HW1 3611   0.616   2.654   0.232
  956SOL    HW2 3612   0.534   2.602   0.348
  957SOL     OW 3613   1.279   2.216   0.933
  957SOL    HW1 3614   1.190   2.183   0.941
  957SOL    HW2 3615   1.330   2.163   0.994
  958SOL     OW 3616   1.587   3.533   0.320
  958SOL    HW1 3617   1.678   3.562   0.313
  958SOL    HW2 3618   1.559   3.516   0.230
  959SOL     OW 3619   0.792   2.479   1.451
  959SOL    HW1 3620   0.765   2.455   1.539
  959SOL    HW2 3621   0.752   2.412   1.395
  960SOL     OW 3622   1.393   2.336   1.678
  960SOL    HW1 3623   1.396   2.381   1.762
  960SOL    HW2 3624   1.454   2.262   1.688
  961SOL     OW 3625   0.954   2.749   1.583
  961SOL    HW1 3626   1.008   2.679   1.547
  961SOL    HW2 3627   0.906   2.784   1.508
  962SOL     OW 3628   0.992   2.274   1.238
  962SOL    HW1 3629   0.906   2.295   1.274
  962SOL    HW2 3630   0.974   2.229   1.156
  963SOL     OW 3631   1.053   2.561   0.427
  963SOL    HW1 3632   1.069   2.554   0.521
  963SOL    HW2 3633   0.970   2.515   0.414
  964SOL     OW 3634   0.067   2.651   0.815
  964SOL    HW1 3635   0.149   2.655   0.864
  964SOL    HW2 3636   0.068   2.729   0.759
  965SOL     OW 3637   0.129   3.747   1.585
  965SOL    HW1 3638   0.133   3.719   1.676
  965SOL    HW2 3639   0.060   3.693   1.546
  966SOL     OW 3640   0.885   2.219   0.202
  966SOL    HW1 3641   0.930   2.270   0.135
  966SOL    HW2 3642   0.886   2.129   0.170
  967SOL     OW 3643   1.707   2.433   1.827
  967SOL    HW1 3644   1.671   2.509   1.780
  967SOL    HW2 3645   1.736   2.374   1.757
  968SOL     OW 3646   1.377   3.003   0.541
  968SOL    HW1 3647   1.455   2.991   0.487
  968SOL    HW2 3648   1.324   3.066   0.492
  969SOL     OW 3649   0.555   2.045   0.894
  969SOL    HW1 3650   0.553   2.073   0.985
  969SOL    HW2 3651   0.553   2.127   0.844
  970SOL     OW 3652   1.003   3.306   0.472
  970SOL    HW1 3653   0.967   3.379   0.422
  970SOL    HW2 3654   0.983   3.327   0.563
  971SOL     OW 3655   0.358   3.665   0.869
  971SOL    HW1 3656   0.398   3.579   0.883
  971SOL    HW2 3657   0.423   3.727   0.901
  972SOL     OW 3658   1.798   2.917   0.869
  972SOL    HW1 3659   1.743   2.900   0.792
  972SOL    HW2 3660   1.736   2.924   0.942
  973SOL     OW 3661   1.228   3.401   1.513
  973SOL    HW1 3662   1.214   3.328   1.574
  973SOL    HW2 3663   1.163   3.387   1.444
  974SOL     OW 3664   0.331   2.814   0.254
  974SOL    HW1 3665   0.411   2.825   0.203
  974SOL    HW2 3666   0.312   2.720   0.249
  975SOL     OW 3667   1.479   2.605   0.726
  975SOL    HW1 3668   1.471   2.564   0.812
  975SOL    HW2 3669   1.556   2.661   0.733
  976SOL     OW 3670   0.465   3.126   1.738
  976SOL    HW1 3671   0.439   3.133   1.646
  976SOL    HW2 3672   0.383   3.127   1.787
  977SOL     OW 3673   1.107   3.643   0.223
  977SOL    HW1 3674   1.051   3.603   0.289
  977SOL    HW2 3675   1.128   3.572   0.163
  978SOL     OW 3676   0.205   2.141   1.497
  978SOL    HW1 3677   0.127   2.193   1.481
  978SOL    HW2 3678   0.173   2.061   1.539
  979SOL     OW 3679   1.634   3.235   0.082
  979SOL    HW1 3680   1.592   3.321   0.083
  979SOL    HW2 3681   1.563   3.173   0.064
  980SOL     OW 3682   0.470   3.595   0.325
  980SOL    HW1 3683   0.513   3.656   0.385
  980SOL    HW2 3684   0.540   3.569   0.264
  981SOL     OW 3685   1.407   1.973   0.445
  981SOL    HW1 3686   1.398   1.952   0.353
  981SOL    HW2 3687   1.502   1.981   0.459
  982SOL     OW 3688   0.277   3.663   1.211
  982SOL    HW1 3689   0.306   3.585   1.258
  982SOL    HW2 3690   0.224   3.629   1.139
  983SOL     OW 3691   0.939   3.561   0.898
  983SOL    HW1 3692   1.016   3.509   0.920
  983SOL    HW2 3693   0.895   3.511   0.829
  984SOL     OW 3694   0.381   2.561   0.476
  984SOL    HW1 3695   0.413   2.471   0.485
  984SOL    HW2 3696   0.289   2.556   0.502
  985SOL     OW 3697   1.535   2.087   1.725
  985SOL    HW1 3698   1.544   2.108   1.818
  985SOL    HW2 3699   1.465   2.022   1.722
  986SOL     OW 3700   0.629   1.971   0.138
  986SOL    HW1 3701   0.724   1.960   0.142
  986SOL    HW2 3702   0.607   1.953   0.046
  987SOL     OW 3703   0.766   2.140   1.755
  987SOL    HW1 3704   0.843   2.083   1.755
  987SOL    HW2 3705   0.718   2.116   1.833
  988SOL     OW 3706   0.877   3.384   1.193
  988SOL    HW1 3707   0.860   3.347   1.106
  988SOL    HW2 3708   0.947   3.329   1.229
  989SOL     OW 3709   1.340   2.451   1.432
  989SOL    HW1 3710   1.371   2.420   1.517
  989SOL    HW2 3711   1.376   2.539   1.424
  990SOL     OW 3712   0.816   3.255   0.941
  990SOL    HW1 3713   0.901   3.244   0.897
  990SOL    HW2 3714   0.752   3.258   0.869
  991SOL     OW 3715   0.928   2.371   0.902
  991SOL    HW1 3716   0.904   2.363   0.810
  991SOL    HW2 3717   0.959   2.284   0.927
  992SOL     OW 3718   0.561   1.923   0.499
  992SOL    HW1 3719   0.486   1.923   0.559
  992SOL    HW2 3720   0.549   2.003   0.447
  993SOL     OW 3721   1.433   3.062   0.035
  993SOL    HW1 3722   1.457   2.988   0.091
  993SOL    HW2 3723   1.345   3.087   0.065
  994SOL     OW 3724   0.314   1.910   0.176
  994SOL    HW1 3725   0.380   1.980   0.181
  994SOL    HW2 3726   0.356   1.835   0.219
  995SOL     OW 3727   0.942   2.110   0.458
  995SOL    HW1 3728   0.914   2.151   0.376
  995SOL    HW2 3729   1.036   2.127   0.462
  996SOL     OW 3730   1.080   2.543   1.459
  996SOL    HW1 3731   1.012   2.476   1.464
  996SOL    HW2 3732   1.162   2.494   1.453
  997SOL     OW 3733   1.223   3.432   0.794
  997SOL    HW1 3734   1.238   3.498   0.727
  997SOL    HW2 3735   1.291   3.447   0.859
  998SOL     OW 3736   0.469   3.013   0.731
  998SOL    HW1 3737   0.400   2.993   0.794
  998SOL    HW2 3738   0.428   2.998   0.645
  999SOL     OW 3739   1.267   3.656   0.608
  999SOL    HW1 3740   1.317   3.719   0.557
  999SOL    HW2 3741   1.200   3.708   0.651
 1000SOL     OW 3742   1.030   2.388   0.033
 1000SOL    HW1 3743   0.992   2.470   0.001
 1000SOL    HW2 3744   1.094   2.416   0.099
 1001SOL     OW 3745   0.089   2.406   1.399
 1001SOL    HW1 3746   0.176   2.414   1.361
 1001SOL    HW2 3747   0.080   2.482   1.456
 1002SOL     OW 3748   0.560   2.090   1.167
 1002SOL    HW1 3749   0.598   2.010   1.205
 1002SOL    HW2 3750   0.468   2.088   1.194
 1003SOL     OW 3751   0.867   2.320   0.639
 1003SOL    HW1 3752   0.825   2.376   0.573
 1003SOL    HW2 3753   0.889   2.240   0.591
 1004SOL     OW 3754   1.016   1.914   0.750
 1004SOL    HW1 3755   0.957   1.908   0.675
 1004SOL    HW2 3756   0.994   1.840   0.805
 1005SOL     OW 3757   1.438   3.024   0.857
 1005SOL    HW1 3758   1.367   2.959   0.856
 1005SOL    HW2 3759   1.462   3.035   0.765
 1006SOL     OW 3760   1.466   2.468   0.975
 1006SOL    HW1 3761   1.413   2.388   0.978
 1006SOL    HW2 3762   1.525   2.462   1.050
 1007SOL     OW 3763   1.847   2.678   0.387
 1007SOL    HW1 3764   1.890   2.621   0.450
 1007SOL    HW2 3765   1.817   2.618   0.318
 1008SOL     OW 3766   0.483   3.303   0.173
 1008SOL    HW1 3767   0.410   3.264   0.222
 1008SOL    HW2 3768   0.489   3.250   0.094
 1009SOL     OW 3769   1.671   3.127   0.647
 1009SOL    HW1 3770   1.766   3.129   0.661
 1009SOL    HW2 3771   1.642   3.216   0.668
 1010SOL     OW 3772   1.397   2.439   0.086
 1010SOL    HW1 3773   1.336   2.421   0.157
 1010SOL    HW2 3774   1.453   2.361   0.082
 1011SOL     OW 3775   0.514   2.126   0.323
 1011SOL    HW1 3776   0.565   2.074   0.261
 1011SOL    HW2 3777   0.500   2.209   0.279
 1012SOL     OW 3778   1.751   3.102   1.572
 1012SOL    HW1 3779   1.839   3.063   1.567
 1012SOL    HW2 3780   1.767   3.192   1.601
 1013SOL     OW 3781   1.058   3.215   1.333
 1013SOL    HW1 3782   0.983   3.184   1.384
 1013SOL    HW2 3783   1.134   3.174   1.374
 1014SOL     OW 3784   1.608   3.488   1.655
 1014SOL    HW1 3785   1.602   3.522   1.565
 1014SOL    HW2 3786   1.691   3.440   1.656
 1015SOL     OW 3787   1.130   3.066   1.105
 1015SOL    HW1 3788   1.071   3.104   1.170
 1015SOL    HW2 3789   1.098   3.099   1.021
 1016SOL     OW 3790   1.627   2.959   1.077
 1016SOL    HW1 3791   1.622   3.021   1.150
 1016SOL    HW2 3792   1.548   2.977   1.025
 1017SOL     OW 3793   0.919   1.958   1.396
 1017SOL    HW1 3794   0.941   1.940   1.305
 1017SOL    HW2 3795   0.998   1.998   1.432
 1018SOL     OW 3796   0.984   2.977   1.723
 1018SOL    HW1 3797   0.892   2.993   1.744
 1018SOL    HW2 3798   0.983   2.899   1.667
 1019SOL     OW 3799   0.715   2.925   0.381
 1019SOL    HW1 3800   0.698   2.907   0.474
 1019SOL    HW2 3801   0.793   2.873   0.361
 1020SOL     OW 3802   0.421   2.682   1.253
 1020SOL    HW1 3803   0.490   2.689   1.319
 1020SOL    HW2 3804   0.386   2.593   1.263
 1021SOL     OW 3805   1.265   2.238   1.276
 1021SOL    HW1 3806   1.298   2.316   1.322
 1021SOL    HW2 3807   1.174   2.260   1.254
 1022SOL     OW 3808   0.102   3.485   1.366
 1022SOL    HW1 3809   0.080   3.492   1.273
 1022SOL    HW2 3810   0.188   3.444   1.368
 1023SOL     OW 3811   0.346   2.971   0.487
 1023SOL    HW1 3812   0.343   3.051   0.434
 1023SOL    HW2 3813   0.357   2.901   0.423
 1024SOL     OW 3814   0.553   2.396   0.859
 1024SOL    HW1 3815   0.568   2.455   0.785
 1024SOL    HW2 3816   0.618   2.423   0.924
 1025SOL     OW 3817   1.247   3.209   0.394
 1025SOL    HW1 3818   1.303   3.281   0.423
 1025SOL    HW2 3819   1.160   3.232   0.426
 1026SOL     OW 3820   1.283   3.320   1.147
 1026SOL    HW1 3821   1.338   3.323   1.225
 1026SOL    HW2 3822   1.227   3.243   1.161
 1027SOL     OW 3823   1.581   2.483   0.483
 1027SOL    HW1 3824   1.531   2.535   0.546
 1027SOL    HW2 3825   1.619   2.547   0.423
 1028SOL     OW 3826   0.352   3.382   1.310
 1028SOL    HW1 3827   0.341   3.338   1.225
 1028SOL    HW2 3828   0.446   3.399   1.316
 1029SOL     OW 3829   0.414   2.604   1.602
 1029SOL    HW1 3830   0.476   2.650   1.545
 1029SOL    HW2 3831   0.454   2.518   1.615
 1030SOL     OW 3832   1.602   2.640   1.683
 1030SOL    HW1 3833   1.516   2.682   1.676
 1030SOL    HW2 3834   1.655   2.683   1.615
 1031SOL     OW 3835   0.996   1.987   1.755
 1031SOL    HW1 3836   1.052   2.059   1.729
 1031SOL    HW2 3837   1.044   1.908   1.729
 1032SOL     OW 3838   0.497   1.903   1.748
 1032SOL    HW1 3839   0.454   1.849   1.682
 1032SOL    HW2 3840   0.438   1.977   1.761
 1033SOL     OW 3841   0.586   2.736   1.033
 1033SOL    HW1 3842   0.617   2.826   1.032
 1033SOL    HW2 3843   0.529   2.731   1.110
 1034SOL     OW 3844   1.356   2.720   1.029
 1034SOL    HW1 3845   1.273   2.711   0.983
 1034SOL    HW2 3846   1.398   2.634   1.022
 1035SOL     OW 3847   1.203   2.389   0.271
 1035SOL    HW1 3848   1.210   2.311   0.325
 1035SOL    HW2 3849   1.160   2.453   0.327
 1036SOL     OW 3850   0.301   2.065   1.247
 1036SOL    HW1 3851   0.267   2.089   1.333
 1036SOL    HW2 3852   0.290   1.970   1.242
 1037SOL     OW 3853   0.067   3.180   1.280
 1037SOL    HW1 3854   0.091   3.121   1.351
 1037SOL    HW2 3855   5.296   3.233   1.316
 1038SOL     OW 3856   0.723   2.492   1.057
 1038SOL    HW1 3857   0.799   2.478   1.000
 1038SOL    HW2 3858   0.695   2.582   1.037
 1039SOL     OW 3859   1.733   2.822   1.853
 1039SOL    HW1 3860   1.688   2.758   1.798
 1039SOL    HW2 3861   1.674   2.836   1.927
 1040SOL     OW 3862   0.325   1.925   0.635
 1040SOL    HW1 3863   0.309   2.015   0.664
 1040SOL    HW2 3864   0.332   1.875   0.716
 1041SOL     OW 3865   1.621   2.237   0.369
 1041SOL    HW1 3866   1.646   2.173   0.436
 1041SOL    HW2 3867   1.596   2.315   0.419
 1042SOL     OW 3868   1.028   2.621   0.960
 1042SOL    HW1 3869   1.024   2.638   1.054
 1042SOL    HW2 3870   1.001   2.529   0.951
 1043SOL     OW 3871   0.982   3.428   1.718
 1043SOL    HW1 3872   0.967   3.472   1.634
 1043SOL    HW2 3873   1.026   3.346   1.694
 1044SOL     OW 3874   1.854   3.367   1.605
 1044SOL    HW1 3875   1.873   3.394   1.515
 1044SOL    HW2 3876   1.935   3.384   1.653
 1045SOL     OW 3877   0.354   2.780   1.806
 1045SOL    HW1 3878   0.435   2.800   1.853
 1045SOL    HW2 3879   0.380   2.715   1.741
 1046SOL     OW 3880   1.516   2.164   0.127
 1046SOL    HW1 3881   1.467   2.083   0.143
 1046SOL    HW2 3882   1.557   2.185   0.211
 1047SOL     OW 3883   1.295   2.686   0.021
 1047SOL    HW1 3884   1.333   2.599   0.037
 1047SOL    HW2 3885   1.358   2.728   8.042
 1048SOL     OW 3886   1.067   3.198   0.855
 1048SOL    HW1 3887   1.070   3.126   0.792
 1048SOL    HW2 3888   1.127   3.263   0.819
 1049SOL     OW 3889   0.313   2.671   0.950
 1049SOL    HW1 3890   0.407   2.690   0.946
 1049SOL    HW2 3891   0.308   2.580   0.981
 1050SOL     OW 3892   0.334   2.388   1.015
 1050SOL    HW1 3893   0.299   2.300   1.001
 1050SOL    HW2 3894   0.409   2.393   0.956
 1051SOL     OW 3895   1.134   2.237   1.683
 1051SOL    HW1 3896   1.086   2.292   1.745
 1051SOL    HW2 3897   1.221   2.276   1.679
 1052SOL     OW 3898   1.161   2.064   1.470
 1052SOL    HW1 3899   1.150   2.127   1.542
 1052SOL    HW2 3900   1.201   2.115   1.400
 1053SOL     OW 3901   0.011   3.189   0.202
 1053SOL    HW1 3902   5.239   3.171   0.140
 1053SOL    HW2 3903   0.015   3.110   0.256
 1054SOL     OW 3904   0.094   3.644   0.950
 1054SOL    HW1 3905   0.059   3.574   0.895
 1054SOL    HW2 3906   0.182   3.661   0.915
 1055SOL     OW 3907   0.505   3.435   0.907
 1055SOL    HW1 3908   0.572   3.501   0.928
 1055SOL    HW2 3909   0.548   3.375   0.847
 1056SOL     OW 3910   0.981   2.652   1.226
 1056SOL    HW1 3911   1.038   2.631   1.300
 1056SOL    HW2 3912   0.896   2.616   1.249
 1057SOL     OW 3913   0.032   2.421   1.116
 1057SOL    HW1 3914   0.120   2.402   1.084
 1057SOL    HW2 3915   0.037   2.405   1.210
 1058SOL     OW 3916   0.174   2.375   1.712
 1058SOL    HW1 3917   0.238   2.337   1.652
 1058SOL    HW2 3918   0.147   2.457   1.669
 1059SOL     OW 3919   1.378   2.800   1.658
 1059SOL    HW1 3920   1.399   2.893   1.656
 1059SOL    HW2 3921   1.375   2.774   1.566
 1060SOL     OW 3922   0.819   2.431   0.369
 1060SOL    HW1 3923   0.829   2.360   0.306
 1060SOL    HW2 3924   0.743   2.480   0.338
 1061SOL     OW 3925   1.640   2.463   1.185
 1061SOL    HW1 3926   1.630   2.405   1.260
 1061SOL    HW2 3927   1.727   2.443   1.151
 1062SOL     OW 3928   0.256   3.418   1.734
 1062SOL    HW1 3929   0.234   3.481   1.803
 1062SOL    HW2 3930   0.250   3.332   1.777
 1063SOL     OW 3931   0.704   2.311   1.258
 1063SOL    HW1 3932   0.650   2.237   1.230
 1063SOL    HW2 3933   0.698   2.374   1.187
 1064SOL     OW 3934   0.928   3.541   1.468
 1064SOL    HW1 3935   0.901   3.505   1.383
 1064SOL    HW2 3936   0.922   3.636   1.457
 1065SOL     OW 3937   0.467   2.352   0.178
 1065SOL    HW1 3938   0.532   2.418   0.200
 1065SOL    HW2 3939   0.383   2.398   0.182
 1066SOL     OW 3940   0.147   2.999   1.471
 1066SOL    HW1 3941   0.145   2.951   1.554
 1066SOL    HW2 3942   0.159   2.931   1.404
 1067SOL     OW 3943   1.325   2.908   1.223
 1067SOL    HW1 3944   1.348   2.845   1.155
 1067SOL    HW2 3945   1.255   2.961   1.184
 1068SOL     OW 3946   1.306   2.709   0.309
 1068SOL    HW1 3947   1.228   2.681   0.356
 1068SOL    HW2 3948   1.283   2.698   0.216
 1069SOL     OW 3949   1.773   3.605   1.151
 1069SOL    HW1 3950   1.833   3.631   1.081
 1069SOL    HW2 3951   1.748   3.515   1.129
 1070SOL     OW 3952   1.241   3.595   1.112
 1070SOL    HW1 3953   1.323   3.616   1.067
 1070SOL    HW2 3954   1.247   3.501   1.130
 1071SOL     OW 3955   0.082   3.076   1.027
 1071SOL    HW1 3956   0.069   3.103   1.118
 1071SOL    HW2 3957   5.294   3.067   0.992
 1072SOL     OW 3958   0.678   3.529   1.731
 1072SOL    HW1 3959   0.621   3.606   1.725
 1072SOL    HW2 3960   0.743   3.541   1.662
 1073SOL     OW 3961   0.905   1.953   0.132
 1073SOL    HW1 3962   0.922   1.938   0.039
 1073SOL    HW2 3963   0.970   1.901   0.178
 1074SOL     OW 3964   1.721   2.009   0.510
 1074SOL    HW1 3965   1.791   1.992   0.447
 1074SOL    HW2 3966   1.705   1.924   0.551
 1075SOL     OW 3967   1.390   3.430   0.487
 1075SOL    HW1 3968   1.453   3.463   0.423
 1075SOL    HW2 3969   1.342   3.508   0.516
 1076SOL     OW 3970   0.146   3.660   1.842
 1076SOL    HW1 3971   0.091   3.597   1.890
 1076SOL    HW2 3972   0.193   3.707   1.911
 1077SOL     OW 3973   1.277   2.788   0.671
 1077SOL    HW1 3974   1.351   2.727   0.678
 1077SOL    HW2 3975   1.311   2.860   0.618
 1078SOL     OW 3976   0.813   3.135   1.429
 1078SOL    HW1 3977   0.784   3.176   1.511
 1078SOL    HW2 3978   0.743   3.156   1.367
 1079SOL     OW 3979   0.678   3.483   0.156
 1079SOL    HW1 3980   0.682   3.491   0.060
 1079SOL    HW2 3981   0.616   3.411   0.171
 1080SOL     OW 3982   1.624   3.589   1.391
 1080SOL    HW1 3983   1.675   3.595   1.310
 1080SOL    HW2 3984   1.611   3.679   1.418
 1081SOL     OW 3985   1.837   2.032   0.967
 1081SOL    HW1 3986   1.865   1.945   0.939
 1081SOL    HW2 3987   1.751   2.043   0.927
 1082SOL     OW 3988   0.270   2.178   0.716
 1082SOL    HW1 3989   0.187   2.222   0.698
 1082SOL    HW2 3990   0.272   2.168   0.811
 1083SOL     OW 3991   1.158   3.442   0.051
 1083SOL    HW1 3992   1.172   3.350   0.072
 1083SOL    HW2 3993   1.169   3.448   8.036
 1084SOL     OW 3994   0.824   2.868   1.373
 1084SOL    HW1 3995   0.867   2.863   1.287
 1084SOL    HW2 3996   0.823   2.961   1.394
 1085SOL     OW 3997   0.918   2.775   0.297
 1085SOL    HW1 3998   0.972   2.799   0.222
 1085SOL    HW2 3999   0.967   2.704   0.340
 1086SOL     OW 4000   1.510   3.485   0.061
 1086SOL    HW1 4001   1.415   3.486   0.049
 1086SOL    HW2 4002   1.545   3.488   8.052
 1087SOL     OW 4003   0.367   3.166   1.493
 1087SOL    HW1 4004   0.359   3.240   1.433
 1087SOL    HW2 4005   0.292   3.111   1.474
 1088SOL     OW 4006   1.610   3.145   1.280
 1088SOL    HW1 4007   1.670   3.134   1.353
 1088SOL    HW2 4008   1.550   3.213   1.309
 1089SOL     OW 4009   1.053   2.970   0.707
 1089SOL    HW1 4010   0.982   2.918   0.746
 1089SOL    HW2 4011   1.116   2.904   0.676
 1090SOL     OW 4012   1.022   2.102   0.966
 1090SOL    HW1 4013   1.017   2.055   0.883
 1090SOL    HW2 4014   1.016   2.034   1.033
 1091SOL     OW 4015   0.603   3.348   0.479
 1091SOL    HW1 4016   0.646   3.299   0.409
 1091SOL    HW2 4017   0.534   3.398   0.434
 1092SOL     OW 4018   1.718   2.252   1.379
 1092SOL    HW1 4019   1.789   2.317   1.380
 1092SOL    HW2 4020   1.751   2.182   1.323
 1093SOL     OW 4021   0.270   3.187   0.300
 1093SOL    HW1 4022   0.185   3.196   0.258
 1093SOL    HW2 4023   0.261   3.234   0.383
 1094SOL     OW 4024   0.117   2.878   1.717
 1094SOL    HW1 4025   0.046   2.843   1.772
 1094SOL    HW2 4026   0.197   2.848   1.760
 1095SOL     OW 4027   0.675   2.058   1.499
 1095SOL    HW1 4028   0.759   2.038   1.458
 1095SOL    HW2 4029   0.698   2.090   1.587
 1096SOL     OW 4030   0.042   2.252   0.027
 1096SOL    HW1 4031   0.019   2.167   0.064
 1096SOL    HW2 4032   0.124   2.236   8.061
 1097SOL     OW 4033   1.429   2.720   1.400
 1097SOL    HW1 4034   1.380   2.781   1.344
 1097SOL    HW2 4035   1.518   2.723   1.366
 1098SOL     OW 4036   0.053   1.997   0.214
 1098SOL    HW1 4037   0.055   2.083   0.256
 1098SOL    HW2 4038   0.145   1.973   0.204
 1099SOL     OW 4039   1.184   3.178   0.122
 1099SOL    HW1 4040   1.089   3.169   0.120
 1099SOL    HW2 4041   1.207   3.180   0.214
 1100SOL     OW 4042   0.620   2.693   1.436
 1100SOL    HW1 4043   0.676   2.768   1.420
 1100SOL    HW2 4044   0.680   2.619   1.443
 1101SOL     OW 4045   1.483   3.639   0.979
 1101SOL    HW1 4046   1.507   3.700   0.909
 1101SOL    HW2 4047   1.567   3.619   1.022
 1102SOL     OW 4048   0.717   2.426   1.704
 1102SOL    HW1 4049   0.759   2.488   1.763
 1102SOL    HW2 4050   0.743   2.339   1.737
 1103SOL     OW 4051   1.472   3.061   1.631
 1103SOL    HW1 4052   1.460   3.075   1.725
 1103SOL    HW2 4053   1.565   3.077   1.617
 1104SOL     OW 4054   0.377   3.605   1.565
 1104SOL    HW1 4055   0.294   3.651   1.548
 1104SOL    HW2 4056   0.351   3.524   1.609
 1105SOL     OW 4057   1.670   2.743   1.255
 1105SOL    HW1 4058   1.662   2.658   1.212
 1105SOL    HW2 4059   1.659   2.807   1.184
 1106SOL     OW 4060   1.217   2.179   0.460
 1106SOL    HW1 4061   1.282   2.110   0.453
 1106SOL    HW2 4062   1.244   2.231   0.536
 1107SOL     OW 4063   0.588   2.598   0.669
 1107SOL    HW1 4064   0.628   2.684   0.656
 1107SOL    HW2 4065   0.518   2.593   0.604
 1108SOL     OW 4066   1.763   2.222   1.648
 1108SOL    HW1 4067   1.742   2.239   1.556
 1108SOL    HW2 4068   1.691   2.167   1.679
 1109SOL     OW 4069   1.744   2.796   1.512
 1109SOL    HW1 4070   1.741   2.891   1.526
 1109SOL    HW2 4071   1.729   2.785   1.418
 1110SOL     OW 4072   0.896   3.233   0.038
 1110SOL    HW1 4073   0.833   3.223   0.110
 1110SOL    HW2 4074   0.877   3.320   0.002
 1111SOL     OW 4075   0.664   3.655   0.942
 1111SOL    HW1 4076   0.643   3.746   0.920
 1111SOL    HW2 4077   0.759   3.650   0.936
 1112SOL     OW 4078   0.868   2.829   0.854
 1112SOL    HW1 4079   0.918   2.758   0.894
 1112SOL    HW2 4080   0.833   2.878   0.929
 1113SOL     OW 4081   1.076   2.836   0.085
 1113SOL    HW1 4082   1.068   2.903   0.017
 1113SOL    HW2 4083   1.154   2.786   0.060
 1114SOL     OW 4084   1.853   3.416   0.843
 1114SOL    HW1 4085   1.774   3.404   0.791
 1114SOL    HW2 4086   1.846   3.350   0.912
 1115SOL     OW 4087   0.226   3.166   1.860
 1115SOL    HW1 4088   0.158   3.104   1.834
 1115SOL    HW2 4089   0.214   3.176   1.955
 1116SOL     OW 4090   0.096   3.096   0.662
 1116SOL    HW1 4091   0.101   3.050   0.746
 1116SOL    HW2 4092   0.170   3.062   0.612
 1117SOL     OW 4093   0.682   3.265   1.629
 1117SOL    HW1 4094   0.601   3.223   1.659
 1117SOL    HW2 4095   0.677   3.354   1.665
 1118SOL     OW 4096   1.814   2.046   1.238
 1118SOL    HW1 4097   1.821   1.952   1.252
 1118SOL    HW2 4098   1.821   2.057   1.143
 1119SOL     OW 4099   0.432   2.301   0.523
 1119SOL    HW1 4100   0.462   2.229   0.469
 1119SOL    HW2 4101   0.387   2.259   0.596
 1120SOL     OW 4102   1.700   3.351   1.095
 1120SOL    HW1 4103   1.619   3.328   1.049
 1120SOL    HW2 4104   1.711   3.281   1.160
 1121SOL     OW 4105   0.337   2.422   1.292
 1121SOL    HW1 4106   0.390   2.363   1.345
 1121SOL    HW2 4107   0.351   2.392   1.202
 1122SOL     OW 4108   0.829   3.439   0.677
 1122SOL    HW1 4109   0.814   3.496   0.601
 1122SOL    HW2 4110   0.753   3.381   0.679
 1123SOL     OW 4111   1.432   2.088   1.118
 1123SOL    HW1 4112   1.454   2.007   1.164
 1123SOL    HW2 4113   1.380   2.138   1.181
 1124SOL     OW 4114   1.009   1.880   1.141
 1124SOL    HW1 4115   0.954   1.813   1.101
 1124SOL    HW2 4116   1.097   1.842   1.143
 1125SOL     OW 4117   0.772   3.188   0.307
 1125SOL    HW1 4118   0.741   3.099   0.324
 1125SOL    HW2 4119   0.852   3.196   0.359
 1126SOL     OW 4120   0.623   3.417   1.288
 1126SOL    HW1 4121   0.624   3.500   1.337
 1126SOL    HW2 4122   0.710   3.412   1.248
 1127SOL     OW 4123   1.356   1.916   0.185
 1127SOL    HW1 4124   1.376   1.870   0.104
 1127SOL    HW2 4125   1.270   1.884   0.211
 1128SOL     OW 4126   1.296   2.323   0.681
 1128SOL    HW1 4127   1.244   2.403   0.687
 1128SOL    HW2 4128   1.292   2.285   0.768
 1129SOL     OW 4129   1.585   2.063   0.878
 1129SOL    HW1 4130   1.525   2.084   0.950
 1129SOL    HW2 4131   1.584   2.142   0.823
 1130SOL     OW 4132   0.047   2.938   0.323
 1130SOL    HW1 4133   0.135   2.915   0.293
 1130SOL    HW2 4134   5.298   2.856   0.318
 1131SOL     OW 4135   0.884   3.516   0.346
 1131SOL    HW1 4136   0.815   3.501   0.282
 1131SOL    HW2 4137   0.853   3.592   0.397
 1132SOL     OW 4138   0.233   2.493   1.979
 1132SOL    HW1 4139   0.161   2.457   2.031
 1132SOL    HW2 4140   0.217   2.460   1.890
 1133SOL     OW 4141   0.243   2.137   2.851
 1133SOL    HW1 4142   0.256   2.102   2.939
 1133SOL    HW2 4143   0.158   2.102   2.824
 1134SOL     OW 4144   5.298   2.261   2.515
 1134SOL    HW1 4145   5.205   2.283   2.520
 1134SOL    HW2 4146   5.299   2.171   2.483
 1135SOL     OW 4147   0.575   3.148   3.046
 1135SOL    HW1 4148   0.493   3.156   2.998
 1135SOL    HW2 4149   0.591   3.236   3.080
 1136SOL     OW 4150   1.563   3.374   2.569
 1136SOL    HW1 4151   1.520   3.353   2.652
 1136SOL    HW2 4152   1.491   3.378   2.506
 1137SOL     OW 4153   1.131   2.560   2.562
 1137SOL    HW1 4154   1.180   2.641   2.548
 1137SOL    HW2 4155   1.084   2.574   2.644
 1138SOL     OW 4156   1.764   2.467   2.089
 1138SOL    HW1 4157   1.744   2.459   1.996
 1138SOL    HW2 4158   1.730   2.386   2.128
 1139SOL     OW 4159   0.754   3.002   2.903
 1139SOL    HW1 4160   0.688   3.037   2.962
 1139SOL    HW2 4161   0.790   3.079   2.859
 1140SOL     OW 4162   0.868   2.634   3.685
 1140SOL    HW1 4163   0.858   2.706   3.748
 1140SOL    HW2 4164   0.891   2.678   3.602
 1141SOL     OW 4165   0.685   2.863   2.509
 1141SOL    HW1 4166   0.751   2.852   2.577
 1141SOL    HW2 4167   0.617   2.917   2.550
 1142SOL     OW 4168   0.710   3.012   3.676
 1142SOL    HW1 4169   0.759   3.090   3.703
 1142SOL    HW2 4170   0.629   3.046   3.639
 1143SOL     OW 4171   0.359   3.266   2.922
 1143SOL    HW1 4172   0.270   3.267   2.886
 1143SOL    HW2 4173   0.407   3.328   2.867
 1144SOL     OW 4174   1.461   3.363   3.219
 1144SOL    HW1 4175   1.513   3.443   3.227
 1144SOL    HW2 4176   1.396   3.369   3.288
 1145SOL     OW 4177   0.451   2.262   3.353
 1145SOL    HW1 4178   0.525   2.201   3.355
 1145SOL    HW2 4179   0.374   2.206   3.363
 1146SOL     OW 4180   1.610   2.310   2.602
 1146SOL    HW1 4181   1.535   2.329   2.545
 1146SOL    HW2 4182   1.630   2.394   2.643
 1147SOL     OW 4183   0.232   3.576   2.339
 1147SOL    HW1 4184   0.264   3.646   2.397
 1147SOL    HW2 4185   0.295   3.573   2.267
 1148SOL     OW 4186   1.137   3.204   3.555
 1148SOL    HW1 4187   1.177   3.199   3.642
 1148SOL    HW2 4188   1.085   3.124   3.548
 1149SOL     OW 4189   0.222   3.307   2.402
 1149SOL    HW1 4190   0.217   3.402   2.396
 1149SOL    HW2 4191   0.151   3.283   2.462
 1150SOL     OW 4192   0.251   2.939   2.737
 1150SOL    HW1 4193   0.262   2.853   2.778
 1150SOL    HW2 4194   0.199   2.989   2.799
 1151SOL     OW 4195   0.613   3.652   3.295
 1151SOL    HW1 4196   0.529   3.635   3.337
 1151SOL    HW2 4197   0.633   3.743   3.317
 1152SOL     OW 4198   0.582   2.846   1.998
 1152SOL    HW1 4199   0.629   2.893   1.929
 1152SOL    HW2 4200   0.623   2.876   2.079
 1153SOL     OW 4201   1.605   1.979   3.338
 1153SOL    HW1 4202   1.596   2.050   3.274
 1153SOL    HW2 4203   1.571   2.015   3.419
 1154SOL     OW 4204   0.126   2.495   2.442
 1154SOL    HW1 4205   0.089   2.412   2.471
 1154SOL    HW2 4206   0.099   2.559   2.508
 1155SOL     OW 4207   1.842   3.620   2.196
 1155SOL    HW1 4208   1.908   3.592   2.260
 1155SOL    HW2 4209   1.865   3.711   2.177
 1156SOL     OW 4210   0.038   3.461   1.995
 1156SOL    HW1 4211   0.025   3.370   2.020
 1156SOL    HW2 4212   5.282   3.511   2.054
 1157SOL     OW 4213   1.689   2.779   2.505
 1157SOL    HW1 4214   1.771   2.734   2.485
 1157SOL    HW2 4215   1.669   2.828   2.425
 1158SOL     OW 4216   1.647   2.968   2.291
 1158SOL    HW1 4217   1.733   2.972   2.250
 1158SOL    HW2 4218   1.652   3.029   2.364
 1159SOL     OW 4219   0.132   2.611   3.446
 1159SOL    HW1 4220   0.227   2.625   3.447
 1159SOL    HW2 4221   0.095   2.697   3.463
 1160SOL     OW 4222   0.616   3.248   2.596
 1160SOL    HW1 4223   0.568   3.166   2.607
 1160SOL    HW2 4224   0.598   3.275   2.506
 1161SOL     OW 4225   1.286   3.100   3.285
 1161SOL    HW1 4226   1.320   3.034   3.224
 1161SOL    HW2 4227   1.343   3.093   3.361
 1162SOL     OW 4228   0.824   1.862   2.373
 1162SOL    HW1 4229   0.864   1.946   2.352
 1162SOL    HW2 4230   0.730   1.881   2.378
 1163SOL     OW 4231   0.175   2.806   3.141
 1163SOL    HW1 4232   0.266   2.777   3.132
 1163SOL    HW2 4233   0.135   2.784   3.057
 1164SOL     OW 4234   1.531   2.857   2.061
 1164SOL    HW1 4235   1.462   2.799   2.094
 1164SOL    HW2 4236   1.573   2.890   2.140
 1165SOL     OW 4237   1.185   3.669   3.485
 1165SOL    HW1 4238   1.194   3.729   3.410
 1165SOL    HW2 4239   1.202   3.583   3.448
 1166SOL     OW 4240   0.339   2.116   3.682
 1166SOL    HW1 4241   0.385   2.198   3.695
 1166SOL    HW2 4242   0.250   2.131   3.715
 1167SOL     OW 4243   1.467   3.281   2.813
 1167SOL    HW1 4244   1.399   3.296   2.879
 1167SOL    HW2 4245   1.454   3.190   2.787
 1168SOL     OW 4246   1.657   3.604   2.440
 1168SOL    HW1 4247   1.639   3.574   2.351
 1168SOL    HW2 4248   1.633   3.530   2.496
 1169SOL     OW 4249   0.595   2.582   2.129
 1169SOL    HW1 4250   0.602   2.664   2.078
 1169SOL    HW2 4251   0.531   2.602   2.197
 1170SOL     OW 4252   1.279   2.218   2.795
 1170SOL    HW1 4253   1.190   2.184   2.803
 1170SOL    HW2 4254   1.330   2.164   2.855
 1171SOL     OW 4255   1.580   3.533   2.171
 1171SOL    HW1 4256   1.671   3.563   2.164
 1171SOL    HW2 4257   1.553   3.516   2.081
 1172SOL     OW 4258   0.794   2.479   3.313
 1172SOL    HW1 4259   0.766   2.455   3.401
 1172SOL    HW2 4260   0.754   2.413   3.257
 1173SOL     OW 4261   1.394   2.338   3.539
 1173SOL    HW1 4262   1.395   2.382   3.624
 1173SOL    HW2 4263   1.449   2.261   3.552
 1174SOL     OW 4264   0.954   2.749   3.445
 1174SOL    HW1 4265   1.009   2.679   3.409
 1174SOL    HW2 4266   0.907   2.784   3.369
 1175SOL     OW 4267   0.993   2.273   3.100
 1175SOL    HW1 4268   0.907   2.294   3.136
 1175SOL    HW2 4269   0.975   2.229   3.017
 1176SOL     OW 4270   1.051   2.560   2.288
 1176SOL    HW1 4271   1.068   2.554   2.382
 1176SOL    HW2 4272   0.969   2.514   2.274
 1177SOL     OW 4273   0.071   2.649   2.673
 1177SOL    HW1 4274   0.151   2.654   2.724
 1177SOL    HW2 4275   0.065   2.734   2.628
 1178SOL     OW 4276   0.129   3.747   3.447
 1178SOL    HW1 4277   0.133   3.719   3.538
 1178SOL    HW2 4278   0.060   3.693   3.408
 1179SOL     OW 4279   0.895   2.211   2.056
 1179SOL    HW1 4280   0.934   2.274   1.996
 1179SOL    HW2 4281   0.909   2.126   2.016
 1180SOL     OW 4282   1.679   2.431   3.692
 1180SOL    HW1 4283   1.653   2.507   3.640
 1180SOL    HW2 4284   1.710   2.367   3.628
 1181SOL     OW 4285   1.377   3.004   2.403
 1181SOL    HW1 4286   1.457   2.991   2.350
 1181SOL    HW2 4287   1.325   3.066   2.352
 1182SOL     OW 4288   0.557   2.045   2.756
 1182SOL    HW1 4289   0.553   2.074   2.847
 1182SOL    HW2 4290   0.551   2.126   2.705
 1183SOL     OW 4291   1.004   3.305   2.333
 1183SOL    HW1 4292   0.969   3.379   2.284
 1183SOL    HW2 4293   0.986   3.327   2.425
 1184SOL     OW 4294   0.357   3.665   2.732
 1184SOL    HW1 4295   0.397   3.580   2.745
 1184SOL    HW2 4296   0.423   3.728   2.763
 1185SOL     OW 4297   1.798   2.923   2.730
 1185SOL    HW1 4298   1.744   2.901   2.654
 1185SOL    HW2 4299   1.736   2.925   2.803
 1186SOL     OW 4300   1.228   3.401   3.375
 1186SOL    HW1 4301   1.214   3.328   3.435
 1186SOL    HW2 4302   1.163   3.387   3.306
 1187SOL     OW 4303   0.315   2.814   2.110
 1187SOL    HW1 4304   0.397   2.838   2.066
 1187SOL    HW2 4305   0.293   2.728   2.074
 1188SOL     OW 4306   1.480   2.605   2.589
 1188SOL    HW1 4307   1.473   2.565   2.675
 1188SOL    HW2 4308   1.557   2.662   2.594
 1189SOL     OW 4309   0.466   3.126   3.600
 1189SOL    HW1 4310   0.439   3.132   3.508
 1189SOL    HW2 4311   0.383   3.127   3.649
 1190SOL     OW 4312   1.122   3.640   2.093
 1190SOL    HW1 4313   1.049   3.598   2.138
 1190SOL    HW2 4314   1.146   3.578   2.023
 1191SOL     OW 4315   0.205   2.141   3.360
 1191SOL    HW1 4316   0.127   2.193   3.343
 1191SOL    HW2 4317   0.173   2.061   3.401
 1192SOL     OW 4318   1.628   3.242   1.950
 1192SOL    HW1 4319   1.587   3.327   1.935
 1192SOL    HW2 4320   1.560   3.178   1.931
 1193SOL     OW 4321   0.471   3.597   2.181
 1193SOL    HW1 4322   0.514   3.654   2.244
 1193SOL    HW2 4323   0.542   3.565   2.125
 1194SOL     OW 4324   1.401   1.969   2.296
 1194SOL    HW1 4325   1.391   1.945   2.204
 1194SOL    HW2 4326   1.496   1.976   2.309
 1195SOL     OW 4327   0.277   3.663   3.073
 1195SOL    HW1 4328   0.306   3.584   3.119
 1195SOL    HW2 4329   0.225   3.630   3.000
 1196SOL     OW 4330   0.939   3.561   2.761
 1196SOL    HW1 4331   1.017   3.509   2.781
 1196SOL    HW2 4332   0.895   3.511   2.692
 1197SOL     OW 4333   0.386   2.558   2.341
 1197SOL    HW1 4334   0.415   2.467   2.350
 1197SOL    HW2 4335   0.293   2.555   2.361
 1198SOL     OW 4336   1.519   2.080   3.587
 1198SOL    HW1 4337   1.533   2.103   3.679
 1198SOL    HW2 4338   1.455   2.010   3.589
 1199SOL     OW 4339   0.635   1.984   1.967
 1199SOL    HW1 4340   0.704   1.918   1.979
 1199SOL    HW2 4341   0.586   1.953   1.891
 1200SOL     OW 4342   0.766   2.141   3.617
 1200SOL    HW1 4343   0.843   2.083   3.617
 1200SOL    HW2 4344   0.717   2.116   3.695
 1201SOL     OW 4345   0.877   3.384   3.055
 1201SOL    HW1 4346   0.861   3.348   2.968
 1201SOL    HW2 4347   0.947   3.330   3.091
 1202SOL     OW 4348   1.347   2.450   3.292
 1202SOL    HW1 4349   1.372   2.422   3.380
 1202SOL    HW2 4350   1.375   2.541   3.287
 1203SOL     OW 4351   0.816   3.255   2.803
 1203SOL    HW1 4352   0.901   3.244   2.759
 1203SOL    HW2 4353   0.752   3.258   2.732
 1204SOL     OW 4354   0.928   2.371   2.765
 1204SOL    HW1 4355   0.904   2.363   2.672
 1204SOL    HW2 4356   0.959   2.284   2.789
 1205SOL     OW 4357   0.561   1.923   2.357
 1205SOL    HW1 4358   0.486   1.923   2.417
 1205SOL    HW2 4359   0.550   2.002   2.304
 1206SOL     OW 4360   1.428   3.061   1.903
 1206SOL    HW1 4361   1.458   2.985   1.953
 1206SOL    HW2 4362   1.343   3.082   1.940
 1207SOL     OW 4363   0.306   1.909   2.040
 1207SOL    HW1 4364   0.368   1.973   2.005
 1207SOL    HW2 4365   0.360   1.845   2.086
 1208SOL     OW 4366   0.940   2.110   2.321
 1208SOL    HW1 4367   0.914   2.151   2.238
 1208SOL    HW2 4368   1.035   2.125   2.325
 1209SOL     OW 4369   1.080   2.542   3.322
 1209SOL    HW1 4370   1.008   2.479   3.326
 1209SOL    HW2 4371   1.159   2.487   3.314
 1210SOL     OW 4372   1.223   3.432   2.656
 1210SOL    HW1 4373   1.238   3.499   2.589
 1210SOL    HW2 4374   1.291   3.447   2.721
 1211SOL     OW 4375   0.468   3.013   2.592
 1211SOL    HW1 4376   0.399   2.992   2.655
 1211SOL    HW2 4377   0.428   2.995   2.507
 1212SOL     OW 4378   1.268   3.656   2.471
 1212SOL    HW1 4379   1.315   3.717   2.414
 1212SOL    HW2 4380   1.201   3.709   2.514
 1213SOL     OW 4381   1.023   2.402   1.886
 1213SOL    HW1 4382   0.981   2.486   1.866
 1213SOL    HW2 4383   1.089   2.424   1.952
 1214SOL     OW 4384   0.089   2.405   3.261
 1214SOL    HW1 4385   0.176   2.414   3.223
 1214SOL    HW2 4386   0.080   2.482   3.318
 1215SOL     OW 4387   0.560   2.090   3.029
 1215SOL    HW1 4388   0.597   2.010   3.066
 1215SOL    HW2 4389   0.468   2.089   3.057
 1216SOL     OW 4390   0.867   2.321   2.501
 1216SOL    HW1 4391   0.822   2.375   2.437
 1216SOL    HW2 4392   0.889   2.241   2.454
 1217SOL     OW 4393   1.016   1.915   2.613
 1217SOL    HW1 4394   0.957   1.908   2.537
 1217SOL    HW2 4395   0.994   1.840   2.667
 1218SOL     OW 4396   1.437   3.024   2.719
 1218SOL    HW1 4397   1.367   2.959   2.717
 1218SOL    HW2 4398   1.463   3.035   2.627
 1219SOL     OW 4399   1.467   2.471   2.841
 1219SOL    HW1 4400   1.417   2.389   2.841
 1219SOL    HW2 4401   1.532   2.460   2.910
 1220SOL     OW 4402   1.840   2.681   2.240
 1220SOL    HW1 4403   1.892   2.630   2.302
 1220SOL    HW2 4404   1.815   2.618   2.172
 1221SOL     OW 4405   0.491   3.281   2.019
 1221SOL    HW1 4406   0.416   3.253   2.071
 1221SOL    HW2 4407   0.477   3.242   1.933
 1222SOL     OW 4408   1.671   3.126   2.507
 1222SOL    HW1 4409   1.765   3.128   2.521
 1222SOL    HW2 4410   1.642   3.215   2.528
 1223SOL     OW 4411   1.394   2.434   1.933
 1223SOL    HW1 4412   1.333   2.414   2.004
 1223SOL    HW2 4413   1.479   2.405   1.965
 1224SOL     OW 4414   0.524   2.125   2.178
 1224SOL    HW1 4415   0.570   2.079   2.108
 1224SOL    HW2 4416   0.501   2.209   2.139
 1225SOL     OW 4417   1.057   3.215   3.194
 1225SOL    HW1 4418   0.982   3.184   3.246
 1225SOL    HW2 4419   1.133   3.174   3.236
 1226SOL     OW 4420   1.604   3.487   3.516
 1226SOL    HW1 4421   1.597   3.523   3.427
 1226SOL    HW2 4422   1.686   3.439   3.516
 1227SOL     OW 4423   1.129   3.066   2.966
 1227SOL    HW1 4424   1.070   3.105   3.031
 1227SOL    HW2 4425   1.098   3.100   2.882
 1228SOL     OW 4426   1.627   2.959   2.940
 1228SOL    HW1 4427   1.616   3.017   3.015
 1228SOL    HW2 4428   1.549   2.974   2.887
 1229SOL     OW 4429   0.919   1.958   3.258
 1229SOL    HW1 4430   0.941   1.940   3.167
 1229SOL    HW2 4431   0.998   1.997   3.295
 1230SOL     OW 4432   0.984   2.977   3.585
 1230SOL    HW1 4433   0.893   2.993   3.606
 1230SOL    HW2 4434   0.982   2.899   3.529
 1231SOL     OW 4435   0.708   2.922   2.234
 1231SOL    HW1 4436   0.696   2.906   2.328
 1231SOL    HW2 4437   0.784   2.870   2.210
 1232SOL     OW 4438   0.421   2.682   3.115
 1232SOL    HW1 4439   0.490   2.689   3.181
 1232SOL    HW2 4440   0.386   2.593   3.125
 1233SOL     OW 4441   1.265   2.238   3.139
 1233SOL    HW1 4442   1.297   2.316   3.183
 1233SOL    HW2 4443   1.175   2.259   3.115
 1234SOL     OW 4444   0.102   3.485   3.228
 1234SOL    HW1 4445   0.081   3.493   3.136
 1234SOL    HW2 4446   0.188   3.444   3.230
 1235SOL     OW 4447   0.342   2.969   2.349
 1235SOL    HW1 4448   0.350   3.048   2.295
 1235SOL    HW2 4449   0.350   2.897   2.286
 1236SOL     OW 4450   0.554   2.397   2.721
 1236SOL    HW1 4451   0.569   2.456   2.647
 1236SOL    HW2 4452   0.619   2.424   2.786
 1237SOL     OW 4453   1.248   3.211   2.251
 1237SOL    HW1 4454   1.304   3.282   2.282
 1237SOL    HW2 4455   1.161   3.232   2.285
 1238SOL     OW 4456   1.283   3.320   3.010
 1238SOL    HW1 4457   1.338   3.323   3.087
 1238SOL    HW2 4458   1.227   3.243   3.022
 1239SOL     OW 4459   1.579   2.482   2.341
 1239SOL    HW1 4460   1.534   2.538   2.404
 1239SOL    HW2 4461   1.632   2.543   2.289
 1240SOL     OW 4462   0.352   3.382   3.172
 1240SOL    HW1 4463   0.341   3.338   3.087
 1240SOL    HW2 4464   0.446   3.399   3.178
 1241SOL     OW 4465   0.414   2.604   3.464
 1241SOL    HW1 4466   0.476   2.650   3.407
 1241SOL    HW2 4467   0.453   2.518   3.477
 1242SOL     OW 4468   1.605   2.644   3.526
 1242SOL    HW1 4469   1.519   2.685   3.537
 1242SOL    HW2 4470   1.632   2.670   3.438
 1243SOL     OW 4471   0.996   1.987   3.617
 1243SOL    HW1 4472   1.053   2.059   3.590
 1243SOL    HW2 4473   1.044   1.908   3.592
 1244SOL     OW 4474   0.497   1.903   3.610
 1244SOL    HW1 4475   0.454   1.849   3.544
 1244SOL    HW2 4476   0.438   1.977   3.623
 1245SOL     OW 4477   0.585   2.736   2.895
 1245SOL    HW1 4478   0.617   2.826   2.894
 1245SOL    HW2 4479   0.529   2.731   2.972
 1246SOL     OW 4480   1.355   2.721   2.890
 1246SOL    HW1 4481   1.272   2.711   2.844
 1246SOL    HW2 4482   1.397   2.636   2.883
 1247SOL     OW 4483   1.203   2.390   2.128
 1247SOL    HW1 4484   1.212   2.312   2.183
 1247SOL    HW2 4485   1.161   2.455   2.184
 1248SOL     OW 4486   0.301   2.065   3.110
 1248SOL    HW1 4487   0.267   2.089   3.196
 1248SOL    HW2 4488   0.289   1.970   3.105
 1249SOL     OW 4489   0.067   3.179   3.142
 1249SOL    HW1 4490   0.091   3.121   3.213
 1249SOL    HW2 4491   5.296   3.233   3.178
 1250SOL     OW 4492   0.724   2.493   2.919
 1250SOL    HW1 4493   0.799   2.478   2.862
 1250SOL    HW2 4494   0.695   2.582   2.899
 1251SOL     OW 4495   1.723   2.811   3.721
 1251SOL    HW1 4496   1.675   2.752   3.661
 1251SOL    HW2 4497   1.661   2.827   3.792
 1252SOL     OW 4498   0.328   1.924   2.496
 1252SOL    HW1 4499   0.307   2.013   2.523
 1252SOL    HW2 4500   0.332   1.875   2.578
 1253SOL     OW 4501   1.616   2.236   2.228
 1253SOL    HW1 4502   1.644   2.173   2.294
 1253SOL    HW2 4503   1.594   2.315   2.277
 1254SOL     OW 4504   1.028   2.621   2.822
 1254SOL    HW1 4505   1.024   2.638   2.916
 1254SOL    HW2 4506   1.001   2.529   2.813
 1255SOL     OW 4507   0.982   3.428   3.580
 1255SOL    HW1 4508   0.967   3.472   3.496
 1255SOL    HW2 4509   1.026   3.346   3.556
 1256SOL     OW 4510   1.849   3.382   3.459
 1256SOL    HW1 4511   1.877   3.401   3.369
 1256SOL    HW2 4512   1.928   3.395   3.512
 1257SOL     OW 4513   0.354   2.780   3.668
 1257SOL    HW1 4514   0.435   2.800   3.715
 1257SOL    HW2 4515   0.379   2.715   3.603
 1258SOL     OW 4516   1.530   2.133   1.989
 1258SOL    HW1 4517   1.464   2.069   2.016
 1258SOL    HW2 4518   1.562   2.170   2.071
 1259SOL     OW 4519   1.290   2.688   1.892
 1259SOL    HW1 4520   1.334   2.603   1.896
 1259SOL    HW2 4521   1.322   2.727   1.811
 1260SOL     OW 4522   1.067   3.198   2.717
 1260SOL    HW1 4523   1.070   3.126   2.654
 1260SOL    HW2 4524   1.127   3.263   2.682
 1261SOL     OW 4525   0.313   2.671   2.812
 1261SOL    HW1 4526   0.407   2.689   2.808
 1261SOL    HW2 4527   0.307   2.581   2.843
 1262SOL     OW 4528   0.335   2.388   2.877
 1262SOL    HW1 4529   0.300   2.300   2.863
 1262SOL    HW2 4530   0.410   2.394   2.818
 1263SOL     OW 4531   1.135   2.238   3.544
 1263SOL    HW1 4532   1.086   2.292   3.606
 1263SOL    HW2 4533   1.222   2.277   3.542
 1264SOL     OW 4534   1.162   2.064   3.333
 1264SOL    HW1 4535   1.150   2.126   3.404
 1264SOL    HW2 4536   1.199   2.115   3.261
 1265SOL     OW 4537   0.002   3.191   2.072
 1265SOL    HW1 4538   5.230   3.178   2.011
 1265SOL    HW2 4539   0.013   3.105   2.115
 1266SOL     OW 4540   0.094   3.643   2.814
 1266SOL    HW1 4541   0.060   3.574   2.757
 1266SOL    HW2 4542   0.181   3.662   2.779
 1267SOL     OW 4543   0.505   3.436   2.770
 1267SOL    HW1 4544   0.572   3.501   2.790
 1267SOL    HW2 4545   0.548   3.375   2.710
 1268SOL     OW 4546   0.982   2.652   3.088
 1268SOL    HW1 4547   1.038   2.631   3.162
 1268SOL    HW2 4548   0.896   2.616   3.111
 1269SOL     OW 4549   0.032   2.426   2.979
 1269SOL    HW1 4550   0.118   2.400   2.945
 1269SOL    HW2 4551   0.036   2.406   3.072
 1270SOL     OW 4552   0.174   2.376   3.574
 1270SOL    HW1 4553   0.238   2.337   3.514
 1270SOL    HW2 4554   0.147   2.457   3.531
 1271SOL     OW 4555   1.379   2.799   3.523
 1271SOL    HW1 4556   1.397   2.893   3.522
 1271SOL    HW2 4557   1.373   2.774   3.430
 1272SOL     OW 4558   0.816   2.431   2.224
 1272SOL    HW1 4559   0.821   2.357   2.163
 1272SOL    HW2 4560   0.743   2.483   2.192
 1273SOL     OW 4561   1.658   2.450   3.043
 1273SOL    HW1 4562   1.623   2.410   3.122
 1273SOL    HW2 4563   1.744   2.410   3.031
 1274SOL     OW 4564   0.256   3.418   3.596
 1274SOL    HW1 4565   0.234   3.481   3.665
 1274SOL    HW2 4566   0.250   3.332   3.639
 1275SOL     OW 4567   0.704   2.312   3.121
 1275SOL    HW1 4568   0.651   2.238   3.092
 1275SOL    HW2 4569   0.699   2.374   3.049
 1276SOL     OW 4570   0.928   3.541   3.330
 1276SOL    HW1 4571   0.901   3.505   3.245
 1276SOL    HW2 4572   0.922   3.636   3.319
 1277SOL     OW 4573   0.464   2.355   2.046
 1277SOL    HW1 4574   0.525   2.426   2.069
 1277SOL    HW2 4575   0.380   2.398   2.033
 1278SOL     OW 4576   0.148   2.999   3.333
 1278SOL    HW1 4577   0.145   2.951   3.416
 1278SOL    HW2 4578   0.159   2.932   3.266
 1279SOL     OW 4579   1.321   2.906   3.087
 1279SOL    HW1 4580   1.347   2.844   3.019
 1279SOL    HW2 4581   1.253   2.960   3.046
 1280SOL     OW 4582   1.312   2.719   2.168
 1280SOL    HW1 4583   1.236   2.688   2.218
 1280SOL    HW2 4584   1.287   2.705   2.076
 1281SOL     OW 4585   1.775   3.605   3.015
 1281SOL    HW1 4586   1.834   3.632   2.945
 1281SOL    HW2 4587   1.747   3.516   2.990
 1282SOL     OW 4588   1.241   3.595   2.974
 1282SOL    HW1 4589   1.323   3.617   2.929
 1282SOL    HW2 4590   1.247   3.501   2.992
 1283SOL     OW 4591   0.082   3.076   2.889
 1283SOL    HW1 4592   0.070   3.103   2.980
 1283SOL    HW2 4593   5.294   3.066   2.855
 1284SOL     OW 4594   0.678   3.529   3.593
 1284SOL    HW1 4595   0.621   3.606   3.587
 1284SOL    HW2 4596   0.742   3.541   3.523
 1285SOL     OW 4597   1.720   2.010   2.371
 1285SOL    HW1 4598   1.791   1.995   2.309
 1285SOL    HW2 4599   1.704   1.924   2.411
 1286SOL     OW 4600   1.391   3.430   2.348
 1286SOL    HW1 4601   1.451   3.462   2.281
 1286SOL    HW2 4602   1.342   3.507   2.376
 1287SOL     OW 4603   0.146   3.660   3.704
 1287SOL    HW1 4604   0.091   3.597   3.751
 1287SOL    HW2 4605   0.193   3.707   3.773
 1288SOL     OW 4606   1.277   2.788   2.533
 1288SOL    HW1 4607   1.351   2.727   2.540
 1288SOL    HW2 4608   1.311   2.860   2.480
 1289SOL     OW 4609   0.812   3.135   3.291
 1289SOL    HW1 4610   0.784   3.175   3.373
 1289SOL    HW2 4611   0.743   3.157   3.229
 1290SOL     OW 4612   0.672   3.482   2.017
 1290SOL    HW1 4613   0.683   3.496   1.923
 1290SOL    HW2 4614   0.617   3.404   2.024
 1291SOL     OW 4615   1.623   3.590   3.251
 1291SOL    HW1 4616   1.673   3.598   3.170
 1291SOL    HW2 4617   1.610   3.680   3.280
 1292SOL     OW 4618   1.840   2.036   2.831
 1292SOL    HW1 4619   1.868   1.948   2.805
 1292SOL    HW2 4620   1.754   2.046   2.790
 1293SOL     OW 4621   0.273   2.179   2.579
 1293SOL    HW1 4622   0.187   2.217   2.559
 1293SOL    HW2 4623   0.273   2.168   2.674
 1294SOL     OW 4624   1.207   3.467   1.894
 1294SOL    HW1 4625   1.197   3.376   1.920
 1294SOL    HW2 4626   1.142   3.480   1.825
 1295SOL     OW 4627   0.824   2.868   3.235
 1295SOL    HW1 4628   0.867   2.864   3.149
 1295SOL    HW2 4629   0.823   2.961   3.257
 1296SOL     OW 4630   0.915   2.772   2.152
 1296SOL    HW1 4631   0.976   2.805   2.086
 1296SOL    HW2 4632   0.964   2.704   2.198
 1297SOL     OW 4633   1.491   3.488   1.905
 1297SOL    HW1 4634   1.397   3.481   1.891
 1297SOL    HW2 4635   1.528   3.494   1.817
 1298SOL     OW 4636   0.367   3.166   3.355
 1298SOL    HW1 4637   0.359   3.240   3.295
 1298SOL    HW2 4638   0.292   3.111   3.336
 1299SOL     OW 4639   1.597   3.138   3.142
 1299SOL    HW1 4640   1.685   3.151   3.179
 1299SOL    HW2 4641   1.546   3.212   3.175
 1300SOL     OW 4642   1.053   2.970   2.569
 1300SOL    HW1 4643   0.983   2.918   2.608
 1300SOL    HW2 4644   1.116   2.904   2.539
 1301SOL     OW 4645   1.023   2.102   2.828
 1301SOL    HW1 4646   1.017   2.055   2.745
 1301SOL    HW2 4647   1.016   2.034   2.895
 1302SOL     OW 4648   0.602   3.349   2.343
 1302SOL    HW1 4649   0.648   3.301   2.274
 1302SOL    HW2 4650   0.534   3.398   2.296
 1303SOL     OW 4651   0.261   3.210   2.155
 1303SOL    HW1 4652   0.168   3.212   2.132
 1303SOL    HW2 4653   0.264   3.247   2.243
 1304SOL     OW 4654   0.117   2.878   3.579
 1304SOL    HW1 4655   0.046   2.843   3.634
 1304SOL    HW2 4656   0.197   2.847   3.622
 1305SOL     OW 4657   0.675   2.058   3.362
 1305SOL    HW1 4658   0.759   2.038   3.320
 1305SOL    HW2 4659   0.698   2.090   3.449
 1306SOL     OW 4660   0.084   2.210   1.903
 1306SOL    HW1 4661   0.003   2.163   1.880
 1306SOL    HW2 4662   0.099   2.268   1.829
 1307SOL     OW 4663   1.428   2.721   3.264
 1307SOL    HW1 4664   1.375   2.781   3.212
 1307SOL    HW2 4665   1.514   2.724   3.223
 1308SOL     OW 4666   0.057   1.995   2.106
 1308SOL    HW1 4667   0.056   2.090   2.094
 1308SOL    HW2 4668   0.145   1.969   2.082
 1309SOL     OW 4669   1.179   3.201   1.979
 1309SOL    HW1 4670   1.088   3.171   1.981
 1309SOL    HW2 4671   1.206   3.201   2.071
 1310SOL     OW 4672   0.620   2.692   3.298
 1310SOL    HW1 4673   0.676   2.768   3.282
 1310SOL    HW2 4674   0.681   2.619   3.305
 1311SOL     OW 4675   1.483   3.640   2.842
 1311SOL    HW1 4676   1.506   3.700   2.770
 1311SOL    HW2 4677   1.566   3.619   2.883
 1312SOL     OW 4678   0.718   2.425   3.565
 1312SOL    HW1 4679   0.759   2.487   3.626
 1312SOL    HW2 4680   0.743   2.339   3.598
 1313SOL     OW 4681   1.463   3.063   3.498
 1313SOL    HW1 4682   1.448   3.073   3.592
 1313SOL    HW2 4683   1.552   3.096   3.485
 1314SOL     OW 4684   0.377   3.605   3.427
 1314SOL    HW1 4685   0.294   3.651   3.410
 1314SOL    HW2 4686   0.351   3.524   3.471
 1315SOL     OW 4687   1.657   2.733   3.125
 1315SOL    HW1 4688   1.670   2.656   3.070
 1315SOL    HW2 4689   1.668   2.807   3.065
 1316SOL     OW 4690   1.216   2.181   2.320
 1316SOL    HW1 4691   1.280   2.109   2.312
 1316SOL    HW2 4692   1.245   2.230   2.396
 1317SOL     OW 4693   0.590   2.599   2.532
 1317SOL    HW1 4694   0.629   2.685   2.517
 1317SOL    HW2 4695   0.521   2.592   2.466
 1318SOL     OW 4696   1.736   2.224   3.513
 1318SOL    HW1 4697   1.758   2.194   3.425
 1318SOL    HW2 4698   1.666   2.165   3.542
 1319SOL     OW 4699   0.863   3.229   1.897
 1319SOL    HW1 4700   0.824   3.258   1.980
 1319SOL    HW2 4701   0.881   3.309   1.849
 1320SOL     OW 4702   0.664   3.655   2.804
 1320SOL    HW1 4703   0.643   3.745   2.782
 1320SOL    HW2 4704   0.759   3.650   2.798
 1321SOL     OW 4705   0.868   2.829   2.716
 1321SOL    HW1 4706   0.918   2.758   2.755
 1321SOL    HW2 4707   0.833   2.878   2.791
 1322SOL     OW 4708   1.077   2.849   1.950
 1322SOL    HW1 4709   1.057   2.901   1.873
 1322SOL    HW2 4710   1.153   2.796   1.925
 1323SOL     OW 4711   1.853   3.417   2.705
 1323SOL    HW1 4712   1.775   3.406   2.650
 1323SOL    HW2 4713   1.844   3.350   2.773
 1324SOL     OW 4714   0.226   3.166   3.722
 1324SOL    HW1 4715   0.158   3.104   3.696
 1324SOL    HW2 4716   0.214   3.176   3.817
 1325SOL     OW 4717   0.088   3.081   2.517
 1325SOL    HW1 4718   0.102   3.049   2.606
 1325SOL    HW2 4719   0.175   3.079   2.476
 1326SOL     OW 4720   0.682   3.265   3.491
 1326SOL    HW1 4721   0.601   3.223   3.521
 1326SOL    HW2 4722   0.678   3.354   3.527
 1327SOL     OW 4723   1.800   2.056   3.106
 1327SOL    HW1 4724   1.826   1.966   3.126
 1327SOL    HW2 4725   1.810   2.064   3.011
 1328SOL     OW 4726   0.435   2.298   2.386
 1328SOL    HW1 4727   0.463   2.225   2.330
 1328SOL    HW2 4728   0.388   2.256   2.458
 1329SOL     OW 4729   1.699   3.354   2.956
 1329SOL    HW1 4730   1.618   3.326   2.913
 1329SOL    HW2 4731   1.719   3.283   3.017
 1330SOL     OW 4732   0.338   2.423   3.154
 1330SOL    HW1 4733   0.390   2.363   3.207
 1330SOL    HW2 4734   0.351   2.392   3.064
 1331SOL     OW 4735   0.829   3.439   2.539
 1331SOL    HW1 4736   0.815   3.497   2.464
 1331SOL    HW2 4737   0.753   3.382   2.541
 1332SOL     OW 4738   1.432   2.089   2.979
 1332SOL    HW1 4739   1.452   2.004   3.019
 1332SOL    HW2 4740   1.378   2.134   3.044
 1333SOL     OW 4741   1.009   1.880   3.003
 1333SOL    HW1 4742   0.954   1.813   2.963
 1333SOL    HW2 4743   1.097   1.841   3.005
 1334SOL     OW 4744   0.772   3.195   2.179
 1334SOL    HW1 4745   0.743   3.104   2.185
 1334SOL    HW2 4746   0.854   3.197   2.227
 1335SOL     OW 4747   0.623   3.417   3.150
 1335SOL    HW1 4748   0.624   3.500   3.199
 1335SOL    HW2 4749   0.710   3.412   3.110
 1336SOL     OW 4750   1.353   1.915   2.028
 1336SOL    HW1 4751   1.382   1.851   1.964
 1336SOL    HW2 4752   1.265   1.886   2.054
 1337SOL     OW 4753   1.296   2.323   2.542
 1337SOL    HW1 4754   1.244   2.403   2.548
 1337SOL    HW2 4755   1.292   2.285   2.630
 1338SOL     OW 4756   1.587   2.065   2.740
 1338SOL    HW1 4757   1.526   2.085   2.811
 1338SOL    HW2 4758   1.586   2.142   2.684
 1339SOL     OW 4759   0.048   2.930   2.153
 1339SOL    HW1 4760   0.137   2.897   2.141
 1339SOL    HW2 4761   5.299   2.856   2.187
 1340SOL     OW 4762   0.886   3.515   2.203
 1340SOL    HW1 4763   0.813   3.500   2.143
 1340SOL    HW2 4764   0.858   3.590   2.256
 1341SOL     OW 4765   0.233   2.493   3.840
 1341SOL    HW1 4766   0.161   2.458   3.893
 1341SOL    HW2 4767   0.217   2.460   3.752
 1342SOL     OW 4768   0.243   2.137   4.713
 1342SOL    HW1 4769   0.256   2.103   4.801
 1342SOL    HW2 4770   0.158   2.102   4.686
 1343SOL     OW 4771   5.298   2.261   4.377
 1343SOL    HW1 4772   5.205   2.283   4.382
 1343SOL    HW2 4773   5.300   2.171   4.345
 1344SOL     OW 4774   0.575   3.148   4.908
 1344SOL    HW1 4775   0.492   3.156   4.860
 1344SOL    HW2 4776   0.591   3.236   4.942
 1345SOL     OW 4777   1.560   3.375   4.431
 1345SOL    HW1 4778   1.517   3.354   4.514
 1345SOL    HW2 4779   1.488   3.380   4.368
 1346SOL     OW 4780   1.130   2.560   4.423
 1346SOL    HW1 4781   1.179   2.641   4.410
 1346SOL    HW2 4782   1.084   2.574   4.506
 1347SOL     OW 4783   1.770   2.457   3.949
 1347SOL    HW1 4784   1.738   2.449   3.859
 1347SOL    HW2 4785   1.733   2.381   3.994
 1348SOL     OW 4786   0.754   3.002   4.764
 1348SOL    HW1 4787   0.688   3.037   4.824
 1348SOL    HW2 4788   0.790   3.079   4.720
 1349SOL     OW 4789   0.868   2.635   5.546
 1349SOL    HW1 4790   0.858   2.706   5.609
 1349SOL    HW2 4791   0.891   2.678   5.464
 1350SOL     OW 4792   0.685   2.863   4.371
 1350SOL    HW1 4793   0.751   2.852   4.439
 1350SOL    HW2 4794   0.617   2.917   4.412
 1351SOL     OW 4795   0.710   3.012   5.538
 1351SOL    HW1 4796   0.758   3.090   5.565
 1351SOL    HW2 4797   0.629   3.046   5.501
 1352SOL     OW 4798   0.358   3.266   4.784
 1352SOL    HW1 4799   0.270   3.266   4.748
 1352SOL    HW2 4800   0.407   3.328   4.729
 1353SOL     OW 4801   1.462   3.363   5.080
 1353SOL    HW1 4802   1.512   3.444   5.091
 1353SOL    HW2 4803   1.398   3.366   5.152
 1354SOL     OW 4804   0.451   2.262   5.215
 1354SOL    HW1 4805   0.525   2.202   5.217
 1354SOL    HW2 4806   0.374   2.206   5.225
 1355SOL     OW 4807   1.603   2.305   4.462
 1355SOL    HW1 4808   1.528   2.331   4.408
 1355SOL    HW2 4809   1.620   2.381   4.518
 1356SOL     OW 4810   0.232   3.576   4.201
 1356SOL    HW1 4811   0.264   3.645   4.259
 1356SOL    HW2 4812   0.295   3.573   4.129
 1357SOL     OW 4813   1.137   3.204   5.417
 1357SOL    HW1 4814   1.178   3.198   5.503
 1357SOL    HW2 4815   1.085   3.124   5.410
 1358SOL     OW 4816   0.222   3.307   4.264
 1358SOL    HW1 4817   0.217   3.402   4.258
 1358SOL    HW2 4818   0.151   3.283   4.324
 1359SOL     OW 4819   0.250   2.939   4.598
 1359SOL    HW1 4820   0.262   2.853   4.640
 1359SOL    HW2 4821   0.199   2.989   4.661
 1360SOL     OW 4822   0.612   3.652   5.156
 1360SOL    HW1 4823   0.528   3.635   5.199
 1360SOL    HW2 4824   0.633   3.743   5.179
 1361SOL     OW 4825   0.582   2.846   3.860
 1361SOL    HW1 4826   0.629   2.893   3.791
 1361SOL    HW2 4827   0.623   2.876   3.941
 1362SOL     OW 4828   1.595   1.985   5.193
 1362SOL    HW1 4829   1.604   2.064   5.141
 1362SOL    HW2 4830   1.581   2.016   5.282
 1363SOL     OW 4831   0.126   2.496   4.304
 1363SOL    HW1 4832   0.089   2.412   4.333
 1363SOL    HW2 4833   0.099   2.559   4.370
 1364SOL     OW 4834   1.842   3.621   4.060
 1364SOL    HW1 4835   1.908   3.592   4.122
 1364SOL    HW2 4836   1.865   3.712   4.040
 1365SOL     OW 4837   0.038   3.461   3.857
 1365SOL    HW1 4838   0.025   3.370   3.882
 1365SOL    HW2 4839   5.282   3.511   3.916
 1366SOL     OW 4840   1.682   2.761   4.350
 1366SOL    HW1 4841   1.775   2.778   4.360
 1366SOL    HW2 4842   1.653   2.823   4.283
 1367SOL     OW 4843   1.647   2.968   4.156
 1367SOL    HW1 4844   1.732   2.972   4.113
 1367SOL    HW2 4845   1.653   3.030   4.229
 1368SOL     OW 4846   0.132   2.611   5.308
 1368SOL    HW1 4847   0.227   2.624   5.309
 1368SOL    HW2 4848   0.095   2.697   5.326
 1369SOL     OW 4849   0.616   3.248   4.458
 1369SOL    HW1 4850   0.568   3.166   4.469
 1369SOL    HW2 4851   0.598   3.275   4.368
 1370SOL     OW 4852   1.288   3.101   5.147
 1370SOL    HW1 4853   1.320   3.034   5.086
 1370SOL    HW2 4854   1.347   3.094   5.223
 1371SOL     OW 4855   0.824   1.862   4.234
 1371SOL    HW1 4856   0.864   1.946   4.214
 1371SOL    HW2 4857   0.730   1.880   4.240
 1372SOL     OW 4858   0.175   2.806   5.003
 1372SOL    HW1 4859   0.266   2.777   4.995
 1372SOL    HW2 4860   0.135   2.784   4.919
 1373SOL     OW 4861   1.527   2.857   3.925
 1373SOL    HW1 4862   1.458   2.801   3.961
 1373SOL    HW2 4863   1.573   2.891   4.002
 1374SOL     OW 4864   1.185   3.669   5.347
 1374SOL    HW1 4865   1.194   3.729   5.272
 1374SOL    HW2 4866   1.202   3.582   5.311
 1375SOL     OW 4867   0.338   2.116   5.543
 1375SOL    HW1 4868   0.385   2.198   5.556
 1375SOL    HW2 4869   0.250   2.132   5.577
 1376SOL     OW 4870   1.467   3.283   4.675
 1376SOL    HW1 4871   1.399   3.298   4.742
 1376SOL    HW2 4872   1.456   3.192   4.649
 1377SOL     OW 4873   1.656   3.604   4.304
 1377SOL    HW1 4874   1.642   3.575   4.214
 1377SOL    HW2 4875   1.631   3.529   4.358
 1378SOL     OW 4876   0.595   2.582   3.991
 1378SOL    HW1 4877   0.602   2.664   3.941
 1378SOL    HW2 4878   0.531   2.602   4.059
 1379SOL     OW 4879   1.279   2.217   4.657
 1379SOL    HW1 4880   1.190   2.184   4.665
 1379SOL    HW2 4881   1.331   2.164   4.717
 1380SOL     OW 4882   1.580   3.533   4.033
 1380SOL    HW1 4883   1.671   3.562   4.027
 1380SOL    HW2 4884   1.553   3.516   3.943
 1381SOL     OW 4885   0.792   2.479   5.175
 1381SOL    HW1 4886   0.765   2.455   5.263
 1381SOL    HW2 4887   0.752   2.412   5.119
 1382SOL     OW 4888   1.393   2.336   5.402
 1382SOL    HW1 4889   1.396   2.381   5.486
 1382SOL    HW2 4890   1.454   2.263   5.412
 1383SOL     OW 4891   0.954   2.749   5.307
 1383SOL    HW1 4892   1.008   2.679   5.271
 1383SOL    HW2 4893   0.906   2.783   5.232
 1384SOL     OW 4894   0.992   2.274   4.962
 1384SOL    HW1 4895   0.906   2.295   4.997
 1384SOL    HW2 4896   0.974   2.229   4.880
 1385SOL     OW 4897   1.051   2.560   4.150
 1385SOL    HW1 4898   1.068   2.554   4.244
 1385SOL    HW2 4899   0.969   2.514   4.136
 1386SOL     OW 4900   0.070   2.650   4.535
 1386SOL    HW1 4901   0.151   2.654   4.586
 1386SOL    HW2 4902   0.066   2.734   4.490
 1387SOL     OW 4903   0.129   3.747   5.309
 1387SOL    HW1 4904   0.133   3.719   5.400
 1387SOL    HW2 4905   0.060   3.693   5.270
 1388SOL     OW 4906   0.894   2.211   3.919
 1388SOL    HW1 4907   0.934   2.273   3.858
 1388SOL    HW2 4908   0.909   2.125   3.878
 1389SOL     OW 4909   1.705   2.435   5.553
 1389SOL    HW1 4910   1.671   2.510   5.505
 1389SOL    HW2 4911   1.737   2.375   5.485
 1390SOL     OW 4912   1.379   3.004   4.264
 1390SOL    HW1 4913   1.458   2.993   4.212
 1390SOL    HW2 4914   1.325   3.066   4.215
 1391SOL     OW 4915   0.556   2.045   4.618
 1391SOL    HW1 4916   0.553   2.073   4.709
 1391SOL    HW2 4917   0.552   2.126   4.567
 1392SOL     OW 4918   1.004   3.305   4.195
 1392SOL    HW1 4919   0.968   3.379   4.146
 1392SOL    HW2 4920   0.986   3.326   4.287
 1393SOL     OW 4921   0.357   3.665   4.594
 1393SOL    HW1 4922   0.397   3.579   4.607
 1393SOL    HW2 4923   0.423   3.728   4.625
 1394SOL     OW 4924   1.228   3.401   5.237
 1394SOL    HW1 4925   1.214   3.328   5.298
 1394SOL    HW2 4926   1.164   3.386   5.167
 1395SOL     OW 4927   0.315   2.814   3.972
 1395SOL    HW1 4928   0.397   2.838   3.928
 1395SOL    HW2 4929   0.293   2.728   3.937
 1396SOL     OW 4930   1.475   2.603   4.450
 1396SOL    HW1 4931   1.473   2.565   4.538
 1396SOL    HW2 4932   1.554   2.657   4.449
 1397SOL     OW 4933   0.465   3.127   5.462
 1397SOL    HW1 4934   0.439   3.133   5.370
 1397SOL    HW2 4935   0.383   3.127   5.511
 1398SOL     OW 4936   1.122   3.640   3.955
 1398SOL    HW1 4937   1.049   3.598   4.000
 1398SOL    HW2 4938   1.146   3.578   3.885
 1399SOL     OW 4939   0.205   2.141   5.221
 1399SOL    HW1 4940   0.127   2.193   5.205
 1399SOL    HW2 4941   0.173   2.061   5.263
 1400SOL     OW 4942   1.623   3.243   3.810
 1400SOL    HW1 4943   1.582   3.328   3.795
 1400SOL    HW2 4944   1.554   3.179   3.792
 1401SOL     OW 4945   0.471   3.597   4.043
 1401SOL    HW1 4946   0.514   3.654   4.106
 1401SOL    HW2 4947   0.542   3.565   3.987
 1402SOL     OW 4948   1.404   1.970   4.158
 1402SOL    HW1 4949   1.394   1.944   4.066
 1402SOL    HW2 4950   1.499   1.974   4.171
 1403SOL     OW 4951   0.277   3.663   4.935
 1403SOL    HW1 4952   0.307   3.584   4.981
 1403SOL    HW2 4953   0.225   3.629   4.862
 1404SOL     OW 4954   0.939   3.561   4.623
 1404SOL    HW1 4955   1.017   3.509   4.643
 1404SOL    HW2 4956   0.895   3.511   4.554
 1405SOL     OW 4957   0.386   2.558   4.202
 1405SOL    HW1 4958   0.415   2.467   4.212
 1405SOL    HW2 4959   0.293   2.555   4.223
 1406SOL     OW 4960   1.533   2.087   5.449
 1406SOL    HW1 4961   1.543   2.108   5.542
 1406SOL    HW2 4962   1.465   2.020   5.447
 1407SOL     OW 4963   0.636   1.984   3.828
 1407SOL    HW1 4964   0.703   1.918   3.842
 1407SOL    HW2 4965   0.586   1.953   3.752
 1408SOL     OW 4966   0.766   2.140   5.478
 1408SOL    HW1 4967   0.843   2.083   5.479
 1408SOL    HW2 4968   0.718   2.116   5.558
 1409SOL     OW 4969   0.877   3.384   4.918
 1409SOL    HW1 4970   0.861   3.347   4.831
 1409SOL    HW2 4971   0.947   3.329   4.954
 1410SOL     OW 4972   1.342   2.451   5.155
 1410SOL    HW1 4973   1.371   2.420   5.241
 1410SOL    HW2 4974   1.376   2.540   5.148
 1411SOL     OW 4975   0.816   3.255   4.665
 1411SOL    HW1 4976   0.901   3.244   4.621
 1411SOL    HW2 4977   0.752   3.258   4.594
 1412SOL     OW 4978   0.928   2.371   4.627
 1412SOL    HW1 4979   0.904   2.363   4.534
 1412SOL    HW2 4980   0.959   2.284   4.651
 1413SOL     OW 4981   0.561   1.923   4.219
 1413SOL    HW1 4982   0.486   1.923   4.279
 1413SOL    HW2 4983   0.550   2.002   4.167
 1414SOL     OW 4984   1.423   3.059   3.766
 1414SOL    HW1 4985   1.456   2.986   3.818
 1414SOL    HW2 4986   1.339   3.082   3.807
 1415SOL     OW 4987   0.306   1.909   3.902
 1415SOL    HW1 4988   0.368   1.973   3.868
 1415SOL    HW2 4989   0.360   1.845   3.948
 1416SOL     OW 4990   0.940   2.109   4.183
 1416SOL    HW1 4991   0.914   2.151   4.100
 1416SOL    HW2 4992   1.035   2.124   4.188
 1417SOL     OW 4993   1.080   2.543   5.183
 1417SOL    HW1 4994   1.012   2.476   5.187
 1417SOL    HW2 4995   1.162   2.493   5.176
 1418SOL     OW 4996   1.223   3.432   4.518
 1418SOL    HW1 4997   1.238   3.499   4.451
 1418SOL    HW2 4998   1.291   3.446   4.583
 1419SOL     OW 4999   0.468   3.013   4.454
 1419SOL    HW1 5000   0.399   2.992   4.517
 1419SOL    HW2 5001   0.428   2.995   4.369
 1420SOL     OW 5002   1.268   3.656   4.333
 1420SOL    HW1 5003   1.315   3.717   4.276
 1420SOL    HW2 5004   1.201   3.709   4.375
 1421SOL     OW 5005   1.024   2.403   3.747
 1421SOL    HW1 5006   0.981   2.486   3.728
 1421SOL    HW2 5007   1.089   2.424   3.814
 1422SOL     OW 5008   0.089   2.406   5.123
 1422SOL    HW1 5009   0.176   2.414   5.085
 1422SOL    HW2 5010   0.080   2.482   5.180
 1423SOL     OW 5011   0.560   2.090   4.891
 1423SOL    HW1 5012   0.598   2.010   4.929
 1423SOL    HW2 5013   0.468   2.088   4.918
 1424SOL     OW 5014   0.867   2.321   4.364
 1424SOL    HW1 5015   0.822   2.375   4.299
 1424SOL    HW2 5016   0.889   2.241   4.316
 1425SOL     OW 5017   1.016   1.915   4.475
 1425SOL    HW1 5018   0.957   1.908   4.399
 1425SOL    HW2 5019   0.994   1.840   4.530
 1426SOL     OW 5020   1.439   3.027   4.581
 1426SOL    HW1 5021   1.372   2.959   4.586
 1426SOL    HW2 5022   1.461   3.032   4.488
 1427SOL     OW 5023   1.470   2.467   4.700
 1427SOL    HW1 5024   1.416   2.388   4.703
 1427SOL    HW2 5025   1.531   2.458   4.773
 1428SOL     OW 5026   1.832   2.688   4.074
 1428SOL    HW1 5027   1.841   2.656   4.164
 1428SOL    HW2 5028   1.811   2.609   4.023
 1429SOL     OW 5029   0.491   3.281   3.881
 1429SOL    HW1 5030   0.416   3.253   3.933
 1429SOL    HW2 5031   0.476   3.242   3.794
 1430SOL     OW 5032   1.673   3.132   4.368
 1430SOL    HW1 5033   1.767   3.147   4.381
 1430SOL    HW2 5034   1.633   3.217   4.387
 1431SOL     OW 5035   1.391   2.436   3.793
 1431SOL    HW1 5036   1.334   2.414   3.867
 1431SOL    HW2 5037   1.478   2.406   3.820
 1432SOL     OW 5038   0.524   2.125   4.040
 1432SOL    HW1 5039   0.571   2.079   3.970
 1432SOL    HW2 5040   0.501   2.209   4.001
 1433SOL     OW 5041   1.751   3.096   5.308
 1433SOL    HW1 5042   1.830   3.050   5.337
 1433SOL    HW2 5043   1.769   3.188   5.327
 1434SOL     OW 5044   1.058   3.215   5.057
 1434SOL    HW1 5045   0.983   3.184   5.108
 1434SOL    HW2 5046   1.134   3.174   5.098
 1435SOL     OW 5047   1.609   3.488   5.379
 1435SOL    HW1 5048   1.603   3.522   5.290
 1435SOL    HW2 5049   1.691   3.438   5.380
 1436SOL     OW 5050   1.129   3.067   4.829
 1436SOL    HW1 5051   1.071   3.105   4.893
 1436SOL    HW2 5052   1.097   3.100   4.745
 1437SOL     OW 5053   1.627   2.947   4.802
 1437SOL    HW1 5054   1.616   3.015   4.868
 1437SOL    HW2 5055   1.566   2.971   4.732
 1438SOL     OW 5056   0.919   1.958   5.120
 1438SOL    HW1 5057   0.941   1.940   5.029
 1438SOL    HW2 5058   0.998   1.998   5.156
 1439SOL     OW 5059   0.984   2.977   5.447
 1439SOL    HW1 5060   0.892   2.993   5.468
 1439SOL    HW2 5061   0.983   2.899   5.391
 1440SOL     OW 5062   0.708   2.922   4.096
 1440SOL    HW1 5063   0.696   2.906   4.190
 1440SOL    HW2 5064   0.784   2.869   4.072
 1441SOL     OW 5065   0.421   2.682   4.977
 1441SOL    HW1 5066   0.490   2.689   5.043
 1441SOL    HW2 5067   0.386   2.593   4.987
 1442SOL     OW 5068   1.265   2.238   5.001
 1442SOL    HW1 5069   1.297   2.316   5.046
 1442SOL    HW2 5070   1.174   2.260   4.978
 1443SOL     OW 5071   0.102   3.485   5.090
 1443SOL    HW1 5072   0.081   3.493   4.997
 1443SOL    HW2 5073   0.188   3.444   5.092
 1444SOL     OW 5074   0.342   2.969   4.211
 1444SOL    HW1 5075   0.350   3.048   4.157
 1444SOL    HW2 5076   0.350   2.897   4.148
 1445SOL     OW 5077   0.553   2.397   4.583
 1445SOL    HW1 5078   0.569   2.456   4.509
 1445SOL    HW2 5079   0.618   2.423   4.648
 1446SOL     OW 5080   1.248   3.211   4.113
 1446SOL    HW1 5081   1.304   3.282   4.144
 1446SOL    HW2 5082   1.161   3.232   4.147
 1447SOL     OW 5083   1.282   3.320   4.872
 1447SOL    HW1 5084   1.339   3.323   4.949
 1447SOL    HW2 5085   1.228   3.242   4.883
 1448SOL     OW 5086   1.582   2.488   4.204
 1448SOL    HW1 5087   1.538   2.537   4.274
 1448SOL    HW2 5088   1.611   2.555   4.142
 1449SOL     OW 5089   0.352   3.382   5.034
 1449SOL    HW1 5090   0.341   3.338   4.949
 1449SOL    HW2 5091   0.446   3.399   5.040
 1450SOL     OW 5092   0.414   2.604   5.326
 1450SOL    HW1 5093   0.476   2.650   5.269
 1450SOL    HW2 5094   0.454   2.518   5.339
 1451SOL     OW 5095   1.603   2.642   5.406
 1451SOL    HW1 5096   1.518   2.685   5.398
 1451SOL    HW2 5097   1.656   2.682   5.337
 1452SOL     OW 5098   0.996   1.987   5.479
 1452SOL    HW1 5099   1.052   2.059   5.452
 1452SOL    HW2 5100   1.044   1.908   5.453
 1453SOL     OW 5101   0.497   1.903   5.472
 1453SOL    HW1 5102   0.454   1.849   5.406
 1453SOL    HW2 5103   0.438   1.977   5.485
 1454SOL     OW 5104   0.585   2.736   4.756
 1454SOL    HW1 5105   0.618   2.826   4.757
 1454SOL    HW2 5106   0.529   2.731   4.834
 1455SOL     OW 5107   1.355   2.720   4.751
 1455SOL    HW1 5108   1.271   2.708   4.707
 1455SOL    HW2 5109   1.397   2.634   4.745
 1456SOL     OW 5110   1.204   2.390   3.990
 1456SOL    HW1 5111   1.212   2.312   4.045
 1456SOL    HW2 5112   1.161   2.454   4.047
 1457SOL     OW 5113   0.301   2.065   4.972
 1457SOL    HW1 5114   0.267   2.089   5.058
 1457SOL    HW2 5115   0.289   1.970   4.967
 1458SOL     OW 5116   0.067   3.179   5.004
 1458SOL    HW1 5117   0.091   3.121   5.075
 1458SOL    HW2 5118   5.296   3.233   5.040
 1459SOL     OW 5119   0.723   2.493   4.781
 1459SOL    HW1 5120   0.799   2.477   4.724
 1459SOL    HW2 5121   0.696   2.582   4.760
 1460SOL     OW 5122   1.733   2.825   5.574
 1460SOL    HW1 5123   1.690   2.758   5.521
 1460SOL    HW2 5124   1.675   2.837   5.650
 1461SOL     OW 5125   0.328   1.924   4.358
 1461SOL    HW1 5126   0.307   2.013   4.385
 1461SOL    HW2 5127   0.333   1.875   4.440
 1462SOL     OW 5128   1.617   2.242   4.084
 1462SOL    HW1 5129   1.637   2.172   4.146
 1462SOL    HW2 5130   1.596   2.317   4.139
 1463SOL     OW 5131   1.028   2.621   4.684
 1463SOL    HW1 5132   1.024   2.638   4.778
 1463SOL    HW2 5133   1.002   2.529   4.676
 1464SOL     OW 5134   0.981   3.428   5.442
 1464SOL    HW1 5135   0.967   3.472   5.358
 1464SOL    HW2 5136   1.026   3.346   5.418
 1465SOL     OW 5137   1.855   3.365   5.328
 1465SOL    HW1 5138   1.874   3.398   5.240
 1465SOL    HW2 5139   1.934   3.383   5.378
 1466SOL     OW 5140   0.354   2.780   5.530
 1466SOL    HW1 5141   0.435   2.800   5.577
 1466SOL    HW2 5142   0.380   2.715   5.465
 1467SOL     OW 5143   1.528   2.134   3.848
 1467SOL    HW1 5144   1.464   2.069   3.878
 1467SOL    HW2 5145   1.562   2.172   3.929
 1468SOL     OW 5146   1.288   2.688   3.755
 1468SOL    HW1 5147   1.330   2.602   3.759
 1468SOL    HW2 5148   1.321   2.727   3.674
 1469SOL     OW 5149   1.066   3.198   4.578
 1469SOL    HW1 5150   1.070   3.126   4.515
 1469SOL    HW2 5151   1.127   3.263   4.543
 1470SOL     OW 5152   0.313   2.671   4.674
 1470SOL    HW1 5153   0.407   2.690   4.670
 1470SOL    HW2 5154   0.308   2.581   4.705
 1471SOL     OW 5155   0.334   2.388   4.739
 1471SOL    HW1 5156   0.300   2.300   4.725
 1471SOL    HW2 5157   0.410   2.394   4.680
 1472SOL     OW 5158   1.134   2.237   5.407
 1472SOL    HW1 5159   1.086   2.292   5.469
 1472SOL    HW2 5160   1.221   2.276   5.403
 1473SOL     OW 5161   1.161   2.064   5.195
 1473SOL    HW1 5162   1.150   2.127   5.266
 1473SOL    HW2 5163   1.201   2.114   5.124
 1474SOL     OW 5164   0.002   3.191   3.934
 1474SOL    HW1 5165   5.230   3.178   3.873
 1474SOL    HW2 5166   0.013   3.105   3.977
 1475SOL     OW 5167   0.094   3.643   4.676
 1475SOL    HW1 5168   0.060   3.574   4.619
 1475SOL    HW2 5169   0.181   3.663   4.641
 1476SOL     OW 5170   0.505   3.436   4.632
 1476SOL    HW1 5171   0.572   3.501   4.652
 1476SOL    HW2 5172   0.548   3.375   4.572
 1477SOL     OW 5173   0.981   2.653   4.950
 1477SOL    HW1 5174   1.038   2.632   5.023
 1477SOL    HW2 5175   0.896   2.615   4.974
 1478SOL     OW 5176   0.032   2.426   4.841
 1478SOL    HW1 5177   0.118   2.401   4.807
 1478SOL    HW2 5178   0.037   2.406   4.934
 1479SOL     OW 5179   0.174   2.375   5.436
 1479SOL    HW1 5180   0.238   2.337   5.376
 1479SOL    HW2 5181   0.147   2.457   5.393
 1480SOL     OW 5182   1.378   2.800   5.382
 1480SOL    HW1 5183   1.399   2.894   5.380
 1480SOL    HW2 5184   1.374   2.774   5.290
 1481SOL     OW 5185   0.816   2.431   4.085
 1481SOL    HW1 5186   0.821   2.357   4.025
 1481SOL    HW2 5187   0.742   2.483   4.054
 1482SOL     OW 5188   1.652   2.457   4.906
 1482SOL    HW1 5189   1.631   2.402   4.981
 1482SOL    HW2 5190   1.747   2.451   4.897
 1483SOL     OW 5191   0.256   3.418   5.458
 1483SOL    HW1 5192   0.234   3.481   5.527
 1483SOL    HW2 5193   0.250   3.332   5.501
 1484SOL     OW 5194   0.703   2.311   4.983
 1484SOL    HW1 5195   0.650   2.237   4.954
 1484SOL    HW2 5196   0.698   2.374   4.911
 1485SOL     OW 5197   0.927   3.541   5.192
 1485SOL    HW1 5198   0.901   3.505   5.108
 1485SOL    HW2 5199   0.921   3.636   5.181
 1486SOL     OW 5200   0.464   2.355   3.908
 1486SOL    HW1 5201   0.525   2.426   3.931
 1486SOL    HW2 5202   0.380   2.398   3.895
 1487SOL     OW 5203   0.147   2.999   5.195
 1487SOL    HW1 5204   0.145   2.951   5.278
 1487SOL    HW2 5205   0.159   2.931   5.128
 1488SOL     OW 5206   1.321   2.906   4.949
 1488SOL    HW1 5207   1.350   2.847   4.880
 1488SOL    HW2 5208   1.253   2.960   4.908
 1489SOL     OW 5209   1.313   2.717   4.031
 1489SOL    HW1 5210   1.237   2.688   4.082
 1489SOL    HW2 5211   1.286   2.705   3.939
 1490SOL     OW 5212   1.772   3.603   4.875
 1490SOL    HW1 5213   1.832   3.630   4.806
 1490SOL    HW2 5214   1.749   3.513   4.852
 1491SOL     OW 5215   1.241   3.595   4.836
 1491SOL    HW1 5216   1.323   3.616   4.791
 1491SOL    HW2 5217   1.247   3.502   4.855
 1492SOL     OW 5218   0.082   3.077   4.751
 1492SOL    HW1 5219   0.070   3.103   4.842
 1492SOL    HW2 5220   5.294   3.066   4.717
 1493SOL     OW 5221   0.678   3.529   5.455
 1493SOL    HW1 5222   0.621   3.606   5.448
 1493SOL    HW2 5223   0.743   3.541   5.386
 1494SOL     OW 5224   1.692   1.990   4.206
 1494SOL    HW1 5225   1.771   1.983   4.152
 1494SOL    HW2 5226   1.688   1.907   4.253
 1495SOL     OW 5227   1.390   3.430   4.210
 1495SOL    HW1 5228   1.451   3.462   4.143
 1495SOL    HW2 5229   1.342   3.507   4.238
 1496SOL     OW 5230   0.146   3.660   5.566
 1496SOL    HW1 5231   0.091   3.597   5.613
 1496SOL    HW2 5232   0.193   3.707   5.635
 1497SOL     OW 5233   1.276   2.788   4.393
 1497SOL    HW1 5234   1.349   2.727   4.402
 1497SOL    HW2 5235   1.311   2.860   4.342
 1498SOL     OW 5236   0.813   3.135   5.153
 1498SOL    HW1 5237   0.784   3.175   5.235
 1498SOL    HW2 5238   0.743   3.156   5.091
 1499SOL     OW 5239   0.672   3.482   3.879
 1499SOL    HW1 5240   0.683   3.496   3.784
 1499SOL    HW2 5241   0.617   3.404   3.886
 1500SOL     OW 5242   1.626   3.589   5.116
 1500SOL    HW1 5243   1.676   3.596   5.034
 1500SOL    HW2 5244   1.612   3.680   5.143
 1501SOL     OW 5245   1.845   2.040   4.694
 1501SOL    HW1 5246   1.879   1.955   4.666
 1501SOL    HW2 5247   1.762   2.050   4.648
 1502SOL     OW 5248   0.273   2.179   4.441
 1502SOL    HW1 5249   0.188   2.217   4.421
 1502SOL    HW2 5250   0.273   2.168   4.536
 1503SOL     OW 5251   1.207   3.467   3.756
 1503SOL    HW1 5252   1.197   3.376   3.782
 1503SOL    HW2 5253   1.142   3.480   3.687
 1504SOL     OW 5254   0.824   2.867   5.097
 1504SOL    HW1 5255   0.869   2.863   5.012
 1504SOL    HW2 5256   0.823   2.961   5.118
 1505SOL     OW 5257   0.915   2.772   4.014
 1505SOL    HW1 5258   0.975   2.805   3.948
 1505SOL    HW2 5259   0.964   2.704   4.060
 1506SOL     OW 5260   1.490   3.489   3.766
 1506SOL    HW1 5261   1.396   3.482   3.752
 1506SOL    HW2 5262   1.528   3.494   3.678
 1507SOL     OW 5263   0.367   3.166   5.217
 1507SOL    HW1 5264   0.359   3.240   5.157
 1507SOL    HW2 5265   0.291   3.111   5.198
 1508SOL     OW 5266   1.598   3.141   4.993
 1508SOL    HW1 5267   1.678   3.140   5.046
 1508SOL    HW2 5268   1.544   3.210   5.032
 1509SOL     OW 5269   1.053   2.969   4.430
 1509SOL    HW1 5270   0.983   2.918   4.470
 1509SOL    HW2 5271   1.117   2.904   4.401
 1510SOL     OW 5272   1.022   2.103   4.690
 1510SOL    HW1 5273   1.017   2.055   4.607
 1510SOL    HW2 5274   1.016   2.035   4.757
 1511SOL     OW 5275   0.602   3.349   4.205
 1511SOL    HW1 5276   0.647   3.301   4.136
 1511SOL    HW2 5277   0.534   3.399   4.158
 1512SOL     OW 5278   1.733   2.258   5.106
 1512SOL    HW1 5279   1.799   2.324   5.087
 1512SOL    HW2 5280   1.757   2.184   5.050
 1513SOL     OW 5281   0.261   3.210   4.017
 1513SOL    HW1 5282   0.168   3.212   3.994
 1513SOL    HW2 5283   0.265   3.247   4.105
 1514SOL     OW 5284   0.117   2.878   5.441
 1514SOL    HW1 5285   0.046   2.843   5.496
 1514SOL    HW2 5286   0.197   2.848   5.483
 1515SOL     OW 5287   0.675   2.058   5.223
 1515SOL    HW1 5288   0.759   2.038   5.182
 1515SOL    HW2 5289   0.698   2.090   5.311
 1516SOL     OW 5290   0.084   2.209   3.764
 1516SOL    HW1 5291   0.003   2.163   3.742
 1516SOL    HW2 5292   0.099   2.268   3.691
 1517SOL     OW 5293   1.428   2.720   5.124
 1517SOL    HW1 5294   1.378   2.781   5.069
 1517SOL    HW2 5295   1.517   2.723   5.087
 1518SOL     OW 5296   0.057   1.995   3.968
 1518SOL    HW1 5297   0.055   2.090   3.956
 1518SOL    HW2 5298   0.145   1.969   3.944
 1519SOL     OW 5299   1.178   3.201   3.841
 1519SOL    HW1 5300   1.087   3.171   3.844
 1519SOL    HW2 5301   1.206   3.202   3.933
 1520SOL     OW 5302   0.620   2.693   5.160
 1520SOL    HW1 5303   0.676   2.768   5.144
 1520SOL    HW2 5304   0.680   2.619   5.167
 1521SOL     OW 5305   1.483   3.640   4.703
 1521SOL    HW1 5306   1.505   3.700   4.632
 1521SOL    HW2 5307   1.567   3.623   4.747
 1522SOL     OW 5308   0.717   2.426   5.428
 1522SOL    HW1 5309   0.759   2.488   5.487
 1522SOL    HW2 5310   0.744   2.340   5.461
 1523SOL     OW 5311   1.471   3.061   5.356
 1523SOL    HW1 5312   1.460   3.075   5.450
 1523SOL    HW2 5313   1.564   3.077   5.340
 1524SOL     OW 5314   0.377   3.605   5.289
 1524SOL    HW1 5315   0.294   3.651   5.272
 1524SOL    HW2 5316   0.351   3.524   5.333
 1525SOL     OW 5317   1.666   2.743   4.981
 1525SOL    HW1 5318   1.663   2.660   4.934
 1525SOL    HW2 5319   1.659   2.810   4.913
 1526SOL     OW 5320   1.217   2.180   4.182
 1526SOL    HW1 5321   1.281   2.109   4.174
 1526SOL    HW2 5322   1.245   2.229   4.259
 1527SOL     OW 5323   0.590   2.599   4.393
 1527SOL    HW1 5324   0.629   2.685   4.379
 1527SOL    HW2 5325   0.521   2.592   4.327
 1528SOL     OW 5326   1.761   2.223   5.376
 1528SOL    HW1 5327   1.744   2.241   5.283
 1528SOL    HW2 5328   1.688   2.167   5.404
 1529SOL     OW 5329   1.749   2.800   5.234
 1529SOL    HW1 5330   1.733   2.894   5.246
 1529SOL    HW2 5331   1.728   2.784   5.142
 1530SOL     OW 5332   0.863   3.228   3.760
 1530SOL    HW1 5333   0.825   3.257   3.842
 1530SOL    HW2 5334   0.881   3.309   3.712
 1531SOL     OW 5335   0.664   3.655   4.666
 1531SOL    HW1 5336   0.643   3.745   4.644
 1531SOL    HW2 5337   0.759   3.650   4.660
 1532SOL     OW 5338   0.868   2.829   4.578
 1532SOL    HW1 5339   0.918   2.758   4.617
 1532SOL    HW2 5340   0.833   2.878   4.652
 1533SOL     OW 5341   1.077   2.851   3.813
 1533SOL    HW1 5342   1.056   2.902   3.735
 1533SOL    HW2 5343   1.152   2.797   3.788
 1534SOL     OW 5344   1.850   3.408   4.573
 1534SOL    HW1 5345   1.777   3.408   4.511
 1534SOL    HW2 5346   1.814   3.366   4.651
 1535SOL     OW 5347   0.226   3.166   5.584
 1535SOL    HW1 5348   0.158   3.103   5.559
 1535SOL    HW2 5349   0.214   3.176   5.679
 1536SOL     OW 5350   0.088   3.081   4.379
 1536SOL    HW1 5351   0.103   3.049   4.468
 1536SOL    HW2 5352   0.175   3.079   4.338
 1537SOL     OW 5353   0.682   3.265   5.353
 1537SOL    HW1 5354   0.601   3.223   5.383
 1537SOL    HW2 5355   0.677   3.354   5.389
 1538SOL     OW 5356   1.815   2.050   4.962
 1538SOL    HW1 5357   1.836   1.958   4.979
 1538SOL    HW2 5358   1.826   2.060   4.868
 1539SOL     OW 5359   0.435   2.298   4.248
 1539SOL    HW1 5360   0.463   2.225   4.192
 1539SOL    HW2 5361   0.388   2.256   4.320
 1540SOL     OW 5362   1.708   3.346   4.811
 1540SOL    HW1 5363   1.622   3.324   4.774
 1540SOL    HW2 5364   1.724   3.278   4.876
 1541SOL     OW 5365   0.337   2.422   5.016
 1541SOL    HW1 5366   0.391   2.363   5.069
 1541SOL    HW2 5367   0.351   2.392   4.926
 1542SOL     OW 5368   0.829   3.440   4.401
 1542SOL    HW1 5369   0.814   3.497   4.326
 1542SOL    HW2 5370   0.753   3.382   4.403
 1543SOL     OW 5371   1.432   2.089   4.841
 1543SOL    HW1 5372   1.458   2.008   4.886
 1543SOL    HW2 5373   1.379   2.136   4.906
 1544SOL     OW 5374   1.009   1.880   4.865
 1544SOL    HW1 5375   0.955   1.813   4.824
 1544SOL    HW2 5376   1.097   1.842   4.867
 1545SOL     OW 5377   0.772   3.195   4.040
 1545SOL    HW1 5378   0.743   3.104   4.047
 1545SOL    HW2 5379   0.854   3.197   4.090
 1546SOL     OW 5380   0.623   3.417   5.012
 1546SOL    HW1 5381   0.624   3.500   5.061
 1546SOL    HW2 5382   0.710   3.412   4.972
 1547SOL     OW 5383   1.353   1.915   3.890
 1547SOL    HW1 5384   1.382   1.848   3.828
 1547SOL    HW2 5385   1.265   1.887   3.916
 1548SOL     OW 5386   1.296   2.323   4.404
 1548SOL    HW1 5387   1.244   2.403   4.410
 1548SOL    HW2 5388   1.292   2.284   4.491
 1549SOL     OW 5389   1.585   2.062   4.602
 1549SOL    HW1 5390   1.528   2.082   4.676
 1549SOL    HW2 5391   1.583   2.140   4.547
 1550SOL     OW 5392   0.048   2.930   4.014
 1550SOL    HW1 5393   0.137   2.897   4.003
 1550SOL    HW2 5394   5.300   2.856   4.049
 1551SOL     OW 5395   0.886   3.515   4.065
 1551SOL    HW1 5396   0.813   3.500   4.005
 1551SOL    HW2 5397   0.859   3.590   4.118
 1552SOL     OW 5398   0.233   2.493   5.703
 1552SOL    HW1 5399   0.161   2.457   5.755
 1552SOL    HW2 5400   0.217   2.460   5.614
 1553SOL     OW 5401   0.243   2.137   6.575
 1553SOL    HW1 5402   0.256   2.103   6.663
 1553SOL    HW2 5403   0.158   2.102   6.548
 1554SOL     OW 5404   5.298   2.261   6.239
 1554SOL    HW1 5405   5.205   2.283   6.244
 1554SOL    HW2 5406   5.299   2.171   6.207
 1555SOL     OW 5407   0.575   3.148   6.770
 1555SOL    HW1 5408   0.492   3.156   6.722
 1555SOL    HW2 5409   0.591   3.236   6.804
 1556SOL     OW 5410   1.563   3.374   6.293
 1556SOL    HW1 5411   1.520   3.353   6.376
 1556SOL    HW2 5412   1.491   3.378   6.230
 1557SOL     OW 5413   1.130   2.560   6.286
 1557SOL    HW1 5414   1.179   2.641   6.272
 1557SOL    HW2 5415   1.084   2.574   6.368
 1558SOL     OW 5416   1.765   2.467   5.815
 1558SOL    HW1 5417   1.745   2.460   5.721
 1558SOL    HW2 5418   1.730   2.386   5.852
 1559SOL     OW 5419   0.754   3.002   6.626
 1559SOL    HW1 5420   0.688   3.037   6.686
 1559SOL    HW2 5421   0.790   3.079   6.583
 1560SOL     OW 5422   0.867   2.636   7.406
 1560SOL    HW1 5423   0.856   2.711   7.465
 1560SOL    HW2 5424   0.892   2.675   7.322
 1561SOL     OW 5425   0.685   2.863   6.233
 1561SOL    HW1 5426   0.751   2.852   6.301
 1561SOL    HW2 5427   0.617   2.917   6.274
 1562SOL     OW 5428   0.710   3.013   7.400
 1562SOL    HW1 5429   0.759   3.091   7.427
 1562SOL    HW2 5430   0.629   3.047   7.362
 1563SOL     OW 5431   0.358   3.266   6.646
 1563SOL    HW1 5432   0.270   3.266   6.610
 1563SOL    HW2 5433   0.407   3.328   6.591
 1564SOL     OW 5434   1.460   3.362   6.941
 1564SOL    HW1 5435   1.512   3.442   6.951
 1564SOL    HW2 5436   1.397   3.366   7.013
 1565SOL     OW 5437   0.451   2.262   7.078
 1565SOL    HW1 5438   0.525   2.202   7.080
 1565SOL    HW2 5439   0.374   2.206   7.088
 1566SOL     OW 5440   1.611   2.309   6.327
 1566SOL    HW1 5441   1.538   2.331   6.270
 1566SOL    HW2 5442   1.624   2.388   6.380
 1567SOL     OW 5443   0.232   3.576   6.063
 1567SOL    HW1 5444   0.264   3.646   6.121
 1567SOL    HW2 5445   0.295   3.573   5.991
 1568SOL     OW 5446   1.136   3.203   7.276
 1568SOL    HW1 5447   1.177   3.200   7.363
 1568SOL    HW2 5448   1.085   3.123   7.271
 1569SOL     OW 5449   0.222   3.307   6.126
 1569SOL    HW1 5450   0.217   3.403   6.120
 1569SOL    HW2 5451   0.152   3.283   6.186
 1570SOL     OW 5452   0.250   2.939   6.460
 1570SOL    HW1 5453   0.262   2.853   6.502
 1570SOL    HW2 5454   0.199   2.989   6.523
 1571SOL     OW 5455   0.612   3.652   7.017
 1571SOL    HW1 5456   0.528   3.635   7.061
 1571SOL    HW2 5457   0.633   3.743   7.041
 1572SOL     OW 5458   0.582   2.846   5.722
 1572SOL    HW1 5459   0.629   2.892   5.653
 1572SOL    HW2 5460   0.623   2.876   5.803
 1573SOL     OW 5461   1.596   1.986   7.053
 1573SOL    HW1 5462   1.605   2.067   7.004
 1573SOL    HW2 5463   1.581   2.015   7.143
 1574SOL     OW 5464   0.126   2.496   6.166
 1574SOL    HW1 5465   0.089   2.412   6.195
 1574SOL    HW2 5466   0.099   2.559   6.232
 1575SOL     OW 5467   1.842   3.620   5.920
 1575SOL    HW1 5468   1.908   3.592   5.984
 1575SOL    HW2 5469   1.865   3.711   5.901
 1576SOL     OW 5470   0.038   3.461   5.718
 1576SOL    HW1 5471   0.025   3.370   5.744
 1576SOL    HW2 5472   5.282   3.511   5.778
 1577SOL     OW 5473   1.689   2.780   6.227
 1577SOL    HW1 5474   1.770   2.736   6.204
 1577SOL    HW2 5475   1.666   2.831   6.150
 1578SOL     OW 5476   1.647   2.968   6.015
 1578SOL    HW1 5477   1.733   2.973   5.974
 1578SOL    HW2 5478   1.652   3.030   6.088
 1579SOL     OW 5479   0.132   2.609   7.172
 1579SOL    HW1 5480   0.227   2.623   7.171
 1579SOL    HW2 5481   0.095   2.696   7.189
 1580SOL     OW 5482   0.616   3.248   6.320
 1580SOL    HW1 5483   0.568   3.166   6.331
 1580SOL    HW2 5484   0.598   3.275   6.230
 1581SOL     OW 5485   1.288   3.100   7.009
 1581SOL    HW1 5486   1.320   3.032   6.949
 1581SOL    HW2 5487   1.346   3.094   7.085
 1582SOL     OW 5488   0.824   1.862   6.097
 1582SOL    HW1 5489   0.864   1.946   6.076
 1582SOL    HW2 5490   0.730   1.881   6.102
 1583SOL     OW 5491   0.175   2.806   6.865
 1583SOL    HW1 5492   0.266   2.776   6.856
 1583SOL    HW2 5493   0.135   2.784   6.781
 1584SOL     OW 5494   1.531   2.856   5.785
 1584SOL    HW1 5495   1.462   2.799   5.817
 1584SOL    HW2 5496   1.573   2.890   5.864
 1585SOL     OW 5497   1.185   3.669   7.208
 1585SOL    HW1 5498   1.194   3.728   7.134
 1585SOL    HW2 5499   1.202   3.582   7.173
 1586SOL     OW 5500   0.339   2.115   7.404
 1586SOL    HW1 5501   0.385   2.197   7.418
 1586SOL    HW2 5502   0.251   2.130   7.438
 1587SOL     OW 5503   1.467   3.282   6.537
 1587SOL    HW1 5504   1.399   3.297   6.602
 1587SOL    HW2 5505   1.454   3.190   6.510
 1588SOL     OW 5506   1.657   3.604   6.164
 1588SOL    HW1 5507   1.639   3.574   6.075
 1588SOL    HW2 5508   1.634   3.530   6.220
 1589SOL     OW 5509   0.595   2.582   5.853
 1589SOL    HW1 5510   0.602   2.664   5.802
 1589SOL    HW2 5511   0.531   2.602   5.920
 1590SOL     OW 5512   1.279   2.217   6.519
 1590SOL    HW1 5513   1.190   2.183   6.527
 1590SOL    HW2 5514   1.330   2.163   6.580
 1591SOL     OW 5515   1.580   3.533   5.895
 1591SOL    HW1 5516   1.671   3.563   5.888
 1591SOL    HW2 5517   1.553   3.516   5.805
 1592SOL     OW 5518   0.791   2.480   7.037
 1592SOL    HW1 5519   0.765   2.455   7.126
 1592SOL    HW2 5520   0.752   2.412   6.981
 1593SOL     OW 5521   1.394   2.336   7.263
 1593SOL    HW1 5522   1.396   2.380   7.348
 1593SOL    HW2 5523   1.453   2.262   7.274
 1594SOL     OW 5524   0.954   2.749   7.169
 1594SOL    HW1 5525   1.008   2.679   7.132
 1594SOL    HW2 5526   0.906   2.784   7.093
 1595SOL     OW 5527   0.992   2.274   6.824
 1595SOL    HW1 5528   0.906   2.295   6.860
 1595SOL    HW2 5529   0.974   2.229   6.742
 1596SOL     OW 5530   1.051   2.560   6.012
 1596SOL    HW1 5531   1.068   2.554   6.106
 1596SOL    HW2 5532   0.969   2.514   5.998
 1597SOL     OW 5533   0.071   2.649   6.397
 1597SOL    HW1 5534   0.151   2.654   6.448
 1597SOL    HW2 5535   0.066   2.734   6.352
 1598SOL     OW 5536   0.128   3.748   7.171
 1598SOL    HW1 5537   0.131   3.720   7.262
 1598SOL    HW2 5538   0.060   3.692   7.131
 1599SOL     OW 5539   0.894   2.211   5.780
 1599SOL    HW1 5540   0.934   2.274   5.720
 1599SOL    HW2 5541   0.910   2.126   5.740
 1600SOL     OW 5542   1.709   2.436   7.415
 1600SOL    HW1 5543   1.671   2.510   7.368
 1600SOL    HW2 5544   1.734   2.375   7.346
 1601SOL     OW 5545   1.377   3.004   6.126
 1601SOL    HW1 5546   1.457   2.992   6.074
 1601SOL    HW2 5547   1.325   3.066   6.077
 1602SOL     OW 5548   0.556   2.045   6.480
 1602SOL    HW1 5549   0.553   2.073   6.571
 1602SOL    HW2 5550   0.552   2.126   6.429
 1603SOL     OW 5551   1.004   3.305   6.057
 1603SOL    HW1 5552   0.969   3.379   6.008
 1603SOL    HW2 5553   0.986   3.327   6.149
 1604SOL     OW 5554   0.357   3.665   6.456
 1604SOL    HW1 5555   0.397   3.579   6.469
 1604SOL    HW2 5556   0.423   3.728   6.487
 1605SOL     OW 5557   1.798   2.918   6.455
 1605SOL    HW1 5558   1.744   2.900   6.378
 1605SOL    HW2 5559   1.735   2.924   6.527
 1606SOL     OW 5560   1.228   3.401   7.099
 1606SOL    HW1 5561   1.214   3.328   7.159
 1606SOL    HW2 5562   1.163   3.387   7.030
 1607SOL     OW 5563   0.315   2.814   5.834
 1607SOL    HW1 5564   0.397   2.838   5.790
 1607SOL    HW2 5565   0.293   2.728   5.798
 1608SOL     OW 5566   1.479   2.606   6.313
 1608SOL    HW1 5567   1.472   2.564   6.398
 1608SOL    HW2 5568   1.557   2.661   6.320
 1609SOL     OW 5569   0.465   3.125   7.324
 1609SOL    HW1 5570   0.438   3.132   7.232
 1609SOL    HW2 5571   0.383   3.126   7.372
 1610SOL     OW 5572   1.122   3.640   5.817
 1610SOL    HW1 5573   1.049   3.598   5.862
 1610SOL    HW2 5574   1.146   3.578   5.747
 1611SOL     OW 5575   0.205   2.141   7.084
 1611SOL    HW1 5576   0.126   2.192   7.066
 1611SOL    HW2 5577   0.173   2.060   7.125
 1612SOL     OW 5578   1.629   3.242   5.674
 1612SOL    HW1 5579   1.587   3.327   5.659
 1612SOL    HW2 5580   1.560   3.178   5.655
 1613SOL     OW 5581   0.471   3.597   5.905
 1613SOL    HW1 5582   0.514   3.654   5.968
 1613SOL    HW2 5583   0.542   3.565   5.849
 1614SOL     OW 5584   1.401   1.969   6.020
 1614SOL    HW1 5585   1.391   1.944   5.928
 1614SOL    HW2 5586   1.495   1.976   6.033
 1615SOL     OW 5587   0.277   3.663   6.797
 1615SOL    HW1 5588   0.307   3.585   6.844
 1615SOL    HW2 5589   0.224   3.630   6.725
 1616SOL     OW 5590   0.939   3.561   6.485
 1616SOL    HW1 5591   1.017   3.510   6.505
 1616SOL    HW2 5592   0.895   3.511   6.416
 1617SOL     OW 5593   0.386   2.558   6.065
 1617SOL    HW1 5594   0.415   2.467   6.074
 1617SOL    HW2 5595   0.292   2.555   6.085
 1618SOL     OW 5596   1.534   2.087   7.311
 1618SOL    HW1 5597   1.544   2.108   7.404
 1618SOL    HW2 5598   1.465   2.021   7.309
 1619SOL     OW 5599   0.635   1.984   5.691
 1619SOL    HW1 5600   0.704   1.918   5.703
 1619SOL    HW2 5601   0.586   1.953   5.615
 1620SOL     OW 5602   0.765   2.139   7.340
 1620SOL    HW1 5603   0.843   2.082   7.340
 1620SOL    HW2 5604   0.723   2.123   7.424
 1621SOL     OW 5605   0.877   3.384   6.779
 1621SOL    HW1 5606   0.861   3.347   6.692
 1621SOL    HW2 5607   0.947   3.329   6.815
 1622SOL     OW 5608   1.340   2.451   7.018
 1622SOL    HW1 5609   1.371   2.420   7.103
 1622SOL    HW2 5610   1.376   2.539   7.010
 1623SOL     OW 5611   0.816   3.255   6.527
 1623SOL    HW1 5612   0.901   3.244   6.483
 1623SOL    HW2 5613   0.752   3.258   6.456
 1624SOL     OW 5614   0.928   2.371   6.489
 1624SOL    HW1 5615   0.904   2.363   6.396
 1624SOL    HW2 5616   0.959   2.284   6.513
 1625SOL     OW 5617   0.561   1.923   6.081
 1625SOL    HW1 5618   0.486   1.923   6.141
 1625SOL    HW2 5619   0.550   2.002   6.029
 1626SOL     OW 5620   1.428   3.061   5.627
 1626SOL    HW1 5621   1.459   2.985   5.677
 1626SOL    HW2 5622   1.343   3.082   5.665
 1627SOL     OW 5623   0.306   1.909   5.764
 1627SOL    HW1 5624   0.368   1.973   5.730
 1627SOL    HW2 5625   0.360   1.845   5.810
 1628SOL     OW 5626   0.940   2.110   6.045
 1628SOL    HW1 5627   0.914   2.151   5.962
 1628SOL    HW2 5628   1.035   2.125   6.050
 1629SOL     OW 5629   1.080   2.543   7.045
 1629SOL    HW1 5630   1.012   2.476   7.050
 1629SOL    HW2 5631   1.162   2.494   7.038
 1630SOL     OW 5632   1.223   3.432   6.380
 1630SOL    HW1 5633   1.238   3.499   6.313
 1630SOL    HW2 5634   1.291   3.447   6.445
 1631SOL     OW 5635   0.468   3.013   6.316
 1631SOL    HW1 5636   0.399   2.992   6.379
 1631SOL    HW2 5637   0.428   2.995   6.231
 1632SOL     OW 5638   1.268   3.656   6.195
 1632SOL    HW1 5639   1.315   3.717   6.138
 1632SOL    HW2 5640   1.201   3.709   6.238
 1633SOL     OW 5641   1.023   2.402   5.610
 1633SOL    HW1 5642   0.981   2.486   5.590
 1633SOL    HW2 5643   1.089   2.424   5.675
 1634SOL     OW 5644   0.089   2.405   6.986
 1634SOL    HW1 5645   0.176   2.413   6.948
 1634SOL    HW2 5646   0.080   2.482   7.042
 1635SOL     OW 5647   0.560   2.090   6.753
 1635SOL    HW1 5648   0.598   2.011   6.791
 1635SOL    HW2 5649   0.469   2.088   6.781
 1636SOL     OW 5650   0.867   2.321   6.225
 1636SOL    HW1 5651   0.822   2.375   6.161
 1636SOL    HW2 5652   0.889   2.241   6.178
 1637SOL     OW 5653   1.016   1.915   6.337
 1637SOL    HW1 5654   0.957   1.908   6.261
 1637SOL    HW2 5655   0.994   1.840   6.392
 1638SOL     OW 5656   1.438   3.024   6.443
 1638SOL    HW1 5657   1.368   2.959   6.441
 1638SOL    HW2 5658   1.463   3.035   6.351
 1639SOL     OW 5659   1.466   2.468   6.561
 1639SOL    HW1 5660   1.414   2.388   6.564
 1639SOL    HW2 5661   1.525   2.462   6.636
 1640SOL     OW 5662   1.839   2.679   5.970
 1640SOL    HW1 5663   1.891   2.626   6.031
 1640SOL    HW2 5664   1.815   2.618   5.900
 1641SOL     OW 5665   0.491   3.281   5.743
 1641SOL    HW1 5666   0.416   3.253   5.795
 1641SOL    HW2 5667   0.477   3.241   5.657
 1642SOL     OW 5668   1.671   3.126   6.232
 1642SOL    HW1 5669   1.765   3.128   6.245
 1642SOL    HW2 5670   1.641   3.215   6.252
 1643SOL     OW 5671   1.394   2.434   5.657
 1643SOL    HW1 5672   1.334   2.414   5.729
 1643SOL    HW2 5673   1.479   2.405   5.687
 1644SOL     OW 5674   0.524   2.125   5.902
 1644SOL    HW1 5675   0.570   2.078   5.832
 1644SOL    HW2 5676   0.501   2.209   5.863
 1645SOL     OW 5677   1.752   3.102   7.158
 1645SOL    HW1 5678   1.839   3.064   7.149
 1645SOL    HW2 5679   1.766   3.191   7.188
 1646SOL     OW 5680   1.058   3.215   6.919
 1646SOL    HW1 5681   0.983   3.184   6.970
 1646SOL    HW2 5682   1.134   3.174   6.960
 1647SOL     OW 5683   1.608   3.488   7.239
 1647SOL    HW1 5684   1.602   3.522   7.150
 1647SOL    HW2 5685   1.691   3.440   7.241
 1648SOL     OW 5686   1.130   3.066   6.691
 1648SOL    HW1 5687   1.071   3.104   6.756
 1648SOL    HW2 5688   1.098   3.099   6.607
 1649SOL     OW 5689   1.626   2.959   6.664
 1649SOL    HW1 5690   1.621   3.021   6.736
 1649SOL    HW2 5691   1.548   2.977   6.611
 1650SOL     OW 5692   0.919   1.958   6.982
 1650SOL    HW1 5693   0.941   1.940   6.891
 1650SOL    HW2 5694   0.998   1.998   7.019
 1651SOL     OW 5695   0.984   2.976   7.311
 1651SOL    HW1 5696   0.892   2.993   7.330
 1651SOL    HW2 5697   0.983   2.898   7.255
 1652SOL     OW 5698   0.708   2.922   5.958
 1652SOL    HW1 5699   0.696   2.906   6.052
 1652SOL    HW2 5700   0.784   2.870   5.934
 1653SOL     OW 5701   0.421   2.682   6.839
 1653SOL    HW1 5702   0.490   2.689   6.905
 1653SOL    HW2 5703   0.387   2.593   6.849
 1654SOL     OW 5704   1.265   2.239   6.862
 1654SOL    HW1 5705   1.298   2.316   6.908
 1654SOL    HW2 5706   1.174   2.260   6.840
 1655SOL     OW 5707   0.103   3.485   6.952
 1655SOL    HW1 5708   0.081   3.492   6.859
 1655SOL    HW2 5709   0.189   3.444   6.954
 1656SOL     OW 5710   0.342   2.969   6.073
 1656SOL    HW1 5711   0.350   3.048   6.019
 1656SOL    HW2 5712   0.350   2.897   6.010
 1657SOL     OW 5713   0.553   2.397   6.445
 1657SOL    HW1 5714   0.568   2.456   6.371
 1657SOL    HW2 5715   0.618   2.423   6.510
 1658SOL     OW 5716   1.248   3.210   5.975
 1658SOL    HW1 5717   1.304   3.282   6.006
 1658SOL    HW2 5718   1.161   3.232   6.009
 1659SOL     OW 5719   1.283   3.320   6.733
 1659SOL    HW1 5720   1.338   3.323   6.811
 1659SOL    HW2 5721   1.227   3.244   6.747
 1660SOL     OW 5722   1.581   2.483   6.066
 1660SOL    HW1 5723   1.534   2.538   6.129
 1660SOL    HW2 5724   1.628   2.544   6.011
 1661SOL     OW 5725   0.352   3.382   6.896
 1661SOL    HW1 5726   0.341   3.338   6.811
 1661SOL    HW2 5727   0.446   3.399   6.902
 1662SOL     OW 5728   0.414   2.604   7.188
 1662SOL    HW1 5729   0.476   2.650   7.131
 1662SOL    HW2 5730   0.453   2.518   7.200
 1663SOL     OW 5731   1.602   2.641   7.268
 1663SOL    HW1 5732   1.516   2.682   7.262
 1663SOL    HW2 5733   1.655   2.683   7.200
 1664SOL     OW 5734   0.996   1.987   7.340
 1664SOL    HW1 5735   1.053   2.060   7.314
 1664SOL    HW2 5736   1.044   1.908   7.315
 1665SOL     OW 5737   0.498   1.902   7.334
 1665SOL    HW1 5738   0.455   1.849   7.267
 1665SOL    HW2 5739   0.440   1.977   7.346
 1666SOL     OW 5740   0.585   2.736   6.618
 1666SOL    HW1 5741   0.617   2.826   6.618
 1666SOL    HW2 5742   0.529   2.731   6.696
 1667SOL     OW 5743   1.356   2.720   6.615
 1667SOL    HW1 5744   1.273   2.710   6.569
 1667SOL    HW2 5745   1.398   2.634   6.608
 1668SOL     OW 5746   1.204   2.390   5.852
 1668SOL    HW1 5747   1.212   2.312   5.907
 1668SOL    HW2 5748   1.161   2.455   5.908
 1669SOL     OW 5749   0.301   2.065   6.834
 1669SOL    HW1 5750   0.268   2.089   6.920
 1669SOL    HW2 5751   0.290   1.970   6.829
 1670SOL     OW 5752   0.066   3.179   6.866
 1670SOL    HW1 5753   0.091   3.121   6.937
 1670SOL    HW2 5754   5.296   3.233   6.902
 1671SOL     OW 5755   0.723   2.493   6.643
 1671SOL    HW1 5756   0.799   2.477   6.586
 1671SOL    HW2 5757   0.696   2.582   6.622
 1672SOL     OW 5758   1.736   2.822   7.438
 1672SOL    HW1 5759   1.687   2.759   7.385
 1672SOL    HW2 5760   1.680   2.837   7.515
 1673SOL     OW 5761   0.327   1.924   6.220
 1673SOL    HW1 5762   0.307   2.013   6.247
 1673SOL    HW2 5763   0.333   1.875   6.302
 1674SOL     OW 5764   1.616   2.236   5.952
 1674SOL    HW1 5765   1.644   2.173   6.018
 1674SOL    HW2 5766   1.594   2.315   6.002
 1675SOL     OW 5767   1.028   2.621   6.546
 1675SOL    HW1 5768   1.024   2.638   6.640
 1675SOL    HW2 5769   1.002   2.529   6.537
 1676SOL     OW 5770   0.981   3.427   7.303
 1676SOL    HW1 5771   0.967   3.472   7.220
 1676SOL    HW2 5772   1.026   3.346   7.279
 1677SOL     OW 5773   1.854   3.367   7.191
 1677SOL    HW1 5774   1.873   3.393   7.101
 1677SOL    HW2 5775   1.935   3.384   7.239
 1678SOL     OW 5776   0.354   2.778   7.394
 1678SOL    HW1 5777   0.436   2.800   7.438
 1678SOL    HW2 5778   0.379   2.714   7.327
 1679SOL     OW 5779   1.529   2.134   5.713
 1679SOL    HW1 5780   1.463   2.069   5.740
 1679SOL    HW2 5781   1.562   2.170   5.795
 1680SOL     OW 5782   1.290   2.688   5.616
 1680SOL    HW1 5783   1.334   2.603   5.620
 1680SOL    HW2 5784   1.322   2.728   5.535
 1681SOL     OW 5785   1.067   3.198   6.440
 1681SOL    HW1 5786   1.070   3.126   6.378
 1681SOL    HW2 5787   1.127   3.263   6.405
 1682SOL     OW 5788   0.313   2.671   6.536
 1682SOL    HW1 5789   0.407   2.690   6.532
 1682SOL    HW2 5790   0.308   2.581   6.567
 1683SOL     OW 5791   0.334   2.388   6.601
 1683SOL    HW1 5792   0.300   2.300   6.587
 1683SOL    HW2 5793   0.410   2.394   6.542
 1684SOL     OW 5794   1.134   2.237   7.268
 1684SOL    HW1 5795   1.087   2.292   7.330
 1684SOL    HW2 5796   1.222   2.276   7.264
 1685SOL     OW 5797   1.161   2.064   7.056
 1685SOL    HW1 5798   1.150   2.126   7.127
 1685SOL    HW2 5799   1.201   2.115   6.985
 1686SOL     OW 5800   0.002   3.191   5.796
 1686SOL    HW1 5801   5.230   3.178   5.735
 1686SOL    HW2 5802   0.012   3.105   5.839
 1687SOL     OW 5803   0.094   3.644   6.538
 1687SOL    HW1 5804   0.060   3.574   6.481
 1687SOL    HW2 5805   0.181   3.662   6.503
 1688SOL     OW 5806   0.505   3.435   6.494
 1688SOL    HW1 5807   0.572   3.501   6.514
 1688SOL    HW2 5808   0.548   3.375   6.434
 1689SOL     OW 5809   0.981   2.653   6.812
 1689SOL    HW1 5810   1.038   2.631   6.886
 1689SOL    HW2 5811   0.896   2.615   6.835
 1690SOL     OW 5812   0.032   2.426   6.703
 1690SOL    HW1 5813   0.118   2.400   6.669
 1690SOL    HW2 5814   0.037   2.405   6.796
 1691SOL     OW 5815   0.174   2.375   7.303
 1691SOL    HW1 5816   0.236   2.334   7.242
 1691SOL    HW2 5817   0.147   2.456   7.259
 1692SOL     OW 5818   1.378   2.800   7.245
 1692SOL    HW1 5819   1.399   2.893   7.243
 1692SOL    HW2 5820   1.374   2.774   7.153
 1693SOL     OW 5821   0.816   2.431   5.948
 1693SOL    HW1 5822   0.821   2.357   5.887
 1693SOL    HW2 5823   0.743   2.483   5.916
 1694SOL     OW 5824   1.640   2.463   6.771
 1694SOL    HW1 5825   1.629   2.404   6.846
 1694SOL    HW2 5826   1.727   2.443   6.737
 1695SOL     OW 5827   0.255   3.418   7.321
 1695SOL    HW1 5828   0.233   3.479   7.391
 1695SOL    HW2 5829   0.250   3.332   7.363
 1696SOL     OW 5830   0.703   2.312   6.845
 1696SOL    HW1 5831   0.650   2.237   6.816
 1696SOL    HW2 5832   0.698   2.374   6.773
 1697SOL     OW 5833   0.928   3.541   7.054
 1697SOL    HW1 5834   0.901   3.506   6.969
 1697SOL    HW2 5835   0.922   3.636   7.043
 1698SOL     OW 5836   0.464   2.355   5.770
 1698SOL    HW1 5837   0.525   2.426   5.793
 1698SOL    HW2 5838   0.380   2.399   5.758
 1699SOL     OW 5839   0.148   2.999   7.057
 1699SOL    HW1 5840   0.144   2.951   7.139
 1699SOL    HW2 5841   0.159   2.931   6.990
 1700SOL     OW 5842   1.325   2.908   6.809
 1700SOL    HW1 5843   1.348   2.845   6.741
 1700SOL    HW2 5844   1.255   2.961   6.770
 1701SOL     OW 5845   1.312   2.718   5.892
 1701SOL    HW1 5846   1.236   2.688   5.942
 1701SOL    HW2 5847   1.287   2.705   5.800
 1702SOL     OW 5848   1.773   3.605   6.737
 1702SOL    HW1 5849   1.833   3.631   6.667
 1702SOL    HW2 5850   1.748   3.515   6.715
 1703SOL     OW 5851   1.241   3.595   6.698
 1703SOL    HW1 5852   1.323   3.616   6.653
 1703SOL    HW2 5853   1.247   3.501   6.716
 1704SOL     OW 5854   0.082   3.077   6.613
 1704SOL    HW1 5855   0.070   3.103   6.704
 1704SOL    HW2 5856   5.294   3.067   6.579
 1705SOL     OW 5857   0.677   3.528   7.316
 1705SOL    HW1 5858   0.622   3.606   7.311
 1705SOL    HW2 5859   0.743   3.541   7.248
 1706SOL     OW 5860   1.721   2.010   6.096
 1706SOL    HW1 5861   1.792   1.995   6.034
 1706SOL    HW2 5862   1.704   1.924   6.135
 1707SOL     OW 5863   1.391   3.430   6.072
 1707SOL    HW1 5864   1.451   3.462   6.005
 1707SOL    HW2 5865   1.342   3.507   6.100
 1708SOL     OW 5866   0.142   3.661   7.429
 1708SOL    HW1 5867   0.090   3.598   7.478
 1708SOL    HW2 5868   0.196   3.704   7.495
 1709SOL     OW 5869   1.277   2.788   6.257
 1709SOL    HW1 5870   1.351   2.727   6.265
 1709SOL    HW2 5871   1.311   2.860   6.204
 1710SOL     OW 5872   0.813   3.135   7.015
 1710SOL    HW1 5873   0.784   3.176   7.097
 1710SOL    HW2 5874   0.744   3.157   6.953
 1711SOL     OW 5875   0.672   3.482   5.741
 1711SOL    HW1 5876   0.683   3.496   5.647
 1711SOL    HW2 5877   0.617   3.405   5.748
 1712SOL     OW 5878   1.625   3.589   6.976
 1712SOL    HW1 5879   1.675   3.595   6.896
 1712SOL    HW2 5880   1.611   3.679   7.004
 1713SOL     OW 5881   1.839   2.033   6.553
 1713SOL    HW1 5882   1.867   1.946   6.526
 1713SOL    HW2 5883   1.753   2.044   6.513
 1714SOL     OW 5884   0.273   2.179   6.303
 1714SOL    HW1 5885   0.188   2.217   6.283
 1714SOL    HW2 5886   0.273   2.168   6.398
 1715SOL     OW 5887   1.207   3.467   5.618
 1715SOL    HW1 5888   1.197   3.376   5.644
 1715SOL    HW2 5889   1.142   3.480   5.549
 1716SOL     OW 5890   0.824   2.868   6.959
 1716SOL    HW1 5891   0.868   2.863   6.874
 1716SOL    HW2 5892   0.823   2.961   6.980
 1717SOL     OW 5893   0.915   2.772   5.876
 1717SOL    HW1 5894   0.976   2.805   5.809
 1717SOL    HW2 5895   0.964   2.704   5.922
 1718SOL     OW 5896   1.491   3.488   5.629
 1718SOL    HW1 5897   1.397   3.481   5.615
 1718SOL    HW2 5898   1.528   3.494   5.541
 1719SOL     OW 5899   0.367   3.166   7.079
 1719SOL    HW1 5900   0.359   3.240   7.019
 1719SOL    HW2 5901   0.291   3.111   7.060
 1720SOL     OW 5902   1.609   3.144   6.866
 1720SOL    HW1 5903   1.670   3.134   6.939
 1720SOL    HW2 5904   1.549   3.213   6.895
 1721SOL     OW 5905   1.053   2.969   6.293
 1721SOL    HW1 5906   0.983   2.918   6.332
 1721SOL    HW2 5907   1.117   2.904   6.263
 1722SOL     OW 5908   1.022   2.103   6.552
 1722SOL    HW1 5909   1.017   2.055   6.469
 1722SOL    HW2 5910   1.016   2.035   6.619
 1723SOL     OW 5911   0.602   3.349   6.067
 1723SOL    HW1 5912   0.648   3.301   5.998
 1723SOL    HW2 5913   0.534   3.398   6.020
 1724SOL     OW 5914   1.719   2.252   6.966
 1724SOL    HW1 5915   1.790   2.317   6.966
 1724SOL    HW2 5916   1.751   2.182   6.910
 1725SOL     OW 5917   0.261   3.210   5.879
 1725SOL    HW1 5918   0.168   3.212   5.856
 1725SOL    HW2 5919   0.265   3.247   5.967
 1726SOL     OW 5920   0.117   2.876   7.302
 1726SOL    HW1 5921   0.045   2.846   7.358
 1726SOL    HW2 5922   0.196   2.846   7.346
 1727SOL     OW 5923   0.674   2.058   7.085
 1727SOL    HW1 5924   0.758   2.038   7.044
 1727SOL    HW2 5925   0.697   2.088   7.173
 1728SOL     OW 5926   0.083   2.210   5.627
 1728SOL    HW1 5927   0.004   2.162   5.604
 1728SOL    HW2 5928   0.099   2.269   5.553
 1729SOL     OW 5929   1.429   2.720   6.986
 1729SOL    HW1 5930   1.380   2.781   6.931
 1729SOL    HW2 5931   1.518   2.723   6.950
 1730SOL     OW 5932   0.057   1.995   5.830
 1730SOL    HW1 5933   0.055   2.090   5.818
 1730SOL    HW2 5934   0.146   1.969   5.806
 1731SOL     OW 5935   1.179   3.201   5.703
 1731SOL    HW1 5936   1.088   3.170   5.706
 1731SOL    HW2 5937   1.207   3.201   5.795
 1732SOL     OW 5938   0.620   2.693   7.022
 1732SOL    HW1 5939   0.676   2.768   7.006
 1732SOL    HW2 5940   0.680   2.619   7.029
 1733SOL     OW 5941   1.483   3.640   6.566
 1733SOL    HW1 5942   1.507   3.700   6.495
 1733SOL    HW2 5943   1.567   3.619   6.608
 1734SOL     OW 5944   0.717   2.425   7.291
 1734SOL    HW1 5945   0.759   2.487   7.350
 1734SOL    HW2 5946   0.744   2.339   7.322
 1735SOL     OW 5947   1.472   3.060   7.218
 1735SOL    HW1 5948   1.459   3.074   7.312
 1735SOL    HW2 5949   1.565   3.077   7.203
 1736SOL     OW 5950   0.376   3.605   7.150
 1736SOL    HW1 5951   0.294   3.651   7.134
 1736SOL    HW2 5952   0.350   3.524   7.195
 1737SOL     OW 5953   1.669   2.743   6.841
 1737SOL    HW1 5954   1.662   2.658   6.798
 1737SOL    HW2 5955   1.658   2.807   6.771
 1738SOL     OW 5956   1.216   2.181   6.044
 1738SOL    HW1 5957   1.279   2.109   6.036
 1738SOL    HW2 5958   1.245   2.230   6.121
 1739SOL     OW 5959   0.589   2.599   6.256
 1739SOL    HW1 5960   0.629   2.685   6.241
 1739SOL    HW2 5961   0.521   2.592   6.189
 1740SOL     OW 5962   1.761   2.225   7.236
 1740SOL    HW1 5963   1.743   2.240   7.144
 1740SOL    HW2 5964   1.690   2.168   7.266
 1741SOL     OW 5965   1.751   2.792   7.097
 1741SOL    HW1 5966   1.744   2.886   7.114
 1741SOL    HW2 5967   1.732   2.782   7.004
 1742SOL     OW 5968   0.862   3.229   5.621
 1742SOL    HW1 5969   0.824   3.258   5.704
 1742SOL    HW2 5970   0.881   3.309   5.573
 1743SOL     OW 5971   0.664   3.655   6.528
 1743SOL    HW1 5972   0.643   3.745   6.506
 1743SOL    HW2 5973   0.759   3.650   6.522
 1744SOL     OW 5974   0.868   2.829   6.440
 1744SOL    HW1 5975   0.918   2.758   6.479
 1744SOL    HW2 5976   0.833   2.878   6.514
 1745SOL     OW 5977   1.077   2.849   5.674
 1745SOL    HW1 5978   1.057   2.901   5.597
 1745SOL    HW2 5979   1.153   2.796   5.649
 1746SOL     OW 5980   1.853   3.416   6.430
 1746SOL    HW1 5981   1.774   3.404   6.376
 1746SOL    HW2 5982   1.847   3.349   6.498
 1747SOL     OW 5983   0.226   3.166   7.446
 1747SOL    HW1 5984   0.156   3.106   7.420
 1747SOL    HW2 5985   0.213   3.177   7.541
 1748SOL     OW 5986   0.088   3.081   6.241
 1748SOL    HW1 5987   0.102   3.049   6.330
 1748SOL    HW2 5988   0.175   3.078   6.200
 1749SOL     OW 5989   0.681   3.264   7.215
 1749SOL    HW1 5990   0.600   3.223   7.245
 1749SOL    HW2 5991   0.678   3.353   7.251
 1750SOL     OW 5992   1.814   2.046   6.824
 1750SOL    HW1 5993   1.822   1.952   6.838
 1750SOL    HW2 5994   1.822   2.057   6.729
 1751SOL     OW 5995   0.435   2.298   6.110
 1751SOL    HW1 5996   0.463   2.226   6.054
 1751SOL    HW2 5997   0.388   2.256   6.182
 1752SOL     OW 5998   1.699   3.351   6.682
 1752SOL    HW1 5999   1.619   3.328   6.635
 1752SOL    HW2 6000   1.711   3.281   6.746
 1753SOL     OW 6001   0.337   2.422   6.878
 1753SOL    HW1 6002   0.391   2.363   6.931
 1753SOL    HW2 6003   0.351   2.392   6.788
 1754SOL     OW 6004   0.829   3.439   6.263
 1754SOL    HW1 6005   0.814   3.497   6.188
 1754SOL    HW2 6006   0.753   3.382   6.265
 1755SOL     OW 6007   1.432   2.088   6.704
 1755SOL    HW1 6008   1.454   2.007   6.749
 1755SOL    HW2 6009   1.380   2.137   6.768
 1756SOL     OW 6010   1.009   1.880   6.727
 1756SOL    HW1 6011   0.955   1.813   6.686
 1756SOL    HW2 6012   1.097   1.842   6.729
 1757SOL     OW 6013   0.772   3.195   5.903
 1757SOL    HW1 6014   0.743   3.104   5.909
 1757SOL    HW2 6015   0.854   3.197   5.951
 1758SOL     OW 6016   0.623   3.417   6.874
 1758SOL    HW1 6017   0.624   3.500   6.922
 1758SOL    HW2 6018   0.710   3.412   6.834
 1759SOL     OW 6019   1.352   1.915   5.753
 1759SOL    HW1 6020   1.382   1.851   5.688
 1759SOL    HW2 6021   1.265   1.886   5.778
 1760SOL     OW 6022   1.296   2.323   6.266
 1760SOL    HW1 6023   1.243   2.403   6.273
 1760SOL    HW2 6024   1.292   2.284   6.354
 1761SOL     OW 6025   1.586   2.063   6.464
 1761SOL    HW1 6026   1.526   2.084   6.536
 1761SOL    HW2 6027   1.585   2.141   6.409
 1762SOL     OW 6028   0.048   2.930   5.876
 1762SOL    HW1 6029   0.137   2.897   5.865
 1762SOL    HW2 6030   5.300   2.856   5.911
 1763SOL     OW 6031   0.886   3.515   5.927
 1763SOL    HW1 6032   0.813   3.500   5.867
 1763SOL    HW2 6033   0.859   3.590   5.980
 1764SOL     OW 6034   0.229   2.491   7.567
 1764SOL    HW1 6035   0.156   2.449   7.612
 1764SOL    HW2 6036   0.220   2.464   7.476
 1765SOL     OW 6037   1.771   2.457   7.679
 1765SOL    HW1 6038   1.749   2.454   7.585
 1765SOL    HW2 6039   1.726   2.381   7.716
 1766SOL     OW 6040   0.231   3.566   7.922
 1766SOL    HW1 6041   0.264   3.613   7.999
 1766SOL    HW2 6042   0.301   3.575   7.857
 1767SOL     OW 6043   0.216   3.298   7.992
 1767SOL    HW1 6044   0.210   3.393   7.981
 1767SOL    HW2 6045   0.153   3.278   8.061
 1768SOL     OW 6046   0.582   2.846   7.581
 1768SOL    HW1 6047   0.628   2.894   7.512
 1768SOL    HW2 6048   0.623   2.877   7.662
 1769SOL     OW 6049   1.837   3.620   7.797
 1769SOL    HW1 6050   1.908   3.591   7.853
 1769SOL    HW2 6051   1.862   3.709   7.771
 1770SOL     OW 6052   0.036   3.464   7.583
 1770SOL    HW1 6053   0.028   3.371   7.604
 1770SOL    HW2 6054   5.276   3.507   7.644
 1771SOL     OW 6055   1.675   2.727   8.038
 1771SOL    HW1 6056   1.758   2.734   0.006
 1771SOL    HW2 6057   1.669   2.809   7.989
 1772SOL     OW 6058   1.655   2.960   7.876
 1772SOL    HW1 6059   1.744   2.985   7.850
 1772SOL    HW2 6060   1.626   3.031   7.934
 1773SOL     OW 6061   0.799   1.857   7.937
 1773SOL    HW1 6062   0.849   1.937   7.921
 1773SOL    HW2 6063   0.709   1.887   7.948
 1774SOL     OW 6064   1.533   2.857   7.650
 1774SOL    HW1 6065   1.467   2.797   7.684
 1774SOL    HW2 6066   1.577   2.891   7.727
 1775SOL     OW 6067   0.588   2.585   7.708
 1775SOL    HW1 6068   0.595   2.667   7.659
 1775SOL    HW2 6069   0.534   2.607   7.783
 1776SOL     OW 6070   1.574   3.534   7.757
 1776SOL    HW1 6071   1.665   3.561   7.766
 1776SOL    HW2 6072   1.562   3.521   7.663
 1777SOL     OW 6073   0.057   2.688   0.199
 1777SOL    HW1 6074   0.121   2.622   0.171
 1777SOL    HW2 6075   0.033   2.734   0.119
 1778SOL     OW 6076   0.883   2.210   7.637
 1778SOL    HW1 6077   0.927   2.270   7.577
 1778SOL    HW2 6078   0.918   2.124   7.614
 1779SOL     OW 6079   0.317   2.809   7.694
 1779SOL    HW1 6080   0.398   2.837   7.650
 1779SOL    HW2 6081   0.295   2.726   7.653
 1780SOL     OW 6082   1.124   3.638   7.681
 1780SOL    HW1 6083   1.047   3.598   7.722
 1780SOL    HW2 6084   1.149   3.577   7.612
 1781SOL     OW 6085   1.628   3.243   7.533
 1781SOL    HW1 6086   1.586   3.328   7.520
 1781SOL    HW2 6087   1.560   3.179   7.516
 1782SOL     OW 6088   0.470   3.600   7.769
 1782SOL    HW1 6089   0.516   3.653   7.834
 1782SOL    HW2 6090   0.539   3.565   7.713
 1783SOL     OW 6091   1.417   1.994   7.864
 1783SOL    HW1 6092   1.405   1.960   7.775
 1783SOL    HW2 6093   1.511   1.994   7.878
 1784SOL     OW 6094   0.379   2.562   7.923
 1784SOL    HW1 6095   0.397   2.468   7.928
 1784SOL    HW2 6096   0.284   2.568   7.935
 1785SOL     OW 6097   0.629   1.980   7.559
 1785SOL    HW1 6098   0.704   1.922   7.568
 1785SOL    HW2 6099   0.585   1.950   7.479
 1786SOL     OW 6100   0.526   1.938   7.961
 1786SOL    HW1 6101   0.438   1.944   7.999
 1786SOL    HW2 6102   0.528   2.008   7.896
 1787SOL     OW 6103   1.428   3.060   7.489
 1787SOL    HW1 6104   1.459   2.986   7.542
 1787SOL    HW2 6105   1.344   3.084   7.528
 1788SOL     OW 6106   0.307   1.905   7.619
 1788SOL    HW1 6107   0.368   1.969   7.583
 1788SOL    HW2 6108   0.362   1.843   7.667
 1789SOL     OW 6109   0.944   2.087   7.910
 1789SOL    HW1 6110   0.900   2.153   7.855
 1789SOL    HW2 6111   1.035   2.117   7.914
 1790SOL     OW 6112   0.447   3.022   0.088
 1790SOL    HW1 6113   0.376   3.045   0.148
 1790SOL    HW2 6114   0.404   3.003   0.005
 1791SOL     OW 6115   1.291   3.674   8.014
 1791SOL    HW1 6116   1.327   3.743   7.958
 1791SOL    HW2 6117   1.206   3.707   8.041
 1792SOL     OW 6118   1.025   2.402   7.468
 1792SOL    HW1 6119   0.980   2.485   7.451
 1792SOL    HW2 6120   1.085   2.422   7.540
 1793SOL     OW 6121   1.863   2.682   7.801
 1793SOL    HW1 6122   1.881   2.649   7.889
 1793SOL    HW2 6123   1.831   2.605   7.753
 1794SOL     OW 6124   0.489   3.279   7.604
 1794SOL    HW1 6125   0.415   3.251   7.657
 1794SOL    HW2 6126   0.473   3.240   7.517
 1795SOL     OW 6127   1.394   2.433   7.519
 1795SOL    HW1 6128   1.332   2.414   7.589
 1795SOL    HW2 6129   1.478   2.402   7.552
 1796SOL     OW 6130   0.526   2.128   7.769
 1796SOL    HW1 6131   0.571   2.078   7.701
 1796SOL    HW2 6132   0.502   2.210   7.728
 1797SOL     OW 6133   0.710   2.923   7.813
 1797SOL    HW1 6134   0.692   2.912   7.906
 1797SOL    HW2 6135   0.789   2.871   7.797
 1798SOL     OW 6136   0.344   2.958   7.926
 1798SOL    HW1 6137   0.342   3.042   7.881
 1798SOL    HW2 6138   0.346   2.893   7.856
 1799SOL     OW 6139   1.222   3.219   7.821
 1799SOL    HW1 6140   1.283   3.288   7.844
 1799SOL    HW2 6141   1.188   3.187   7.905
 1800SOL     OW 6142   1.589   2.489   7.920
 1800SOL    HW1 6143   1.575   2.547   7.995
 1800SOL    HW2 6144   1.630   2.545   7.854
 1801SOL     OW 6145   1.203   2.387   7.713
 1801SOL    HW1 6146   1.204   2.305   7.762
 1801SOL    HW2 6147   1.184   2.455   7.779
 1802SOL     OW 6148   1.618   2.242   7.813
 1802SOL    HW1 6149   1.640   2.176   7.878
 1802SOL    HW2 6150   1.595   2.319   7.864
 1803SOL     OW 6151   1.530   2.136   7.575
 1803SOL    HW1 6152   1.464   2.072   7.600
 1803SOL    HW2 6153   1.562   2.172   7.658
 1804SOL     OW 6154   1.293   2.689   7.480
 1804SOL    HW1 6155   1.335   2.603   7.482
 1804SOL    HW2 6156   1.323   2.729   7.399
 1805SOL     OW 6157   0.004   3.195   7.656
 1805SOL    HW1 6158   5.223   3.191   7.605
 1805SOL    HW2 6159   0.014   3.107   7.692
 1806SOL     OW 6160   0.841   2.465   7.759
 1806SOL    HW1 6161   0.834   2.373   7.733
 1806SOL    HW2 6162   0.750   2.496   7.761
 1807SOL     OW 6163   0.461   2.355   7.638
 1807SOL    HW1 6164   0.522   2.426   7.655
 1807SOL    HW2 6165   0.377   2.398   7.622
 1808SOL     OW 6166   1.311   2.711   7.754
 1808SOL    HW1 6167   1.224   2.725   7.793
 1808SOL    HW2 6168   1.294   2.703   7.660
 1809SOL     OW 6169   1.710   2.009   7.945
 1809SOL    HW1 6170   1.788   2.002   7.889
 1809SOL    HW2 6171   1.715   1.933   8.002
 1810SOL     OW 6172   1.363   3.439   7.895
 1810SOL    HW1 6173   1.438   3.460   7.840
 1810SOL    HW2 6174   1.332   3.524   7.926
 1811SOL     OW 6175   0.668   3.482   7.603
 1811SOL    HW1 6176   0.680   3.494   7.509
 1811SOL    HW2 6177   0.615   3.403   7.610
 1812SOL     OW 6178   1.210   3.468   7.478
 1812SOL    HW1 6179   1.199   3.377   7.506
 1812SOL    HW2 6180   1.143   3.482   7.411
 1813SOL     OW 6181   0.924   2.770   7.755
 1813SOL    HW1 6182   0.979   2.795   7.680
 1813SOL    HW2 6183   0.920   2.675   7.751
 1814SOL     OW 6184   1.493   3.489   7.488
 1814SOL    HW1 6185   1.398   3.481   7.476
 1814SOL    HW2 6186   1.528   3.494   7.400
 1815SOL     OW 6187   0.608   3.369   7.935
 1815SOL    HW1 6188   0.652   3.309   7.875
 1815SOL    HW2 6189   0.534   3.403   7.885
 1816SOL     OW 6190   0.261   3.208   7.743
 1816SOL    HW1 6191   0.168   3.212   7.718
 1816SOL    HW2 6192   0.263   3.244   7.832
 1817SOL     OW 6193   0.083   2.200   7.487
 1817SOL    HW1 6194   5.298   2.162   7.464
 1817SOL    HW2 6195   0.100   2.265   7.419
 1818SOL     OW 6196   0.083   2.000   7.739
 1818SOL    HW1 6197   0.068   2.086   7.700
 1818SOL    HW2 6198   0.154   1.963   7.687
 1819SOL     OW 6199   1.176   3.200   7.556
 1819SOL    HW1 6200   1.083   3.175   7.555
 1819SOL    HW2 6201   1.198   3.206   7.649
 1820SOL     OW 6202   1.214   2.180   7.904
 1820SOL    HW1 6203   1.288   2.120   7.892
 1820SOL    HW2 6204   1.235   2.228   7.984
 1821SOL     OW 6205   0.624   2.603   8.047
 1821SOL    HW1 6206   0.628   2.679   0.024
 1821SOL    HW2 6207   0.533   2.598   8.019
 1822SOL     OW 6208   0.863   3.229   7.484
 1822SOL    HW1 6209   0.825   3.259   7.567
 1822SOL    HW2 6210   0.881   3.309   7.436
 1823SOL     OW 6211   1.071   2.839   7.537
 1823SOL    HW1 6212   1.053   2.897   7.464
 1823SOL    HW2 6213   1.150   2.791   7.511
 1824SOL     OW 6214   0.392   2.294   7.981
 1824SOL    HW1 6215   0.435   2.234   7.920
 1824SOL    HW2 6216   0.438   2.282   8.064
 1825SOL     OW 6217   0.765   3.198   7.763
 1825SOL    HW1 6218   0.736   3.107   7.764
 1825SOL    HW2 6219   0.847   3.197   7.813
 1826SOL     OW 6220   1.353   1.915   7.610
 1826SOL    HW1 6221   1.383   1.847   7.549
 1826SOL    HW2 6222   1.266   1.885   7.638
 1827SOL     OW 6223   0.048   2.932   7.721
 1827SOL    HW1 6224   0.138   2.897   7.719
 1827SOL    HW2 6225   0.001   2.872   7.779
 1828SOL     OW 6226   0.893   3.515   7.779
 1828SOL    HW1 6227   0.817   3.491   7.727
 1828SOL    HW2 6228   0.859   3.577   7.844
 1829SOL     OW 6229   0.225   4.345   0.116
 1829SOL    HW1 6230   0.155   4.302   0.165
 1829SOL    HW2 6231   0.230   4.295   0.034
 1830SOL     OW 6232   0.242   3.998   0.988
 1830SOL    HW1 6233   0.256   3.965   1.076
 1830SOL    HW2 6234   0.158   3.962   0.962
 1831SOL     OW 6235   5.295   4.121   0.649
 1831SOL    HW1 6236   5.204   4.149   0.658
 1831SOL    HW2 6237   5.290   4.028   0.628
 1832SOL     OW 6238   0.575   5.001   1.185
 1832SOL    HW1 6239   0.496   5.007   1.132
 1832SOL    HW2 6240   0.593   5.092   1.210
 1833SOL     OW 6241   1.557   5.233   0.688
 1833SOL    HW1 6242   1.534   5.230   0.781
 1833SOL    HW2 6243   1.478   5.269   0.646
 1834SOL     OW 6244   1.131   4.422   0.700
 1834SOL    HW1 6245   1.179   4.503   0.687
 1834SOL    HW2 6246   1.084   4.435   0.782
 1835SOL     OW 6247   1.770   4.324   0.232
 1835SOL    HW1 6248   1.730   4.326   0.145
 1835SOL    HW2 6249   1.731   4.248   0.275
 1836SOL     OW 6250   0.757   4.866   1.038
 1836SOL    HW1 6251   0.691   4.896   1.100
 1836SOL    HW2 6252   0.786   4.946   0.992
 1837SOL     OW 6253   0.869   4.497   1.822
 1837SOL    HW1 6254   0.856   4.568   1.885
 1837SOL    HW2 6255   0.891   4.540   1.740
 1838SOL     OW 6256   0.684   4.723   0.651
 1838SOL    HW1 6257   0.750   4.714   0.719
 1838SOL    HW2 6258   0.617   4.780   0.689
 1839SOL     OW 6259   0.708   4.871   1.813
 1839SOL    HW1 6260   0.756   4.951   1.837
 1839SOL    HW2 6261   0.626   4.903   1.777
 1840SOL     OW 6262   0.377   5.146   1.053
 1840SOL    HW1 6263   0.283   5.157   1.041
 1840SOL    HW2 6264   0.417   5.196   0.981
 1841SOL     OW 6265   1.454   5.221   1.348
 1841SOL    HW1 6266   1.509   5.293   1.379
 1841SOL    HW2 6267   1.387   5.211   1.415
 1842SOL     OW 6268   0.451   4.124   1.491
 1842SOL    HW1 6269   0.525   4.063   1.493
 1842SOL    HW2 6270   0.374   4.068   1.501
 1843SOL     OW 6271   1.611   4.171   0.741
 1843SOL    HW1 6272   1.536   4.193   0.686
 1843SOL    HW2 6273   1.624   4.248   0.796
 1844SOL     OW 6274   1.133   5.073   1.702
 1844SOL    HW1 6275   1.163   5.074   1.793
 1844SOL    HW2 6276   1.080   4.994   1.695
 1845SOL     OW 6277   0.209   5.150   0.531
 1845SOL    HW1 6278   0.253   5.229   0.565
 1845SOL    HW2 6279   0.128   5.144   0.581
 1846SOL     OW 6280   0.255   4.800   0.877
 1846SOL    HW1 6281   0.264   4.711   0.913
 1846SOL    HW2 6282   0.196   4.845   0.938
 1847SOL     OW 6283   0.619   4.683   0.138
 1847SOL    HW1 6284   0.575   4.763   0.108
 1847SOL    HW2 6285   0.674   4.712   0.211
 1848SOL     OW 6286   1.596   3.848   1.467
 1848SOL    HW1 6287   1.606   3.929   1.417
 1848SOL    HW2 6288   1.581   3.877   1.557
 1849SOL     OW 6289   0.132   4.353   0.582
 1849SOL    HW1 6290   0.086   4.274   0.610
 1849SOL    HW2 6291   0.100   4.422   0.640
 1850SOL     OW 6292   0.014   5.293   0.070
 1850SOL    HW1 6293   0.021   5.209   0.115
 1850SOL    HW2 6294   0.043   0.057   0.134
 1851SOL     OW 6295   1.687   4.642   0.644
 1851SOL    HW1 6296   1.770   4.599   0.621
 1851SOL    HW2 6297   1.665   4.694   0.567
 1852SOL     OW 6298   1.646   4.829   0.434
 1852SOL    HW1 6299   1.728   4.839   0.386
 1852SOL    HW2 6300   1.653   4.891   0.507
 1853SOL     OW 6301   0.132   4.472   1.585
 1853SOL    HW1 6302   0.226   4.487   1.585
 1853SOL    HW2 6303   0.094   4.559   1.598
 1854SOL     OW 6304   0.627   5.098   0.737
 1854SOL    HW1 6305   0.570   5.021   0.735
 1854SOL    HW2 6306   0.603   5.147   0.659
 1855SOL     OW 6307   1.288   4.953   1.426
 1855SOL    HW1 6308   1.322   4.888   1.365
 1855SOL    HW2 6309   1.349   4.951   1.500
 1856SOL     OW 6310   0.825   3.727   0.513
 1856SOL    HW1 6311   0.863   3.811   0.490
 1856SOL    HW2 6312   0.731   3.744   0.518
 1857SOL     OW 6313   0.174   4.665   1.283
 1857SOL    HW1 6314   0.264   4.634   1.270
 1857SOL    HW2 6315   0.134   4.660   1.196
 1858SOL     OW 6316   1.508   4.735   0.211
 1858SOL    HW1 6317   1.447   4.669   0.244
 1858SOL    HW2 6318   1.561   4.759   0.287
 1859SOL     OW 6319   0.339   3.977   1.820
 1859SOL    HW1 6320   0.385   4.060   1.832
 1859SOL    HW2 6321   0.250   3.994   1.853
 1860SOL     OW 6322   1.478   5.147   0.963
 1860SOL    HW1 6323   1.405   5.160   1.022
 1860SOL    HW2 6324   1.466   5.058   0.928
 1861SOL     OW 6325   0.597   4.436   0.281
 1861SOL    HW1 6326   0.617   4.517   0.234
 1861SOL    HW2 6327   0.535   4.463   0.349
 1862SOL     OW 6328   1.279   4.078   0.933
 1862SOL    HW1 6329   1.190   4.045   0.941
 1862SOL    HW2 6330   1.330   4.025   0.993
 1863SOL     OW 6331   0.792   4.341   1.451
 1863SOL    HW1 6332   0.765   4.317   1.539
 1863SOL    HW2 6333   0.753   4.274   1.395
 1864SOL     OW 6334   1.393   4.198   1.678
 1864SOL    HW1 6335   1.396   4.243   1.762
 1864SOL    HW2 6336   1.454   4.124   1.687
 1865SOL     OW 6337   0.954   4.612   1.583
 1865SOL    HW1 6338   1.009   4.541   1.548
 1865SOL    HW2 6339   0.906   4.645   1.508
 1866SOL     OW 6340   0.992   4.136   1.238
 1866SOL    HW1 6341   0.906   4.157   1.274
 1866SOL    HW2 6342   0.974   4.091   1.156
 1867SOL     OW 6343   1.053   4.423   0.427
 1867SOL    HW1 6344   1.069   4.416   0.522
 1867SOL    HW2 6345   0.970   4.377   0.414
 1868SOL     OW 6346   0.066   4.512   0.818
 1868SOL    HW1 6347   0.150   4.516   0.863
 1868SOL    HW2 6348   0.065   4.589   0.761
 1869SOL     OW 6349   0.885   4.081   0.202
 1869SOL    HW1 6350   0.930   4.131   0.133
 1869SOL    HW2 6351   0.885   3.991   0.170
 1870SOL     OW 6352   1.708   4.298   1.828
 1870SOL    HW1 6353   1.670   4.371   1.780
 1870SOL    HW2 6354   1.736   4.236   1.760
 1871SOL     OW 6355   1.377   4.863   0.539
 1871SOL    HW1 6356   1.458   4.851   0.489
 1871SOL    HW2 6357   1.326   4.926   0.487
 1872SOL     OW 6358   0.556   3.907   0.894
 1872SOL    HW1 6359   0.553   3.935   0.985
 1872SOL    HW2 6360   0.553   3.989   0.844
 1873SOL     OW 6361   1.018   5.162   0.471
 1873SOL    HW1 6362   0.944   5.223   0.471
 1873SOL    HW2 6363   1.040   5.150   0.563
 1874SOL     OW 6364   1.800   4.780   0.867
 1874SOL    HW1 6365   1.743   4.761   0.792
 1874SOL    HW2 6366   1.741   4.787   0.941
 1875SOL     OW 6367   1.251   5.240   1.525
 1875SOL    HW1 6368   1.215   5.173   1.584
 1875SOL    HW2 6369   1.179   5.261   1.466
 1876SOL     OW 6370   0.330   4.674   0.250
 1876SOL    HW1 6371   0.412   4.684   0.202
 1876SOL    HW2 6372   0.315   4.579   0.251
 1877SOL     OW 6373   1.479   4.466   0.726
 1877SOL    HW1 6374   1.471   4.425   0.812
 1877SOL    HW2 6375   1.556   4.523   0.733
 1878SOL     OW 6376   0.463   4.989   1.743
 1878SOL    HW1 6377   0.437   4.992   1.651
 1878SOL    HW2 6378   0.380   4.989   1.791
 1879SOL     OW 6379   1.159   0.158   0.236
 1879SOL    HW1 6380   1.076   0.177   0.280
 1879SOL    HW2 6381   1.134   0.136   0.146
 1880SOL     OW 6382   0.205   4.003   1.497
 1880SOL    HW1 6383   0.127   4.055   1.480
 1880SOL    HW2 6384   0.173   3.923   1.539
 1881SOL     OW 6385   1.630   5.094   0.077
 1881SOL    HW1 6386   1.591   5.180   0.094
 1881SOL    HW2 6387   1.555   5.036   0.062
 1882SOL     OW 6388   1.407   3.835   0.445
 1882SOL    HW1 6389   1.399   3.814   0.353
 1882SOL    HW2 6390   1.502   3.842   0.460
 1883SOL     OW 6391   0.382   4.423   0.475
 1883SOL    HW1 6392   0.413   4.333   0.485
 1883SOL    HW2 6393   0.290   4.420   0.501
 1884SOL     OW 6394   1.534   3.949   1.725
 1884SOL    HW1 6395   1.544   3.970   1.818
 1884SOL    HW2 6396   1.465   3.883   1.722
 1885SOL     OW 6397   0.629   3.834   0.137
 1885SOL    HW1 6398   0.724   3.822   0.142
 1885SOL    HW2 6399   0.607   3.815   0.046
 1886SOL     OW 6400   0.766   4.003   1.755
 1886SOL    HW1 6401   0.843   3.945   1.755
 1886SOL    HW2 6402   0.718   3.978   1.833
 1887SOL     OW 6403   1.340   4.313   1.432
 1887SOL    HW1 6404   1.371   4.282   1.517
 1887SOL    HW2 6405   1.376   4.401   1.424
 1888SOL     OW 6406   0.814   5.119   0.937
 1888SOL    HW1 6407   0.895   5.105   0.887
 1888SOL    HW2 6408   0.746   5.125   0.871
 1889SOL     OW 6409   0.928   4.234   0.902
 1889SOL    HW1 6410   0.904   4.225   0.810
 1889SOL    HW2 6411   0.959   4.146   0.927
 1890SOL     OW 6412   0.561   3.786   0.500
 1890SOL    HW1 6413   0.486   3.785   0.559
 1890SOL    HW2 6414   0.549   3.865   0.447
 1891SOL     OW 6415   1.425   4.925   0.035
 1891SOL    HW1 6416   1.453   4.852   0.089
 1891SOL    HW2 6417   1.339   4.949   0.069
 1892SOL     OW 6418   0.314   3.772   0.176
 1892SOL    HW1 6419   0.380   3.842   0.182
 1892SOL    HW2 6420   0.356   3.697   0.219
 1893SOL     OW 6421   0.942   3.972   0.458
 1893SOL    HW1 6422   0.914   4.013   0.376
 1893SOL    HW2 6423   1.036   3.989   0.462
 1894SOL     OW 6424   1.080   4.405   1.460
 1894SOL    HW1 6425   1.011   4.338   1.463
 1894SOL    HW2 6426   1.161   4.356   1.453
 1895SOL     OW 6427   1.263   5.265   0.780
 1895SOL    HW1 6428   1.220   0.045   0.749
 1895SOL    HW2 6429   1.307   5.291   0.860
 1896SOL     OW 6430   0.466   4.874   0.728
 1896SOL    HW1 6431   0.398   4.854   0.791
 1896SOL    HW2 6432   0.426   4.856   0.643
 1897SOL     OW 6433   1.032   4.251   0.032
 1897SOL    HW1 6434   0.990   4.332   0.003
 1897SOL    HW2 6435   1.094   4.278   0.099
 1898SOL     OW 6436   0.089   4.268   1.399
 1898SOL    HW1 6437   0.177   4.276   1.361
 1898SOL    HW2 6438   0.079   4.345   1.455
 1899SOL     OW 6439   0.560   3.952   1.167
 1899SOL    HW1 6440   0.598   3.872   1.205
 1899SOL    HW2 6441   0.468   3.950   1.194
 1900SOL     OW 6442   0.867   4.182   0.639
 1900SOL    HW1 6443   0.825   4.238   0.574
 1900SOL    HW2 6444   0.889   4.102   0.591
 1901SOL     OW 6445   1.016   3.777   0.750
 1901SOL    HW1 6446   0.956   3.770   0.675
 1901SOL    HW2 6447   0.994   3.702   0.805
 1902SOL     OW 6448   1.438   4.890   0.859
 1902SOL    HW1 6449   1.370   4.822   0.856
 1902SOL    HW2 6450   1.463   4.903   0.767
 1903SOL     OW 6451   1.466   4.330   0.975
 1903SOL    HW1 6452   1.414   4.250   0.979
 1903SOL    HW2 6453   1.525   4.323   1.050
 1904SOL     OW 6454   1.848   4.538   0.388
 1904SOL    HW1 6455   1.901   4.486   0.448
 1904SOL    HW2 6456   1.817   4.476   0.322
 1905SOL     OW 6457   0.473   5.158   0.156
 1905SOL    HW1 6458   0.421   5.110   0.220
 1905SOL    HW2 6459   0.504   5.092   0.095
 1906SOL     OW 6460   1.671   4.988   0.647
 1906SOL    HW1 6461   1.764   4.995   0.665
 1906SOL    HW2 6462   1.636   5.076   0.663
 1907SOL     OW 6463   1.398   4.302   0.088
 1907SOL    HW1 6464   1.336   4.283   0.158
 1907SOL    HW2 6465   1.452   4.223   0.082
 1908SOL     OW 6466   0.514   3.987   0.323
 1908SOL    HW1 6467   0.565   3.936   0.260
 1908SOL    HW2 6468   0.500   4.071   0.279
 1909SOL     OW 6469   1.751   4.960   1.574
 1909SOL    HW1 6470   1.836   4.918   1.574
 1909SOL    HW2 6471   1.770   5.053   1.586
 1910SOL     OW 6472   1.064   5.075   1.331
 1910SOL    HW1 6473   0.985   5.048   1.378
 1910SOL    HW2 6474   1.136   5.035   1.380
 1911SOL     OW 6475   1.128   4.927   1.107
 1911SOL    HW1 6476   1.077   4.968   1.177
 1911SOL    HW2 6477   1.082   4.951   1.027
 1912SOL     OW 6478   1.628   4.822   1.076
 1912SOL    HW1 6479   1.623   4.883   1.149
 1912SOL    HW2 6480   1.551   4.841   1.023
 1913SOL     OW 6481   0.919   3.820   1.396
 1913SOL    HW1 6482   0.941   3.802   1.305
 1913SOL    HW2 6483   0.998   3.860   1.432
 1914SOL     OW 6484   0.984   4.839   1.725
 1914SOL    HW1 6485   0.892   4.855   1.744
 1914SOL    HW2 6486   0.984   4.762   1.668
 1915SOL     OW 6487   0.710   4.782   0.381
 1915SOL    HW1 6488   0.694   4.766   0.474
 1915SOL    HW2 6489   0.790   4.734   0.362
 1916SOL     OW 6490   0.421   4.543   1.252
 1916SOL    HW1 6491   0.490   4.550   1.318
 1916SOL    HW2 6492   0.386   4.455   1.262
 1917SOL     OW 6493   1.265   4.100   1.276
 1917SOL    HW1 6494   1.297   4.178   1.322
 1917SOL    HW2 6495   1.174   4.122   1.254
 1918SOL     OW 6496   0.112   5.287   1.321
 1918SOL    HW1 6497   0.052   0.046   1.367
 1918SOL    HW2 6498   0.191   5.285   1.375
 1919SOL     OW 6499   0.346   4.829   0.486
 1919SOL    HW1 6500   0.338   4.908   0.432
 1919SOL    HW2 6501   0.356   4.758   0.423
 1920SOL     OW 6502   0.553   4.258   0.859
 1920SOL    HW1 6503   0.568   4.317   0.785
 1920SOL    HW2 6504   0.618   4.285   0.924
 1921SOL     OW 6505   1.258   5.073   0.385
 1921SOL    HW1 6506   1.312   5.148   0.410
 1921SOL    HW2 6507   1.169   5.097   0.412
 1922SOL     OW 6508   1.270   5.183   1.141
 1922SOL    HW1 6509   1.329   5.196   1.216
 1922SOL    HW2 6510   1.226   5.100   1.160
 1923SOL     OW 6511   1.582   4.347   0.483
 1923SOL    HW1 6512   1.532   4.396   0.548
 1923SOL    HW2 6513   1.616   4.414   0.423
 1924SOL     OW 6514   0.382   5.232   1.314
 1924SOL    HW1 6515   0.366   5.193   1.228
 1924SOL    HW2 6516   0.474   5.257   1.312
 1925SOL     OW 6517   0.415   4.466   1.602
 1925SOL    HW1 6518   0.476   4.512   1.545
 1925SOL    HW2 6519   0.453   4.380   1.615
 1926SOL     OW 6520   1.603   4.503   1.683
 1926SOL    HW1 6521   1.517   4.544   1.676
 1926SOL    HW2 6522   1.655   4.545   1.614
 1927SOL     OW 6523   0.996   3.849   1.755
 1927SOL    HW1 6524   1.052   3.921   1.728
 1927SOL    HW2 6525   1.044   3.770   1.729
 1928SOL     OW 6526   0.497   3.765   1.748
 1928SOL    HW1 6527   0.454   3.711   1.682
 1928SOL    HW2 6528   0.438   3.839   1.761
 1929SOL     OW 6529   0.586   4.597   1.033
 1929SOL    HW1 6530   0.615   4.688   1.030
 1929SOL    HW2 6531   0.529   4.592   1.109
 1930SOL     OW 6532   1.356   4.582   1.027
 1930SOL    HW1 6533   1.272   4.571   0.983
 1930SOL    HW2 6534   1.398   4.496   1.021
 1931SOL     OW 6535   1.202   4.252   0.270
 1931SOL    HW1 6536   1.210   4.173   0.324
 1931SOL    HW2 6537   1.159   4.315   0.327
 1932SOL     OW 6538   0.301   3.927   1.247
 1932SOL    HW1 6539   0.267   3.951   1.333
 1932SOL    HW2 6540   0.289   3.832   1.242
 1933SOL     OW 6541   0.042   5.021   1.277
 1933SOL    HW1 6542   0.073   4.971   1.352
 1933SOL    HW2 6543   0.045   5.112   1.305
 1934SOL     OW 6544   0.723   4.354   1.057
 1934SOL    HW1 6545   0.799   4.340   1.000
 1934SOL    HW2 6546   0.695   4.444   1.037
 1935SOL     OW 6547   1.735   4.684   1.853
 1935SOL    HW1 6548   1.690   4.620   1.797
 1935SOL    HW2 6549   1.675   4.698   1.926
 1936SOL     OW 6550   0.325   3.787   0.635
 1936SOL    HW1 6551   0.309   3.877   0.664
 1936SOL    HW2 6552   0.332   3.737   0.716
 1937SOL     OW 6553   1.623   4.100   0.369
 1937SOL    HW1 6554   1.646   4.034   0.434
 1937SOL    HW2 6555   1.597   4.177   0.420
 1938SOL     OW 6556   1.028   4.483   0.960
 1938SOL    HW1 6557   1.024   4.500   1.054
 1938SOL    HW2 6558   1.002   4.391   0.951
 1939SOL     OW 6559   1.854   5.213   1.583
 1939SOL    HW1 6560   1.846   5.290   1.527
 1939SOL    HW2 6561   1.924   5.236   1.645
 1940SOL     OW 6562   0.355   4.643   1.806
 1940SOL    HW1 6563   0.436   4.660   1.854
 1940SOL    HW2 6564   0.379   4.577   1.741
 1941SOL     OW 6565   1.516   4.027   0.127
 1941SOL    HW1 6566   1.467   3.946   0.143
 1941SOL    HW2 6567   1.557   4.047   0.211
 1942SOL     OW 6568   1.295   4.547   0.019
 1942SOL    HW1 6569   1.333   4.461   0.038
 1942SOL    HW2 6570   1.357   4.587   8.038
 1943SOL     OW 6571   1.058   5.079   0.826
 1943SOL    HW1 6572   1.064   4.994   0.782
 1943SOL    HW2 6573   1.144   5.119   0.812
 1944SOL     OW 6574   0.314   4.532   0.948
 1944SOL    HW1 6575   0.408   4.550   0.945
 1944SOL    HW2 6576   0.308   4.443   0.981
 1945SOL     OW 6577   0.334   4.250   1.016
 1945SOL    HW1 6578   0.299   4.162   1.001
 1945SOL    HW2 6579   0.409   4.255   0.956
 1946SOL     OW 6580   1.134   4.099   1.683
 1946SOL    HW1 6581   1.086   4.154   1.745
 1946SOL    HW2 6582   1.221   4.138   1.679
 1947SOL     OW 6583   1.161   3.926   1.470
 1947SOL    HW1 6584   1.150   3.989   1.542
 1947SOL    HW2 6585   1.201   3.976   1.400
 1948SOL     OW 6586   0.012   5.051   0.197
 1948SOL    HW1 6587   5.222   5.055   0.166
 1948SOL    HW2 6588   0.018   4.967   0.243
 1949SOL     OW 6589   0.981   4.515   1.226
 1949SOL    HW1 6590   1.038   4.493   1.300
 1949SOL    HW2 6591   0.896   4.477   1.249
 1950SOL     OW 6592   0.031   4.278   1.115
 1950SOL    HW1 6593   0.121   4.264   1.084
 1950SOL    HW2 6594   0.037   4.266   1.210
 1951SOL     OW 6595   0.174   4.237   1.712
 1951SOL    HW1 6596   0.238   4.199   1.652
 1951SOL    HW2 6597   0.147   4.319   1.670
 1952SOL     OW 6598   1.377   4.662   1.658
 1952SOL    HW1 6599   1.398   4.755   1.655
 1952SOL    HW2 6600   1.374   4.635   1.566
 1953SOL     OW 6601   0.819   4.294   0.368
 1953SOL    HW1 6602   0.829   4.222   0.306
 1953SOL    HW2 6603   0.743   4.342   0.337
 1954SOL     OW 6604   1.642   4.325   1.185
 1954SOL    HW1 6605   1.631   4.267   1.260
 1954SOL    HW2 6606   1.729   4.306   1.151
 1955SOL     OW 6607   0.209   5.279   1.732
 1955SOL    HW1 6608   0.171   0.021   1.809
 1955SOL    HW2 6609   0.213   5.186   1.754
 1956SOL     OW 6610   0.704   4.173   1.259
 1956SOL    HW1 6611   0.650   4.099   1.230
 1956SOL    HW2 6612   0.698   4.236   1.187
 1957SOL     OW 6613   0.467   4.214   0.178
 1957SOL    HW1 6614   0.532   4.280   0.201
 1957SOL    HW2 6615   0.383   4.260   0.181
 1958SOL     OW 6616   0.151   4.861   1.472
 1958SOL    HW1 6617   0.146   4.812   1.555
 1958SOL    HW2 6618   0.160   4.793   1.405
 1959SOL     OW 6619   1.326   4.769   1.222
 1959SOL    HW1 6620   1.348   4.706   1.153
 1959SOL    HW2 6621   1.256   4.822   1.184
 1960SOL     OW 6622   1.307   4.573   0.307
 1960SOL    HW1 6623   1.231   4.544   0.357
 1960SOL    HW2 6624   1.281   4.561   0.216
 1961SOL     OW 6625   0.075   4.915   1.031
 1961SOL    HW1 6626   0.062   4.957   1.116
 1961SOL    HW2 6627   5.289   4.922   0.989
 1962SOL     OW 6628   0.753   0.037   1.709
 1962SOL    HW1 6629   0.660   0.059   1.718
 1962SOL    HW2 6630   0.774   0.060   1.618
 1963SOL     OW 6631   0.905   3.816   0.132
 1963SOL    HW1 6632   0.922   3.799   0.039
 1963SOL    HW2 6633   0.970   3.763   0.178
 1964SOL     OW 6634   1.719   3.870   0.509
 1964SOL    HW1 6635   1.791   3.854   0.448
 1964SOL    HW2 6636   1.704   3.786   0.551
 1965SOL     OW 6637   1.277   4.649   0.672
 1965SOL    HW1 6638   1.351   4.589   0.679
 1965SOL    HW2 6639   1.311   4.722   0.618
 1966SOL     OW 6640   0.817   4.993   1.418
 1966SOL    HW1 6641   0.785   5.029   1.501
 1966SOL    HW2 6642   0.742   5.000   1.359
 1967SOL     OW 6643   1.841   3.897   0.966
 1967SOL    HW1 6644   1.870   3.809   0.940
 1967SOL    HW2 6645   1.754   3.906   0.927
 1968SOL     OW 6646   0.270   4.040   0.716
 1968SOL    HW1 6647   0.188   4.085   0.698
 1968SOL    HW2 6648   0.271   4.030   0.811
 1969SOL     OW 6649   1.139   0.018   0.002
 1969SOL    HW1 6650   1.154   5.229   0.033
 1969SOL    HW2 6651   1.145   0.012   7.987
 1970SOL     OW 6652   0.825   4.727   1.371
 1970SOL    HW1 6653   0.870   4.720   1.287
 1970SOL    HW2 6654   0.828   4.820   1.392
 1971SOL     OW 6655   0.918   4.638   0.298
 1971SOL    HW1 6656   0.973   4.664   0.225
 1971SOL    HW2 6657   0.967   4.567   0.340
 1972SOL     OW 6658   0.365   5.029   1.500
 1972SOL    HW1 6659   0.366   5.098   1.434
 1972SOL    HW2 6660   0.291   4.974   1.477
 1973SOL     OW 6661   1.613   5.004   1.282
 1973SOL    HW1 6662   1.669   4.996   1.359
 1973SOL    HW2 6663   1.550   5.073   1.305
 1974SOL     OW 6664   1.056   4.834   0.713
 1974SOL    HW1 6665   0.983   4.783   0.749
 1974SOL    HW2 6666   1.117   4.768   0.679
 1975SOL     OW 6667   1.022   3.965   0.966
 1975SOL    HW1 6668   1.017   3.917   0.883
 1975SOL    HW2 6669   1.016   3.896   1.033
 1976SOL     OW 6670   1.723   4.116   1.380
 1976SOL    HW1 6671   1.795   4.179   1.379
 1976SOL    HW2 6672   1.752   4.045   1.324
 1977SOL     OW 6673   0.271   5.034   0.296
 1977SOL    HW1 6674   0.189   5.047   0.248
 1977SOL    HW2 6675   0.258   5.082   0.378
 1978SOL     OW 6676   0.117   4.742   1.719
 1978SOL    HW1 6677   0.046   4.704   1.771
 1978SOL    HW2 6678   0.197   4.709   1.760
 1979SOL     OW 6679   0.675   3.920   1.499
 1979SOL    HW1 6680   0.759   3.900   1.458
 1979SOL    HW2 6681   0.698   3.952   1.587
 1980SOL     OW 6682   0.043   4.114   0.026
 1980SOL    HW1 6683   0.019   4.030   0.065
 1980SOL    HW2 6684   0.125   4.096   8.060
 1981SOL     OW 6685   1.429   4.582   1.400
 1981SOL    HW1 6686   1.380   4.642   1.344
 1981SOL    HW2 6687   1.518   4.584   1.365
 1982SOL     OW 6688   0.053   3.859   0.213
 1982SOL    HW1 6689   0.054   3.944   0.257
 1982SOL    HW2 6690   0.145   3.835   0.204
 1983SOL     OW 6691   1.182   5.063   0.111
 1983SOL    HW1 6692   1.088   5.049   0.108
 1983SOL    HW2 6693   1.204   5.059   0.204
 1984SOL     OW 6694   0.620   4.555   1.436
 1984SOL    HW1 6695   0.676   4.630   1.419
 1984SOL    HW2 6696   0.680   4.481   1.444
 1985SOL     OW 6697   0.718   4.287   1.704
 1985SOL    HW1 6698   0.760   4.349   1.764
 1985SOL    HW2 6699   0.743   4.201   1.736
 1986SOL     OW 6700   1.474   4.922   1.630
 1986SOL    HW1 6701   1.461   4.934   1.724
 1986SOL    HW2 6702   1.568   4.936   1.618
 1987SOL     OW 6703   1.669   4.605   1.255
 1987SOL    HW1 6704   1.662   4.520   1.212
 1987SOL    HW2 6705   1.658   4.669   1.184
 1988SOL     OW 6706   1.217   4.042   0.460
 1988SOL    HW1 6707   1.282   3.972   0.453
 1988SOL    HW2 6708   1.244   4.093   0.536
 1989SOL     OW 6709   0.589   4.460   0.669
 1989SOL    HW1 6710   0.627   4.546   0.657
 1989SOL    HW2 6711   0.518   4.455   0.604
 1990SOL     OW 6712   1.761   4.086   1.651
 1990SOL    HW1 6713   1.745   4.101   1.558
 1990SOL    HW2 6714   1.689   4.029   1.679
 1991SOL     OW 6715   1.745   4.657   1.512
 1991SOL    HW1 6716   1.739   4.752   1.524
 1991SOL    HW2 6717   1.730   4.645   1.418
 1992SOL     OW 6718   0.911   5.095   0.036
 1992SOL    HW1 6719   0.852   5.076   0.109
 1992SOL    HW2 6720   0.863   5.158   8.062
 1993SOL     OW 6721   0.869   4.692   0.855
 1993SOL    HW1 6722   0.918   4.620   0.895
 1993SOL    HW2 6723   0.833   4.741   0.929
 1994SOL     OW 6724   1.079   4.701   0.088
 1994SOL    HW1 6725   1.061   4.758   0.013
 1994SOL    HW2 6726   1.156   4.650   0.061
 1995SOL     OW 6727   0.219   5.024   1.855
 1995SOL    HW1 6728   0.155   4.955   1.836
 1995SOL    HW2 6729   0.216   5.034   1.950
 1996SOL     OW 6730   0.082   4.926   0.656
 1996SOL    HW1 6731   0.107   4.902   0.746
 1996SOL    HW2 6732   0.165   4.948   0.614
 1997SOL     OW 6733   0.673   5.104   1.610
 1997SOL    HW1 6734   0.595   5.073   1.656
 1997SOL    HW2 6735   0.705   5.176   1.663
 1998SOL     OW 6736   1.812   3.908   1.237
 1998SOL    HW1 6737   1.822   3.814   1.251
 1998SOL    HW2 6738   1.822   3.919   1.143
 1999SOL     OW 6739   0.433   4.163   0.524
 1999SOL    HW1 6740   0.462   4.090   0.469
 1999SOL    HW2 6741   0.387   4.122   0.596
 2000SOL     OW 6742   1.707   5.224   1.119
 2000SOL    HW1 6743   1.633   5.208   1.060
 2000SOL    HW2 6744   1.713   5.145   1.172
 2001SOL     OW 6745   0.338   4.284   1.292
 2001SOL    HW1 6746   0.390   4.225   1.345
 2001SOL    HW2 6747   0.351   4.254   1.202
 2002SOL     OW 6748   1.432   3.950   1.118
 2002SOL    HW1 6749   1.455   3.869   1.164
 2002SOL    HW2 6750   1.380   3.999   1.181
 2003SOL     OW 6751   1.009   3.742   1.141
 2003SOL    HW1 6752   0.954   3.675   1.101
 2003SOL    HW2 6753   1.097   3.704   1.143
 2004SOL     OW 6754   0.798   5.038   0.281
 2004SOL    HW1 6755   0.742   4.965   0.308
 2004SOL    HW2 6756   0.854   5.055   0.357
 2005SOL     OW 6757   0.641   0.003   1.288
 2005SOL    HW1 6758   0.644   0.057   1.367
 2005SOL    HW2 6759   0.733   5.286   1.267
 2006SOL     OW 6760   1.356   3.779   0.185
 2006SOL    HW1 6761   1.377   3.731   0.105
 2006SOL    HW2 6762   1.270   3.746   0.211
 2007SOL     OW 6763   1.297   4.186   0.681
 2007SOL    HW1 6764   1.243   4.265   0.687
 2007SOL    HW2 6765   1.292   4.146   0.768
 2008SOL     OW 6766   1.586   3.925   0.879
 2008SOL    HW1 6767   1.527   3.946   0.950
 2008SOL    HW2 6768   1.585   4.003   0.823
 2009SOL     OW 6769   0.042   4.801   0.308
 2009SOL    HW1 6770   0.133   4.775   0.294
 2009SOL    HW2 6771   5.295   4.719   0.321
 2010SOL     OW 6772   0.234   4.355   1.978
 2010SOL    HW1 6773   0.161   4.321   2.030
 2010SOL    HW2 6774   0.217   4.322   1.890
 2011SOL     OW 6775   0.243   3.999   2.851
 2011SOL    HW1 6776   0.256   3.964   2.939
 2011SOL    HW2 6777   0.158   3.964   2.824
 2012SOL     OW 6778   5.298   4.122   2.516
 2012SOL    HW1 6779   5.205   4.145   2.520
 2012SOL    HW2 6780   5.299   4.032   2.483
 2013SOL     OW 6781   0.575   5.001   3.047
 2013SOL    HW1 6782   0.496   5.007   2.994
 2013SOL    HW2 6783   0.593   5.092   3.073
 2014SOL     OW 6784   1.556   5.232   2.551
 2014SOL    HW1 6785   1.538   5.228   2.645
 2014SOL    HW2 6786   1.476   5.268   2.512
 2015SOL     OW 6787   1.131   4.422   2.562
 2015SOL    HW1 6788   1.179   4.503   2.548
 2015SOL    HW2 6789   1.084   4.435   2.644
 2016SOL     OW 6790   1.768   4.329   2.090
 2016SOL    HW1 6791   1.747   4.321   1.997
 2016SOL    HW2 6792   1.732   4.249   2.129
 2017SOL     OW 6793   0.757   4.866   2.900
 2017SOL    HW1 6794   0.691   4.896   2.962
 2017SOL    HW2 6795   0.786   4.946   2.854
 2018SOL     OW 6796   0.869   4.497   3.684
 2018SOL    HW1 6797   0.856   4.568   3.747
 2018SOL    HW2 6798   0.891   4.540   3.602
 2019SOL     OW 6799   0.685   4.725   2.509
 2019SOL    HW1 6800   0.751   4.715   2.578
 2019SOL    HW2 6801   0.618   4.780   2.549
 2020SOL     OW 6802   0.708   4.871   3.675
 2020SOL    HW1 6803   0.756   4.951   3.699
 2020SOL    HW2 6804   0.626   4.903   3.639
 2021SOL     OW 6805   0.377   5.146   2.915
 2021SOL    HW1 6806   0.283   5.157   2.903
 2021SOL    HW2 6807   0.417   5.196   2.844
 2022SOL     OW 6808   1.454   5.221   3.210
 2022SOL    HW1 6809   1.509   5.293   3.241
 2022SOL    HW2 6810   1.387   5.211   3.277
 2023SOL     OW 6811   0.451   4.124   3.353
 2023SOL    HW1 6812   0.525   4.063   3.355
 2023SOL    HW2 6813   0.374   4.068   3.363
 2024SOL     OW 6814   1.611   4.171   2.603
 2024SOL    HW1 6815   1.536   4.193   2.547
 2024SOL    HW2 6816   1.624   4.249   2.657
 2025SOL     OW 6817   1.133   5.073   3.564
 2025SOL    HW1 6818   1.163   5.074   3.655
 2025SOL    HW2 6819   1.080   4.994   3.557
 2026SOL     OW 6820   0.212   5.151   2.396
 2026SOL    HW1 6821   0.253   5.230   2.431
 2026SOL    HW2 6822   0.131   5.142   2.445
 2027SOL     OW 6823   0.253   4.798   2.737
 2027SOL    HW1 6824   0.265   4.711   2.775
 2027SOL    HW2 6825   0.196   4.844   2.799
 2028SOL     OW 6826   0.581   4.707   1.998
 2028SOL    HW1 6827   0.629   4.754   1.929
 2028SOL    HW2 6828   0.622   4.736   2.079
 2029SOL     OW 6829   1.596   3.848   3.330
 2029SOL    HW1 6830   1.606   3.929   3.280
 2029SOL    HW2 6831   1.581   3.877   3.420
 2030SOL     OW 6832   0.127   4.355   2.441
 2030SOL    HW1 6833   0.088   4.273   2.473
 2030SOL    HW2 6834   0.100   4.421   2.505
 2031SOL     OW 6835   5.299   5.299   1.944
 2031SOL    HW1 6836   0.013   5.211   1.978
 2031SOL    HW2 6837   0.027   0.057   2.015
 2032SOL     OW 6838   1.689   4.642   2.503
 2032SOL    HW1 6839   1.772   4.599   2.482
 2032SOL    HW2 6840   1.667   4.693   2.425
 2033SOL     OW 6841   1.646   4.830   2.291
 2033SOL    HW1 6842   1.732   4.834   2.249
 2033SOL    HW2 6843   1.653   4.891   2.365
 2034SOL     OW 6844   0.132   4.472   3.447
 2034SOL    HW1 6845   0.226   4.487   3.447
 2034SOL    HW2 6846   0.094   4.559   3.461
 2035SOL     OW 6847   0.627   5.097   2.599
 2035SOL    HW1 6848   0.570   5.020   2.597
 2035SOL    HW2 6849   0.602   5.146   2.520
 2036SOL     OW 6850   1.288   4.953   3.288
 2036SOL    HW1 6851   1.322   4.888   3.227
 2036SOL    HW2 6852   1.349   4.951   3.362
 2037SOL     OW 6853   0.824   3.724   2.373
 2037SOL    HW1 6854   0.864   3.808   2.352
 2037SOL    HW2 6855   0.730   3.742   2.378
 2038SOL     OW 6856   0.175   4.665   3.145
 2038SOL    HW1 6857   0.265   4.635   3.132
 2038SOL    HW2 6858   0.135   4.658   3.058
 2039SOL     OW 6859   1.531   4.720   2.060
 2039SOL    HW1 6860   1.461   4.662   2.092
 2039SOL    HW2 6861   1.572   4.754   2.139
 2040SOL     OW 6862   0.339   3.977   3.682
 2040SOL    HW1 6863   0.385   4.060   3.694
 2040SOL    HW2 6864   0.250   3.994   3.715
 2041SOL     OW 6865   1.478   5.147   2.824
 2041SOL    HW1 6866   1.405   5.160   2.885
 2041SOL    HW2 6867   1.465   5.059   2.790
 2042SOL     OW 6868   0.595   4.445   2.129
 2042SOL    HW1 6869   0.602   4.526   2.079
 2042SOL    HW2 6870   0.531   4.463   2.197
 2043SOL     OW 6871   1.279   4.078   2.795
 2043SOL    HW1 6872   1.190   4.045   2.803
 2043SOL    HW2 6873   1.330   4.025   2.855
 2044SOL     OW 6874   0.792   4.341   3.313
 2044SOL    HW1 6875   0.765   4.317   3.401
 2044SOL    HW2 6876   0.753   4.274   3.257
 2045SOL     OW 6877   1.393   4.198   3.540
 2045SOL    HW1 6878   1.396   4.243   3.624
 2045SOL    HW2 6879   1.454   4.124   3.549
 2046SOL     OW 6880   0.954   4.612   3.445
 2046SOL    HW1 6881   1.009   4.541   3.410
 2046SOL    HW2 6882   0.906   4.645   3.370
 2047SOL     OW 6883   0.992   4.136   3.100
 2047SOL    HW1 6884   0.905   4.157   3.135
 2047SOL    HW2 6885   0.974   4.091   3.018
 2048SOL     OW 6886   1.051   4.422   2.288
 2048SOL    HW1 6887   1.067   4.415   2.382
 2048SOL    HW2 6888   0.969   4.376   2.274
 2049SOL     OW 6889   0.072   4.510   2.671
 2049SOL    HW1 6890   0.152   4.515   2.723
 2049SOL    HW2 6891   0.063   4.597   2.633
 2050SOL     OW 6892   0.895   4.073   2.056
 2050SOL    HW1 6893   0.934   4.135   1.995
 2050SOL    HW2 6894   0.909   3.988   2.016
 2051SOL     OW 6895   1.708   4.298   3.690
 2051SOL    HW1 6896   1.670   4.371   3.642
 2051SOL    HW2 6897   1.736   4.236   3.622
 2052SOL     OW 6898   1.378   4.863   2.401
 2052SOL    HW1 6899   1.459   4.850   2.352
 2052SOL    HW2 6900   1.328   4.925   2.347
 2053SOL     OW 6901   0.557   3.907   2.756
 2053SOL    HW1 6902   0.553   3.935   2.847
 2053SOL    HW2 6903   0.551   3.988   2.705
 2054SOL     OW 6904   1.023   5.168   2.334
 2054SOL    HW1 6905   0.946   5.225   2.331
 2054SOL    HW2 6906   1.038   5.154   2.427
 2055SOL     OW 6907   1.801   4.780   2.729
 2055SOL    HW1 6908   1.744   4.762   2.653
 2055SOL    HW2 6909   1.740   4.787   2.803
 2056SOL     OW 6910   1.251   5.240   3.387
 2056SOL    HW1 6911   1.215   5.173   3.446
 2056SOL    HW2 6912   1.178   5.261   3.328
 2057SOL     OW 6913   0.316   4.676   2.110
 2057SOL    HW1 6914   0.398   4.698   2.065
 2057SOL    HW2 6915   0.292   4.590   2.075
 2058SOL     OW 6916   1.479   4.468   2.588
 2058SOL    HW1 6917   1.471   4.425   2.674
 2058SOL    HW2 6918   1.557   4.523   2.596
 2059SOL     OW 6919   0.463   4.989   3.605
 2059SOL    HW1 6920   0.438   4.992   3.513
 2059SOL    HW2 6921   0.380   4.989   3.653
 2060SOL     OW 6922   1.065   0.178   2.067
 2060SOL    HW1 6923   1.082   0.105   2.126
 2060SOL    HW2 6924   1.096   0.147   1.982
 2061SOL     OW 6925   0.205   4.003   3.359
 2061SOL    HW1 6926   0.127   4.055   3.342
 2061SOL    HW2 6927   0.173   3.923   3.401
 2062SOL     OW 6928   1.622   5.101   1.971
 2062SOL    HW1 6929   1.623   5.175   1.910
 2062SOL    HW2 6930   1.554   5.043   1.937
 2063SOL     OW 6931   1.401   3.831   2.296
 2063SOL    HW1 6932   1.391   3.806   2.204
 2063SOL    HW2 6933   1.496   3.838   2.309
 2064SOL     OW 6934   0.387   4.419   2.341
 2064SOL    HW1 6935   0.415   4.329   2.350
 2064SOL    HW2 6936   0.293   4.417   2.361
 2065SOL     OW 6937   1.534   3.949   3.587
 2065SOL    HW1 6938   1.544   3.970   3.680
 2065SOL    HW2 6939   1.465   3.883   3.585
 2066SOL     OW 6940   0.635   3.846   1.966
 2066SOL    HW1 6941   0.704   3.780   1.979
 2066SOL    HW2 6942   0.586   3.815   1.891
 2067SOL     OW 6943   0.766   4.003   3.617
 2067SOL    HW1 6944   0.843   3.945   3.617
 2067SOL    HW2 6945   0.718   3.978   3.695
 2068SOL     OW 6946   1.340   4.313   3.294
 2068SOL    HW1 6947   1.371   4.282   3.379
 2068SOL    HW2 6948   1.376   4.401   3.286
 2069SOL     OW 6949   0.815   5.119   2.799
 2069SOL    HW1 6950   0.895   5.105   2.749
 2069SOL    HW2 6951   0.746   5.125   2.733
 2070SOL     OW 6952   0.928   4.234   2.764
 2070SOL    HW1 6953   0.904   4.225   2.672
 2070SOL    HW2 6954   0.959   4.146   2.789
 2071SOL     OW 6955   0.561   3.785   2.357
 2071SOL    HW1 6956   0.486   3.785   2.417
 2071SOL    HW2 6957   0.550   3.864   2.304
 2072SOL     OW 6958   1.428   4.924   1.900
 2072SOL    HW1 6959   1.458   4.849   1.951
 2072SOL    HW2 6960   1.340   4.942   1.933
 2073SOL     OW 6961   0.305   3.771   2.040
 2073SOL    HW1 6962   0.367   3.835   2.005
 2073SOL    HW2 6963   0.360   3.707   2.086
 2074SOL     OW 6964   0.940   3.972   2.321
 2074SOL    HW1 6965   0.914   4.012   2.238
 2074SOL    HW2 6966   1.035   3.987   2.325
 2075SOL     OW 6967   1.080   4.405   3.321
 2075SOL    HW1 6968   1.011   4.338   3.325
 2075SOL    HW2 6969   1.161   4.356   3.315
 2076SOL     OW 6970   1.264   5.266   2.639
 2076SOL    HW1 6971   1.218   0.046   2.614
 2076SOL    HW2 6972   1.309   5.289   2.721
 2077SOL     OW 6973   0.466   4.874   2.589
 2077SOL    HW1 6974   0.398   4.853   2.653
 2077SOL    HW2 6975   0.426   4.854   2.504
 2078SOL     OW 6976   1.023   4.265   1.886
 2078SOL    HW1 6977   0.980   4.348   1.866
 2078SOL    HW2 6978   1.089   4.286   1.952
 2079SOL     OW 6979   0.089   4.267   3.261
 2079SOL    HW1 6980   0.176   4.276   3.223
 2079SOL    HW2 6981   0.080   4.344   3.317
 2080SOL     OW 6982   0.560   3.952   3.029
 2080SOL    HW1 6983   0.598   3.872   3.067
 2080SOL    HW2 6984   0.468   3.950   3.056
 2081SOL     OW 6985   0.868   4.183   2.501
 2081SOL    HW1 6986   0.822   4.237   2.437
 2081SOL    HW2 6987   0.889   4.103   2.454
 2082SOL     OW 6988   1.016   3.777   2.613
 2082SOL    HW1 6989   0.957   3.770   2.537
 2082SOL    HW2 6990   0.994   3.702   2.667
 2083SOL     OW 6991   1.438   4.890   2.721
 2083SOL    HW1 6992   1.371   4.822   2.718
 2083SOL    HW2 6993   1.464   4.902   2.629
 2084SOL     OW 6994   1.466   4.330   2.837
 2084SOL    HW1 6995   1.414   4.250   2.840
 2084SOL    HW2 6996   1.525   4.323   2.912
 2085SOL     OW 6997   1.845   4.539   2.245
 2085SOL    HW1 6998   1.901   4.488   2.303
 2085SOL    HW2 6999   1.817   4.476   2.178
 2086SOL     OW 7000   0.482   5.145   2.013
 2086SOL    HW1 7001   0.421   5.095   2.066
 2086SOL    HW2 7002   0.484   5.099   1.929
 2087SOL     OW 7003   1.670   4.987   2.508
 2087SOL    HW1 7004   1.764   4.993   2.525
 2087SOL    HW2 7005   1.636   5.075   2.524
 2088SOL     OW 7006   1.394   4.296   1.933
 2088SOL    HW1 7007   1.333   4.276   2.004
 2088SOL    HW2 7008   1.478   4.264   1.965
 2089SOL     OW 7009   0.524   3.987   2.178
 2089SOL    HW1 7010   0.570   3.941   2.108
 2089SOL    HW2 7011   0.501   4.071   2.139
 2090SOL     OW 7012   1.751   4.960   3.436
 2090SOL    HW1 7013   1.836   4.918   3.437
 2090SOL    HW2 7014   1.770   5.053   3.448
 2091SOL     OW 7015   1.064   5.074   3.193
 2091SOL    HW1 7016   0.985   5.048   3.240
 2091SOL    HW2 7017   1.136   5.035   3.242
 2092SOL     OW 7018   1.128   4.926   2.969
 2092SOL    HW1 7019   1.077   4.967   3.040
 2092SOL    HW2 7020   1.081   4.951   2.889
 2093SOL     OW 7021   1.628   4.822   2.938
 2093SOL    HW1 7022   1.623   4.883   3.011
 2093SOL    HW2 7023   1.550   4.841   2.886
 2094SOL     OW 7024   0.919   3.820   3.258
 2094SOL    HW1 7025   0.941   3.802   3.167
 2094SOL    HW2 7026   0.998   3.860   3.294
 2095SOL     OW 7027   0.984   4.839   3.587
 2095SOL    HW1 7028   0.892   4.855   3.606
 2095SOL    HW2 7029   0.984   4.762   3.530
 2096SOL     OW 7030   0.704   4.782   2.234
 2096SOL    HW1 7031   0.693   4.766   2.328
 2096SOL    HW2 7032   0.781   4.731   2.210
 2097SOL     OW 7033   0.421   4.543   3.114
 2097SOL    HW1 7034   0.490   4.550   3.181
 2097SOL    HW2 7035   0.386   4.455   3.124
 2098SOL     OW 7036   1.265   4.100   3.138
 2098SOL    HW1 7037   1.297   4.178   3.184
 2098SOL    HW2 7038   1.174   4.122   3.116
 2099SOL     OW 7039   0.112   5.290   3.180
 2099SOL    HW1 7040   0.051   0.044   3.230
 2099SOL    HW2 7041   0.190   5.284   3.236
 2100SOL     OW 7042   0.344   4.829   2.348
 2100SOL    HW1 7043   0.347   4.908   2.293
 2100SOL    HW2 7044   0.348   4.756   2.285
 2101SOL     OW 7045   0.554   4.259   2.721
 2101SOL    HW1 7046   0.568   4.318   2.647
 2101SOL    HW2 7047   0.619   4.286   2.786
 2102SOL     OW 7048   1.261   5.078   2.247
 2102SOL    HW1 7049   1.317   5.144   2.286
 2102SOL    HW2 7050   1.173   5.100   2.277
 2103SOL     OW 7051   1.270   5.182   3.003
 2103SOL    HW1 7052   1.329   5.196   3.077
 2103SOL    HW2 7053   1.226   5.099   3.023
 2104SOL     OW 7054   1.581   4.346   2.342
 2104SOL    HW1 7055   1.533   4.399   2.406
 2104SOL    HW2 7056   1.626   4.410   2.287
 2105SOL     OW 7057   0.382   5.230   3.177
 2105SOL    HW1 7058   0.366   5.192   3.090
 2105SOL    HW2 7059   0.474   5.256   3.175
 2106SOL     OW 7060   0.415   4.466   3.464
 2106SOL    HW1 7061   0.476   4.512   3.407
 2106SOL    HW2 7062   0.453   4.380   3.477
 2107SOL     OW 7063   1.603   4.503   3.545
 2107SOL    HW1 7064   1.517   4.544   3.538
 2107SOL    HW2 7065   1.655   4.545   3.476
 2108SOL     OW 7066   0.996   3.849   3.617
 2108SOL    HW1 7067   1.052   3.921   3.590
 2108SOL    HW2 7068   1.044   3.770   3.591
 2109SOL     OW 7069   0.497   3.765   3.610
 2109SOL    HW1 7070   0.454   3.711   3.544
 2109SOL    HW2 7071   0.438   3.839   3.623
 2110SOL     OW 7072   0.586   4.597   2.894
 2110SOL    HW1 7073   0.615   4.688   2.893
 2110SOL    HW2 7074   0.529   4.591   2.971
 2111SOL     OW 7075   1.356   4.582   2.889
 2111SOL    HW1 7076   1.272   4.571   2.845
 2111SOL    HW2 7077   1.398   4.496   2.883
 2112SOL     OW 7078   1.204   4.252   2.128
 2112SOL    HW1 7079   1.212   4.174   2.183
 2112SOL    HW2 7080   1.161   4.317   2.184
 2113SOL     OW 7081   0.301   3.927   3.110
 2113SOL    HW1 7082   0.267   3.951   3.196
 2113SOL    HW2 7083   0.289   3.832   3.105
 2114SOL     OW 7084   0.044   5.021   3.138
 2114SOL    HW1 7085   0.074   4.972   3.214
 2114SOL    HW2 7086   0.044   5.113   3.166
 2115SOL     OW 7087   0.724   4.355   2.919
 2115SOL    HW1 7088   0.799   4.339   2.862
 2115SOL    HW2 7089   0.695   4.444   2.899
 2116SOL     OW 7090   1.735   4.684   3.715
 2116SOL    HW1 7091   1.690   4.620   3.659
 2116SOL    HW2 7092   1.675   4.698   3.788
 2117SOL     OW 7093   0.328   3.786   2.496
 2117SOL    HW1 7094   0.307   3.875   2.523
 2117SOL    HW2 7095   0.332   3.737   2.578
 2118SOL     OW 7096   1.617   4.099   2.228
 2118SOL    HW1 7097   1.645   4.035   2.293
 2118SOL    HW2 7098   1.595   4.177   2.279
 2119SOL     OW 7099   1.028   4.483   2.822
 2119SOL    HW1 7100   1.024   4.500   2.916
 2119SOL    HW2 7101   1.002   4.391   2.813
 2120SOL     OW 7102   1.854   5.213   3.445
 2120SOL    HW1 7103   1.846   5.290   3.389
 2120SOL    HW2 7104   1.924   5.236   3.507
 2121SOL     OW 7105   0.355   4.643   3.668
 2121SOL    HW1 7106   0.436   4.660   3.716
 2121SOL    HW2 7107   0.380   4.577   3.603
 2122SOL     OW 7108   1.528   3.997   1.989
 2122SOL    HW1 7109   1.464   3.932   2.016
 2122SOL    HW2 7110   1.562   4.032   2.071
 2123SOL     OW 7111   1.291   4.550   1.893
 2123SOL    HW1 7112   1.334   4.464   1.896
 2123SOL    HW2 7113   1.322   4.589   1.811
 2124SOL     OW 7114   1.058   5.080   2.685
 2124SOL    HW1 7115   1.063   4.994   2.643
 2124SOL    HW2 7116   1.145   5.118   2.674
 2125SOL     OW 7117   0.314   4.533   2.811
 2125SOL    HW1 7118   0.408   4.550   2.807
 2125SOL    HW2 7119   0.308   4.443   2.843
 2126SOL     OW 7120   0.335   4.250   2.877
 2126SOL    HW1 7121   0.299   4.162   2.863
 2126SOL    HW2 7122   0.409   4.256   2.818
 2127SOL     OW 7123   1.134   4.099   3.545
 2127SOL    HW1 7124   1.086   4.154   3.607
 2127SOL    HW2 7125   1.221   4.138   3.541
 2128SOL     OW 7126   1.161   3.926   3.332
 2128SOL    HW1 7127   1.150   3.989   3.404
 2128SOL    HW2 7128   1.201   3.976   3.262
 2129SOL     OW 7129   0.002   5.046   2.069
 2129SOL    HW1 7130   5.227   5.033   2.011
 2129SOL    HW2 7131   0.014   4.962   2.113
 2130SOL     OW 7132   0.981   4.515   3.088
 2130SOL    HW1 7133   1.038   4.493   3.162
 2130SOL    HW2 7134   0.896   4.477   3.111
 2131SOL     OW 7135   0.032   4.285   2.978
 2131SOL    HW1 7136   0.119   4.263   2.945
 2131SOL    HW2 7137   0.037   4.267   3.072
 2132SOL     OW 7138   0.174   4.237   3.574
 2132SOL    HW1 7139   0.238   4.199   3.514
 2132SOL    HW2 7140   0.147   4.319   3.532
 2133SOL     OW 7141   1.377   4.662   3.520
 2133SOL    HW1 7142   1.398   4.755   3.517
 2133SOL    HW2 7143   1.374   4.635   3.428
 2134SOL     OW 7144   0.817   4.293   2.223
 2134SOL    HW1 7145   0.821   4.219   2.163
 2134SOL    HW2 7146   0.742   4.345   2.192
 2135SOL     OW 7147   1.642   4.325   3.047
 2135SOL    HW1 7148   1.631   4.266   3.122
 2135SOL    HW2 7149   1.729   4.306   3.013
 2136SOL     OW 7150   0.209   5.278   3.593
 2136SOL    HW1 7151   0.172   0.021   3.671
 2136SOL    HW2 7152   0.213   5.186   3.616
 2137SOL     OW 7153   0.704   4.173   3.121
 2137SOL    HW1 7154   0.650   4.099   3.092
 2137SOL    HW2 7155   0.698   4.236   3.049
 2138SOL     OW 7156   0.465   4.217   2.047
 2138SOL    HW1 7157   0.525   4.288   2.069
 2138SOL    HW2 7158   0.380   4.260   2.033
 2139SOL     OW 7159   0.150   4.861   3.334
 2139SOL    HW1 7160   0.146   4.812   3.417
 2139SOL    HW2 7161   0.160   4.793   3.267
 2140SOL     OW 7162   1.326   4.769   3.084
 2140SOL    HW1 7163   1.348   4.706   3.015
 2140SOL    HW2 7164   1.256   4.822   3.046
 2141SOL     OW 7165   1.311   4.582   2.168
 2141SOL    HW1 7166   1.237   4.550   2.218
 2141SOL    HW2 7167   1.287   4.567   2.076
 2142SOL     OW 7168   0.075   4.915   2.892
 2142SOL    HW1 7169   0.064   4.957   2.978
 2142SOL    HW2 7170   5.288   4.922   2.852
 2143SOL     OW 7171   0.753   0.036   3.571
 2143SOL    HW1 7172   0.660   0.059   3.580
 2143SOL    HW2 7173   0.774   0.060   3.481
 2144SOL     OW 7174   1.720   3.872   2.371
 2144SOL    HW1 7175   1.792   3.857   2.310
 2144SOL    HW2 7176   1.704   3.786   2.411
 2145SOL     OW 7177   1.277   4.650   2.534
 2145SOL    HW1 7178   1.350   4.589   2.542
 2145SOL    HW2 7179   1.312   4.722   2.480
 2146SOL     OW 7180   0.817   4.993   3.280
 2146SOL    HW1 7181   0.786   5.029   3.363
 2146SOL    HW2 7182   0.742   5.000   3.221
 2147SOL     OW 7183   1.841   3.896   2.829
 2147SOL    HW1 7184   1.870   3.809   2.802
 2147SOL    HW2 7185   1.755   3.907   2.789
 2148SOL     OW 7186   0.273   4.041   2.579
 2148SOL    HW1 7187   0.188   4.079   2.559
 2148SOL    HW2 7188   0.273   4.029   2.674
 2149SOL     OW 7189   0.825   4.727   3.233
 2149SOL    HW1 7190   0.871   4.719   3.149
 2149SOL    HW2 7191   0.828   4.820   3.254
 2150SOL     OW 7192   0.916   4.636   2.153
 2150SOL    HW1 7193   0.976   4.668   2.086
 2150SOL    HW2 7194   0.964   4.566   2.197
 2151SOL     OW 7195   0.365   5.028   3.363
 2151SOL    HW1 7196   0.367   5.097   3.296
 2151SOL    HW2 7197   0.291   4.973   3.339
 2152SOL     OW 7198   1.612   5.004   3.144
 2152SOL    HW1 7199   1.669   4.997   3.221
 2152SOL    HW2 7200   1.550   5.073   3.167
 2153SOL     OW 7201   1.056   4.834   2.574
 2153SOL    HW1 7202   0.984   4.783   2.610
 2153SOL    HW2 7203   1.118   4.768   2.543
 2154SOL     OW 7204   1.022   3.965   2.828
 2154SOL    HW1 7205   1.017   3.917   2.745
 2154SOL    HW2 7206   1.016   3.897   2.895
 2155SOL     OW 7207   1.723   4.116   3.242
 2155SOL    HW1 7208   1.794   4.179   3.241
 2155SOL    HW2 7209   1.753   4.045   3.186
 2156SOL     OW 7210   0.259   5.059   2.149
 2156SOL    HW1 7211   0.167   5.062   2.125
 2156SOL    HW2 7212   0.262   5.097   2.237
 2157SOL     OW 7213   0.117   4.742   3.581
 2157SOL    HW1 7214   0.046   4.704   3.633
 2157SOL    HW2 7215   0.197   4.709   3.622
 2158SOL     OW 7216   0.675   3.920   3.361
 2158SOL    HW1 7217   0.759   3.900   3.320
 2158SOL    HW2 7218   0.698   3.952   3.449
 2159SOL     OW 7219   0.084   4.071   1.902
 2159SOL    HW1 7220   0.003   4.025   1.880
 2159SOL    HW2 7221   0.099   4.130   1.829
 2160SOL     OW 7222   1.429   4.582   3.262
 2160SOL    HW1 7223   1.380   4.642   3.206
 2160SOL    HW2 7224   1.518   4.584   3.227
 2161SOL     OW 7225   0.057   3.857   2.106
 2161SOL    HW1 7226   0.055   3.952   2.094
 2161SOL    HW2 7227   0.145   3.831   2.082
 2162SOL     OW 7228   1.182   5.063   1.983
 2162SOL    HW1 7229   1.091   5.034   1.984
 2162SOL    HW2 7230   1.210   5.055   2.074
 2163SOL     OW 7231   0.620   4.555   3.298
 2163SOL    HW1 7232   0.676   4.630   3.281
 2163SOL    HW2 7233   0.679   4.481   3.306
 2164SOL     OW 7234   0.718   4.287   3.566
 2164SOL    HW1 7235   0.760   4.349   3.626
 2164SOL    HW2 7236   0.743   4.201   3.598
 2165SOL     OW 7237   1.474   4.922   3.492
 2165SOL    HW1 7238   1.461   4.934   3.586
 2165SOL    HW2 7239   1.568   4.936   3.480
 2166SOL     OW 7240   1.669   4.605   3.117
 2166SOL    HW1 7241   1.663   4.520   3.074
 2166SOL    HW2 7242   1.659   4.668   3.046
 2167SOL     OW 7243   1.217   4.043   2.320
 2167SOL    HW1 7244   1.279   3.971   2.312
 2167SOL    HW2 7245   1.246   4.092   2.397
 2168SOL     OW 7246   0.590   4.461   2.532
 2168SOL    HW1 7247   0.628   4.547   2.517
 2168SOL    HW2 7248   0.521   4.453   2.466
 2169SOL     OW 7249   1.761   4.086   3.513
 2169SOL    HW1 7250   1.745   4.101   3.420
 2169SOL    HW2 7251   1.690   4.030   3.541
 2170SOL     OW 7252   1.745   4.657   3.374
 2170SOL    HW1 7253   1.739   4.752   3.386
 2170SOL    HW2 7254   1.730   4.645   3.280
 2171SOL     OW 7255   0.848   5.094   1.882
 2171SOL    HW1 7256   0.831   5.094   1.976
 2171SOL    HW2 7257   0.863   5.186   1.860
 2172SOL     OW 7258   0.869   4.692   2.716
 2172SOL    HW1 7259   0.918   4.620   2.756
 2172SOL    HW2 7260   0.833   4.741   2.790
 2173SOL     OW 7261   1.080   4.713   1.952
 2173SOL    HW1 7262   1.057   4.763   1.873
 2173SOL    HW2 7263   1.154   4.659   1.925
 2174SOL     OW 7264   0.219   5.024   3.717
 2174SOL    HW1 7265   0.155   4.955   3.698
 2174SOL    HW2 7266   0.217   5.034   3.812
 2175SOL     OW 7267   0.084   4.925   2.516
 2175SOL    HW1 7268   0.103   4.906   2.608
 2175SOL    HW2 7269   0.169   4.945   2.477
 2176SOL     OW 7270   0.672   5.104   3.471
 2176SOL    HW1 7271   0.595   5.073   3.518
 2176SOL    HW2 7272   0.705   5.176   3.524
 2177SOL     OW 7273   1.813   3.908   3.100
 2177SOL    HW1 7274   1.821   3.813   3.113
 2177SOL    HW2 7275   1.822   3.919   3.005
 2178SOL     OW 7276   0.436   4.160   2.386
 2178SOL    HW1 7277   0.463   4.087   2.330
 2178SOL    HW2 7278   0.387   4.118   2.458
 2179SOL     OW 7279   1.707   5.224   2.981
 2179SOL    HW1 7280   1.633   5.208   2.922
 2179SOL    HW2 7281   1.713   5.145   3.034
 2180SOL     OW 7282   0.338   4.284   3.154
 2180SOL    HW1 7283   0.390   4.225   3.207
 2180SOL    HW2 7284   0.351   4.254   3.064
 2181SOL     OW 7285   1.432   3.950   2.980
 2181SOL    HW1 7286   1.455   3.869   3.025
 2181SOL    HW2 7287   1.380   3.999   3.044
 2182SOL     OW 7288   1.009   3.742   3.003
 2182SOL    HW1 7289   0.954   3.675   2.962
 2182SOL    HW2 7290   1.097   3.704   3.005
 2183SOL     OW 7291   0.805   5.047   2.146
 2183SOL    HW1 7292   0.745   4.974   2.166
 2183SOL    HW2 7293   0.859   5.056   2.225
 2184SOL     OW 7294   0.641   0.003   3.150
 2184SOL    HW1 7295   0.644   0.058   3.229
 2184SOL    HW2 7296   0.733   5.286   3.130
 2185SOL     OW 7297   1.353   3.778   2.028
 2185SOL    HW1 7298   1.382   3.713   1.964
 2185SOL    HW2 7299   1.265   3.748   2.054
 2186SOL     OW 7300   1.296   4.185   2.542
 2186SOL    HW1 7301   1.243   4.264   2.549
 2186SOL    HW2 7302   1.292   4.146   2.630
 2187SOL     OW 7303   1.587   3.925   2.741
 2187SOL    HW1 7304   1.526   3.946   2.812
 2187SOL    HW2 7305   1.586   4.003   2.685
 2188SOL     OW 7306   0.048   4.789   2.151
 2188SOL    HW1 7307   0.138   4.758   2.142
 2188SOL    HW2 7308   0.000   4.716   2.191
 2189SOL     OW 7309   0.233   4.355   3.840
 2189SOL    HW1 7310   0.161   4.321   3.893
 2189SOL    HW2 7311   0.217   4.322   3.752
 2190SOL     OW 7312   0.243   3.999   4.713
 2190SOL    HW1 7313   0.256   3.964   4.801
 2190SOL    HW2 7314   0.158   3.964   4.686
 2191SOL     OW 7315   5.298   4.122   4.378
 2191SOL    HW1 7316   5.205   4.145   4.382
 2191SOL    HW2 7317   5.299   4.032   4.345
 2192SOL     OW 7318   0.575   5.001   4.909
 2192SOL    HW1 7319   0.496   5.007   4.856
 2192SOL    HW2 7320   0.593   5.092   4.935
 2193SOL     OW 7321   1.556   5.232   4.413
 2193SOL    HW1 7322   1.538   5.228   4.507
 2193SOL    HW2 7323   1.476   5.268   4.375
 2194SOL     OW 7324   1.130   4.422   4.424
 2194SOL    HW1 7325   1.179   4.503   4.410
 2194SOL    HW2 7326   1.084   4.435   4.506
 2195SOL     OW 7327   1.768   4.329   3.952
 2195SOL    HW1 7328   1.746   4.321   3.859
 2195SOL    HW2 7329   1.732   4.249   3.991
 2196SOL     OW 7330   0.757   4.866   4.761
 2196SOL    HW1 7331   0.691   4.896   4.824
 2196SOL    HW2 7332   0.786   4.946   4.716
 2197SOL     OW 7333   0.869   4.497   5.546
 2197SOL    HW1 7334   0.857   4.568   5.609
 2197SOL    HW2 7335   0.891   4.540   5.464
 2198SOL     OW 7336   0.685   4.725   4.371
 2198SOL    HW1 7337   0.751   4.715   4.440
 2198SOL    HW2 7338   0.618   4.780   4.411
 2199SOL     OW 7339   0.708   4.871   5.537
 2199SOL    HW1 7340   0.756   4.951   5.561
 2199SOL    HW2 7341   0.626   4.903   5.501
 2200SOL     OW 7342   0.377   5.146   4.777
 2200SOL    HW1 7343   0.283   5.157   4.765
 2200SOL    HW2 7344   0.417   5.196   4.706
 2201SOL     OW 7345   1.454   5.221   5.072
 2201SOL    HW1 7346   1.509   5.293   5.103
 2201SOL    HW2 7347   1.387   5.211   5.139
 2202SOL     OW 7348   0.451   4.124   5.215
 2202SOL    HW1 7349   0.525   4.063   5.217
 2202SOL    HW2 7350   0.374   4.068   5.225
 2203SOL     OW 7351   1.611   4.171   4.465
 2203SOL    HW1 7352   1.536   4.193   4.409
 2203SOL    HW2 7353   1.624   4.249   4.519
 2204SOL     OW 7354   1.133   5.073   5.426
 2204SOL    HW1 7355   1.163   5.074   5.517
 2204SOL    HW2 7356   1.080   4.994   5.419
 2205SOL     OW 7357   0.212   5.151   4.258
 2205SOL    HW1 7358   0.253   5.230   4.293
 2205SOL    HW2 7359   0.130   5.142   4.307
 2206SOL     OW 7360   0.253   4.798   4.599
 2206SOL    HW1 7361   0.265   4.711   4.637
 2206SOL    HW2 7362   0.196   4.844   4.661
 2207SOL     OW 7363   0.581   4.707   3.860
 2207SOL    HW1 7364   0.629   4.753   3.791
 2207SOL    HW2 7365   0.621   4.736   3.941
 2208SOL     OW 7366   1.596   3.848   5.192
 2208SOL    HW1 7367   1.606   3.929   5.141
 2208SOL    HW2 7368   1.580   3.877   5.281
 2209SOL     OW 7369   0.127   4.355   4.303
 2209SOL    HW1 7370   0.088   4.273   4.335
 2209SOL    HW2 7371   0.100   4.421   4.367
 2210SOL     OW 7372   5.299   5.298   3.806
 2210SOL    HW1 7373   0.013   5.210   3.841
 2210SOL    HW2 7374   0.026   0.057   3.876
 2211SOL     OW 7375   1.689   4.642   4.365
 2211SOL    HW1 7376   1.772   4.599   4.344
 2211SOL    HW2 7377   1.667   4.693   4.287
 2212SOL     OW 7378   1.646   4.830   4.153
 2212SOL    HW1 7379   1.732   4.834   4.111
 2212SOL    HW2 7380   1.653   4.891   4.227
 2213SOL     OW 7381   0.132   4.472   5.309
 2213SOL    HW1 7382   0.227   4.487   5.309
 2213SOL    HW2 7383   0.094   4.559   5.323
 2214SOL     OW 7384   0.627   5.097   4.461
 2214SOL    HW1 7385   0.570   5.020   4.459
 2214SOL    HW2 7386   0.602   5.146   4.382
 2215SOL     OW 7387   1.288   4.953   5.150
 2215SOL    HW1 7388   1.322   4.888   5.089
 2215SOL    HW2 7389   1.349   4.951   5.224
 2216SOL     OW 7390   0.824   3.724   4.234
 2216SOL    HW1 7391   0.864   3.808   4.214
 2216SOL    HW2 7392   0.730   3.742   4.240
 2217SOL     OW 7393   0.175   4.665   5.007
 2217SOL    HW1 7394   0.265   4.635   4.994
 2217SOL    HW2 7395   0.135   4.658   4.920
 2218SOL     OW 7396   1.531   4.720   3.922
 2218SOL    HW1 7397   1.461   4.662   3.954
 2218SOL    HW2 7398   1.572   4.754   4.001
 2219SOL     OW 7399   0.338   3.977   5.544
 2219SOL    HW1 7400   0.385   4.060   5.556
 2219SOL    HW2 7401   0.250   3.994   5.577
 2220SOL     OW 7402   1.477   5.147   4.686
 2220SOL    HW1 7403   1.405   5.160   4.747
 2220SOL    HW2 7404   1.465   5.059   4.652
 2221SOL     OW 7405   0.595   4.444   3.991
 2221SOL    HW1 7406   0.602   4.526   3.941
 2221SOL    HW2 7407   0.531   4.463   4.059
 2222SOL     OW 7408   1.279   4.078   4.657
 2222SOL    HW1 7409   1.190   4.045   4.665
 2222SOL    HW2 7410   1.330   4.025   4.717
 2223SOL     OW 7411   0.792   4.341   5.175
 2223SOL    HW1 7412   0.765   4.317   5.263
 2223SOL    HW2 7413   0.753   4.274   5.119
 2224SOL     OW 7414   1.393   4.198   5.402
 2224SOL    HW1 7415   1.396   4.243   5.487
 2224SOL    HW2 7416   1.454   4.124   5.411
 2225SOL     OW 7417   0.954   4.612   5.307
 2225SOL    HW1 7418   1.009   4.541   5.272
 2225SOL    HW2 7419   0.906   4.645   5.232
 2226SOL     OW 7420   0.992   4.136   4.962
 2226SOL    HW1 7421   0.905   4.157   4.997
 2226SOL    HW2 7422   0.974   4.090   4.880
 2227SOL     OW 7423   1.051   4.422   4.150
 2227SOL    HW1 7424   1.067   4.415   4.244
 2227SOL    HW2 7425   0.969   4.376   4.136
 2228SOL     OW 7426   0.072   4.510   4.533
 2228SOL    HW1 7427   0.152   4.515   4.585
 2228SOL    HW2 7428   0.063   4.597   4.495
 2229SOL     OW 7429   0.895   4.073   3.918
 2229SOL    HW1 7430   0.934   4.135   3.857
 2229SOL    HW2 7431   0.909   3.988   3.878
 2230SOL     OW 7432   1.708   4.298   5.552
 2230SOL    HW1 7433   1.670   4.371   5.504
 2230SOL    HW2 7434   1.736   4.236   5.484
 2231SOL     OW 7435   1.378   4.863   4.263
 2231SOL    HW1 7436   1.459   4.850   4.214
 2231SOL    HW2 7437   1.328   4.925   4.209
 2232SOL     OW 7438   0.557   3.907   4.618
 2232SOL    HW1 7439   0.553   3.935   4.709
 2232SOL    HW2 7440   0.551   3.988   4.567
 2233SOL     OW 7441   1.023   5.168   4.196
 2233SOL    HW1 7442   0.946   5.225   4.193
 2233SOL    HW2 7443   1.038   5.154   4.289
 2234SOL     OW 7444   1.801   4.780   4.591
 2234SOL    HW1 7445   1.744   4.762   4.515
 2234SOL    HW2 7446   1.740   4.787   4.665
 2235SOL     OW 7447   1.251   5.240   5.249
 2235SOL    HW1 7448   1.215   5.173   5.308
 2235SOL    HW2 7449   1.178   5.261   5.190
 2236SOL     OW 7450   0.316   4.676   3.972
 2236SOL    HW1 7451   0.398   4.698   3.927
 2236SOL    HW2 7452   0.292   4.590   3.937
 2237SOL     OW 7453   1.479   4.468   4.451
 2237SOL    HW1 7454   1.471   4.425   4.536
 2237SOL    HW2 7455   1.557   4.523   4.458
 2238SOL     OW 7456   0.463   4.989   5.467
 2238SOL    HW1 7457   0.438   4.992   5.375
 2238SOL    HW2 7458   0.380   4.989   5.515
 2239SOL     OW 7459   1.064   0.177   3.929
 2239SOL    HW1 7460   1.083   0.106   3.990
 2239SOL    HW2 7461   1.098   0.148   3.845
 2240SOL     OW 7462   0.205   4.003   5.221
 2240SOL    HW1 7463   0.127   4.055   5.205
 2240SOL    HW2 7464   0.173   3.923   5.263
 2241SOL     OW 7465   1.622   5.102   3.833
 2241SOL    HW1 7466   1.623   5.175   3.772
 2241SOL    HW2 7467   1.554   5.043   3.799
 2242SOL     OW 7468   1.401   3.831   4.158
 2242SOL    HW1 7469   1.391   3.806   4.066
 2242SOL    HW2 7470   1.496   3.837   4.171
 2243SOL     OW 7471   0.387   4.420   4.203
 2243SOL    HW1 7472   0.415   4.329   4.212
 2243SOL    HW2 7473   0.293   4.417   4.223
 2244SOL     OW 7474   1.534   3.949   5.449
 2244SOL    HW1 7475   1.544   3.970   5.542
 2244SOL    HW2 7476   1.465   3.883   5.446
 2245SOL     OW 7477   0.635   3.846   3.828
 2245SOL    HW1 7478   0.704   3.780   3.841
 2245SOL    HW2 7479   0.586   3.815   3.753
 2246SOL     OW 7480   0.766   4.003   5.479
 2246SOL    HW1 7481   0.843   3.945   5.479
 2246SOL    HW2 7482   0.718   3.978   5.557
 2247SOL     OW 7483   1.340   4.313   5.156
 2247SOL    HW1 7484   1.371   4.282   5.241
 2247SOL    HW2 7485   1.376   4.401   5.148
 2248SOL     OW 7486   0.815   5.118   4.661
 2248SOL    HW1 7487   0.895   5.105   4.611
 2248SOL    HW2 7488   0.746   5.125   4.595
 2249SOL     OW 7489   0.928   4.234   4.626
 2249SOL    HW1 7490   0.904   4.225   4.534
 2249SOL    HW2 7491   0.959   4.146   4.651
 2250SOL     OW 7492   0.561   3.785   4.219
 2250SOL    HW1 7493   0.486   3.785   4.279
 2250SOL    HW2 7494   0.550   3.864   4.167
 2251SOL     OW 7495   1.428   4.924   3.762
 2251SOL    HW1 7496   1.458   4.849   3.812
 2251SOL    HW2 7497   1.340   4.942   3.795
 2252SOL     OW 7498   0.305   3.771   3.903
 2252SOL    HW1 7499   0.367   3.835   3.867
 2252SOL    HW2 7500   0.360   3.707   3.948
 2253SOL     OW 7501   0.940   3.972   4.183
 2253SOL    HW1 7502   0.914   4.012   4.100
 2253SOL    HW2 7503   1.035   3.987   4.187
 2254SOL     OW 7504   1.080   4.405   5.183
 2254SOL    HW1 7505   1.011   4.338   5.187
 2254SOL    HW2 7506   1.161   4.356   5.177
 2255SOL     OW 7507   1.264   5.266   4.501
 2255SOL    HW1 7508   1.218   0.047   4.477
 2255SOL    HW2 7509   1.309   5.289   4.583
 2256SOL     OW 7510   0.466   4.874   4.451
 2256SOL    HW1 7511   0.398   4.853   4.515
 2256SOL    HW2 7512   0.425   4.854   4.366
 2257SOL     OW 7513   1.023   4.265   3.748
 2257SOL    HW1 7514   0.980   4.348   3.728
 2257SOL    HW2 7515   1.089   4.286   3.814
 2258SOL     OW 7516   0.089   4.268   5.123
 2258SOL    HW1 7517   0.176   4.276   5.085
 2258SOL    HW2 7518   0.080   4.344   5.179
 2259SOL     OW 7519   0.560   3.952   4.891
 2259SOL    HW1 7520   0.598   3.872   4.929
 2259SOL    HW2 7521   0.468   3.950   4.918
 2260SOL     OW 7522   0.868   4.183   4.363
 2260SOL    HW1 7523   0.822   4.237   4.299
 2260SOL    HW2 7524   0.889   4.103   4.316
 2261SOL     OW 7525   1.016   3.777   4.475
 2261SOL    HW1 7526   0.957   3.770   4.399
 2261SOL    HW2 7527   0.994   3.702   4.530
 2262SOL     OW 7528   1.438   4.890   4.583
 2262SOL    HW1 7529   1.371   4.822   4.580
 2262SOL    HW2 7530   1.464   4.902   4.491
 2263SOL     OW 7531   1.466   4.330   4.699
 2263SOL    HW1 7532   1.414   4.250   4.702
 2263SOL    HW2 7533   1.525   4.323   4.774
 2264SOL     OW 7534   1.845   4.539   4.107
 2264SOL    HW1 7535   1.901   4.488   4.165
 2264SOL    HW2 7536   1.817   4.476   4.040
 2265SOL     OW 7537   0.482   5.145   3.875
 2265SOL    HW1 7538   0.421   5.094   3.928
 2265SOL    HW2 7539   0.485   5.099   3.791
 2266SOL     OW 7540   1.670   4.987   4.370
 2266SOL    HW1 7541   1.764   4.993   4.387
 2266SOL    HW2 7542   1.636   5.075   4.386
 2267SOL     OW 7543   1.394   4.296   3.795
 2267SOL    HW1 7544   1.333   4.276   3.866
 2267SOL    HW2 7545   1.478   4.263   3.827
 2268SOL     OW 7546   0.524   3.987   4.040
 2268SOL    HW1 7547   0.570   3.941   3.970
 2268SOL    HW2 7548   0.501   4.071   4.001
 2269SOL     OW 7549   1.751   4.960   5.298
 2269SOL    HW1 7550   1.836   4.918   5.298
 2269SOL    HW2 7551   1.770   5.053   5.310
 2270SOL     OW 7552   1.064   5.074   5.055
 2270SOL    HW1 7553   0.985   5.048   5.102
 2270SOL    HW2 7554   1.136   5.035   5.104
 2271SOL     OW 7555   1.127   4.926   4.831
 2271SOL    HW1 7556   1.077   4.967   4.902
 2271SOL    HW2 7557   1.081   4.951   4.751
 2272SOL     OW 7558   1.628   4.822   4.800
 2272SOL    HW1 7559   1.623   4.883   4.873
 2272SOL    HW2 7560   1.550   4.841   4.748
 2273SOL     OW 7561   0.919   3.820   5.120
 2273SOL    HW1 7562   0.941   3.802   5.029
 2273SOL    HW2 7563   0.998   3.860   5.156
 2274SOL     OW 7564   0.984   4.839   5.449
 2274SOL    HW1 7565   0.892   4.855   5.468
 2274SOL    HW2 7566   0.984   4.762   5.392
 2275SOL     OW 7567   0.703   4.782   4.096
 2275SOL    HW1 7568   0.693   4.766   4.190
 2275SOL    HW2 7569   0.781   4.731   4.072
 2276SOL     OW 7570   0.421   4.543   4.976
 2276SOL    HW1 7571   0.490   4.550   5.043
 2276SOL    HW2 7572   0.386   4.455   4.986
 2277SOL     OW 7573   1.265   4.100   5.000
 2277SOL    HW1 7574   1.297   4.178   5.046
 2277SOL    HW2 7575   1.174   4.122   4.978
 2278SOL     OW 7576   0.112   5.290   5.042
 2278SOL    HW1 7577   0.051   0.044   5.092
 2278SOL    HW2 7578   0.190   5.284   5.098
 2279SOL     OW 7579   0.344   4.829   4.210
 2279SOL    HW1 7580   0.347   4.908   4.155
 2279SOL    HW2 7581   0.348   4.756   4.148
 2280SOL     OW 7582   0.554   4.259   4.583
 2280SOL    HW1 7583   0.568   4.318   4.509
 2280SOL    HW2 7584   0.619   4.286   4.648
 2281SOL     OW 7585   1.261   5.078   4.109
 2281SOL    HW1 7586   1.317   5.144   4.149
 2281SOL    HW2 7587   1.173   5.101   4.139
 2282SOL     OW 7588   1.270   5.182   4.865
 2282SOL    HW1 7589   1.329   5.196   4.939
 2282SOL    HW2 7590   1.226   5.100   4.885
 2283SOL     OW 7591   1.581   4.346   4.204
 2283SOL    HW1 7592   1.533   4.399   4.268
 2283SOL    HW2 7593   1.626   4.410   4.149
 2284SOL     OW 7594   0.382   5.230   5.039
 2284SOL    HW1 7595   0.366   5.192   4.952
 2284SOL    HW2 7596   0.474   5.256   5.037
 2285SOL     OW 7597   0.415   4.466   5.326
 2285SOL    HW1 7598   0.476   4.512   5.269
 2285SOL    HW2 7599   0.453   4.380   5.339
 2286SOL     OW 7600   1.603   4.503   5.407
 2286SOL    HW1 7601   1.517   4.544   5.400
 2286SOL    HW2 7602   1.655   4.545   5.338
 2287SOL     OW 7603   0.996   3.849   5.479
 2287SOL    HW1 7604   1.052   3.921   5.452
 2287SOL    HW2 7605   1.044   3.770   5.453
 2288SOL     OW 7606   0.497   3.765   5.472
 2288SOL    HW1 7607   0.454   3.711   5.406
 2288SOL    HW2 7608   0.438   3.839   5.485
 2289SOL     OW 7609   0.586   4.597   4.756
 2289SOL    HW1 7610   0.615   4.688   4.755
 2289SOL    HW2 7611   0.529   4.591   4.833
 2290SOL     OW 7612   1.356   4.582   4.751
 2290SOL    HW1 7613   1.272   4.571   4.707
 2290SOL    HW2 7614   1.398   4.496   4.745
 2291SOL     OW 7615   1.204   4.252   3.990
 2291SOL    HW1 7616   1.212   4.174   4.044
 2291SOL    HW2 7617   1.161   4.317   4.046
 2292SOL     OW 7618   0.301   3.927   4.972
 2292SOL    HW1 7619   0.267   3.951   5.058
 2292SOL    HW2 7620   0.289   3.832   4.967
 2293SOL     OW 7621   0.044   5.021   5.000
 2293SOL    HW1 7622   0.074   4.972   5.076
 2293SOL    HW2 7623   0.044   5.113   5.028
 2294SOL     OW 7624   0.724   4.355   4.781
 2294SOL    HW1 7625   0.799   4.339   4.724
 2294SOL    HW2 7626   0.696   4.444   4.761
 2295SOL     OW 7627   1.735   4.684   5.577
 2295SOL    HW1 7628   1.690   4.620   5.521
 2295SOL    HW2 7629   1.675   4.698   5.650
 2296SOL     OW 7630   0.328   3.786   4.358
 2296SOL    HW1 7631   0.307   3.875   4.385
 2296SOL    HW2 7632   0.332   3.737   4.440
 2297SOL     OW 7633   1.617   4.099   4.090
 2297SOL    HW1 7634   1.645   4.034   4.155
 2297SOL    HW2 7635   1.595   4.177   4.141
 2298SOL     OW 7636   1.028   4.483   4.684
 2298SOL    HW1 7637   1.024   4.500   4.778
 2298SOL    HW2 7638   1.002   4.391   4.675
 2299SOL     OW 7639   1.854   5.213   5.307
 2299SOL    HW1 7640   1.846   5.290   5.251
 2299SOL    HW2 7641   1.924   5.236   5.369
 2300SOL     OW 7642   0.355   4.643   5.530
 2300SOL    HW1 7643   0.436   4.660   5.578
 2300SOL    HW2 7644   0.380   4.577   5.465
 2301SOL     OW 7645   1.528   3.997   3.851
 2301SOL    HW1 7646   1.464   3.932   3.878
 2301SOL    HW2 7647   1.562   4.032   3.933
 2302SOL     OW 7648   1.291   4.550   3.755
 2302SOL    HW1 7649   1.334   4.464   3.758
 2302SOL    HW2 7650   1.322   4.589   3.673
 2303SOL     OW 7651   1.058   5.080   4.547
 2303SOL    HW1 7652   1.063   4.994   4.505
 2303SOL    HW2 7653   1.145   5.118   4.536
 2304SOL     OW 7654   0.314   4.532   4.673
 2304SOL    HW1 7655   0.408   4.550   4.669
 2304SOL    HW2 7656   0.308   4.443   4.705
 2305SOL     OW 7657   0.335   4.250   4.739
 2305SOL    HW1 7658   0.299   4.162   4.725
 2305SOL    HW2 7659   0.409   4.256   4.680
 2306SOL     OW 7660   1.134   4.099   5.407
 2306SOL    HW1 7661   1.086   4.154   5.469
 2306SOL    HW2 7662   1.221   4.138   5.403
 2307SOL     OW 7663   1.161   3.926   5.194
 2307SOL    HW1 7664   1.150   3.989   5.266
 2307SOL    HW2 7665   1.201   3.977   5.124
 2308SOL     OW 7666   0.002   5.046   3.931
 2308SOL    HW1 7667   5.227   5.033   3.873
 2308SOL    HW2 7668   0.014   4.962   3.975
 2309SOL     OW 7669   0.981   4.515   4.950
 2309SOL    HW1 7670   1.038   4.493   5.024
 2309SOL    HW2 7671   0.896   4.477   4.973
 2310SOL     OW 7672   0.032   4.284   4.840
 2310SOL    HW1 7673   0.119   4.263   4.807
 2310SOL    HW2 7674   0.037   4.267   4.934
 2311SOL     OW 7675   0.174   4.237   5.436
 2311SOL    HW1 7676   0.238   4.199   5.376
 2311SOL    HW2 7677   0.147   4.319   5.394
 2312SOL     OW 7678   1.377   4.662   5.382
 2312SOL    HW1 7679   1.398   4.755   5.379
 2312SOL    HW2 7680   1.374   4.635   5.290
 2313SOL     OW 7681   0.817   4.293   4.085
 2313SOL    HW1 7682   0.821   4.219   4.025
 2313SOL    HW2 7683   0.742   4.345   4.054
 2314SOL     OW 7684   1.642   4.325   4.909
 2314SOL    HW1 7685   1.631   4.267   4.984
 2314SOL    HW2 7686   1.729   4.306   4.875
 2315SOL     OW 7687   0.209   5.278   5.455
 2315SOL    HW1 7688   0.172   0.021   5.533
 2315SOL    HW2 7689   0.213   5.186   5.478
 2316SOL     OW 7690   0.704   4.173   4.983
 2316SOL    HW1 7691   0.650   4.099   4.954
 2316SOL    HW2 7692   0.698   4.236   4.911
 2317SOL     OW 7693   0.465   4.217   3.908
 2317SOL    HW1 7694   0.525   4.288   3.931
 2317SOL    HW2 7695   0.380   4.260   3.895
 2318SOL     OW 7696   0.150   4.861   5.196
 2318SOL    HW1 7697   0.146   4.812   5.279
 2318SOL    HW2 7698   0.160   4.793   5.129
 2319SOL     OW 7699   1.326   4.769   4.946
 2319SOL    HW1 7700   1.348   4.706   4.877
 2319SOL    HW2 7701   1.256   4.822   4.908
 2320SOL     OW 7702   1.311   4.582   4.030
 2320SOL    HW1 7703   1.237   4.549   4.080
 2320SOL    HW2 7704   1.287   4.567   3.938
 2321SOL     OW 7705   0.075   4.915   4.754
 2321SOL    HW1 7706   0.064   4.957   4.840
 2321SOL    HW2 7707   5.288   4.922   4.714
 2322SOL     OW 7708   0.753   0.036   5.433
 2322SOL    HW1 7709   0.660   0.059   5.442
 2322SOL    HW2 7710   0.774   0.060   5.343
 2323SOL     OW 7711   1.720   3.872   4.233
 2323SOL    HW1 7712   1.792   3.857   4.172
 2323SOL    HW2 7713   1.704   3.786   4.273
 2324SOL     OW 7714   1.277   4.650   4.396
 2324SOL    HW1 7715   1.350   4.589   4.404
 2324SOL    HW2 7716   1.312   4.722   4.342
 2325SOL     OW 7717   0.817   4.993   5.142
 2325SOL    HW1 7718   0.786   5.029   5.225
 2325SOL    HW2 7719   0.742   5.000   5.083
 2326SOL     OW 7720   1.841   3.895   4.691
 2326SOL    HW1 7721   1.869   3.808   4.663
 2326SOL    HW2 7722   1.755   3.906   4.651
 2327SOL     OW 7723   0.273   4.041   4.441
 2327SOL    HW1 7724   0.188   4.079   4.421
 2327SOL    HW2 7725   0.273   4.029   4.536
 2328SOL     OW 7726   0.825   4.727   5.095
 2328SOL    HW1 7727   0.871   4.719   5.011
 2328SOL    HW2 7728   0.828   4.820   5.116
 2329SOL     OW 7729   0.915   4.636   4.014
 2329SOL    HW1 7730   0.976   4.668   3.948
 2329SOL    HW2 7731   0.964   4.566   4.059
 2330SOL     OW 7732   0.365   5.028   5.225
 2330SOL    HW1 7733   0.367   5.097   5.158
 2330SOL    HW2 7734   0.291   4.973   5.201
 2331SOL     OW 7735   1.612   5.004   5.006
 2331SOL    HW1 7736   1.669   4.997   5.083
 2331SOL    HW2 7737   1.550   5.073   5.029
 2332SOL     OW 7738   1.056   4.834   4.436
 2332SOL    HW1 7739   0.984   4.783   4.472
 2332SOL    HW2 7740   1.118   4.768   4.405
 2333SOL     OW 7741   1.022   3.965   4.690
 2333SOL    HW1 7742   1.017   3.917   4.607
 2333SOL    HW2 7743   1.016   3.897   4.757
 2334SOL     OW 7744   1.722   4.116   5.104
 2334SOL    HW1 7745   1.794   4.180   5.103
 2334SOL    HW2 7746   1.752   4.045   5.048
 2335SOL     OW 7747   0.259   5.059   4.011
 2335SOL    HW1 7748   0.167   5.062   3.987
 2335SOL    HW2 7749   0.262   5.097   4.099
 2336SOL     OW 7750   0.117   4.742   5.443
 2336SOL    HW1 7751   0.046   4.704   5.495
 2336SOL    HW2 7752   0.197   4.709   5.484
 2337SOL     OW 7753   0.675   3.920   5.224
 2337SOL    HW1 7754   0.759   3.900   5.182
 2337SOL    HW2 7755   0.698   3.952   5.311
 2338SOL     OW 7756   0.084   4.071   3.764
 2338SOL    HW1 7757   0.003   4.025   3.742
 2338SOL    HW2 7758   0.099   4.130   3.691
 2339SOL     OW 7759   1.429   4.582   5.124
 2339SOL    HW1 7760   1.380   4.642   5.068
 2339SOL    HW2 7761   1.518   4.584   5.089
 2340SOL     OW 7762   0.056   3.857   3.968
 2340SOL    HW1 7763   0.055   3.952   3.956
 2340SOL    HW2 7764   0.145   3.831   3.944
 2341SOL     OW 7765   1.182   5.063   3.845
 2341SOL    HW1 7766   1.091   5.034   3.846
 2341SOL    HW2 7767   1.210   5.055   3.936
 2342SOL     OW 7768   0.620   4.555   5.160
 2342SOL    HW1 7769   0.677   4.630   5.143
 2342SOL    HW2 7770   0.679   4.481   5.168
 2343SOL     OW 7771   0.718   4.287   5.428
 2343SOL    HW1 7772   0.760   4.349   5.488
 2343SOL    HW2 7773   0.743   4.201   5.460
 2344SOL     OW 7774   1.474   4.922   5.354
 2344SOL    HW1 7775   1.461   4.934   5.448
 2344SOL    HW2 7776   1.568   4.936   5.342
 2345SOL     OW 7777   1.669   4.605   4.979
 2345SOL    HW1 7778   1.663   4.520   4.936
 2345SOL    HW2 7779   1.659   4.668   4.908
 2346SOL     OW 7780   1.217   4.043   4.182
 2346SOL    HW1 7781   1.280   3.971   4.174
 2346SOL    HW2 7782   1.246   4.092   4.259
 2347SOL     OW 7783   0.590   4.461   4.394
 2347SOL    HW1 7784   0.628   4.547   4.379
 2347SOL    HW2 7785   0.521   4.453   4.328
 2348SOL     OW 7786   1.761   4.086   5.375
 2348SOL    HW1 7787   1.745   4.101   5.282
 2348SOL    HW2 7788   1.689   4.029   5.403
 2349SOL     OW 7789   1.745   4.657   5.236
 2349SOL    HW1 7790   1.739   4.752   5.248
 2349SOL    HW2 7791   1.730   4.645   5.142
 2350SOL     OW 7792   0.848   5.094   3.744
 2350SOL    HW1 7793   0.831   5.094   3.838
 2350SOL    HW2 7794   0.863   5.186   3.722
 2351SOL     OW 7795   0.869   4.692   4.578
 2351SOL    HW1 7796   0.918   4.620   4.618
 2351SOL    HW2 7797   0.833   4.741   4.652
 2352SOL     OW 7798   1.080   4.713   3.814
 2352SOL    HW1 7799   1.057   4.763   3.735
 2352SOL    HW2 7800   1.154   4.659   3.787
 2353SOL     OW 7801   0.219   5.024   5.579
 2353SOL    HW1 7802   0.155   4.955   5.560
 2353SOL    HW2 7803   0.217   5.034   5.674
 2354SOL     OW 7804   0.084   4.925   4.378
 2354SOL    HW1 7805   0.103   4.906   4.470
 2354SOL    HW2 7806   0.169   4.945   4.339
 2355SOL     OW 7807   0.672   5.103   5.333
 2355SOL    HW1 7808   0.595   5.073   5.380
 2355SOL    HW2 7809   0.705   5.176   5.386
 2356SOL     OW 7810   1.812   3.908   4.962
 2356SOL    HW1 7811   1.822   3.814   4.976
 2356SOL    HW2 7812   1.822   3.919   4.867
 2357SOL     OW 7813   0.436   4.160   4.248
 2357SOL    HW1 7814   0.463   4.087   4.192
 2357SOL    HW2 7815   0.387   4.118   4.320
 2358SOL     OW 7816   1.707   5.224   4.843
 2358SOL    HW1 7817   1.633   5.208   4.784
 2358SOL    HW2 7818   1.713   5.145   4.896
 2359SOL     OW 7819   0.338   4.284   5.016
 2359SOL    HW1 7820   0.390   4.225   5.069
 2359SOL    HW2 7821   0.351   4.254   4.926
 2360SOL     OW 7822   1.432   3.950   4.842
 2360SOL    HW1 7823   1.454   3.869   4.888
 2360SOL    HW2 7824   1.380   3.999   4.905
 2361SOL     OW 7825   1.009   3.742   4.865
 2361SOL    HW1 7826   0.954   3.675   4.825
 2361SOL    HW2 7827   1.097   3.704   4.867
 2362SOL     OW 7828   0.805   5.046   4.008
 2362SOL    HW1 7829   0.745   4.974   4.028
 2362SOL    HW2 7830   0.859   5.056   4.087
 2363SOL     OW 7831   0.641   0.003   5.013
 2363SOL    HW1 7832   0.644   0.058   5.091
 2363SOL    HW2 7833   0.733   5.286   4.992
 2364SOL     OW 7834   1.353   3.778   3.890
 2364SOL    HW1 7835   1.383   3.712   3.827
 2364SOL    HW2 7836   1.265   3.749   3.915
 2365SOL     OW 7837   1.296   4.185   4.404
 2365SOL    HW1 7838   1.243   4.264   4.411
 2365SOL    HW2 7839   1.292   4.146   4.492
 2366SOL     OW 7840   1.587   3.925   4.603
 2366SOL    HW1 7841   1.527   3.946   4.674
 2366SOL    HW2 7842   1.586   4.003   4.547
 2367SOL     OW 7843   0.048   4.789   4.013
 2367SOL    HW1 7844   0.138   4.758   4.004
 2367SOL    HW2 7845   0.000   4.716   4.053
 2368SOL     OW 7846   0.233   4.355   5.702
 2368SOL    HW1 7847   0.161   4.320   5.755
 2368SOL    HW2 7848   0.217   4.322   5.614
 2369SOL     OW 7849   0.243   3.999   6.575
 2369SOL    HW1 7850   0.256   3.964   6.663
 2369SOL    HW2 7851   0.158   3.964   6.548
 2370SOL     OW 7852   5.298   4.122   6.240
 2370SOL    HW1 7853   5.205   4.145   6.244
 2370SOL    HW2 7854   5.299   4.032   6.207
 2371SOL     OW 7855   0.575   5.001   6.771
 2371SOL    HW1 7856   0.496   5.007   6.718
 2371SOL    HW2 7857   0.593   5.092   6.796
 2372SOL     OW 7858   1.556   5.232   6.275
 2372SOL    HW1 7859   1.538   5.228   6.369
 2372SOL    HW2 7860   1.476   5.268   6.236
 2373SOL     OW 7861   1.130   4.422   6.286
 2373SOL    HW1 7862   1.179   4.503   6.272
 2373SOL    HW2 7863   1.084   4.435   6.368
 2374SOL     OW 7864   1.768   4.328   5.814
 2374SOL    HW1 7865   1.747   4.321   5.721
 2374SOL    HW2 7866   1.732   4.249   5.853
 2375SOL     OW 7867   0.757   4.866   6.624
 2375SOL    HW1 7868   0.691   4.896   6.686
 2375SOL    HW2 7869   0.785   4.946   6.579
 2376SOL     OW 7870   0.868   4.499   7.406
 2376SOL    HW1 7871   0.854   4.573   7.464
 2376SOL    HW2 7872   0.893   4.537   7.322
 2377SOL     OW 7873   0.685   4.725   6.233
 2377SOL    HW1 7874   0.751   4.715   6.302
 2377SOL    HW2 7875   0.618   4.780   6.273
 2378SOL     OW 7876   0.708   4.872   7.399
 2378SOL    HW1 7877   0.757   4.951   7.422
 2378SOL    HW2 7878   0.626   4.904   7.362
 2379SOL     OW 7879   0.377   5.146   6.639
 2379SOL    HW1 7880   0.283   5.157   6.627
 2379SOL    HW2 7881   0.417   5.196   6.568
 2380SOL     OW 7882   1.454   5.221   6.934
 2380SOL    HW1 7883   1.509   5.293   6.965
 2380SOL    HW2 7884   1.387   5.211   7.001
 2381SOL     OW 7885   0.451   4.124   7.078
 2381SOL    HW1 7886   0.525   4.064   7.080
 2381SOL    HW2 7887   0.374   4.068   7.088
 2382SOL     OW 7888   1.611   4.171   6.327
 2382SOL    HW1 7889   1.536   4.193   6.271
 2382SOL    HW2 7890   1.624   4.249   6.381
 2383SOL     OW 7891   1.133   5.072   7.287
 2383SOL    HW1 7892   1.165   5.072   7.377
 2383SOL    HW2 7893   1.079   4.993   7.280
 2384SOL     OW 7894   0.212   5.151   6.120
 2384SOL    HW1 7895   0.253   5.230   6.155
 2384SOL    HW2 7896   0.131   5.142   6.169
 2385SOL     OW 7897   0.253   4.798   6.461
 2385SOL    HW1 7898   0.265   4.711   6.499
 2385SOL    HW2 7899   0.196   4.844   6.523
 2386SOL     OW 7900   0.581   4.707   5.722
 2386SOL    HW1 7901   0.629   4.753   5.653
 2386SOL    HW2 7902   0.621   4.736   5.803
 2387SOL     OW 7903   1.596   3.848   7.053
 2387SOL    HW1 7904   1.606   3.929   7.003
 2387SOL    HW2 7905   1.580   3.877   7.143
 2388SOL     OW 7906   0.127   4.355   6.165
 2388SOL    HW1 7907   0.088   4.273   6.197
 2388SOL    HW2 7908   0.100   4.421   6.229
 2389SOL     OW 7909   5.299   5.298   5.668
 2389SOL    HW1 7910   0.013   5.210   5.703
 2389SOL    HW2 7911   0.026   0.057   5.738
 2390SOL     OW 7912   1.689   4.642   6.227
 2390SOL    HW1 7913   1.772   4.599   6.206
 2390SOL    HW2 7914   1.667   4.693   6.149
 2391SOL     OW 7915   1.646   4.830   6.015
 2391SOL    HW1 7916   1.732   4.834   5.973
 2391SOL    HW2 7917   1.653   4.891   6.089
 2392SOL     OW 7918   0.132   4.471   7.173
 2392SOL    HW1 7919   0.226   4.486   7.171
 2392SOL    HW2 7920   0.094   4.558   7.184
 2393SOL     OW 7921   0.627   5.097   6.323
 2393SOL    HW1 7922   0.570   5.020   6.321
 2393SOL    HW2 7923   0.602   5.146   6.244
 2394SOL     OW 7924   1.288   4.953   7.012
 2394SOL    HW1 7925   1.322   4.888   6.951
 2394SOL    HW2 7926   1.349   4.951   7.086
 2395SOL     OW 7927   0.824   3.724   6.097
 2395SOL    HW1 7928   0.864   3.808   6.076
 2395SOL    HW2 7929   0.730   3.742   6.102
 2396SOL     OW 7930   0.175   4.665   6.869
 2396SOL    HW1 7931   0.264   4.634   6.856
 2396SOL    HW2 7932   0.135   4.658   6.782
 2397SOL     OW 7933   1.531   4.720   5.784
 2397SOL    HW1 7934   1.461   4.662   5.816
 2397SOL    HW2 7935   1.572   4.754   5.863
 2398SOL     OW 7936   0.339   3.977   7.404
 2398SOL    HW1 7937   0.385   4.060   7.418
 2398SOL    HW2 7938   0.251   3.992   7.438
 2399SOL     OW 7939   1.477   5.147   6.548
 2399SOL    HW1 7940   1.405   5.160   6.609
 2399SOL    HW2 7941   1.465   5.059   6.514
 2400SOL     OW 7942   0.595   4.444   5.853
 2400SOL    HW1 7943   0.602   4.526   5.803
 2400SOL    HW2 7944   0.531   4.463   5.921
 2401SOL     OW 7945   1.279   4.079   6.519
 2401SOL    HW1 7946   1.189   4.045   6.527
 2401SOL    HW2 7947   1.330   4.025   6.579
 2402SOL     OW 7948   0.791   4.342   7.037
 2402SOL    HW1 7949   0.765   4.317   7.126
 2402SOL    HW2 7950   0.752   4.274   6.981
 2403SOL     OW 7951   1.394   4.198   7.263
 2403SOL    HW1 7952   1.396   4.243   7.348
 2403SOL    HW2 7953   1.453   4.124   7.273
 2404SOL     OW 7954   0.955   4.612   7.169
 2404SOL    HW1 7955   1.009   4.541   7.133
 2404SOL    HW2 7956   0.906   4.645   7.093
 2405SOL     OW 7957   0.992   4.137   6.824
 2405SOL    HW1 7958   0.905   4.156   6.859
 2405SOL    HW2 7959   0.975   4.090   6.742
 2406SOL     OW 7960   1.051   4.422   6.012
 2406SOL    HW1 7961   1.067   4.415   6.106
 2406SOL    HW2 7962   0.969   4.376   5.998
 2407SOL     OW 7963   0.071   4.510   6.396
 2407SOL    HW1 7964   0.152   4.515   6.447
 2407SOL    HW2 7965   0.063   4.597   6.356
 2408SOL     OW 7966   0.895   4.073   5.780
 2408SOL    HW1 7967   0.934   4.135   5.719
 2408SOL    HW2 7968   0.909   3.988   5.740
 2409SOL     OW 7969   1.708   4.299   7.416
 2409SOL    HW1 7970   1.671   4.372   7.367
 2409SOL    HW2 7971   1.736   4.237   7.348
 2410SOL     OW 7972   1.378   4.863   6.125
 2410SOL    HW1 7973   1.459   4.850   6.076
 2410SOL    HW2 7974   1.328   4.925   6.071
 2411SOL     OW 7975   0.557   3.907   6.480
 2411SOL    HW1 7976   0.553   3.935   6.571
 2411SOL    HW2 7977   0.551   3.988   6.429
 2412SOL     OW 7978   1.023   5.168   6.058
 2412SOL    HW1 7979   0.946   5.225   6.055
 2412SOL    HW2 7980   1.038   5.154   6.151
 2413SOL     OW 7981   1.801   4.780   6.453
 2413SOL    HW1 7982   1.744   4.762   6.378
 2413SOL    HW2 7983   1.740   4.787   6.527
 2414SOL     OW 7984   1.251   5.240   7.111
 2414SOL    HW1 7985   1.214   5.173   7.169
 2414SOL    HW2 7986   1.179   5.262   7.052
 2415SOL     OW 7987   0.316   4.676   5.834
 2415SOL    HW1 7988   0.398   4.698   5.789
 2415SOL    HW2 7989   0.292   4.590   5.799
 2416SOL     OW 7990   1.479   4.468   6.313
 2416SOL    HW1 7991   1.471   4.425   6.398
 2416SOL    HW2 7992   1.557   4.523   6.320
 2417SOL     OW 7993   0.462   4.989   7.330
 2417SOL    HW1 7994   0.437   4.992   7.238
 2417SOL    HW2 7995   0.379   4.989   7.378
 2418SOL     OW 7996   1.064   0.177   5.791
 2418SOL    HW1 7997   1.083   0.105   5.851
 2418SOL    HW2 7998   1.098   0.148   5.707
 2419SOL     OW 7999   0.205   4.003   7.085
 2419SOL    HW1 8000   0.126   4.054   7.065
 2419SOL    HW2 8001   0.173   3.922   7.124
 2420SOL     OW 8002   1.622   5.102   5.695
 2420SOL    HW1 8003   1.623   5.175   5.634
 2420SOL    HW2 8004   1.554   5.043   5.661
 2421SOL     OW 8005   1.401   3.831   6.020
 2421SOL    HW1 8006   1.391   3.806   5.928
 2421SOL    HW2 8007   1.496   3.837   6.033
 2422SOL     OW 8008   0.386   4.420   6.065
 2422SOL    HW1 8009   0.415   4.329   6.074
 2422SOL    HW2 8010   0.293   4.417   6.085
 2423SOL     OW 8011   1.534   3.949   7.311
 2423SOL    HW1 8012   1.543   3.970   7.404
 2423SOL    HW2 8013   1.465   3.882   7.309
 2424SOL     OW 8014   0.636   3.846   5.690
 2424SOL    HW1 8015   0.703   3.780   5.703
 2424SOL    HW2 8016   0.586   3.815   5.614
 2425SOL     OW 8017   0.765   4.001   7.340
 2425SOL    HW1 8018   0.843   3.945   7.341
 2425SOL    HW2 8019   0.722   3.984   7.424
 2426SOL     OW 8020   1.340   4.313   7.018
 2426SOL    HW1 8021   1.371   4.282   7.103
 2426SOL    HW2 8022   1.376   4.401   7.010
 2427SOL     OW 8023   0.815   5.118   6.523
 2427SOL    HW1 8024   0.895   5.105   6.473
 2427SOL    HW2 8025   0.746   5.125   6.457
 2428SOL     OW 8026   0.928   4.234   6.488
 2428SOL    HW1 8027   0.904   4.225   6.396
 2428SOL    HW2 8028   0.959   4.146   6.514
 2429SOL     OW 8029   0.561   3.785   6.081
 2429SOL    HW1 8030   0.486   3.785   6.141
 2429SOL    HW2 8031   0.550   3.864   6.028
 2430SOL     OW 8032   1.428   4.924   5.624
 2430SOL    HW1 8033   1.458   4.849   5.674
 2430SOL    HW2 8034   1.340   4.942   5.657
 2431SOL     OW 8035   0.305   3.771   5.764
 2431SOL    HW1 8036   0.368   3.835   5.729
 2431SOL    HW2 8037   0.360   3.707   5.810
 2432SOL     OW 8038   0.940   3.972   6.045
 2432SOL    HW1 8039   0.914   4.012   5.962
 2432SOL    HW2 8040   1.035   3.986   6.050
 2433SOL     OW 8041   1.080   4.405   7.045
 2433SOL    HW1 8042   1.012   4.338   7.050
 2433SOL    HW2 8043   1.162   4.356   7.039
 2434SOL     OW 8044   1.264   5.266   6.363
 2434SOL    HW1 8045   1.218   0.047   6.338
 2434SOL    HW2 8046   1.309   5.289   6.445
 2435SOL     OW 8047   0.466   4.874   6.313
 2435SOL    HW1 8048   0.398   4.853   6.377
 2435SOL    HW2 8049   0.426   4.854   6.228
 2436SOL     OW 8050   1.023   4.265   5.610
 2436SOL    HW1 8051   0.980   4.348   5.590
 2436SOL    HW2 8052   1.089   4.286   5.676
 2437SOL     OW 8053   0.089   4.267   6.986
 2437SOL    HW1 8054   0.176   4.275   6.948
 2437SOL    HW2 8055   0.080   4.344   7.042
 2438SOL     OW 8056   0.560   3.952   6.753
 2438SOL    HW1 8057   0.598   3.872   6.791
 2438SOL    HW2 8058   0.469   3.950   6.781
 2439SOL     OW 8059   0.868   4.183   6.225
 2439SOL    HW1 8060   0.822   4.237   6.161
 2439SOL    HW2 8061   0.889   4.103   6.178
 2440SOL     OW 8062   1.016   3.777   6.337
 2440SOL    HW1 8063   0.957   3.770   6.261
 2440SOL    HW2 8064   0.994   3.702   6.392
 2441SOL     OW 8065   1.438   4.890   6.445
 2441SOL    HW1 8066   1.371   4.822   6.441
 2441SOL    HW2 8067   1.464   4.902   6.353
 2442SOL     OW 8068   1.466   4.330   6.561
 2442SOL    HW1 8069   1.414   4.250   6.564
 2442SOL    HW2 8070   1.525   4.323   6.636
 2443SOL     OW 8071   1.845   4.539   5.969
 2443SOL    HW1 8072   1.901   4.488   6.027
 2443SOL    HW2 8073   1.817   4.476   5.902
 2444SOL     OW 8074   0.482   5.145   5.737
 2444SOL    HW1 8075   0.421   5.094   5.790
 2444SOL    HW2 8076   0.485   5.099   5.653
 2445SOL     OW 8077   1.670   4.987   6.232
 2445SOL    HW1 8078   1.764   4.993   6.249
 2445SOL    HW2 8079   1.636   5.075   6.248
 2446SOL     OW 8080   1.394   4.296   5.657
 2446SOL    HW1 8081   1.333   4.276   5.728
 2446SOL    HW2 8082   1.478   4.264   5.689
 2447SOL     OW 8083   0.524   3.987   5.902
 2447SOL    HW1 8084   0.570   3.941   5.832
 2447SOL    HW2 8085   0.501   4.071   5.863
 2448SOL     OW 8086   1.750   4.960   7.159
 2448SOL    HW1 8087   1.836   4.917   7.160
 2448SOL    HW2 8088   1.769   5.053   7.172
 2449SOL     OW 8089   1.064   5.074   6.917
 2449SOL    HW1 8090   0.986   5.048   6.964
 2449SOL    HW2 8091   1.136   5.035   6.966
 2450SOL     OW 8092   1.128   4.926   6.693
 2450SOL    HW1 8093   1.077   4.968   6.764
 2450SOL    HW2 8094   1.081   4.951   6.613
 2451SOL     OW 8095   1.628   4.822   6.662
 2451SOL    HW1 8096   1.623   4.883   6.735
 2451SOL    HW2 8097   1.550   4.841   6.610
 2452SOL     OW 8098   0.918   3.820   6.982
 2452SOL    HW1 8099   0.941   3.802   6.891
 2452SOL    HW2 8100   0.998   3.860   7.018
 2453SOL     OW 8101   0.985   4.838   7.313
 2453SOL    HW1 8102   0.892   4.855   7.330
 2453SOL    HW2 8103   0.985   4.762   7.255
 2454SOL     OW 8104   0.703   4.782   5.958
 2454SOL    HW1 8105   0.693   4.766   6.052
 2454SOL    HW2 8106   0.781   4.731   5.934
 2455SOL     OW 8107   0.421   4.543   6.838
 2455SOL    HW1 8108   0.490   4.550   6.905
 2455SOL    HW2 8109   0.387   4.455   6.848
 2456SOL     OW 8110   1.265   4.101   6.862
 2456SOL    HW1 8111   1.297   4.178   6.908
 2456SOL    HW2 8112   1.174   4.122   6.840
 2457SOL     OW 8113   0.113   5.290   6.904
 2457SOL    HW1 8114   0.051   0.044   6.954
 2457SOL    HW2 8115   0.190   5.284   6.960
 2458SOL     OW 8116   0.344   4.829   6.072
 2458SOL    HW1 8117   0.347   4.908   6.017
 2458SOL    HW2 8118   0.348   4.756   6.009
 2459SOL     OW 8119   0.553   4.259   6.445
 2459SOL    HW1 8120   0.568   4.318   6.371
 2459SOL    HW2 8121   0.619   4.286   6.510
 2460SOL     OW 8122   1.261   5.078   5.971
 2460SOL    HW1 8123   1.317   5.144   6.010
 2460SOL    HW2 8124   1.173   5.101   6.001
 2461SOL     OW 8125   1.270   5.182   6.727
 2461SOL    HW1 8126   1.329   5.196   6.801
 2461SOL    HW2 8127   1.227   5.099   6.747
 2462SOL     OW 8128   1.581   4.346   6.066
 2462SOL    HW1 8129   1.533   4.399   6.130
 2462SOL    HW2 8130   1.626   4.410   6.011
 2463SOL     OW 8131   0.382   5.230   6.901
 2463SOL    HW1 8132   0.366   5.192   6.814
 2463SOL    HW2 8133   0.474   5.256   6.899
 2464SOL     OW 8134   0.415   4.467   7.188
 2464SOL    HW1 8135   0.476   4.512   7.131
 2464SOL    HW2 8136   0.452   4.379   7.200
 2465SOL     OW 8137   1.602   4.503   7.269
 2465SOL    HW1 8138   1.516   4.544   7.262
 2465SOL    HW2 8139   1.655   4.545   7.201
 2466SOL     OW 8140   0.996   3.849   7.340
 2466SOL    HW1 8141   1.053   3.921   7.313
 2466SOL    HW2 8142   1.044   3.770   7.315
 2467SOL     OW 8143   0.498   3.764   7.334
 2467SOL    HW1 8144   0.455   3.710   7.267
 2467SOL    HW2 8145   0.440   3.839   7.346
 2468SOL     OW 8146   0.586   4.597   6.618
 2468SOL    HW1 8147   0.615   4.688   6.617
 2468SOL    HW2 8148   0.529   4.591   6.695
 2469SOL     OW 8149   1.356   4.582   6.613
 2469SOL    HW1 8150   1.272   4.571   6.568
 2469SOL    HW2 8151   1.398   4.496   6.607
 2470SOL     OW 8152   1.204   4.252   5.852
 2470SOL    HW1 8153   1.212   4.174   5.906
 2470SOL    HW2 8154   1.161   4.317   5.908
 2471SOL     OW 8155   0.301   3.927   6.834
 2471SOL    HW1 8156   0.268   3.951   6.920
 2471SOL    HW2 8157   0.290   3.832   6.829
 2472SOL     OW 8158   0.043   5.021   6.862
 2472SOL    HW1 8159   0.074   4.972   6.938
 2472SOL    HW2 8160   0.044   5.112   6.890
 2473SOL     OW 8161   0.724   4.355   6.643
 2473SOL    HW1 8162   0.799   4.339   6.586
 2473SOL    HW2 8163   0.696   4.444   6.622
 2474SOL     OW 8164   1.736   4.685   7.438
 2474SOL    HW1 8165   1.689   4.621   7.384
 2474SOL    HW2 8166   1.678   4.699   7.513
 2475SOL     OW 8167   0.328   3.786   6.220
 2475SOL    HW1 8168   0.307   3.875   6.247
 2475SOL    HW2 8169   0.333   3.737   6.302
 2476SOL     OW 8170   1.617   4.099   5.952
 2476SOL    HW1 8171   1.645   4.035   6.017
 2476SOL    HW2 8172   1.595   4.177   6.003
 2477SOL     OW 8173   1.028   4.483   6.546
 2477SOL    HW1 8174   1.024   4.500   6.640
 2477SOL    HW2 8175   1.002   4.391   6.537
 2478SOL     OW 8176   1.854   5.213   7.168
 2478SOL    HW1 8177   1.846   5.290   7.112
 2478SOL    HW2 8178   1.924   5.235   7.229
 2479SOL     OW 8179   0.355   4.641   7.393
 2479SOL    HW1 8180   0.436   4.660   7.439
 2479SOL    HW2 8181   0.379   4.576   7.326
 2480SOL     OW 8182   1.528   3.997   5.713
 2480SOL    HW1 8183   1.464   3.932   5.740
 2480SOL    HW2 8184   1.562   4.032   5.795
 2481SOL     OW 8185   1.291   4.550   5.617
 2481SOL    HW1 8186   1.334   4.464   5.620
 2481SOL    HW2 8187   1.322   4.589   5.535
 2482SOL     OW 8188   1.058   5.080   6.409
 2482SOL    HW1 8189   1.063   4.994   6.367
 2482SOL    HW2 8190   1.145   5.118   6.398
 2483SOL     OW 8191   0.314   4.533   6.535
 2483SOL    HW1 8192   0.408   4.550   6.531
 2483SOL    HW2 8193   0.307   4.443   6.567
 2484SOL     OW 8194   0.335   4.250   6.601
 2484SOL    HW1 8195   0.299   4.162   6.587
 2484SOL    HW2 8196   0.409   4.256   6.542
 2485SOL     OW 8197   1.135   4.099   7.268
 2485SOL    HW1 8198   1.087   4.154   7.330
 2485SOL    HW2 8199   1.222   4.138   7.264
 2486SOL     OW 8200   1.161   3.926   7.056
 2486SOL    HW1 8201   1.150   3.988   7.127
 2486SOL    HW2 8202   1.201   3.977   6.985
 2487SOL     OW 8203   0.002   5.046   5.793
 2487SOL    HW1 8204   5.227   5.033   5.735
 2487SOL    HW2 8205   0.014   4.962   5.837
 2488SOL     OW 8206   0.981   4.515   6.812
 2488SOL    HW1 8207   1.038   4.493   6.886
 2488SOL    HW2 8208   0.896   4.476   6.834
 2489SOL     OW 8209   0.032   4.286   6.702
 2489SOL    HW1 8210   0.118   4.262   6.669
 2489SOL    HW2 8211   0.037   4.267   6.796
 2490SOL     OW 8212   0.174   4.237   7.303
 2490SOL    HW1 8213   0.236   4.196   7.242
 2490SOL    HW2 8214   0.147   4.317   7.259
 2491SOL     OW 8215   1.377   4.662   7.244
 2491SOL    HW1 8216   1.398   4.755   7.241
 2491SOL    HW2 8217   1.373   4.635   7.153
 2492SOL     OW 8218   0.817   4.293   5.947
 2492SOL    HW1 8219   0.821   4.219   5.887
 2492SOL    HW2 8220   0.742   4.345   5.916
 2493SOL     OW 8221   1.642   4.325   6.771
 2493SOL    HW1 8222   1.631   4.266   6.846
 2493SOL    HW2 8223   1.729   4.306   6.737
 2494SOL     OW 8224   0.208   5.278   7.318
 2494SOL    HW1 8225   0.157   0.015   7.390
 2494SOL    HW2 8226   0.215   5.185   7.340
 2495SOL     OW 8227   0.704   4.173   6.845
 2495SOL    HW1 8228   0.650   4.099   6.816
 2495SOL    HW2 8229   0.698   4.236   6.773
 2496SOL     OW 8230   0.464   4.217   5.770
 2496SOL    HW1 8231   0.525   4.288   5.793
 2496SOL    HW2 8232   0.380   4.260   5.757
 2497SOL     OW 8233   0.150   4.861   7.058
 2497SOL    HW1 8234   0.146   4.812   7.140
 2497SOL    HW2 8235   0.160   4.793   6.991
 2498SOL     OW 8236   1.326   4.769   6.808
 2498SOL    HW1 8237   1.348   4.706   6.739
 2498SOL    HW2 8238   1.256   4.822   6.770
 2499SOL     OW 8239   1.311   4.582   5.892
 2499SOL    HW1 8240   1.237   4.549   5.942
 2499SOL    HW2 8241   1.287   4.567   5.800
 2500SOL     OW 8242   0.075   4.915   6.616
 2500SOL    HW1 8243   0.064   4.957   6.702
 2500SOL    HW2 8244   5.289   4.922   6.575
 2501SOL     OW 8245   0.752   0.035   7.297
 2501SOL    HW1 8246   0.660   0.059   7.305
 2501SOL    HW2 8247   0.776   0.061   7.208
 2502SOL     OW 8248   1.719   3.872   6.095
 2502SOL    HW1 8249   1.792   3.857   6.034
 2502SOL    HW2 8250   1.704   3.786   6.135
 2503SOL     OW 8251   1.277   4.650   6.258
 2503SOL    HW1 8252   1.350   4.589   6.266
 2503SOL    HW2 8253   1.312   4.722   6.204
 2504SOL     OW 8254   0.817   4.993   7.004
 2504SOL    HW1 8255   0.785   5.029   7.087
 2504SOL    HW2 8256   0.742   5.000   6.944
 2505SOL     OW 8257   1.841   3.897   6.553
 2505SOL    HW1 8258   1.870   3.809   6.526
 2505SOL    HW2 8259   1.755   3.906   6.513
 2506SOL     OW 8260   0.273   4.041   6.303
 2506SOL    HW1 8261   0.188   4.079   6.283
 2506SOL    HW2 8262   0.273   4.030   6.398
 2507SOL     OW 8263   0.825   4.727   6.957
 2507SOL    HW1 8264   0.871   4.718   6.874
 2507SOL    HW2 8265   0.828   4.820   6.977
 2508SOL     OW 8266   0.916   4.636   5.877
 2508SOL    HW1 8267   0.976   4.668   5.810
 2508SOL    HW2 8268   0.964   4.566   5.921
 2509SOL     OW 8269   0.365   5.029   7.088
 2509SOL    HW1 8270   0.367   5.097   7.021
 2509SOL    HW2 8271   0.291   4.974   7.063
 2510SOL     OW 8272   1.612   5.004   6.868
 2510SOL    HW1 8273   1.669   4.996   6.945
 2510SOL    HW2 8274   1.550   5.073   6.891
 2511SOL     OW 8275   1.056   4.834   6.298
 2511SOL    HW1 8276   0.983   4.783   6.334
 2511SOL    HW2 8277   1.118   4.768   6.267
 2512SOL     OW 8278   1.022   3.965   6.552
 2512SOL    HW1 8279   1.017   3.917   6.469
 2512SOL    HW2 8280   1.016   3.897   6.619
 2513SOL     OW 8281   1.723   4.116   6.967
 2513SOL    HW1 8282   1.795   4.179   6.965
 2513SOL    HW2 8283   1.752   4.045   6.910
 2514SOL     OW 8284   0.259   5.059   5.873
 2514SOL    HW1 8285   0.167   5.062   5.849
 2514SOL    HW2 8286   0.262   5.097   5.961
 2515SOL     OW 8287   0.117   4.743   7.305
 2515SOL    HW1 8288   0.045   4.705   7.357
 2515SOL    HW2 8289   0.196   4.709   7.347
 2516SOL     OW 8290   0.674   3.920   7.085
 2516SOL    HW1 8291   0.758   3.900   7.044
 2516SOL    HW2 8292   0.697   3.951   7.173
 2517SOL     OW 8293   0.084   4.072   5.627
 2517SOL    HW1 8294   0.003   4.025   5.604
 2517SOL    HW2 8295   0.099   4.130   5.553
 2518SOL     OW 8296   1.429   4.582   6.986
 2518SOL    HW1 8297   1.380   4.643   6.930
 2518SOL    HW2 8298   1.518   4.584   6.951
 2519SOL     OW 8299   0.056   3.857   5.830
 2519SOL    HW1 8300   0.055   3.952   5.818
 2519SOL    HW2 8301   0.145   3.831   5.806
 2520SOL     OW 8302   1.182   5.063   5.707
 2520SOL    HW1 8303   1.091   5.034   5.708
 2520SOL    HW2 8304   1.210   5.055   5.798
 2521SOL     OW 8305   0.619   4.555   7.022
 2521SOL    HW1 8306   0.677   4.630   7.005
 2521SOL    HW2 8307   0.679   4.481   7.030
 2522SOL     OW 8308   0.717   4.287   7.290
 2522SOL    HW1 8309   0.759   4.348   7.351
 2522SOL    HW2 8310   0.743   4.200   7.322
 2523SOL     OW 8311   1.474   4.922   7.217
 2523SOL    HW1 8312   1.461   4.935   7.311
 2523SOL    HW2 8313   1.568   4.936   7.204
 2524SOL     OW 8314   1.669   4.605   6.841
 2524SOL    HW1 8315   1.663   4.520   6.798
 2524SOL    HW2 8316   1.659   4.668   6.770
 2525SOL     OW 8317   1.217   4.043   6.044
 2525SOL    HW1 8318   1.280   3.971   6.036
 2525SOL    HW2 8319   1.246   4.092   6.121
 2526SOL     OW 8320   0.590   4.461   6.256
 2526SOL    HW1 8321   0.628   4.547   6.241
 2526SOL    HW2 8322   0.521   4.453   6.190
 2527SOL     OW 8323   1.761   4.087   7.238
 2527SOL    HW1 8324   1.745   4.102   7.145
 2527SOL    HW2 8325   1.689   4.030   7.265
 2528SOL     OW 8326   1.746   4.657   7.098
 2528SOL    HW1 8327   1.739   4.752   7.111
 2528SOL    HW2 8328   1.730   4.645   7.004
 2529SOL     OW 8329   0.848   5.094   5.606
 2529SOL    HW1 8330   0.831   5.094   5.700
 2529SOL    HW2 8331   0.863   5.186   5.584
 2530SOL     OW 8332   0.869   4.692   6.440
 2530SOL    HW1 8333   0.918   4.620   6.480
 2530SOL    HW2 8334   0.833   4.741   6.514
 2531SOL     OW 8335   1.080   4.713   5.676
 2531SOL    HW1 8336   1.057   4.763   5.597
 2531SOL    HW2 8337   1.154   4.659   5.649
 2532SOL     OW 8338   0.218   5.023   7.442
 2532SOL    HW1 8339   0.155   4.954   7.420
 2532SOL    HW2 8340   0.209   5.034   7.537
 2533SOL     OW 8341   0.084   4.926   6.241
 2533SOL    HW1 8342   0.103   4.906   6.332
 2533SOL    HW2 8343   0.169   4.945   6.201
 2534SOL     OW 8344   0.672   5.103   7.196
 2534SOL    HW1 8345   0.594   5.073   7.242
 2534SOL    HW2 8346   0.704   5.176   7.247
 2535SOL     OW 8347   1.813   3.908   6.824
 2535SOL    HW1 8348   1.822   3.814   6.838
 2535SOL    HW2 8349   1.822   3.919   6.729
 2536SOL     OW 8350   0.436   4.160   6.110
 2536SOL    HW1 8351   0.463   4.087   6.054
 2536SOL    HW2 8352   0.388   4.118   6.182
 2537SOL     OW 8353   1.706   5.224   6.705
 2537SOL    HW1 8354   1.633   5.208   6.646
 2537SOL    HW2 8355   1.713   5.145   6.758
 2538SOL     OW 8356   0.338   4.284   6.878
 2538SOL    HW1 8357   0.391   4.225   6.931
 2538SOL    HW2 8358   0.351   4.254   6.788
 2539SOL     OW 8359   1.432   3.950   6.704
 2539SOL    HW1 8360   1.455   3.869   6.749
 2539SOL    HW2 8361   1.380   3.999   6.768
 2540SOL     OW 8362   1.009   3.742   6.727
 2540SOL    HW1 8363   0.954   3.675   6.687
 2540SOL    HW2 8364   1.097   3.704   6.729
 2541SOL     OW 8365   0.805   5.046   5.870
 2541SOL    HW1 8366   0.745   4.974   5.890
 2541SOL    HW2 8367   0.859   5.056   5.949
 2542SOL     OW 8368   0.641   0.003   6.875
 2542SOL    HW1 8369   0.645   0.057   6.953
 2542SOL    HW2 8370   0.733   5.286   6.853
 2543SOL     OW 8371   1.353   3.777   5.752
 2543SOL    HW1 8372   1.382   3.712   5.688
 2543SOL    HW2 8373   1.265   3.749   5.777
 2544SOL     OW 8374   1.296   4.185   6.266
 2544SOL    HW1 8375   1.243   4.264   6.273
 2544SOL    HW2 8376   1.292   4.146   6.354
 2545SOL     OW 8377   1.586   3.925   6.465
 2545SOL    HW1 8378   1.527   3.946   6.536
 2545SOL    HW2 8379   1.586   4.003   6.409
 2546SOL     OW 8380   0.048   4.789   5.875
 2546SOL    HW1 8381   0.138   4.758   5.866
 2546SOL    HW2 8382   0.000   4.716   5.915
 2547SOL     OW 8383   0.229   4.354   7.567
 2547SOL    HW1 8384   0.157   4.311   7.613
 2547SOL    HW2 8385   0.220   4.326   7.476
 2548SOL     OW 8386   1.767   4.321   7.679
 2548SOL    HW1 8387   1.747   4.317   7.585
 2548SOL    HW2 8388   1.727   4.243   7.716
 2549SOL     OW 8389   0.280   0.133   7.959
 2549SOL    HW1 8390   0.239   0.209   8.001
 2549SOL    HW2 8391   0.286   0.157   7.867
 2550SOL     OW 8392   0.226   5.159   7.991
 2550SOL    HW1 8393   0.236   5.254   7.994
 2550SOL    HW2 8394   0.156   5.140   8.053
 2551SOL     OW 8395   0.581   4.708   7.582
 2551SOL    HW1 8396   0.628   4.755   7.513
 2551SOL    HW2 8397   0.622   4.738   7.663
 2552SOL     OW 8398   0.002   5.297   7.523
 2552SOL    HW1 8399   0.015   5.210   7.560
 2552SOL    HW2 8400   0.020   0.057   7.595
 2553SOL     OW 8401   1.682   4.589   8.033
 2553SOL    HW1 8402   1.761   4.600   0.006
 2553SOL    HW2 8403   1.670   4.673   7.989
 2554SOL     OW 8404   1.657   4.824   7.877
 2554SOL    HW1 8405   1.745   4.844   7.846
 2554SOL    HW2 8406   1.636   4.896   7.937
 2555SOL     OW 8407   0.799   3.719   7.938
 2555SOL    HW1 8408   0.849   3.799   7.921
 2555SOL    HW2 8409   0.709   3.749   7.948
 2556SOL     OW 8410   1.532   4.722   7.649
 2556SOL    HW1 8411   1.466   4.662   7.683
 2556SOL    HW2 8412   1.577   4.755   7.727
 2557SOL     OW 8413   0.588   4.447   7.708
 2557SOL    HW1 8414   0.595   4.530   7.660
 2557SOL    HW2 8415   0.535   4.468   7.785
 2558SOL     OW 8416   0.053   4.543   0.200
 2558SOL    HW1 8417   0.122   4.485   0.167
 2558SOL    HW2 8418   0.031   4.600   0.126
 2559SOL     OW 8419   0.884   4.072   7.638
 2559SOL    HW1 8420   0.927   4.131   7.576
 2559SOL    HW2 8421   0.917   3.985   7.614
 2560SOL     OW 8422   0.317   4.672   7.693
 2560SOL    HW1 8423   0.398   4.698   7.650
 2560SOL    HW2 8424   0.294   4.587   7.654
 2561SOL     OW 8425   1.083   0.191   7.644
 2561SOL    HW1 8426   1.066   0.123   7.710
 2561SOL    HW2 8427   1.089   0.144   7.562
 2562SOL     OW 8428   1.626   5.100   7.552
 2562SOL    HW1 8429   1.614   5.178   7.498
 2562SOL    HW2 8430   1.557   5.041   7.523
 2563SOL     OW 8431   1.417   3.857   7.864
 2563SOL    HW1 8432   1.405   3.821   7.776
 2563SOL    HW2 8433   1.511   3.855   7.878
 2564SOL     OW 8434   0.379   4.424   7.923
 2564SOL    HW1 8435   0.397   4.330   7.928
 2564SOL    HW2 8436   0.285   4.431   7.937
 2565SOL     OW 8437   0.629   3.843   7.558
 2565SOL    HW1 8438   0.704   3.783   7.569
 2565SOL    HW2 8439   0.585   3.812   7.479
 2566SOL     OW 8440   0.526   3.800   7.961
 2566SOL    HW1 8441   0.439   3.805   7.999
 2566SOL    HW2 8442   0.528   3.870   7.896
 2567SOL     OW 8443   1.428   4.925   7.487
 2567SOL    HW1 8444   1.458   4.850   7.539
 2567SOL    HW2 8445   1.340   4.944   7.520
 2568SOL     OW 8446   0.307   3.767   7.619
 2568SOL    HW1 8447   0.368   3.831   7.583
 2568SOL    HW2 8448   0.362   3.705   7.667
 2569SOL     OW 8449   0.944   3.949   7.910
 2569SOL    HW1 8450   0.901   4.014   7.854
 2569SOL    HW2 8451   1.035   3.979   7.914
 2570SOL     OW 8452   0.448   4.884   0.088
 2570SOL    HW1 8453   0.376   4.904   0.148
 2570SOL    HW2 8454   0.405   4.865   0.005
 2571SOL     OW 8455   1.025   4.265   7.468
 2571SOL    HW1 8456   0.980   4.347   7.451
 2571SOL    HW2 8457   1.085   4.284   7.540
 2572SOL     OW 8458   1.873   4.539   7.801
 2572SOL    HW1 8459   1.863   4.514   7.893
 2572SOL    HW2 8460   1.833   4.467   7.753
 2573SOL     OW 8461   0.475   5.148   7.600
 2573SOL    HW1 8462   0.417   5.096   7.655
 2573SOL    HW2 8463   0.482   5.098   7.518
 2574SOL     OW 8464   1.394   4.296   7.519
 2574SOL    HW1 8465   1.333   4.275   7.590
 2574SOL    HW2 8466   1.478   4.262   7.550
 2575SOL     OW 8467   0.527   3.990   7.769
 2575SOL    HW1 8468   0.571   3.940   7.700
 2575SOL    HW2 8469   0.502   4.072   7.728
 2576SOL     OW 8470   0.707   4.783   7.814
 2576SOL    HW1 8471   0.689   4.770   7.907
 2576SOL    HW2 8472   0.787   4.733   7.799
 2577SOL     OW 8473   0.345   4.820   7.926
 2577SOL    HW1 8474   0.339   4.903   7.881
 2577SOL    HW2 8475   0.346   4.754   7.857
 2578SOL     OW 8476   1.225   5.116   7.832
 2578SOL    HW1 8477   1.312   5.123   7.873
 2578SOL    HW2 8478   1.175   5.062   7.893
 2579SOL     OW 8479   1.587   4.351   7.921
 2579SOL    HW1 8480   1.576   4.409   7.995
 2579SOL    HW2 8481   1.626   4.406   7.852
 2580SOL     OW 8482   1.203   4.250   7.714
 2580SOL    HW1 8483   1.205   4.167   7.761
 2580SOL    HW2 8484   1.177   4.314   7.781
 2581SOL     OW 8485   1.620   4.104   7.813
 2581SOL    HW1 8486   1.641   4.037   7.878
 2581SOL    HW2 8487   1.595   4.180   7.865
 2582SOL     OW 8488   1.529   3.999   7.575
 2582SOL    HW1 8489   1.464   3.934   7.600
 2582SOL    HW2 8490   1.562   4.034   7.658
 2583SOL     OW 8491   1.294   4.551   7.480
 2583SOL    HW1 8492   1.335   4.465   7.482
 2583SOL    HW2 8493   1.323   4.590   7.398
 2584SOL     OW 8494   0.004   5.050   7.654
 2584SOL    HW1 8495   5.226   5.040   7.599
 2584SOL    HW2 8496   0.018   4.964   7.693
 2585SOL     OW 8497   0.842   4.328   7.758
 2585SOL    HW1 8498   0.835   4.236   7.733
 2585SOL    HW2 8499   0.751   4.359   7.761
 2586SOL     OW 8500   0.461   4.217   7.638
 2586SOL    HW1 8501   0.522   4.288   7.655
 2586SOL    HW2 8502   0.377   4.260   7.622
 2587SOL     OW 8503   1.311   4.579   7.754
 2587SOL    HW1 8504   1.224   4.580   7.794
 2587SOL    HW2 8505   1.294   4.566   7.660
 2588SOL     OW 8506   1.712   3.872   7.946
 2588SOL    HW1 8507   1.788   3.864   7.889
 2588SOL    HW2 8508   1.715   3.794   8.001
 2589SOL     OW 8509   0.925   4.633   7.756
 2589SOL    HW1 8510   0.979   4.658   7.681
 2589SOL    HW2 8511   0.919   4.538   7.751
 2590SOL     OW 8512   0.260   5.059   7.746
 2590SOL    HW1 8513   0.168   5.067   7.721
 2590SOL    HW2 8514   0.265   5.098   7.833
 2591SOL     OW 8515   0.083   4.063   7.488
 2591SOL    HW1 8516   5.299   4.024   7.464
 2591SOL    HW2 8517   0.100   4.127   7.419
 2592SOL     OW 8518   0.082   3.861   7.739
 2592SOL    HW1 8519   0.068   3.948   7.701
 2592SOL    HW2 8520   0.154   3.825   7.687
 2593SOL     OW 8521   1.181   5.058   7.565
 2593SOL    HW1 8522   1.088   5.032   7.562
 2593SOL    HW2 8523   1.198   5.073   7.658
 2594SOL     OW 8524   1.214   4.042   7.904
 2594SOL    HW1 8525   1.288   3.982   7.892
 2594SOL    HW2 8526   1.235   4.089   7.984
 2595SOL     OW 8527   0.626   4.467   8.043
 2595SOL    HW1 8528   0.629   4.542   0.023
 2595SOL    HW2 8529   0.534   4.460   8.018
 2596SOL     OW 8530   0.850   5.093   7.467
 2596SOL    HW1 8531   0.834   5.093   7.561
 2596SOL    HW2 8532   0.861   5.186   7.444
 2597SOL     OW 8533   1.073   4.703   7.539
 2597SOL    HW1 8534   1.053   4.759   7.464
 2597SOL    HW2 8535   1.151   4.653   7.512
 2598SOL     OW 8536   0.392   4.156   7.980
 2598SOL    HW1 8537   0.435   4.095   7.920
 2598SOL    HW2 8538   0.438   4.143   8.064
 2599SOL     OW 8539   0.807   5.049   7.731
 2599SOL    HW1 8540   0.753   4.972   7.752
 2599SOL    HW2 8541   0.822   5.091   7.816
 2600SOL     OW 8542   1.353   3.777   7.610
 2600SOL    HW1 8543   1.383   3.708   7.550
 2600SOL    HW2 8544   1.266   3.747   7.638
 2601SOL     OW 8545   0.050   4.792   7.724
 2601SOL    HW1 8546   0.139   4.756   7.721
 2601SOL    HW2 8547   0.001   4.731   7.780
 2602SOL     OW 8548   2.077   0.624   0.121
 2602SOL    HW1 8549   1.998   0.588   0.162
 2602SOL    HW2 8550   2.104   0.556   0.058
 2603SOL     OW 8551   2.079   0.285   0.993
 2603SOL    HW1 8552   2.108   0.249   1.077
 2603SOL    HW2 8553   1.995   0.243   0.977
 2604SOL     OW 8554   1.865   0.387   0.637
 2604SOL    HW1 8555   1.781   0.409   0.678
 2604SOL    HW2 8556   1.847   0.309   0.585
 2605SOL     OW 8557   2.429   1.290   1.176
 2605SOL    HW1 8558   2.342   1.293   1.138
 2605SOL    HW2 8559   2.445   1.378   1.209
 2606SOL     OW 8560   3.424   1.512   0.708
 2606SOL    HW1 8561   3.382   1.491   0.791
 2606SOL    HW2 8562   3.353   1.515   0.644
 2607SOL     OW 8563   2.994   0.697   0.701
 2607SOL    HW1 8564   3.042   0.779   0.687
 2607SOL    HW2 8565   2.946   0.712   0.783
 2608SOL     OW 8566   3.634   0.599   0.231
 2608SOL    HW1 8567   3.589   0.605   0.147
 2608SOL    HW2 8568   3.592   0.525   0.275
 2609SOL     OW 8569   2.615   1.141   1.042
 2609SOL    HW1 8570   2.547   1.177   1.099
 2609SOL    HW2 8571   2.652   1.218   0.997
 2610SOL     OW 8572   2.730   0.775   1.823
 2610SOL    HW1 8573   2.718   0.847   1.886
 2610SOL    HW2 8574   2.754   0.819   1.741
 2611SOL     OW 8575   2.546   1.001   0.649
 2611SOL    HW1 8576   2.612   0.990   0.718
 2611SOL    HW2 8577   2.478   1.054   0.690
 2612SOL     OW 8578   2.573   1.150   1.813
 2612SOL    HW1 8579   2.620   1.228   1.841
 2612SOL    HW2 8580   2.491   1.184   1.777
 2613SOL     OW 8581   2.192   1.425   1.068
 2613SOL    HW1 8582   2.120   1.386   1.018
 2613SOL    HW2 8583   2.241   1.474   1.003
 2614SOL     OW 8584   3.323   1.500   1.355
 2614SOL    HW1 8585   3.374   1.580   1.365
 2614SOL    HW2 8586   3.259   1.504   1.427
 2615SOL     OW 8587   2.307   0.398   1.484
 2615SOL    HW1 8588   2.381   0.338   1.483
 2615SOL    HW2 8589   2.231   0.341   1.500
 2616SOL     OW 8590   3.472   0.451   0.739
 2616SOL    HW1 8591   3.393   0.471   0.688
 2616SOL    HW2 8592   3.488   0.530   0.790
 2617SOL     OW 8593   2.082   1.716   0.471
 2617SOL    HW1 8594   2.103   1.792   0.525
 2617SOL    HW2 8595   2.157   1.707   0.412
 2618SOL     OW 8596   2.998   1.342   1.693
 2618SOL    HW1 8597   3.040   1.336   1.779
 2618SOL    HW2 8598   2.946   1.262   1.686
 2619SOL     OW 8599   2.089   1.441   0.529
 2619SOL    HW1 8600   2.074   1.536   0.534
 2619SOL    HW2 8601   2.031   1.404   0.596
 2620SOL     OW 8602   2.121   1.090   0.891
 2620SOL    HW1 8603   2.118   1.003   0.932
 2620SOL    HW2 8604   2.063   1.144   0.945
 2621SOL     OW 8605   2.472   1.790   1.429
 2621SOL    HW1 8606   2.390   1.774   1.476
 2621SOL    HW2 8607   2.496   1.879   1.454
 2622SOL     OW 8608   2.488   0.960   0.136
 2622SOL    HW1 8609   2.437   1.037   0.110
 2622SOL    HW2 8610   2.541   0.990   0.209
 2623SOL     OW 8611   3.448   0.136   1.455
 2623SOL    HW1 8612   3.473   0.220   1.417
 2623SOL    HW2 8613   3.444   0.153   1.549
 2624SOL     OW 8614   1.977   0.652   0.562
 2624SOL    HW1 8615   1.948   0.563   0.583
 2624SOL    HW2 8616   1.969   0.700   0.645
 2625SOL     OW 8617   3.708   1.757   0.330
 2625SOL    HW1 8618   3.774   1.727   0.393
 2625SOL    HW2 8619   3.732   1.848   0.312
 2626SOL     OW 8620   1.894   1.595   0.110
 2626SOL    HW1 8621   1.879   1.507   0.145
 2626SOL    HW2 8622   1.876   1.653   0.184
 2627SOL     OW 8623   3.551   0.919   0.645
 2627SOL    HW1 8624   3.632   0.875   0.622
 2627SOL    HW2 8625   3.528   0.970   0.568
 2628SOL     OW 8626   3.508   1.104   0.435
 2628SOL    HW1 8627   3.589   1.117   0.385
 2628SOL    HW2 8628   3.514   1.167   0.507
 2629SOL     OW 8629   1.985   0.744   1.584
 2629SOL    HW1 8630   2.077   0.771   1.591
 2629SOL    HW2 8631   1.936   0.826   1.592
 2630SOL     OW 8632   2.476   1.387   0.735
 2630SOL    HW1 8633   2.430   1.303   0.744
 2630SOL    HW2 8634   2.460   1.413   0.644
 2631SOL     OW 8635   3.150   1.238   1.423
 2631SOL    HW1 8636   3.182   1.170   1.363
 2631SOL    HW2 8637   3.208   1.232   1.499
 2632SOL     OW 8638   2.674   0.030   0.531
 2632SOL    HW1 8639   2.704   0.115   0.499
 2632SOL    HW2 8640   2.579   0.033   0.524
 2633SOL     OW 8641   2.052   0.966   1.272
 2633SOL    HW1 8642   2.137   0.924   1.257
 2633SOL    HW2 8643   1.990   0.911   1.223
 2634SOL     OW 8644   3.371   1.007   0.213
 2634SOL    HW1 8645   3.308   0.943   0.247
 2634SOL    HW2 8646   3.423   1.032   0.289
 2635SOL     OW 8647   3.046   1.807   1.623
 2635SOL    HW1 8648   3.056   1.867   1.548
 2635SOL    HW2 8649   3.064   1.721   1.586
 2636SOL     OW 8650   2.191   0.267   1.813
 2636SOL    HW1 8651   2.242   0.342   1.843
 2636SOL    HW2 8652   2.104   0.280   1.851
 2637SOL     OW 8653   3.329   1.419   0.951
 2637SOL    HW1 8654   3.261   1.435   1.016
 2637SOL    HW2 8655   3.316   1.328   0.924
 2638SOL     OW 8656   3.520   1.743   0.582
 2638SOL    HW1 8657   3.500   1.714   0.493
 2638SOL    HW2 8658   3.496   1.669   0.637
 2639SOL     OW 8659   2.460   0.713   0.283
 2639SOL    HW1 8660   2.477   0.792   0.231
 2639SOL    HW2 8661   2.395   0.741   0.347
 2640SOL     OW 8662   3.139   0.348   0.932
 2640SOL    HW1 8663   3.048   0.319   0.944
 2640SOL    HW2 8664   3.189   0.298   0.996
 2641SOL     OW 8665   3.449   1.672   0.320
 2641SOL    HW1 8666   3.540   1.700   0.312
 2641SOL    HW2 8667   3.421   1.655   0.230
 2642SOL     OW 8668   2.656   0.618   1.449
 2642SOL    HW1 8669   2.628   0.597   1.538
 2642SOL    HW2 8670   2.614   0.552   1.395
 2643SOL     OW 8671   3.256   0.475   1.678
 2643SOL    HW1 8672   3.259   0.520   1.763
 2643SOL    HW2 8673   3.320   0.404   1.687
 2644SOL     OW 8674   2.816   0.887   1.583
 2644SOL    HW1 8675   2.871   0.817   1.547
 2644SOL    HW2 8676   2.768   0.921   1.507
 2645SOL     OW 8677   2.856   0.417   1.234
 2645SOL    HW1 8678   2.770   0.437   1.271
 2645SOL    HW2 8679   2.837   0.369   1.154
 2646SOL     OW 8680   2.915   0.699   0.428
 2646SOL    HW1 8681   2.931   0.691   0.522
 2646SOL    HW2 8682   2.832   0.653   0.413
 2647SOL     OW 8683   1.951   0.822   0.776
 2647SOL    HW1 8684   2.031   0.814   0.828
 2647SOL    HW2 8685   1.907   0.899   0.812
 2648SOL     OW 8686   1.987   1.855   1.580
 2648SOL    HW1 8687   1.989   1.832   1.673
 2648SOL    HW2 8688   1.898   1.835   1.552
 2649SOL     OW 8689   2.749   0.359   0.203
 2649SOL    HW1 8690   2.793   0.407   0.133
 2649SOL    HW2 8691   2.731   0.273   0.166
 2650SOL     OW 8692   3.569   0.573   1.828
 2650SOL    HW1 8693   3.532   0.647   1.779
 2650SOL    HW2 8694   3.599   0.513   1.761
 2651SOL     OW 8695   3.239   1.142   0.541
 2651SOL    HW1 8696   3.317   1.129   0.488
 2651SOL    HW2 8697   3.186   1.204   0.492
 2652SOL     OW 8698   2.385   0.202   0.882
 2652SOL    HW1 8699   2.408   0.218   0.974
 2652SOL    HW2 8700   2.409   0.283   0.837
 2653SOL     OW 8701   2.866   1.444   0.472
 2653SOL    HW1 8702   2.829   1.517   0.423
 2653SOL    HW2 8703   2.847   1.465   0.564
 2654SOL     OW 8704   2.216   1.809   0.862
 2654SOL    HW1 8705   2.260   1.724   0.870
 2654SOL    HW2 8706   2.284   1.873   0.881
 2655SOL     OW 8707   3.662   1.056   0.869
 2655SOL    HW1 8708   3.608   1.036   0.792
 2655SOL    HW2 8709   3.599   1.062   0.941
 2656SOL     OW 8710   3.090   1.539   1.513
 2656SOL    HW1 8711   3.076   1.466   1.574
 2656SOL    HW2 8712   3.026   1.524   1.443
 2657SOL     OW 8713   2.187   0.943   0.256
 2657SOL    HW1 8714   2.257   0.983   0.204
 2657SOL    HW2 8715   2.187   0.851   0.231
 2658SOL     OW 8716   3.341   0.744   0.726
 2658SOL    HW1 8717   3.333   0.702   0.811
 2658SOL    HW2 8718   3.419   0.800   0.734
 2659SOL     OW 8719   2.329   1.266   1.738
 2659SOL    HW1 8720   2.302   1.270   1.646
 2659SOL    HW2 8721   2.247   1.263   1.787
 2660SOL     OW 8722   2.969   1.781   0.223
 2660SOL    HW1 8723   2.913   1.740   0.290
 2660SOL    HW2 8724   2.990   1.710   0.163
 2661SOL     OW 8725   2.059   0.278   1.504
 2661SOL    HW1 8726   1.980   0.331   1.501
 2661SOL    HW2 8727   2.052   0.228   1.585
 2662SOL     OW 8728   3.496   1.373   0.082
 2662SOL    HW1 8729   3.455   1.459   0.083
 2662SOL    HW2 8730   3.425   1.312   0.064
 2663SOL     OW 8731   2.326   1.738   0.322
 2663SOL    HW1 8732   2.371   1.794   0.386
 2663SOL    HW2 8733   2.396   1.707   0.264
 2664SOL     OW 8734   3.278   0.099   0.447
 2664SOL    HW1 8735   3.271   0.079   0.353
 2664SOL    HW2 8736   3.369   0.127   0.458
 2665SOL     OW 8737   2.118   1.792   1.231
 2665SOL    HW1 8738   2.170   1.726   1.277
 2665SOL    HW2 8739   2.110   1.758   1.142
 2666SOL     OW 8740   2.800   1.698   0.899
 2666SOL    HW1 8741   2.878   1.647   0.920
 2666SOL    HW2 8742   2.757   1.648   0.830
 2667SOL     OW 8743   2.248   0.698   0.476
 2667SOL    HW1 8744   2.272   0.606   0.487
 2667SOL    HW2 8745   2.155   0.702   0.499
 2668SOL     OW 8746   3.400   0.228   1.723
 2668SOL    HW1 8747   3.408   0.245   1.817
 2668SOL    HW2 8748   3.324   0.170   1.715
 2669SOL     OW 8749   2.487   0.137   0.124
 2669SOL    HW1 8750   2.579   0.110   0.133
 2669SOL    HW2 8751   2.459   0.099   0.041
 2670SOL     OW 8752   2.641   0.312   1.767
 2670SOL    HW1 8753   2.700   0.237   1.768
 2670SOL    HW2 8754   2.595   0.306   1.851
 2671SOL     OW 8755   2.737   1.521   1.194
 2671SOL    HW1 8756   2.722   1.485   1.107
 2671SOL    HW2 8757   2.808   1.467   1.230
 2672SOL     OW 8758   3.203   0.589   1.432
 2672SOL    HW1 8759   3.233   0.558   1.518
 2672SOL    HW2 8760   3.239   0.677   1.425
 2673SOL     OW 8761   2.678   1.394   0.941
 2673SOL    HW1 8762   2.762   1.382   0.897
 2673SOL    HW2 8763   2.614   1.396   0.869
 2674SOL     OW 8764   2.789   0.510   0.902
 2674SOL    HW1 8765   2.765   0.502   0.810
 2674SOL    HW2 8766   2.820   0.423   0.927
 2675SOL     OW 8767   2.404   0.061   0.511
 2675SOL    HW1 8768   2.318   0.058   0.552
 2675SOL    HW2 8769   2.398   0.130   0.445
 2676SOL     OW 8770   3.295   1.199   0.036
 2676SOL    HW1 8771   3.319   1.126   0.092
 2676SOL    HW2 8772   3.207   1.224   0.064
 2677SOL     OW 8773   2.162   0.071   0.206
 2677SOL    HW1 8774   2.220   0.142   0.177
 2677SOL    HW2 8775   2.215   5.291   0.195
 2678SOL     OW 8776   2.807   0.259   0.454
 2678SOL    HW1 8777   2.781   0.304   0.374
 2678SOL    HW2 8778   2.899   0.281   0.465
 2679SOL     OW 8779   2.943   0.682   1.459
 2679SOL    HW1 8780   2.875   0.615   1.464
 2679SOL    HW2 8781   3.025   0.633   1.453
 2680SOL     OW 8782   3.084   1.570   0.795
 2680SOL    HW1 8783   3.100   1.637   0.727
 2680SOL    HW2 8784   3.153   1.585   0.860
 2681SOL     OW 8785   2.330   1.152   0.733
 2681SOL    HW1 8786   2.262   1.131   0.797
 2681SOL    HW2 8787   2.289   1.135   0.648
 2682SOL     OW 8788   3.129   1.793   0.608
 2682SOL    HW1 8789   3.179   1.857   0.556
 2682SOL    HW2 8790   3.062   1.846   0.652
 2683SOL     OW 8791   2.891   0.526   0.032
 2683SOL    HW1 8792   2.852   0.609   0.003
 2683SOL    HW2 8793   2.955   0.553   0.099
 2684SOL     OW 8794   1.941   0.553   1.393
 2684SOL    HW1 8795   2.033   0.553   1.365
 2684SOL    HW2 8796   1.936   0.624   1.458
 2685SOL     OW 8797   2.417   0.238   1.159
 2685SOL    HW1 8798   2.449   0.153   1.187
 2685SOL    HW2 8799   2.325   0.239   1.185
 2686SOL     OW 8800   2.729   0.460   0.639
 2686SOL    HW1 8801   2.687   0.515   0.573
 2686SOL    HW2 8802   2.751   0.379   0.594
 2687SOL     OW 8803   2.838   0.062   0.764
 2687SOL    HW1 8804   2.775   0.057   0.692
 2687SOL    HW2 8805   2.850   5.271   0.791
 2688SOL     OW 8806   3.299   1.162   0.857
 2688SOL    HW1 8807   3.230   1.097   0.856
 2688SOL    HW2 8808   3.323   1.173   0.765
 2689SOL     OW 8809   3.328   0.607   0.976
 2689SOL    HW1 8810   3.278   0.526   0.979
 2689SOL    HW2 8811   3.388   0.601   1.050
 2690SOL     OW 8812   3.710   0.814   0.387
 2690SOL    HW1 8813   3.762   0.762   0.448
 2690SOL    HW2 8814   3.680   0.751   0.322
 2691SOL     OW 8815   2.344   1.440   0.173
 2691SOL    HW1 8816   2.271   1.399   0.220
 2691SOL    HW2 8817   2.353   1.388   0.093
 2692SOL     OW 8818   3.534   1.265   0.647
 2692SOL    HW1 8819   3.629   1.268   0.660
 2692SOL    HW2 8820   3.504   1.354   0.667
 2693SOL     OW 8821   3.261   0.577   0.088
 2693SOL    HW1 8822   3.198   0.559   0.157
 2693SOL    HW2 8823   3.314   0.497   0.083
 2694SOL     OW 8824   2.384   0.268   0.328
 2694SOL    HW1 8825   2.426   0.213   0.262
 2694SOL    HW2 8826   2.368   0.351   0.283
 2695SOL     OW 8827   3.614   1.240   1.571
 2695SOL    HW1 8828   3.701   1.201   1.567
 2695SOL    HW2 8829   3.629   1.330   1.600
 2696SOL     OW 8830   2.920   1.354   1.333
 2696SOL    HW1 8831   2.845   1.322   1.384
 2696SOL    HW2 8832   2.996   1.312   1.374
 2697SOL     OW 8833   3.470   1.626   1.655
 2697SOL    HW1 8834   3.464   1.660   1.565
 2697SOL    HW2 8835   3.553   1.578   1.656
 2698SOL     OW 8836   2.992   1.204   1.105
 2698SOL    HW1 8837   2.932   1.242   1.170
 2698SOL    HW2 8838   2.960   1.237   1.021
 2699SOL     OW 8839   3.489   1.098   1.077
 2699SOL    HW1 8840   3.484   1.160   1.150
 2699SOL    HW2 8841   3.411   1.115   1.025
 2700SOL     OW 8842   2.766   0.107   1.388
 2700SOL    HW1 8843   2.796   0.073   1.304
 2700SOL    HW2 8844   2.843   0.149   1.426
 2701SOL     OW 8845   2.846   1.115   1.723
 2701SOL    HW1 8846   2.754   1.131   1.744
 2701SOL    HW2 8847   2.845   1.037   1.667
 2702SOL     OW 8848   2.578   1.064   0.381
 2702SOL    HW1 8849   2.560   1.045   0.473
 2702SOL    HW2 8850   2.655   1.012   0.360
 2703SOL     OW 8851   2.281   0.816   1.252
 2703SOL    HW1 8852   2.349   0.825   1.318
 2703SOL    HW2 8853   2.246   0.728   1.265
 2704SOL     OW 8854   3.128   0.378   1.273
 2704SOL    HW1 8855   3.161   0.455   1.320
 2704SOL    HW2 8856   3.038   0.401   1.251
 2705SOL     OW 8857   1.934   1.574   1.354
 2705SOL    HW1 8858   1.904   1.646   1.298
 2705SOL    HW2 8859   2.029   1.575   1.347
 2706SOL     OW 8860   2.205   1.111   0.491
 2706SOL    HW1 8861   2.211   1.183   0.428
 2706SOL    HW2 8862   2.213   1.032   0.438
 2707SOL     OW 8863   2.414   0.537   0.860
 2707SOL    HW1 8864   2.429   0.595   0.786
 2707SOL    HW2 8865   2.481   0.563   0.925
 2708SOL     OW 8866   3.109   1.347   0.394
 2708SOL    HW1 8867   3.165   1.419   0.423
 2708SOL    HW2 8868   3.022   1.370   0.425
 2709SOL     OW 8869   3.145   1.458   1.147
 2709SOL    HW1 8870   3.200   1.461   1.225
 2709SOL    HW2 8871   3.089   1.381   1.160
 2710SOL     OW 8872   3.444   0.625   0.482
 2710SOL    HW1 8873   3.393   0.673   0.548
 2710SOL    HW2 8874   3.477   0.693   0.423
 2711SOL     OW 8875   2.208   1.528   1.314
 2711SOL    HW1 8876   2.196   1.485   1.230
 2711SOL    HW2 8877   2.303   1.540   1.322
 2712SOL     OW 8878   2.277   0.744   1.602
 2712SOL    HW1 8879   2.339   0.789   1.544
 2712SOL    HW2 8880   2.318   0.660   1.621
 2713SOL     OW 8881   3.465   0.779   1.682
 2713SOL    HW1 8882   3.379   0.820   1.676
 2713SOL    HW2 8883   3.517   0.821   1.614
 2714SOL     OW 8884   2.910   0.117   1.786
 2714SOL    HW1 8885   2.936   0.197   1.739
 2714SOL    HW2 8886   2.913   0.049   1.719
 2715SOL     OW 8887   2.345   0.058   1.738
 2715SOL    HW1 8888   2.285   5.293   1.700
 2715SOL    HW2 8889   2.289   0.132   1.759
 2716SOL     OW 8890   2.445   0.873   1.031
 2716SOL    HW1 8891   2.477   0.963   1.032
 2716SOL    HW2 8892   2.389   0.867   1.108
 2717SOL     OW 8893   3.218   0.859   1.029
 2717SOL    HW1 8894   3.135   0.849   0.982
 2717SOL    HW2 8895   3.260   0.773   1.022
 2718SOL     OW 8896   3.064   0.527   0.270
 2718SOL    HW1 8897   3.072   0.448   0.323
 2718SOL    HW2 8898   3.022   0.590   0.328
 2719SOL     OW 8899   2.158   0.203   1.248
 2719SOL    HW1 8900   2.118   0.242   1.326
 2719SOL    HW2 8901   2.158   0.109   1.267
 2720SOL     OW 8902   1.908   1.311   1.276
 2720SOL    HW1 8903   1.941   1.256   1.347
 2720SOL    HW2 8904   1.915   1.400   1.310
 2721SOL     OW 8905   2.587   0.632   1.059
 2721SOL    HW1 8906   2.661   0.615   1.000
 2721SOL    HW2 8907   2.558   0.720   1.036
 2722SOL     OW 8908   3.597   0.959   1.853
 2722SOL    HW1 8909   3.552   0.896   1.797
 2722SOL    HW2 8910   3.538   0.974   1.927
 2723SOL     OW 8911   2.166   0.070   0.654
 2723SOL    HW1 8912   2.146   0.164   0.659
 2723SOL    HW2 8913   2.213   0.052   0.735
 2724SOL     OW 8914   3.485   0.380   0.367
 2724SOL    HW1 8915   3.511   0.313   0.430
 2724SOL    HW2 8916   3.459   0.454   0.420
 2725SOL     OW 8917   2.890   0.759   0.960
 2725SOL    HW1 8918   2.885   0.776   1.054
 2725SOL    HW2 8919   2.863   0.668   0.951
 2726SOL     OW 8920   2.843   1.566   1.718
 2726SOL    HW1 8921   2.829   1.610   1.634
 2726SOL    HW2 8922   2.887   1.484   1.694
 2727SOL     OW 8923   3.716   1.505   1.605
 2727SOL    HW1 8924   3.735   1.531   1.515
 2727SOL    HW2 8925   3.797   1.522   1.653
 2728SOL     OW 8926   2.215   0.917   1.808
 2728SOL    HW1 8927   2.297   0.935   1.855
 2728SOL    HW2 8928   2.240   0.854   1.741
 2729SOL     OW 8929   3.381   0.305   0.126
 2729SOL    HW1 8930   3.347   0.217   0.139
 2729SOL    HW2 8931   3.422   0.328   0.210
 2730SOL     OW 8932   3.157   0.823   0.021
 2730SOL    HW1 8933   3.196   0.737   0.038
 2730SOL    HW2 8934   3.218   0.865   8.040
 2731SOL     OW 8935   2.928   1.336   0.855
 2731SOL    HW1 8936   2.931   1.264   0.792
 2731SOL    HW2 8937   2.989   1.401   0.820
 2732SOL     OW 8938   2.171   0.809   0.947
 2732SOL    HW1 8939   2.264   0.830   0.941
 2732SOL    HW2 8940   2.169   0.718   0.979
 2733SOL     OW 8941   2.193   0.527   1.013
 2733SOL    HW1 8942   2.157   0.440   0.998
 2733SOL    HW2 8943   2.270   0.531   0.956
 2734SOL     OW 8944   2.997   0.377   1.689
 2734SOL    HW1 8945   2.949   0.432   1.751
 2734SOL    HW2 8946   3.084   0.417   1.685
 2735SOL     OW 8947   2.994   0.222   1.466
 2735SOL    HW1 8948   2.998   0.281   1.541
 2735SOL    HW2 8949   3.050   0.263   1.400
 2736SOL     OW 8950   1.874   1.323   0.189
 2736SOL    HW1 8951   1.787   1.337   0.151
 2736SOL    HW2 8952   1.872   1.233   0.222
 2737SOL     OW 8953   1.952   1.786   0.938
 2737SOL    HW1 8954   1.922   1.707   0.894
 2737SOL    HW2 8955   2.042   1.798   0.907
 2738SOL     OW 8956   2.357   1.573   0.905
 2738SOL    HW1 8957   2.425   1.635   0.929
 2738SOL    HW2 8958   2.401   1.510   0.848
 2739SOL     OW 8959   2.843   0.792   1.226
 2739SOL    HW1 8960   2.900   0.769   1.300
 2739SOL    HW2 8961   2.758   0.753   1.249
 2740SOL     OW 8962   1.897   0.545   1.117
 2740SOL    HW1 8963   1.977   0.530   1.066
 2740SOL    HW2 8964   1.928   0.548   1.208
 2741SOL     OW 8965   2.048   0.523   1.728
 2741SOL    HW1 8966   2.112   0.487   1.666
 2741SOL    HW2 8967   2.010   0.597   1.681
 2742SOL     OW 8968   3.240   0.938   1.658
 2742SOL    HW1 8969   3.261   1.031   1.656
 2742SOL    HW2 8970   3.237   0.912   1.566
 2743SOL     OW 8971   2.681   0.570   0.369
 2743SOL    HW1 8972   2.690   0.499   0.306
 2743SOL    HW2 8973   2.604   0.620   0.340
 2744SOL     OW 8974   3.504   0.601   1.185
 2744SOL    HW1 8975   3.493   0.542   1.259
 2744SOL    HW2 8976   3.591   0.582   1.151
 2745SOL     OW 8977   2.104   1.551   1.727
 2745SOL    HW1 8978   2.082   1.615   1.795
 2745SOL    HW2 8979   2.108   1.467   1.772
 2746SOL     OW 8980   2.563   0.451   1.259
 2746SOL    HW1 8981   2.511   0.378   1.227
 2746SOL    HW2 8982   2.561   0.515   1.188
 2747SOL     OW 8983   2.788   1.680   1.469
 2747SOL    HW1 8984   2.764   1.644   1.383
 2747SOL    HW2 8985   2.785   1.774   1.457
 2748SOL     OW 8986   2.329   0.492   0.176
 2748SOL    HW1 8987   2.398   0.556   0.195
 2748SOL    HW2 8988   2.247   0.539   0.194
 2749SOL     OW 8989   2.007   1.141   1.472
 2749SOL    HW1 8990   2.009   1.090   1.554
 2749SOL    HW2 8991   2.024   1.077   1.404
 2750SOL     OW 8992   3.187   1.046   1.223
 2750SOL    HW1 8993   3.210   0.983   1.155
 2750SOL    HW2 8994   3.117   1.099   1.183
 2751SOL     OW 8995   3.168   0.848   0.308
 2751SOL    HW1 8996   3.091   0.818   0.357
 2751SOL    HW2 8997   3.144   0.837   0.216
 2752SOL     OW 8998   3.634   1.743   1.151
 2752SOL    HW1 8999   3.695   1.769   1.081
 2752SOL    HW2 9000   3.610   1.653   1.129
 2753SOL     OW 9001   3.103   1.732   1.111
 2753SOL    HW1 9002   3.185   1.754   1.067
 2753SOL    HW2 9003   3.110   1.639   1.130
 2754SOL     OW 9004   1.946   1.267   1.011
 2754SOL    HW1 9005   1.931   1.280   1.105
 2754SOL    HW2 9006   1.874   1.212   0.983
 2755SOL     OW 9007   2.540   1.667   1.731
 2755SOL    HW1 9008   2.486   1.746   1.725
 2755SOL    HW2 9009   2.607   1.678   1.663
 2756SOL     OW 9010   2.755   0.086   0.138
 2756SOL    HW1 9011   2.805   0.076   0.057
 2756SOL    HW2 9012   2.772   0.004   0.186
 2757SOL     OW 9013   3.574   0.150   0.503
 2757SOL    HW1 9014   3.648   0.129   0.446
 2757SOL    HW2 9015   3.567   0.075   0.563
 2758SOL     OW 9016   3.252   1.568   0.487
 2758SOL    HW1 9017   3.315   1.601   0.423
 2758SOL    HW2 9018   3.204   1.646   0.516
 2759SOL     OW 9019   1.998   1.797   1.844
 2759SOL    HW1 9020   1.948   1.731   1.891
 2759SOL    HW2 9021   2.046   1.844   1.912
 2760SOL     OW 9022   3.139   0.926   0.672
 2760SOL    HW1 9023   3.213   0.865   0.679
 2760SOL    HW2 9024   3.173   0.998   0.619
 2761SOL     OW 9025   2.675   1.274   1.429
 2761SOL    HW1 9026   2.647   1.313   1.511
 2761SOL    HW2 9027   2.606   1.296   1.367
 2762SOL     OW 9028   2.536   1.623   0.156
 2762SOL    HW1 9029   2.544   1.629   0.061
 2762SOL    HW2 9030   2.476   1.550   0.171
 2763SOL     OW 9031   3.486   1.727   1.391
 2763SOL    HW1 9032   3.537   1.733   1.310
 2763SOL    HW2 9033   3.473   1.817   1.418
 2764SOL     OW 9034   3.708   0.156   0.956
 2764SOL    HW1 9035   3.705   0.060   0.949
 2764SOL    HW2 9036   3.621   0.184   0.927
 2765SOL     OW 9037   2.123   0.329   0.719
 2765SOL    HW1 9038   2.035   0.360   0.698
 2765SOL    HW2 9039   2.122   0.317   0.814
 2766SOL     OW 9040   3.019   1.581   0.051
 2766SOL    HW1 9041   3.033   1.489   0.072
 2766SOL    HW2 9042   3.031   1.586   8.036
 2767SOL     OW 9043   2.686   1.006   1.373
 2767SOL    HW1 9044   2.731   1.001   1.288
 2767SOL    HW2 9045   2.685   1.099   1.394
 2768SOL     OW 9046   2.782   0.915   0.299
 2768SOL    HW1 9047   2.835   0.938   0.223
 2768SOL    HW2 9048   2.829   0.842   0.340
 2769SOL     OW 9049   3.372   1.623   0.061
 2769SOL    HW1 9050   3.277   1.623   0.049
 2769SOL    HW2 9051   3.407   1.626   8.052
 2770SOL     OW 9052   2.230   1.304   1.492
 2770SOL    HW1 9053   2.217   1.380   1.436
 2770SOL    HW2 9054   2.154   1.248   1.476
 2771SOL     OW 9055   3.472   1.283   1.280
 2771SOL    HW1 9056   3.532   1.271   1.354
 2771SOL    HW2 9057   3.412   1.352   1.309
 2772SOL     OW 9058   2.915   1.108   0.708
 2772SOL    HW1 9059   2.844   1.056   0.746
 2772SOL    HW2 9060   2.978   1.043   0.676
 2773SOL     OW 9061   2.880   0.243   0.969
 2773SOL    HW1 9062   2.861   0.197   0.887
 2773SOL    HW2 9063   2.874   0.176   1.036
 2774SOL     OW 9064   2.466   1.487   0.479
 2774SOL    HW1 9065   2.511   1.436   0.412
 2774SOL    HW2 9066   2.394   1.530   0.432
 2775SOL     OW 9067   3.587   0.386   1.378
 2775SOL    HW1 9068   3.658   0.451   1.377
 2775SOL    HW2 9069   3.619   0.317   1.320
 2776SOL     OW 9070   2.129   1.319   0.294
 2776SOL    HW1 9071   2.043   1.329   0.253
 2776SOL    HW2 9072   2.121   1.364   0.378
 2777SOL     OW 9073   1.975   1.024   1.720
 2777SOL    HW1 9074   1.899   1.000   1.773
 2777SOL    HW2 9075   2.049   0.985   1.766
 2778SOL     OW 9076   2.535   0.213   1.489
 2778SOL    HW1 9077   2.618   0.195   1.445
 2778SOL    HW2 9078   2.559   0.262   1.568
 2779SOL     OW 9079   1.931   0.362   0.033
 2779SOL    HW1 9080   1.859   0.299   0.025
 2779SOL    HW2 9081   1.944   0.395   8.025
 2780SOL     OW 9082   3.291   0.858   1.400
 2780SOL    HW1 9083   3.242   0.919   1.344
 2780SOL    HW2 9084   3.380   0.861   1.365
 2781SOL     OW 9085   1.929   0.165   0.313
 2781SOL    HW1 9086   1.937   0.253   0.277
 2781SOL    HW2 9087   2.014   0.124   0.296
 2782SOL     OW 9088   3.047   1.317   0.121
 2782SOL    HW1 9089   2.952   1.306   0.119
 2782SOL    HW2 9090   3.069   1.318   0.214
 2783SOL     OW 9091   2.481   0.830   1.434
 2783SOL    HW1 9092   2.537   0.907   1.418
 2783SOL    HW2 9093   2.542   0.757   1.442
 2784SOL     OW 9094   3.346   1.777   0.979
 2784SOL    HW1 9095   3.369   1.839   0.910
 2784SOL    HW2 9096   3.428   1.758   1.023
 2785SOL     OW 9097   2.577   0.573   1.702
 2785SOL    HW1 9098   2.619   0.635   1.761
 2785SOL    HW2 9099   2.606   0.487   1.733
 2786SOL     OW 9100   3.334   1.199   1.631
 2786SOL    HW1 9101   3.322   1.213   1.725
 2786SOL    HW2 9102   3.427   1.215   1.617
 2787SOL     OW 9103   2.239   1.740   1.564
 2787SOL    HW1 9104   2.154   1.782   1.550
 2787SOL    HW2 9105   2.218   1.656   1.605
 2788SOL     OW 9106   3.531   0.881   1.255
 2788SOL    HW1 9107   3.525   0.796   1.212
 2788SOL    HW2 9108   3.521   0.944   1.184
 2789SOL     OW 9109   3.077   0.327   0.474
 2789SOL    HW1 9110   3.135   0.253   0.458
 2789SOL    HW2 9111   3.116   0.374   0.547
 2790SOL     OW 9112   2.449   0.737   0.670
 2790SOL    HW1 9113   2.490   0.822   0.656
 2790SOL    HW2 9114   2.382   0.730   0.603
 2791SOL     OW 9115   3.628   0.362   1.649
 2791SOL    HW1 9116   3.609   0.377   1.556
 2791SOL    HW2 9117   3.556   0.306   1.680
 2792SOL     OW 9118   3.607   0.934   1.512
 2792SOL    HW1 9119   3.603   1.028   1.525
 2792SOL    HW2 9120   3.592   0.922   1.418
 2793SOL     OW 9121   2.759   1.372   0.039
 2793SOL    HW1 9122   2.695   1.362   0.109
 2793SOL    HW2 9123   2.740   1.457   0.000
 2794SOL     OW 9124   2.524   1.784   0.943
 2794SOL    HW1 9125   2.503   1.875   0.922
 2794SOL    HW2 9126   2.620   1.780   0.939
 2795SOL     OW 9127   2.729   0.967   0.855
 2795SOL    HW1 9128   2.780   0.896   0.894
 2795SOL    HW2 9129   2.695   1.015   0.930
 2796SOL     OW 9130   2.939   0.976   0.086
 2796SOL    HW1 9131   2.927   1.038   0.014
 2796SOL    HW2 9132   3.016   0.925   0.061
 2797SOL     OW 9133   3.715   1.554   0.844
 2797SOL    HW1 9134   3.636   1.543   0.791
 2797SOL    HW2 9135   3.707   1.488   0.913
 2798SOL     OW 9136   2.087   1.303   1.855
 2798SOL    HW1 9137   2.021   1.240   1.826
 2798SOL    HW2 9138   2.069   1.315   1.948
 2799SOL     OW 9139   1.948   1.232   0.665
 2799SOL    HW1 9140   1.951   1.184   0.748
 2799SOL    HW2 9141   2.019   1.195   0.613
 2800SOL     OW 9142   2.543   1.404   1.627
 2800SOL    HW1 9143   2.464   1.360   1.660
 2800SOL    HW2 9144   2.539   1.492   1.665
 2801SOL     OW 9145   3.674   0.176   1.232
 2801SOL    HW1 9146   3.640   0.087   1.235
 2801SOL    HW2 9147   3.695   0.190   1.139
 2802SOL     OW 9148   2.287   0.439   0.523
 2802SOL    HW1 9149   2.324   0.367   0.472
 2802SOL    HW2 9150   2.243   0.396   0.596
 2803SOL     OW 9151   3.562   1.489   1.095
 2803SOL    HW1 9152   3.481   1.466   1.049
 2803SOL    HW2 9153   3.572   1.419   1.160
 2804SOL     OW 9154   2.191   0.557   1.291
 2804SOL    HW1 9155   2.247   0.502   1.346
 2804SOL    HW2 9156   2.211   0.529   1.201
 2805SOL     OW 9157   2.690   1.578   0.677
 2805SOL    HW1 9158   2.676   1.632   0.600
 2805SOL    HW2 9159   2.614   1.520   0.681
 2806SOL     OW 9160   3.290   0.219   1.116
 2806SOL    HW1 9161   3.326   0.144   1.164
 2806SOL    HW2 9162   3.241   0.268   1.183
 2807SOL     OW 9163   2.865   0.021   1.139
 2807SOL    HW1 9164   2.814   5.252   1.095
 2807SOL    HW2 9165   2.951   5.282   1.153
 2808SOL     OW 9166   2.632   1.328   0.310
 2808SOL    HW1 9167   2.602   1.238   0.324
 2808SOL    HW2 9168   2.714   1.333   0.358
 2809SOL     OW 9169   2.481   1.556   1.285
 2809SOL    HW1 9170   2.484   1.638   1.334
 2809SOL    HW2 9171   2.569   1.548   1.248
 2810SOL     OW 9172   3.257   0.047   0.168
 2810SOL    HW1 9173   3.246   0.027   0.075
 2810SOL    HW2 9174   3.171   0.076   0.197
 2811SOL     OW 9175   3.170   0.468   0.689
 2811SOL    HW1 9176   3.113   0.544   0.692
 2811SOL    HW2 9177   3.159   0.426   0.774
 2812SOL     OW 9178   3.456   0.215   0.883
 2812SOL    HW1 9179   3.391   0.227   0.951
 2812SOL    HW2 9180   3.449   0.294   0.828
 2813SOL     OW 9181   1.906   1.066   0.305
 2813SOL    HW1 9182   2.001   1.065   0.308
 2813SOL    HW2 9183   1.879   0.983   0.344
 2814SOL     OW 9184   2.745   1.654   0.347
 2814SOL    HW1 9185   2.676   1.638   0.282
 2814SOL    HW2 9186   2.713   1.729   0.397
 2815SOL     OW 9187   2.089   0.626   1.986
 2815SOL    HW1 9188   2.001   0.621   2.022
 2815SOL    HW2 9189   2.079   0.599   1.894
 2816SOL     OW 9190   2.080   0.285   2.855
 2816SOL    HW1 9191   2.108   0.249   2.939
 2816SOL    HW2 9192   1.995   0.242   2.839
 2817SOL     OW 9193   1.865   0.387   2.500
 2817SOL    HW1 9194   1.781   0.408   2.540
 2817SOL    HW2 9195   1.848   0.310   2.446
 2818SOL     OW 9196   2.425   1.282   3.035
 2818SOL    HW1 9197   2.338   1.290   2.997
 2818SOL    HW2 9198   2.445   1.370   3.067
 2819SOL     OW 9199   3.424   1.512   2.569
 2819SOL    HW1 9200   3.382   1.491   2.652
 2819SOL    HW2 9201   3.353   1.516   2.506
 2820SOL     OW 9202   2.994   0.698   2.563
 2820SOL    HW1 9203   3.042   0.779   2.548
 2820SOL    HW2 9204   2.946   0.712   2.644
 2821SOL     OW 9205   3.630   0.605   2.090
 2821SOL    HW1 9206   3.609   0.598   1.997
 2821SOL    HW2 9207   3.594   0.525   2.129
 2822SOL     OW 9208   2.616   1.141   2.903
 2822SOL    HW1 9209   2.546   1.175   2.959
 2822SOL    HW2 9210   2.652   1.218   2.860
 2823SOL     OW 9211   2.730   0.775   3.685
 2823SOL    HW1 9212   2.718   0.847   3.747
 2823SOL    HW2 9213   2.754   0.819   3.603
 2824SOL     OW 9214   2.548   1.002   2.508
 2824SOL    HW1 9215   2.613   0.991   2.577
 2824SOL    HW2 9216   2.479   1.054   2.549
 2825SOL     OW 9217   2.573   1.150   3.675
 2825SOL    HW1 9218   2.620   1.229   3.703
 2825SOL    HW2 9219   2.490   1.183   3.639
 2826SOL     OW 9220   2.191   1.423   2.928
 2826SOL    HW1 9221   2.118   1.385   2.878
 2826SOL    HW2 9222   2.241   1.473   2.864
 2827SOL     OW 9223   3.324   1.500   3.216
 2827SOL    HW1 9224   3.375   1.580   3.228
 2827SOL    HW2 9225   3.255   1.505   3.282
 2828SOL     OW 9226   2.307   0.398   3.346
 2828SOL    HW1 9227   2.381   0.338   3.346
 2828SOL    HW2 9228   2.231   0.341   3.362
 2829SOL     OW 9229   3.472   0.451   2.601
 2829SOL    HW1 9230   3.396   0.474   2.546
 2829SOL    HW2 9231   3.488   0.530   2.652
 2830SOL     OW 9232   2.081   1.715   2.334
 2830SOL    HW1 9233   2.103   1.792   2.387
 2830SOL    HW2 9234   2.154   1.707   2.273
 2831SOL     OW 9235   2.996   1.342   3.556
 2831SOL    HW1 9236   3.041   1.335   3.640
 2831SOL    HW2 9237   2.945   1.261   3.549
 2832SOL     OW 9238   2.093   1.442   2.397
 2832SOL    HW1 9239   2.074   1.536   2.401
 2832SOL    HW2 9240   2.033   1.403   2.461
 2833SOL     OW 9241   2.120   1.090   2.753
 2833SOL    HW1 9242   2.118   1.003   2.793
 2833SOL    HW2 9243   2.063   1.144   2.807
 2834SOL     OW 9244   2.488   1.724   3.307
 2834SOL    HW1 9245   2.400   1.727   3.344
 2834SOL    HW2 9246   2.498   1.807   3.260
 2835SOL     OW 9247   2.446   0.983   1.997
 2835SOL    HW1 9248   2.493   1.030   1.929
 2835SOL    HW2 9249   2.486   1.013   2.079
 2836SOL     OW 9250   3.448   0.136   3.317
 2836SOL    HW1 9251   3.473   0.220   3.279
 2836SOL    HW2 9252   3.444   0.153   3.411
 2837SOL     OW 9253   1.977   0.654   2.422
 2837SOL    HW1 9254   1.949   0.565   2.443
 2837SOL    HW2 9255   1.969   0.702   2.504
 2838SOL     OW 9256   3.704   1.758   2.196
 2838SOL    HW1 9257   3.770   1.730   2.260
 2838SOL    HW2 9258   3.727   1.849   2.177
 2839SOL     OW 9259   1.895   1.594   1.985
 2839SOL    HW1 9260   1.877   1.502   2.005
 2839SOL    HW2 9261   1.871   1.641   2.065
 2840SOL     OW 9262   3.551   0.918   2.504
 2840SOL    HW1 9263   3.634   0.875   2.482
 2840SOL    HW2 9264   3.529   0.969   2.425
 2841SOL     OW 9265   3.508   1.106   2.291
 2841SOL    HW1 9266   3.594   1.111   2.249
 2841SOL    HW2 9267   3.514   1.168   2.364
 2842SOL     OW 9268   1.985   0.744   3.446
 2842SOL    HW1 9269   2.077   0.771   3.453
 2842SOL    HW2 9270   1.936   0.826   3.454
 2843SOL     OW 9271   2.476   1.386   2.597
 2843SOL    HW1 9272   2.430   1.303   2.606
 2843SOL    HW2 9273   2.460   1.412   2.507
 2844SOL     OW 9274   3.147   1.232   3.286
 2844SOL    HW1 9275   3.182   1.167   3.225
 2844SOL    HW2 9276   3.207   1.231   3.360
 2845SOL     OW 9277   2.674   0.029   2.392
 2845SOL    HW1 9278   2.702   0.117   2.365
 2845SOL    HW2 9279   2.578   0.032   2.385
 2846SOL     OW 9280   2.051   0.965   3.134
 2846SOL    HW1 9281   2.137   0.924   3.120
 2846SOL    HW2 9282   1.990   0.912   3.084
 2847SOL     OW 9283   3.393   0.994   2.061
 2847SOL    HW1 9284   3.323   0.937   2.093
 2847SOL    HW2 9285   3.435   1.029   2.140
 2848SOL     OW 9286   2.191   0.267   3.675
 2848SOL    HW1 9287   2.242   0.342   3.705
 2848SOL    HW2 9288   2.104   0.280   3.713
 2849SOL     OW 9289   3.329   1.420   2.813
 2849SOL    HW1 9290   3.261   1.435   2.879
 2849SOL    HW2 9291   3.316   1.329   2.786
 2850SOL     OW 9292   3.519   1.742   2.440
 2850SOL    HW1 9293   3.501   1.712   2.351
 2850SOL    HW2 9294   3.495   1.668   2.496
 2851SOL     OW 9295   2.456   0.720   2.129
 2851SOL    HW1 9296   2.462   0.802   2.079
 2851SOL    HW2 9297   2.391   0.737   2.197
 2852SOL     OW 9298   3.140   0.348   2.793
 2852SOL    HW1 9299   3.049   0.320   2.806
 2852SOL    HW2 9300   3.190   0.298   2.857
 2853SOL     OW 9301   3.442   1.671   2.171
 2853SOL    HW1 9302   3.533   1.701   2.164
 2853SOL    HW2 9303   3.415   1.654   2.081
 2854SOL     OW 9304   2.656   0.618   3.311
 2854SOL    HW1 9305   2.628   0.597   3.400
 2854SOL    HW2 9306   2.614   0.551   3.257
 2855SOL     OW 9307   3.256   0.475   3.540
 2855SOL    HW1 9308   3.259   0.520   3.625
 2855SOL    HW2 9309   3.320   0.404   3.549
 2856SOL     OW 9310   2.816   0.887   3.445
 2856SOL    HW1 9311   2.871   0.818   3.409
 2856SOL    HW2 9312   2.768   0.922   3.369
 2857SOL     OW 9313   2.856   0.416   3.097
 2857SOL    HW1 9314   2.770   0.438   3.133
 2857SOL    HW2 9315   2.836   0.369   3.016
 2858SOL     OW 9316   2.913   0.698   2.288
 2858SOL    HW1 9317   2.929   0.691   2.382
 2858SOL    HW2 9318   2.830   0.652   2.275
 2859SOL     OW 9319   1.950   0.821   2.639
 2859SOL    HW1 9320   2.031   0.814   2.689
 2859SOL    HW2 9321   1.907   0.899   2.674
 2860SOL     OW 9322   1.997   1.846   3.440
 2860SOL    HW1 9323   1.994   1.829   3.534
 2860SOL    HW2 9324   1.905   1.842   3.412
 2861SOL     OW 9325   2.738   0.366   2.051
 2861SOL    HW1 9326   2.777   0.425   1.987
 2861SOL    HW2 9327   2.794   0.288   2.049
 2862SOL     OW 9328   3.569   0.573   3.690
 2862SOL    HW1 9329   3.532   0.647   3.641
 2862SOL    HW2 9330   3.599   0.513   3.622
 2863SOL     OW 9331   3.239   1.142   2.403
 2863SOL    HW1 9332   3.318   1.130   2.350
 2863SOL    HW2 9333   3.187   1.204   2.353
 2864SOL     OW 9334   2.387   0.202   2.744
 2864SOL    HW1 9335   2.409   0.218   2.836
 2864SOL    HW2 9336   2.409   0.284   2.700
 2865SOL     OW 9337   2.866   1.443   2.333
 2865SOL    HW1 9338   2.830   1.517   2.284
 2865SOL    HW2 9339   2.849   1.464   2.425
 2866SOL     OW 9340   2.217   1.807   2.725
 2866SOL    HW1 9341   2.258   1.721   2.732
 2866SOL    HW2 9342   2.287   1.869   2.745
 2867SOL     OW 9343   3.661   1.056   2.731
 2867SOL    HW1 9344   3.607   1.037   2.654
 2867SOL    HW2 9345   3.599   1.062   2.803
 2868SOL     OW 9346   3.103   1.524   3.371
 2868SOL    HW1 9347   3.078   1.456   3.432
 2868SOL    HW2 9348   3.024   1.542   3.320
 2869SOL     OW 9349   2.181   0.958   2.113
 2869SOL    HW1 9350   2.263   0.977   2.068
 2869SOL    HW2 9351   2.151   0.876   2.075
 2870SOL     OW 9352   3.341   0.744   2.588
 2870SOL    HW1 9353   3.334   0.702   2.674
 2870SOL    HW2 9354   3.419   0.800   2.595
 2871SOL     OW 9355   2.328   1.266   3.601
 2871SOL    HW1 9356   2.301   1.270   3.509
 2871SOL    HW2 9357   2.246   1.263   3.649
 2872SOL     OW 9358   2.983   1.778   2.092
 2872SOL    HW1 9359   2.911   1.736   2.138
 2872SOL    HW2 9360   3.007   1.716   2.023
 2873SOL     OW 9361   2.059   0.277   3.366
 2873SOL    HW1 9362   1.980   0.332   3.363
 2873SOL    HW2 9363   2.052   0.228   3.447
 2874SOL     OW 9364   3.490   1.380   1.950
 2874SOL    HW1 9365   3.449   1.465   1.935
 2874SOL    HW2 9366   3.422   1.316   1.931
 2875SOL     OW 9367   2.328   1.738   2.182
 2875SOL    HW1 9368   2.372   1.791   2.247
 2875SOL    HW2 9369   2.398   1.704   2.126
 2876SOL     OW 9370   3.270   0.100   2.294
 2876SOL    HW1 9371   3.262   0.081   2.200
 2876SOL    HW2 9372   3.362   0.122   2.307
 2877SOL     OW 9373   2.113   1.787   3.094
 2877SOL    HW1 9374   2.165   1.721   3.140
 2877SOL    HW2 9375   2.112   1.758   3.003
 2878SOL     OW 9376   2.799   1.699   2.762
 2878SOL    HW1 9377   2.877   1.649   2.785
 2878SOL    HW2 9378   2.758   1.647   2.692
 2879SOL     OW 9379   2.255   0.696   2.337
 2879SOL    HW1 9380   2.275   0.604   2.348
 2879SOL    HW2 9381   2.161   0.703   2.355
 2880SOL     OW 9382   3.400   0.227   3.585
 2880SOL    HW1 9383   3.408   0.245   3.679
 2880SOL    HW2 9384   3.324   0.171   3.577
 2881SOL     OW 9385   2.486   0.132   1.969
 2881SOL    HW1 9386   2.548   0.064   1.995
 2881SOL    HW2 9387   2.434   0.093   1.899
 2882SOL     OW 9388   2.641   0.312   3.629
 2882SOL    HW1 9389   2.700   0.237   3.630
 2882SOL    HW2 9390   2.595   0.306   3.713
 2883SOL     OW 9391   2.744   1.521   3.052
 2883SOL    HW1 9392   2.729   1.484   2.965
 2883SOL    HW2 9393   2.813   1.466   3.090
 2884SOL     OW 9394   3.203   0.589   3.294
 2884SOL    HW1 9395   3.233   0.558   3.379
 2884SOL    HW2 9396   3.238   0.677   3.286
 2885SOL     OW 9397   2.678   1.394   2.803
 2885SOL    HW1 9398   2.762   1.382   2.759
 2885SOL    HW2 9399   2.614   1.396   2.731
 2886SOL     OW 9400   2.790   0.510   2.765
 2886SOL    HW1 9401   2.765   0.502   2.673
 2886SOL    HW2 9402   2.820   0.423   2.789
 2887SOL     OW 9403   2.404   0.062   2.369
 2887SOL    HW1 9404   2.319   0.060   2.413
 2887SOL    HW2 9405   2.397   0.132   2.304
 2888SOL     OW 9406   3.290   1.198   1.903
 2888SOL    HW1 9407   3.320   1.123   1.953
 2888SOL    HW2 9408   3.205   1.220   1.940
 2889SOL     OW 9409   2.163   0.063   2.054
 2889SOL    HW1 9410   2.221   0.134   2.025
 2889SOL    HW2 9411   2.220   5.286   2.060
 2890SOL     OW 9412   2.801   0.263   2.324
 2890SOL    HW1 9413   2.774   0.300   2.240
 2890SOL    HW2 9414   2.897   0.274   2.324
 2891SOL     OW 9415   2.943   0.682   3.321
 2891SOL    HW1 9416   2.875   0.615   3.326
 2891SOL    HW2 9417   3.025   0.633   3.315
 2892SOL     OW 9418   3.085   1.569   2.655
 2892SOL    HW1 9419   3.101   1.637   2.589
 2892SOL    HW2 9420   3.150   1.585   2.722
 2893SOL     OW 9421   2.331   1.150   2.594
 2893SOL    HW1 9422   2.262   1.130   2.658
 2893SOL    HW2 9423   2.290   1.134   2.509
 2894SOL     OW 9424   3.130   1.793   2.471
 2894SOL    HW1 9425   3.177   1.855   2.414
 2894SOL    HW2 9426   3.064   1.847   2.515
 2895SOL     OW 9427   2.887   0.545   1.885
 2895SOL    HW1 9428   2.844   0.629   1.867
 2895SOL    HW2 9429   2.950   0.565   1.954
 2896SOL     OW 9430   1.941   0.553   3.255
 2896SOL    HW1 9431   2.033   0.553   3.227
 2896SOL    HW2 9432   1.936   0.624   3.320
 2897SOL     OW 9433   2.416   0.238   3.020
 2897SOL    HW1 9434   2.448   0.153   3.049
 2897SOL    HW2 9435   2.324   0.239   3.047
 2898SOL     OW 9436   2.728   0.463   2.503
 2898SOL    HW1 9437   2.682   0.517   2.439
 2898SOL    HW2 9438   2.752   0.383   2.456
 2899SOL     OW 9439   2.840   0.061   2.625
 2899SOL    HW1 9440   2.775   0.057   2.555
 2899SOL    HW2 9441   2.850   5.270   2.654
 2900SOL     OW 9442   3.300   1.162   2.719
 2900SOL    HW1 9443   3.230   1.097   2.719
 2900SOL    HW2 9444   3.324   1.172   2.627
 2901SOL     OW 9445   3.328   0.607   2.838
 2901SOL    HW1 9446   3.278   0.525   2.842
 2901SOL    HW2 9447   3.388   0.601   2.912
 2902SOL     OW 9448   3.707   0.816   2.245
 2902SOL    HW1 9449   3.763   0.765   2.303
 2902SOL    HW2 9450   3.679   0.753   2.178
 2903SOL     OW 9451   2.352   1.419   2.018
 2903SOL    HW1 9452   2.277   1.390   2.069
 2903SOL    HW2 9453   2.341   1.376   1.933
 2904SOL     OW 9454   3.533   1.264   2.507
 2904SOL    HW1 9455   3.628   1.267   2.521
 2904SOL    HW2 9456   3.503   1.352   2.528
 2905SOL     OW 9457   3.256   0.572   1.933
 2905SOL    HW1 9458   3.194   0.552   2.004
 2905SOL    HW2 9459   3.341   0.542   1.966
 2906SOL     OW 9460   2.385   0.265   2.183
 2906SOL    HW1 9461   2.431   0.217   2.114
 2906SOL    HW2 9462   2.363   0.349   2.143
 2907SOL     OW 9463   3.614   1.240   3.434
 2907SOL    HW1 9464   3.702   1.201   3.429
 2907SOL    HW2 9465   3.629   1.330   3.461
 2908SOL     OW 9466   2.918   1.348   3.189
 2908SOL    HW1 9467   2.845   1.319   3.243
 2908SOL    HW2 9468   2.996   1.314   3.234
 2909SOL     OW 9469   3.472   1.626   3.519
 2909SOL    HW1 9470   3.462   1.659   3.430
 2909SOL    HW2 9471   3.555   1.578   3.518
 2910SOL     OW 9472   2.991   1.200   2.965
 2910SOL    HW1 9473   2.936   1.241   3.033
 2910SOL    HW2 9474   2.959   1.237   2.883
 2911SOL     OW 9475   3.490   1.098   2.939
 2911SOL    HW1 9476   3.485   1.160   3.012
 2911SOL    HW2 9477   3.411   1.115   2.887
 2912SOL     OW 9478   2.766   0.107   3.250
 2912SOL    HW1 9479   2.796   0.073   3.165
 2912SOL    HW2 9480   2.843   0.149   3.288
 2913SOL     OW 9481   2.846   1.114   3.586
 2913SOL    HW1 9482   2.754   1.130   3.606
 2913SOL    HW2 9483   2.845   1.037   3.529
 2914SOL     OW 9484   2.571   1.062   2.233
 2914SOL    HW1 9485   2.557   1.045   2.326
 2914SOL    HW2 9486   2.647   1.008   2.210
 2915SOL     OW 9487   2.281   0.816   3.114
 2915SOL    HW1 9488   2.350   0.825   3.180
 2915SOL    HW2 9489   2.246   0.728   3.127
 2916SOL     OW 9490   3.128   0.378   3.135
 2916SOL    HW1 9491   3.161   0.455   3.182
 2916SOL    HW2 9492   3.038   0.401   3.113
 2917SOL     OW 9493   1.933   1.573   3.215
 2917SOL    HW1 9494   1.905   1.648   3.163
 2917SOL    HW2 9495   2.028   1.576   3.212
 2918SOL     OW 9496   2.208   1.111   2.352
 2918SOL    HW1 9497   2.214   1.183   2.290
 2918SOL    HW2 9498   2.206   1.032   2.297
 2919SOL     OW 9499   2.415   0.537   2.722
 2919SOL    HW1 9500   2.429   0.595   2.648
 2919SOL    HW2 9501   2.481   0.563   2.787
 2920SOL     OW 9502   3.110   1.349   2.251
 2920SOL    HW1 9503   3.166   1.420   2.282
 2920SOL    HW2 9504   3.023   1.370   2.285
 2921SOL     OW 9505   3.145   1.457   3.010
 2921SOL    HW1 9506   3.201   1.463   3.088
 2921SOL    HW2 9507   3.088   1.383   3.026
 2922SOL     OW 9508   3.443   0.622   2.342
 2922SOL    HW1 9509   3.396   0.675   2.406
 2922SOL    HW2 9510   3.488   0.686   2.286
 2923SOL     OW 9511   2.209   1.524   3.175
 2923SOL    HW1 9512   2.192   1.482   3.090
 2923SOL    HW2 9513   2.304   1.531   3.180
 2924SOL     OW 9514   2.277   0.744   3.464
 2924SOL    HW1 9515   2.338   0.789   3.406
 2924SOL    HW2 9516   2.319   0.660   3.483
 2925SOL     OW 9517   3.465   0.779   3.544
 2925SOL    HW1 9518   3.379   0.821   3.538
 2925SOL    HW2 9519   3.517   0.821   3.476
 2926SOL     OW 9520   2.910   0.117   3.648
 2926SOL    HW1 9521   2.936   0.197   3.601
 2926SOL    HW2 9522   2.913   0.049   3.581
 2927SOL     OW 9523   2.345   0.058   3.600
 2927SOL    HW1 9524   2.285   5.293   3.562
 2927SOL    HW2 9525   2.289   0.132   3.621
 2928SOL     OW 9526   2.446   0.873   2.894
 2928SOL    HW1 9527   2.477   0.963   2.893
 2928SOL    HW2 9528   2.389   0.868   2.971
 2929SOL     OW 9529   3.218   0.858   2.889
 2929SOL    HW1 9530   3.134   0.848   2.845
 2929SOL    HW2 9531   3.260   0.772   2.883
 2930SOL     OW 9532   3.067   0.528   2.128
 2930SOL    HW1 9533   3.072   0.447   2.180
 2930SOL    HW2 9534   3.024   0.591   2.186
 2931SOL     OW 9535   2.157   0.203   3.110
 2931SOL    HW1 9536   2.118   0.242   3.188
 2931SOL    HW2 9537   2.158   0.109   3.129
 2932SOL     OW 9538   1.907   1.311   3.138
 2932SOL    HW1 9539   1.941   1.256   3.209
 2932SOL    HW2 9540   1.914   1.400   3.171
 2933SOL     OW 9541   2.586   0.632   2.921
 2933SOL    HW1 9542   2.661   0.616   2.863
 2933SOL    HW2 9543   2.558   0.720   2.899
 2934SOL     OW 9544   3.598   0.959   3.716
 2934SOL    HW1 9545   3.552   0.897   3.659
 2934SOL    HW2 9546   3.537   0.974   3.789
 2935SOL     OW 9547   2.167   0.071   2.517
 2935SOL    HW1 9548   2.147   0.165   2.521
 2935SOL    HW2 9549   2.213   0.053   2.599
 2936SOL     OW 9550   3.475   0.376   2.225
 2936SOL    HW1 9551   3.508   0.312   2.288
 2936SOL    HW2 9552   3.455   0.453   2.278
 2937SOL     OW 9553   2.890   0.759   2.822
 2937SOL    HW1 9554   2.886   0.777   2.916
 2937SOL    HW2 9555   2.863   0.668   2.813
 2938SOL     OW 9556   2.850   1.568   3.579
 2938SOL    HW1 9557   2.832   1.605   3.493
 2938SOL    HW2 9558   2.892   1.484   3.561
 2939SOL     OW 9559   3.717   1.504   3.467
 2939SOL    HW1 9560   3.735   1.531   3.377
 2939SOL    HW2 9561   3.798   1.522   3.514
 2940SOL     OW 9562   2.215   0.917   3.670
 2940SOL    HW1 9563   2.297   0.935   3.717
 2940SOL    HW2 9564   2.240   0.854   3.603
 2941SOL     OW 9565   3.388   0.271   1.988
 2941SOL    HW1 9566   3.323   0.208   2.019
 2941SOL    HW2 9567   3.424   0.310   2.067
 2942SOL     OW 9568   3.153   0.826   1.893
 2942SOL    HW1 9569   3.195   0.740   1.896
 2942SOL    HW2 9570   3.184   0.865   1.811
 2943SOL     OW 9571   2.928   1.336   2.716
 2943SOL    HW1 9572   2.932   1.264   2.654
 2943SOL    HW2 9573   2.989   1.401   2.682
 2944SOL     OW 9574   2.171   0.809   2.809
 2944SOL    HW1 9575   2.264   0.830   2.802
 2944SOL    HW2 9576   2.169   0.718   2.841
 2945SOL     OW 9577   2.193   0.527   2.875
 2945SOL    HW1 9578   2.157   0.439   2.860
 2945SOL    HW2 9579   2.270   0.531   2.818
 2946SOL     OW 9580   2.997   0.377   3.551
 2946SOL    HW1 9581   2.949   0.432   3.613
 2946SOL    HW2 9582   3.084   0.416   3.547
 2947SOL     OW 9583   2.995   0.222   3.328
 2947SOL    HW1 9584   2.999   0.281   3.403
 2947SOL    HW2 9585   3.050   0.263   3.262
 2948SOL     OW 9586   1.867   1.321   2.057
 2948SOL    HW1 9587   1.780   1.335   2.019
 2948SOL    HW2 9588   1.864   1.231   2.091
 2949SOL     OW 9589   1.951   1.789   2.798
 2949SOL    HW1 9590   1.920   1.709   2.756
 2949SOL    HW2 9591   2.041   1.799   2.769
 2950SOL     OW 9592   2.356   1.572   2.766
 2950SOL    HW1 9593   2.425   1.634   2.791
 2950SOL    HW2 9594   2.400   1.508   2.710
 2951SOL     OW 9595   2.843   0.791   3.088
 2951SOL    HW1 9596   2.901   0.769   3.162
 2951SOL    HW2 9597   2.758   0.754   3.112
 2952SOL     OW 9598   1.897   0.544   2.979
 2952SOL    HW1 9599   1.977   0.531   2.927
 2952SOL    HW2 9600   1.928   0.548   3.070
 2953SOL     OW 9601   2.048   0.523   3.590
 2953SOL    HW1 9602   2.112   0.487   3.528
 2953SOL    HW2 9603   2.010   0.598   3.544
 2954SOL     OW 9604   3.240   0.938   3.520
 2954SOL    HW1 9605   3.261   1.031   3.518
 2954SOL    HW2 9606   3.236   0.911   3.428
 2955SOL     OW 9607   2.676   0.573   2.226
 2955SOL    HW1 9608   2.680   0.499   2.165
 2955SOL    HW2 9609   2.602   0.625   2.195
 2956SOL     OW 9610   3.504   0.601   3.047
 2956SOL    HW1 9611   3.493   0.542   3.121
 2956SOL    HW2 9612   3.591   0.581   3.013
 2957SOL     OW 9613   2.105   1.550   3.592
 2957SOL    HW1 9614   2.080   1.613   3.659
 2957SOL    HW2 9615   2.107   1.466   3.637
 2958SOL     OW 9616   2.563   0.451   3.121
 2958SOL    HW1 9617   2.511   0.378   3.088
 2958SOL    HW2 9618   2.561   0.515   3.050
 2959SOL     OW 9619   2.804   1.662   3.325
 2959SOL    HW1 9620   2.770   1.627   3.243
 2959SOL    HW2 9621   2.801   1.757   3.313
 2960SOL     OW 9622   2.324   0.492   2.044
 2960SOL    HW1 9623   2.384   0.563   2.068
 2960SOL    HW2 9624   2.239   0.536   2.035
 2961SOL     OW 9625   2.007   1.141   3.335
 2961SOL    HW1 9626   2.009   1.090   3.416
 2961SOL    HW2 9627   2.024   1.077   3.266
 2962SOL     OW 9628   3.188   1.045   3.084
 2962SOL    HW1 9629   3.210   0.982   3.015
 2962SOL    HW2 9630   3.118   1.098   3.045
 2963SOL     OW 9631   3.174   0.857   2.168
 2963SOL    HW1 9632   3.099   0.826   2.218
 2963SOL    HW2 9633   3.149   0.843   2.077
 2964SOL     OW 9634   3.634   1.743   3.011
 2964SOL    HW1 9635   3.695   1.769   2.942
 2964SOL    HW2 9636   3.610   1.653   2.990
 2965SOL     OW 9637   3.099   1.732   2.968
 2965SOL    HW1 9638   3.183   1.755   2.928
 2965SOL    HW2 9639   3.108   1.639   2.992
 2966SOL     OW 9640   1.946   1.267   2.873
 2966SOL    HW1 9641   1.931   1.280   2.967
 2966SOL    HW2 9642   1.873   1.211   2.845
 2967SOL     OW 9643   2.540   1.659   3.596
 2967SOL    HW1 9644   2.465   1.717   3.579
 2967SOL    HW2 9645   2.595   1.668   3.518
 2968SOL     OW 9646   3.574   0.150   2.363
 2968SOL    HW1 9647   3.649   0.130   2.308
 2968SOL    HW2 9648   3.568   0.076   2.423
 2969SOL     OW 9649   3.253   1.568   2.347
 2969SOL    HW1 9650   3.313   1.601   2.281
 2969SOL    HW2 9651   3.204   1.645   2.376
 2970SOL     OW 9652   1.997   1.799   3.706
 2970SOL    HW1 9653   1.947   1.732   3.753
 2970SOL    HW2 9654   2.045   1.845   3.775
 2971SOL     OW 9655   3.139   0.926   2.532
 2971SOL    HW1 9656   3.213   0.865   2.540
 2971SOL    HW2 9657   3.173   0.998   2.480
 2972SOL     OW 9658   2.674   1.273   3.290
 2972SOL    HW1 9659   2.645   1.312   3.373
 2972SOL    HW2 9660   2.605   1.296   3.228
 2973SOL     OW 9661   2.532   1.622   2.018
 2973SOL    HW1 9662   2.544   1.634   1.924
 2973SOL    HW2 9663   2.477   1.543   2.025
 2974SOL     OW 9664   3.489   1.724   3.253
 2974SOL    HW1 9665   3.538   1.731   3.171
 2974SOL    HW2 9666   3.472   1.815   3.278
 2975SOL     OW 9667   3.708   0.156   2.819
 2975SOL    HW1 9668   3.705   0.060   2.811
 2975SOL    HW2 9669   3.621   0.185   2.789
 2976SOL     OW 9670   2.123   0.329   2.581
 2976SOL    HW1 9671   2.035   0.360   2.559
 2976SOL    HW2 9672   2.122   0.318   2.676
 2977SOL     OW 9673   3.069   1.605   1.894
 2977SOL    HW1 9674   3.059   1.514   1.920
 2977SOL    HW2 9675   3.005   1.618   1.825
 2978SOL     OW 9676   2.686   1.006   3.234
 2978SOL    HW1 9677   2.731   1.001   3.150
 2978SOL    HW2 9678   2.685   1.099   3.256
 2979SOL     OW 9679   2.778   0.911   2.152
 2979SOL    HW1 9680   2.839   0.943   2.086
 2979SOL    HW2 9681   2.826   0.841   2.197
 2980SOL     OW 9682   3.353   1.626   1.905
 2980SOL    HW1 9683   3.259   1.619   1.890
 2980SOL    HW2 9684   3.390   1.632   1.817
 2981SOL     OW 9685   2.230   1.303   3.355
 2981SOL    HW1 9686   2.217   1.379   3.298
 2981SOL    HW2 9687   2.154   1.248   3.338
 2982SOL     OW 9688   3.473   1.283   3.143
 2982SOL    HW1 9689   3.532   1.271   3.217
 2982SOL    HW2 9690   3.412   1.352   3.171
 2983SOL     OW 9691   2.915   1.108   2.569
 2983SOL    HW1 9692   2.844   1.057   2.608
 2983SOL    HW2 9693   2.978   1.042   2.539
 2984SOL     OW 9694   2.881   0.244   2.831
 2984SOL    HW1 9695   2.861   0.198   2.749
 2984SOL    HW2 9696   2.874   0.176   2.898
 2985SOL     OW 9697   2.466   1.488   2.343
 2985SOL    HW1 9698   2.512   1.438   2.276
 2985SOL    HW2 9699   2.394   1.531   2.296
 2986SOL     OW 9700   3.587   0.386   3.240
 2986SOL    HW1 9701   3.657   0.451   3.239
 2986SOL    HW2 9702   3.619   0.317   3.182
 2987SOL     OW 9703   2.121   1.345   2.151
 2987SOL    HW1 9704   2.029   1.342   2.128
 2987SOL    HW2 9705   2.123   1.381   2.239
 2988SOL     OW 9706   1.975   1.024   3.582
 2988SOL    HW1 9707   1.899   1.000   3.635
 2988SOL    HW2 9708   2.049   0.985   3.628
 2989SOL     OW 9709   2.535   0.212   3.352
 2989SOL    HW1 9710   2.618   0.196   3.307
 2989SOL    HW2 9711   2.559   0.262   3.429
 2990SOL     OW 9712   1.940   0.338   1.903
 2990SOL    HW1 9713   1.856   0.305   1.871
 2990SOL    HW2 9714   1.960   0.412   1.846
 2991SOL     OW 9715   3.291   0.858   3.261
 2991SOL    HW1 9716   3.242   0.919   3.206
 2991SOL    HW2 9717   3.380   0.860   3.227
 2992SOL     OW 9718   1.933   0.167   2.176
 2992SOL    HW1 9719   1.936   0.250   2.129
 2992SOL    HW2 9720   2.018   0.126   2.157
 2993SOL     OW 9721   3.041   1.339   1.979
 2993SOL    HW1 9722   2.951   1.307   1.982
 2993SOL    HW2 9723   3.069   1.339   2.071
 2994SOL     OW 9724   2.482   0.830   3.296
 2994SOL    HW1 9725   2.537   0.907   3.280
 2994SOL    HW2 9726   2.543   0.757   3.304
 2995SOL     OW 9727   3.347   1.781   2.844
 2995SOL    HW1 9728   3.371   1.838   2.771
 2995SOL    HW2 9729   3.430   1.757   2.885
 2996SOL     OW 9730   2.577   0.573   3.564
 2996SOL    HW1 9731   2.619   0.635   3.623
 2996SOL    HW2 9732   2.606   0.487   3.595
 2997SOL     OW 9733   3.334   1.198   3.493
 2997SOL    HW1 9734   3.322   1.213   3.587
 2997SOL    HW2 9735   3.427   1.215   3.478
 2998SOL     OW 9736   2.246   1.726   3.427
 2998SOL    HW1 9737   2.167   1.779   3.417
 2998SOL    HW2 9738   2.217   1.649   3.475
 2999SOL     OW 9739   3.531   0.881   3.117
 2999SOL    HW1 9740   3.525   0.796   3.074
 2999SOL    HW2 9741   3.521   0.945   3.047
 3000SOL     OW 9742   3.082   0.318   2.327
 3000SOL    HW1 9743   3.145   0.247   2.321
 3000SOL    HW2 9744   3.112   0.370   2.402
 3001SOL     OW 9745   2.451   0.737   2.533
 3001SOL    HW1 9746   2.490   0.823   2.517
 3001SOL    HW2 9747   2.384   0.729   2.465
 3002SOL     OW 9748   3.628   0.362   3.511
 3002SOL    HW1 9749   3.609   0.377   3.418
 3002SOL    HW2 9750   3.556   0.306   3.542
 3003SOL     OW 9751   3.608   0.934   3.374
 3003SOL    HW1 9752   3.603   1.028   3.387
 3003SOL    HW2 9753   3.592   0.922   3.280
 3004SOL     OW 9754   2.722   1.367   1.897
 3004SOL    HW1 9755   2.687   1.395   1.981
 3004SOL    HW2 9756   2.742   1.448   1.850
 3005SOL     OW 9757   2.525   1.783   2.804
 3005SOL    HW1 9758   2.506   1.875   2.787
 3005SOL    HW2 9759   2.620   1.776   2.801
 3006SOL     OW 9760   2.730   0.967   2.717
 3006SOL    HW1 9761   2.780   0.896   2.756
 3006SOL    HW2 9762   2.695   1.016   2.791
 3007SOL     OW 9763   2.940   0.988   1.950
 3007SOL    HW1 9764   2.919   1.039   1.872
 3007SOL    HW2 9765   3.015   0.935   1.925
 3008SOL     OW 9766   3.715   1.553   2.706
 3008SOL    HW1 9767   3.636   1.542   2.652
 3008SOL    HW2 9768   3.706   1.489   2.776
 3009SOL     OW 9769   2.086   1.301   3.718
 3009SOL    HW1 9770   2.020   1.239   3.687
 3009SOL    HW2 9771   2.067   1.313   3.811
 3010SOL     OW 9772   1.947   1.233   2.527
 3010SOL    HW1 9773   1.953   1.185   2.610
 3010SOL    HW2 9774   2.014   1.194   2.472
 3011SOL     OW 9775   2.542   1.401   3.488
 3011SOL    HW1 9776   2.463   1.358   3.520
 3011SOL    HW2 9777   2.542   1.486   3.533
 3012SOL     OW 9778   3.674   0.176   3.094
 3012SOL    HW1 9779   3.640   0.087   3.097
 3012SOL    HW2 9780   3.695   0.190   3.001
 3013SOL     OW 9781   2.291   0.436   2.386
 3013SOL    HW1 9782   2.324   0.363   2.333
 3013SOL    HW2 9783   2.244   0.394   2.458
 3014SOL     OW 9784   3.562   1.488   2.956
 3014SOL    HW1 9785   3.481   1.466   2.911
 3014SOL    HW2 9786   3.572   1.420   3.023
 3015SOL     OW 9787   2.191   0.557   3.153
 3015SOL    HW1 9788   2.247   0.502   3.207
 3015SOL    HW2 9789   2.211   0.530   3.063
 3016SOL     OW 9790   2.690   1.578   2.539
 3016SOL    HW1 9791   2.676   1.632   2.462
 3016SOL    HW2 9792   2.614   1.520   2.543
 3017SOL     OW 9793   3.289   0.219   2.978
 3017SOL    HW1 9794   3.326   0.145   3.026
 3017SOL    HW2 9795   3.241   0.268   3.044
 3018SOL     OW 9796   2.865   0.021   3.001
 3018SOL    HW1 9797   2.814   5.252   2.958
 3018SOL    HW2 9798   2.951   5.282   3.015
 3019SOL     OW 9799   2.634   1.333   2.178
 3019SOL    HW1 9800   2.604   1.242   2.184
 3019SOL    HW2 9801   2.716   1.335   2.227
 3020SOL     OW 9802   2.485   1.530   3.130
 3020SOL    HW1 9803   2.489   1.596   3.199
 3020SOL    HW2 9804   2.571   1.531   3.089
 3021SOL     OW 9805   3.218   0.037   2.025
 3021SOL    HW1 9806   3.252   5.295   1.946
 3021SOL    HW2 9807   3.138   5.289   2.045
 3022SOL     OW 9808   3.163   0.464   2.546
 3022SOL    HW1 9809   3.109   0.543   2.551
 3022SOL    HW2 9810   3.156   0.424   2.633
 3023SOL     OW 9811   3.456   0.215   2.744
 3023SOL    HW1 9812   3.391   0.227   2.813
 3023SOL    HW2 9813   3.449   0.294   2.690
 3024SOL     OW 9814   1.905   1.070   2.168
 3024SOL    HW1 9815   1.999   1.062   2.151
 3024SOL    HW2 9816   1.877   0.981   2.191
 3025SOL     OW 9817   2.747   1.654   2.204
 3025SOL    HW1 9818   2.674   1.637   2.144
 3025SOL    HW2 9819   2.719   1.728   2.256
 3026SOL     OW 9820   2.089   0.625   3.848
 3026SOL    HW1 9821   2.001   0.622   3.884
 3026SOL    HW2 9822   2.079   0.599   3.756
 3027SOL     OW 9823   2.080   0.284   4.717
 3027SOL    HW1 9824   2.108   0.249   4.801
 3027SOL    HW2 9825   1.995   0.242   4.701
 3028SOL     OW 9826   1.865   0.387   4.362
 3028SOL    HW1 9827   1.781   0.408   4.402
 3028SOL    HW2 9828   1.847   0.310   4.308
 3029SOL     OW 9829   2.427   1.288   4.900
 3029SOL    HW1 9830   2.340   1.295   4.862
 3029SOL    HW2 9831   2.446   1.376   4.932
 3030SOL     OW 9832   3.425   1.513   4.431
 3030SOL    HW1 9833   3.382   1.492   4.514
 3030SOL    HW2 9834   3.354   1.515   4.367
 3031SOL     OW 9835   2.994   0.697   4.425
 3031SOL    HW1 9836   3.042   0.779   4.410
 3031SOL    HW2 9837   2.946   0.712   4.506
 3032SOL     OW 9838   3.630   0.605   3.952
 3032SOL    HW1 9839   3.609   0.598   3.859
 3032SOL    HW2 9840   3.594   0.525   3.991
 3033SOL     OW 9841   2.614   1.139   4.767
 3033SOL    HW1 9842   2.546   1.174   4.824
 3033SOL    HW2 9843   2.650   1.215   4.723
 3034SOL     OW 9844   2.730   0.775   5.547
 3034SOL    HW1 9845   2.718   0.847   5.609
 3034SOL    HW2 9846   2.754   0.819   5.465
 3035SOL     OW 9847   2.548   1.002   4.370
 3035SOL    HW1 9848   2.613   0.991   4.439
 3035SOL    HW2 9849   2.479   1.054   4.411
 3036SOL     OW 9850   2.573   1.150   5.538
 3036SOL    HW1 9851   2.621   1.229   5.565
 3036SOL    HW2 9852   2.491   1.184   5.501
 3037SOL     OW 9853   2.193   1.426   4.791
 3037SOL    HW1 9854   2.120   1.387   4.742
 3037SOL    HW2 9855   2.241   1.477   4.725
 3038SOL     OW 9856   3.322   1.500   5.080
 3038SOL    HW1 9857   3.374   1.580   5.090
 3038SOL    HW2 9858   3.257   1.505   5.150
 3039SOL     OW 9859   2.307   0.398   5.208
 3039SOL    HW1 9860   2.381   0.338   5.208
 3039SOL    HW2 9861   2.231   0.341   5.224
 3040SOL     OW 9862   3.472   0.451   4.463
 3040SOL    HW1 9863   3.396   0.474   4.408
 3040SOL    HW2 9864   3.488   0.530   4.514
 3041SOL     OW 9865   2.080   1.693   4.178
 3041SOL    HW1 9866   2.079   1.769   4.236
 3041SOL    HW2 9867   2.158   1.705   4.124
 3042SOL     OW 9868   2.999   1.342   5.417
 3042SOL    HW1 9869   3.039   1.336   5.503
 3042SOL    HW2 9870   2.946   1.262   5.410
 3043SOL     OW 9871   2.099   1.433   4.263
 3043SOL    HW1 9872   2.079   1.526   4.253
 3043SOL    HW2 9873   2.034   1.400   4.325
 3044SOL     OW 9874   2.120   1.090   4.614
 3044SOL    HW1 9875   2.118   1.003   4.655
 3044SOL    HW2 9876   2.063   1.144   4.669
 3045SOL     OW 9877   2.476   1.782   5.161
 3045SOL    HW1 9878   2.392   1.774   5.205
 3045SOL    HW2 9879   2.501   1.874   5.174
 3046SOL     OW 9880   2.446   0.982   3.859
 3046SOL    HW1 9881   2.493   1.030   3.791
 3046SOL    HW2 9882   2.486   1.013   3.941
 3047SOL     OW 9883   3.449   0.136   5.179
 3047SOL    HW1 9884   3.473   0.221   5.141
 3047SOL    HW2 9885   3.444   0.153   5.273
 3048SOL     OW 9886   1.977   0.654   4.284
 3048SOL    HW1 9887   1.949   0.565   4.305
 3048SOL    HW2 9888   1.969   0.702   4.366
 3049SOL     OW 9889   3.704   1.759   4.060
 3049SOL    HW1 9890   3.771   1.731   4.122
 3049SOL    HW2 9891   3.727   1.850   4.039
 3050SOL     OW 9892   1.897   1.593   3.846
 3050SOL    HW1 9893   1.878   1.501   3.866
 3050SOL    HW2 9894   1.870   1.641   3.925
 3051SOL     OW 9895   3.551   0.919   4.366
 3051SOL    HW1 9896   3.634   0.875   4.344
 3051SOL    HW2 9897   3.529   0.969   4.288
 3052SOL     OW 9898   3.508   1.106   4.153
 3052SOL    HW1 9899   3.594   1.111   4.111
 3052SOL    HW2 9900   3.514   1.168   4.226
 3053SOL     OW 9901   1.985   0.745   5.308
 3053SOL    HW1 9902   2.077   0.771   5.315
 3053SOL    HW2 9903   1.936   0.826   5.317
 3054SOL     OW 9904   2.475   1.387   4.456
 3054SOL    HW1 9905   2.430   1.303   4.466
 3054SOL    HW2 9906   2.459   1.412   4.365
 3055SOL     OW 9907   3.151   1.237   5.148
 3055SOL    HW1 9908   3.183   1.170   5.087
 3055SOL    HW2 9909   3.209   1.231   5.223
 3056SOL     OW 9910   2.674   0.029   4.253
 3056SOL    HW1 9911   2.702   0.116   4.227
 3056SOL    HW2 9912   2.578   0.032   4.247
 3057SOL     OW 9913   2.051   0.965   4.997
 3057SOL    HW1 9914   2.137   0.924   4.982
 3057SOL    HW2 9915   1.990   0.912   4.946
 3058SOL     OW 9916   3.393   0.994   3.923
 3058SOL    HW1 9917   3.323   0.937   3.955
 3058SOL    HW2 9918   3.435   1.029   4.002
 3059SOL     OW 9919   3.050   1.808   5.346
 3059SOL    HW1 9920   3.056   1.865   5.270
 3059SOL    HW2 9921   3.065   1.720   5.312
 3060SOL     OW 9922   2.191   0.267   5.537
 3060SOL    HW1 9923   2.242   0.342   5.567
 3060SOL    HW2 9924   2.104   0.280   5.575
 3061SOL     OW 9925   3.329   1.419   4.674
 3061SOL    HW1 9926   3.262   1.435   4.740
 3061SOL    HW2 9927   3.317   1.328   4.648
 3062SOL     OW 9928   3.516   1.746   4.303
 3062SOL    HW1 9929   3.500   1.715   4.214
 3062SOL    HW2 9930   3.494   1.672   4.358
 3063SOL     OW 9931   2.456   0.720   3.991
 3063SOL    HW1 9932   2.462   0.802   3.941
 3063SOL    HW2 9933   2.391   0.737   4.059
 3064SOL     OW 9934   3.140   0.348   4.655
 3064SOL    HW1 9935   3.049   0.320   4.668
 3064SOL    HW2 9936   3.190   0.298   4.719
 3065SOL     OW 9937   3.442   1.673   4.033
 3065SOL    HW1 9938   3.533   1.701   4.025
 3065SOL    HW2 9939   3.416   1.654   3.943
 3066SOL     OW 9940   2.657   0.618   5.173
 3066SOL    HW1 9941   2.629   0.597   5.262
 3066SOL    HW2 9942   2.614   0.551   5.119
 3067SOL     OW 9943   3.256   0.475   5.402
 3067SOL    HW1 9944   3.259   0.520   5.487
 3067SOL    HW2 9945   3.320   0.404   5.411
 3068SOL     OW 9946   2.816   0.887   5.307
 3068SOL    HW1 9947   2.870   0.818   5.271
 3068SOL    HW2 9948   2.768   0.922   5.231
 3069SOL     OW 9949   2.856   0.416   4.959
 3069SOL    HW1 9950   2.770   0.438   4.996
 3069SOL    HW2 9951   2.836   0.369   4.878
 3070SOL     OW 9952   2.913   0.698   4.150
 3070SOL    HW1 9953   2.929   0.691   4.244
 3070SOL    HW2 9954   2.830   0.652   4.137
 3071SOL     OW 9955   1.950   0.821   4.501
 3071SOL    HW1 9956   2.031   0.814   4.551
 3071SOL    HW2 9957   1.907   0.899   4.536
 3072SOL     OW 9958   1.987   1.862   5.306
 3072SOL    HW1 9959   1.988   1.836   5.399
 3072SOL    HW2 9960   1.901   1.833   5.274
 3073SOL     OW 9961   2.738   0.366   3.913
 3073SOL    HW1 9962   2.777   0.425   3.849
 3073SOL    HW2 9963   2.794   0.288   3.911
 3074SOL     OW 9964   3.569   0.573   5.552
 3074SOL    HW1 9965   3.532   0.647   5.503
 3074SOL    HW2 9966   3.599   0.513   5.484
 3075SOL     OW 9967   3.240   1.142   4.265
 3075SOL    HW1 9968   3.319   1.129   4.212
 3075SOL    HW2 9969   3.187   1.204   4.215
 3076SOL     OW 9970   2.387   0.202   4.606
 3076SOL    HW1 9971   2.409   0.218   4.698
 3076SOL    HW2 9972   2.409   0.285   4.562
 3077SOL     OW 9973   2.868   1.442   4.196
 3077SOL    HW1 9974   2.831   1.515   4.146
 3077SOL    HW2 9975   2.852   1.465   4.288
 3078SOL     OW 9976   3.661   1.056   4.592
 3078SOL    HW1 9977   3.607   1.037   4.516
 3078SOL    HW2 9978   3.599   1.062   4.665
 3079SOL     OW 9979   3.091   1.538   5.237
 3079SOL    HW1 9980   3.076   1.465   5.296
 3079SOL    HW2 9981   3.024   1.529   5.170
 3080SOL     OW 9982   2.181   0.958   3.974
 3080SOL    HW1 9983   2.263   0.977   3.930
 3080SOL    HW2 9984   2.151   0.876   3.937
 3081SOL     OW 9985   3.342   0.744   4.450
 3081SOL    HW1 9986   3.334   0.702   4.536
 3081SOL    HW2 9987   3.419   0.800   4.458
 3082SOL     OW 9988   2.329   1.265   5.463
 3082SOL    HW1 9989   2.302   1.269   5.371
 3082SOL    HW2 9990   2.246   1.263   5.512
 3083SOL     OW 9991   2.988   1.776   3.956
 3083SOL    HW1 9992   2.911   1.738   3.998
 3083SOL    HW2 9993   3.009   1.716   3.885
 3084SOL     OW 9994   2.059   0.277   5.227
 3084SOL    HW1 9995   1.980   0.332   5.225
 3084SOL    HW2 9996   2.051   0.229   5.309
 3085SOL     OW 9997   3.490   1.380   3.813
 3085SOL    HW1 9998   3.449   1.465   3.796
 3085SOL    HW2 9999   3.422   1.317   3.793
 3086SOL     OW10000   2.338   1.752   4.045
 3086SOL    HW110001   2.393   1.789   4.114
 3086SOL    HW210002   2.400   1.709   3.985
 3087SOL     OW10003   3.270   0.100   4.156
 3087SOL    HW110004   3.262   0.081   4.062
 3087SOL    HW210005   3.362   0.122   4.168
 3088SOL     OW10006   2.096   1.779   4.962
 3088SOL    HW110007   2.167   1.734   5.008
 3088SOL    HW210008   2.112   1.761   4.869
 3089SOL     OW10009   2.797   1.668   4.642
 3089SOL    HW110010   2.885   1.633   4.631
 3089SOL    HW210011   2.752   1.646   4.560
 3090SOL     OW10012   2.255   0.696   4.199
 3090SOL    HW110013   2.275   0.604   4.210
 3090SOL    HW210014   2.161   0.703   4.217
 3091SOL     OW10015   3.400   0.227   5.447
 3091SOL    HW110016   3.408   0.245   5.541
 3091SOL    HW210017   3.323   0.171   5.439
 3092SOL     OW10018   2.486   0.132   3.831
 3092SOL    HW110019   2.548   0.064   3.857
 3092SOL    HW210020   2.434   0.093   3.761
 3093SOL     OW10021   2.641   0.312   5.491
 3093SOL    HW110022   2.700   0.237   5.492
 3093SOL    HW210023   2.595   0.307   5.575
 3094SOL     OW10024   2.731   1.511   4.923
 3094SOL    HW110025   2.727   1.492   4.830
 3094SOL    HW210026   2.808   1.464   4.954
 3095SOL     OW10027   3.203   0.589   5.156
 3095SOL    HW110028   3.233   0.558   5.241
 3095SOL    HW210029   3.238   0.677   5.148
 3096SOL     OW10030   2.673   1.385   4.661
 3096SOL    HW110031   2.759   1.382   4.620
 3096SOL    HW210032   2.612   1.389   4.587
 3097SOL     OW10033   2.790   0.510   4.627
 3097SOL    HW110034   2.765   0.502   4.535
 3097SOL    HW210035   2.821   0.423   4.651
 3098SOL     OW10036   2.404   0.062   4.231
 3098SOL    HW110037   2.319   0.060   4.275
 3098SOL    HW210038   2.397   0.132   4.166
 3099SOL     OW10039   3.290   1.199   3.765
 3099SOL    HW110040   3.320   1.123   3.815
 3099SOL    HW210041   3.205   1.220   3.803
 3100SOL     OW10042   2.163   0.063   3.916
 3100SOL    HW110043   2.221   0.134   3.887
 3100SOL    HW210044   2.220   5.286   3.922
 3101SOL     OW10045   2.801   0.263   4.186
 3101SOL    HW110046   2.774   0.300   4.102
 3101SOL    HW210047   2.896   0.274   4.186
 3102SOL     OW10048   2.943   0.682   5.184
 3102SOL    HW110049   2.874   0.615   5.188
 3102SOL    HW210050   3.024   0.632   5.177
 3103SOL     OW10051   3.082   1.570   4.517
 3103SOL    HW110052   3.101   1.635   4.449
 3103SOL    HW210053   3.148   1.586   4.584
 3104SOL     OW10054   2.331   1.150   4.456
 3104SOL    HW110055   2.263   1.131   4.520
 3104SOL    HW210056   2.290   1.134   4.371
 3105SOL     OW10057   3.139   1.787   4.326
 3105SOL    HW110058   3.184   1.848   4.267
 3105SOL    HW210059   3.090   1.844   4.385
 3106SOL     OW10060   2.887   0.545   3.747
 3106SOL    HW110061   2.844   0.629   3.729
 3106SOL    HW210062   2.950   0.565   3.816
 3107SOL     OW10063   1.941   0.553   5.118
 3107SOL    HW110064   2.033   0.553   5.089
 3107SOL    HW210065   1.936   0.624   5.182
 3108SOL     OW10066   2.416   0.238   4.882
 3108SOL    HW110067   2.448   0.152   4.911
 3108SOL    HW210068   2.324   0.239   4.909
 3109SOL     OW10069   2.728   0.463   4.365
 3109SOL    HW110070   2.682   0.517   4.301
 3109SOL    HW210071   2.752   0.383   4.317
 3110SOL     OW10072   2.840   0.061   4.487
 3110SOL    HW110073   2.775   0.057   4.417
 3110SOL    HW210074   2.850   5.270   4.516
 3111SOL     OW10075   3.300   1.162   4.581
 3111SOL    HW110076   3.229   1.097   4.581
 3111SOL    HW210077   3.323   1.172   4.489
 3112SOL     OW10078   3.328   0.607   4.700
 3112SOL    HW110079   3.277   0.526   4.703
 3112SOL    HW210080   3.388   0.601   4.774
 3113SOL     OW10081   3.707   0.816   4.107
 3113SOL    HW110082   3.763   0.765   4.165
 3113SOL    HW210083   3.679   0.753   4.040
 3114SOL     OW10084   2.349   1.418   3.878
 3114SOL    HW110085   2.274   1.388   3.929
 3114SOL    HW210086   2.339   1.373   3.794
 3115SOL     OW10087   3.533   1.264   4.369
 3115SOL    HW110088   3.628   1.267   4.383
 3115SOL    HW210089   3.503   1.353   4.390
 3116SOL     OW10090   3.256   0.572   3.795
 3116SOL    HW110091   3.194   0.552   3.866
 3116SOL    HW210092   3.341   0.542   3.828
 3117SOL     OW10093   2.385   0.265   4.045
 3117SOL    HW110094   2.431   0.217   3.976
 3117SOL    HW210095   2.363   0.349   4.005
 3118SOL     OW10096   3.614   1.240   5.295
 3118SOL    HW110097   3.701   1.201   5.291
 3118SOL    HW210098   3.629   1.330   5.324
 3119SOL     OW10099   2.922   1.351   5.056
 3119SOL    HW110100   2.847   1.322   5.107
 3119SOL    HW210101   2.997   1.311   5.099
 3120SOL     OW10102   3.471   1.626   5.379
 3120SOL    HW110103   3.464   1.660   5.290
 3120SOL    HW210104   3.553   1.577   5.380
 3121SOL     OW10105   2.990   1.202   4.828
 3121SOL    HW110106   2.934   1.242   4.894
 3121SOL    HW210107   2.958   1.237   4.745
 3122SOL     OW10108   3.490   1.098   4.801
 3122SOL    HW110109   3.484   1.160   4.874
 3122SOL    HW210110   3.411   1.115   4.749
 3123SOL     OW10111   2.766   0.107   5.112
 3123SOL    HW110112   2.796   0.073   5.027
 3123SOL    HW210113   2.843   0.149   5.150
 3124SOL     OW10114   2.846   1.114   5.447
 3124SOL    HW110115   2.755   1.131   5.468
 3124SOL    HW210116   2.845   1.037   5.391
 3125SOL     OW10117   2.571   1.062   4.095
 3125SOL    HW110118   2.557   1.044   4.188
 3125SOL    HW210119   2.647   1.008   4.072
 3126SOL     OW10120   2.281   0.816   4.976
 3126SOL    HW110121   2.350   0.825   5.042
 3126SOL    HW210122   2.246   0.728   4.989
 3127SOL     OW10123   3.128   0.378   4.997
 3127SOL    HW110124   3.161   0.455   5.044
 3127SOL    HW210125   3.038   0.401   4.975
 3128SOL     OW10126   1.932   1.571   5.078
 3128SOL    HW110127   1.904   1.646   5.025
 3128SOL    HW210128   2.028   1.574   5.073
 3129SOL     OW10129   2.209   1.109   4.214
 3129SOL    HW110130   2.214   1.183   4.153
 3129SOL    HW210131   2.207   1.032   4.158
 3130SOL     OW10132   2.415   0.536   4.584
 3130SOL    HW110133   2.429   0.595   4.510
 3130SOL    HW210134   2.480   0.563   4.649
 3131SOL     OW10135   3.110   1.347   4.113
 3131SOL    HW110136   3.166   1.418   4.144
 3131SOL    HW210137   3.023   1.369   4.147
 3132SOL     OW10138   3.146   1.458   4.871
 3132SOL    HW110139   3.201   1.462   4.949
 3132SOL    HW210140   3.087   1.384   4.886
 3133SOL     OW10141   3.443   0.622   4.204
 3133SOL    HW110142   3.396   0.675   4.268
 3133SOL    HW210143   3.488   0.686   4.148
 3134SOL     OW10144   2.210   1.519   5.042
 3134SOL    HW110145   2.197   1.481   4.955
 3134SOL    HW210146   2.305   1.536   5.046
 3135SOL     OW10147   2.277   0.744   5.326
 3135SOL    HW110148   2.338   0.789   5.268
 3135SOL    HW210149   2.319   0.660   5.345
 3136SOL     OW10150   3.465   0.779   5.406
 3136SOL    HW110151   3.379   0.820   5.400
 3136SOL    HW210152   3.517   0.821   5.338
 3137SOL     OW10153   2.910   0.117   5.510
 3137SOL    HW110154   2.936   0.197   5.464
 3137SOL    HW210155   2.913   0.049   5.444
 3138SOL     OW10156   2.345   0.058   5.462
 3138SOL    HW110157   2.285   5.293   5.424
 3138SOL    HW210158   2.289   0.132   5.483
 3139SOL     OW10159   2.446   0.873   4.755
 3139SOL    HW110160   2.478   0.963   4.755
 3139SOL    HW210161   2.389   0.868   4.833
 3140SOL     OW10162   3.218   0.859   4.752
 3140SOL    HW110163   3.134   0.849   4.707
 3140SOL    HW210164   3.260   0.773   4.746
 3141SOL     OW10165   3.067   0.528   3.990
 3141SOL    HW110166   3.072   0.447   4.042
 3141SOL    HW210167   3.024   0.591   4.048
 3142SOL     OW10168   2.157   0.203   4.972
 3142SOL    HW110169   2.118   0.242   5.050
 3142SOL    HW210170   2.158   0.109   4.991
 3143SOL     OW10171   1.906   1.311   5.000
 3143SOL    HW110172   1.940   1.256   5.071
 3143SOL    HW210173   1.915   1.400   5.032
 3144SOL     OW10174   2.586   0.632   4.783
 3144SOL    HW110175   2.661   0.616   4.725
 3144SOL    HW210176   2.558   0.720   4.761
 3145SOL     OW10177   3.597   0.959   5.577
 3145SOL    HW110178   3.552   0.897   5.521
 3145SOL    HW210179   3.538   0.974   5.651
 3146SOL     OW10180   2.168   0.071   4.378
 3146SOL    HW110181   2.147   0.165   4.383
 3146SOL    HW210182   2.213   0.053   4.461
 3147SOL     OW10183   3.475   0.376   4.087
 3147SOL    HW110184   3.508   0.312   4.151
 3147SOL    HW210185   3.455   0.453   4.140
 3148SOL     OW10186   2.890   0.759   4.684
 3148SOL    HW110187   2.886   0.777   4.778
 3148SOL    HW210188   2.863   0.668   4.675
 3149SOL     OW10189   2.844   1.566   5.441
 3149SOL    HW110190   2.828   1.610   5.358
 3149SOL    HW210191   2.888   1.485   5.417
 3150SOL     OW10192   3.716   1.504   5.329
 3150SOL    HW110193   3.735   1.531   5.239
 3150SOL    HW210194   3.797   1.522   5.377
 3151SOL     OW10195   2.215   0.916   5.533
 3151SOL    HW110196   2.297   0.935   5.579
 3151SOL    HW210197   2.240   0.853   5.465
 3152SOL     OW10198   3.388   0.271   3.850
 3152SOL    HW110199   3.323   0.208   3.881
 3152SOL    HW210200   3.424   0.310   3.929
 3153SOL     OW10201   3.153   0.826   3.755
 3153SOL    HW110202   3.195   0.740   3.758
 3153SOL    HW210203   3.184   0.865   3.673
 3154SOL     OW10204   2.928   1.336   4.579
 3154SOL    HW110205   2.932   1.264   4.516
 3154SOL    HW210206   2.989   1.401   4.544
 3155SOL     OW10207   2.171   0.809   4.671
 3155SOL    HW110208   2.264   0.830   4.664
 3155SOL    HW210209   2.169   0.718   4.703
 3156SOL     OW10210   2.194   0.527   4.737
 3156SOL    HW110211   2.157   0.439   4.722
 3156SOL    HW210212   2.270   0.531   4.679
 3157SOL     OW10213   2.997   0.377   5.413
 3157SOL    HW110214   2.949   0.432   5.475
 3157SOL    HW210215   3.084   0.416   5.409
 3158SOL     OW10216   2.995   0.222   5.190
 3158SOL    HW110217   2.999   0.281   5.266
 3158SOL    HW210218   3.050   0.263   5.124
 3159SOL     OW10219   1.867   1.320   3.919
 3159SOL    HW110220   1.780   1.335   3.882
 3159SOL    HW210221   1.864   1.231   3.953
 3160SOL     OW10222   1.952   1.786   4.660
 3160SOL    HW110223   1.913   1.708   4.621
 3160SOL    HW210224   2.040   1.790   4.624
 3161SOL     OW10225   2.363   1.573   4.628
 3161SOL    HW110226   2.440   1.613   4.667
 3161SOL    HW210227   2.397   1.508   4.567
 3162SOL     OW10228   2.844   0.790   4.950
 3162SOL    HW110229   2.901   0.769   5.024
 3162SOL    HW210230   2.758   0.755   4.974
 3163SOL     OW10231   1.897   0.544   4.841
 3163SOL    HW110232   1.977   0.531   4.790
 3163SOL    HW210233   1.928   0.548   4.932
 3164SOL     OW10234   2.048   0.523   5.451
 3164SOL    HW110235   2.113   0.488   5.390
 3164SOL    HW210236   2.010   0.598   5.406
 3165SOL     OW10237   3.240   0.938   5.382
 3165SOL    HW110238   3.261   1.031   5.380
 3165SOL    HW210239   3.236   0.912   5.290
 3166SOL     OW10240   2.676   0.573   4.088
 3166SOL    HW110241   2.680   0.499   4.027
 3166SOL    HW210242   2.602   0.625   4.057
 3167SOL     OW10243   3.504   0.601   4.909
 3167SOL    HW110244   3.493   0.542   4.983
 3167SOL    HW210245   3.591   0.581   4.875
 3168SOL     OW10246   2.103   1.551   5.450
 3168SOL    HW110247   2.082   1.615   5.518
 3168SOL    HW210248   2.107   1.468   5.497
 3169SOL     OW10249   2.563   0.451   4.983
 3169SOL    HW110250   2.511   0.378   4.950
 3169SOL    HW210251   2.561   0.515   4.912
 3170SOL     OW10252   2.791   1.677   5.191
 3170SOL    HW110253   2.769   1.646   5.104
 3170SOL    HW210254   2.786   1.772   5.185
 3171SOL     OW10255   2.324   0.492   3.906
 3171SOL    HW110256   2.384   0.563   3.930
 3171SOL    HW210257   2.239   0.536   3.897
 3172SOL     OW10258   2.005   1.141   5.196
 3172SOL    HW110259   2.009   1.090   5.278
 3172SOL    HW210260   2.023   1.077   5.128
 3173SOL     OW10261   3.187   1.046   4.946
 3173SOL    HW110262   3.210   0.983   4.878
 3173SOL    HW210263   3.117   1.099   4.908
 3174SOL     OW10264   3.174   0.857   4.030
 3174SOL    HW110265   3.099   0.826   4.080
 3174SOL    HW210266   3.149   0.843   3.939
 3175SOL     OW10267   3.635   1.743   4.873
 3175SOL    HW110268   3.696   1.767   4.804
 3175SOL    HW210269   3.610   1.653   4.853
 3176SOL     OW10270   3.107   1.731   4.828
 3176SOL    HW110271   3.191   1.752   4.787
 3176SOL    HW210272   3.113   1.638   4.849
 3177SOL     OW10273   1.947   1.266   4.736
 3177SOL    HW110274   1.932   1.280   4.830
 3177SOL    HW210275   1.874   1.212   4.707
 3178SOL     OW10276   2.540   1.667   5.454
 3178SOL    HW110277   2.484   1.745   5.450
 3178SOL    HW210278   2.603   1.679   5.382
 3179SOL     OW10279   3.574   0.150   4.225
 3179SOL    HW110280   3.649   0.130   4.170
 3179SOL    HW210281   3.568   0.076   4.285
 3180SOL     OW10282   3.255   1.564   4.208
 3180SOL    HW110283   3.314   1.598   4.141
 3180SOL    HW210284   3.206   1.641   4.238
 3181SOL     OW10285   1.998   1.796   5.568
 3181SOL    HW110286   1.947   1.730   5.615
 3181SOL    HW210287   2.045   1.844   5.637
 3182SOL     OW10288   3.139   0.926   4.394
 3182SOL    HW110289   3.213   0.865   4.402
 3182SOL    HW210290   3.173   0.998   4.342
 3183SOL     OW10291   2.677   1.273   5.155
 3183SOL    HW110292   2.647   1.312   5.236
 3183SOL    HW210293   2.613   1.301   5.089
 3184SOL     OW10294   2.532   1.615   3.882
 3184SOL    HW110295   2.545   1.633   3.789
 3184SOL    HW210296   2.474   1.538   3.883
 3185SOL     OW10297   3.488   1.726   5.115
 3185SOL    HW110298   3.537   1.733   5.033
 3185SOL    HW210299   3.473   1.816   5.142
 3186SOL     OW10300   3.708   0.156   4.680
 3186SOL    HW110301   3.705   0.060   4.673
 3186SOL    HW210302   3.621   0.185   4.651
 3187SOL     OW10303   2.123   0.329   4.443
 3187SOL    HW110304   2.035   0.360   4.421
 3187SOL    HW210305   2.122   0.318   4.538
 3188SOL     OW10306   3.068   1.606   3.754
 3188SOL    HW110307   3.063   1.515   3.784
 3188SOL    HW210308   3.001   1.612   3.686
 3189SOL     OW10309   2.686   1.006   5.096
 3189SOL    HW110310   2.729   1.003   5.011
 3189SOL    HW210311   2.685   1.099   5.119
 3190SOL     OW10312   2.778   0.911   4.014
 3190SOL    HW110313   2.839   0.943   3.948
 3190SOL    HW210314   2.826   0.841   4.059
 3191SOL     OW10315   3.353   1.626   3.767
 3191SOL    HW110316   3.259   1.619   3.750
 3191SOL    HW210317   3.393   1.633   3.680
 3192SOL     OW10318   2.230   1.301   5.218
 3192SOL    HW110319   2.221   1.377   5.161
 3192SOL    HW210320   2.153   1.248   5.200
 3193SOL     OW10321   3.473   1.283   5.004
 3193SOL    HW110322   3.531   1.271   5.079
 3193SOL    HW210323   3.412   1.351   5.033
 3194SOL     OW10324   2.916   1.108   4.431
 3194SOL    HW110325   2.844   1.057   4.470
 3194SOL    HW210326   2.978   1.042   4.401
 3195SOL     OW10327   2.881   0.244   4.693
 3195SOL    HW110328   2.861   0.198   4.611
 3195SOL    HW210329   2.874   0.176   4.760
 3196SOL     OW10330   2.466   1.488   4.202
 3196SOL    HW110331   2.515   1.438   4.137
 3196SOL    HW210332   2.391   1.522   4.153
 3197SOL     OW10333   3.587   0.386   5.102
 3197SOL    HW110334   3.657   0.451   5.101
 3197SOL    HW210335   3.619   0.317   5.044
 3198SOL     OW10336   2.121   1.344   4.012
 3198SOL    HW110337   2.028   1.343   3.990
 3198SOL    HW210338   2.124   1.377   4.102
 3199SOL     OW10339   1.975   1.022   5.444
 3199SOL    HW110340   1.899   0.999   5.497
 3199SOL    HW210341   2.049   0.985   5.490
 3200SOL     OW10342   2.535   0.212   5.214
 3200SOL    HW110343   2.618   0.196   5.169
 3200SOL    HW210344   2.559   0.263   5.291
 3201SOL     OW10345   1.940   0.338   3.765
 3201SOL    HW110346   1.856   0.305   3.732
 3201SOL    HW210347   1.960   0.412   3.708
 3202SOL     OW10348   3.291   0.858   5.124
 3202SOL    HW110349   3.242   0.919   5.068
 3202SOL    HW210350   3.380   0.861   5.089
 3203SOL     OW10351   1.933   0.167   4.038
 3203SOL    HW110352   1.936   0.250   3.991
 3203SOL    HW210353   2.018   0.126   4.019
 3204SOL     OW10354   3.042   1.340   3.842
 3204SOL    HW110355   2.952   1.307   3.844
 3204SOL    HW210356   3.070   1.339   3.934
 3205SOL     OW10357   2.482   0.830   5.157
 3205SOL    HW110358   2.537   0.907   5.142
 3205SOL    HW210359   2.543   0.758   5.166
 3206SOL     OW10360   3.348   1.774   4.699
 3206SOL    HW110361   3.374   1.833   4.629
 3206SOL    HW210362   3.427   1.761   4.751
 3207SOL     OW10363   2.577   0.573   5.426
 3207SOL    HW110364   2.619   0.636   5.484
 3207SOL    HW210365   2.606   0.487   5.457
 3208SOL     OW10366   3.335   1.198   5.356
 3208SOL    HW110367   3.322   1.213   5.449
 3208SOL    HW210368   3.428   1.215   5.341
 3209SOL     OW10369   2.238   1.742   5.288
 3209SOL    HW110370   2.153   1.784   5.274
 3209SOL    HW210371   2.216   1.658   5.328
 3210SOL     OW10372   3.531   0.881   4.979
 3210SOL    HW110373   3.525   0.796   4.936
 3210SOL    HW210374   3.521   0.945   4.908
 3211SOL     OW10375   3.082   0.318   4.189
 3211SOL    HW110376   3.145   0.247   4.183
 3211SOL    HW210377   3.112   0.370   4.264
 3212SOL     OW10378   2.451   0.737   4.395
 3212SOL    HW110379   2.490   0.823   4.379
 3212SOL    HW210380   2.384   0.729   4.327
 3213SOL     OW10381   3.628   0.362   5.373
 3213SOL    HW110382   3.609   0.377   5.280
 3213SOL    HW210383   3.556   0.306   5.404
 3214SOL     OW10384   3.608   0.934   5.236
 3214SOL    HW110385   3.603   1.028   5.249
 3214SOL    HW210386   3.592   0.922   5.142
 3215SOL     OW10387   2.721   1.368   3.758
 3215SOL    HW110388   2.685   1.395   3.843
 3215SOL    HW210389   2.742   1.451   3.714
 3216SOL     OW10390   2.730   0.968   4.579
 3216SOL    HW110391   2.780   0.896   4.618
 3216SOL    HW210392   2.694   1.016   4.653
 3217SOL     OW10393   2.941   0.989   3.813
 3217SOL    HW110394   2.919   1.039   3.734
 3217SOL    HW210395   3.015   0.935   3.787
 3218SOL     OW10396   3.714   1.555   4.568
 3218SOL    HW110397   3.636   1.542   4.515
 3218SOL    HW210398   3.707   1.489   4.637
 3219SOL     OW10399   2.087   1.303   5.580
 3219SOL    HW110400   2.020   1.241   5.550
 3219SOL    HW210401   2.069   1.314   5.673
 3220SOL     OW10402   1.945   1.231   4.390
 3220SOL    HW110403   1.951   1.183   4.473
 3220SOL    HW210404   2.014   1.194   4.335
 3221SOL     OW10405   2.544   1.403   5.353
 3221SOL    HW110406   2.464   1.361   5.384
 3221SOL    HW210407   2.540   1.492   5.388
 3222SOL     OW10408   3.674   0.176   4.956
 3222SOL    HW110409   3.640   0.087   4.959
 3222SOL    HW210410   3.695   0.190   4.863
 3223SOL     OW10411   2.291   0.436   4.248
 3223SOL    HW110412   2.324   0.363   4.195
 3223SOL    HW210413   2.244   0.394   4.320
 3224SOL     OW10414   3.562   1.489   4.820
 3224SOL    HW110415   3.481   1.467   4.773
 3224SOL    HW210416   3.571   1.419   4.885
 3225SOL     OW10417   2.191   0.557   5.015
 3225SOL    HW110418   2.247   0.502   5.069
 3225SOL    HW210419   2.211   0.530   4.925
 3226SOL     OW10420   2.686   1.580   4.396
 3226SOL    HW110421   2.672   1.617   4.309
 3226SOL    HW210422   2.613   1.519   4.409
 3227SOL     OW10423   3.290   0.219   4.840
 3227SOL    HW110424   3.326   0.145   4.889
 3227SOL    HW210425   3.241   0.268   4.906
 3228SOL     OW10426   2.865   0.021   4.863
 3228SOL    HW110427   2.814   5.252   4.820
 3228SOL    HW210428   2.951   5.282   4.877
 3229SOL     OW10429   2.635   1.332   4.041
 3229SOL    HW110430   2.604   1.242   4.047
 3229SOL    HW210431   2.717   1.333   4.089
 3230SOL     OW10432   2.479   1.559   5.006
 3230SOL    HW110433   2.484   1.638   5.059
 3230SOL    HW210434   2.569   1.546   4.974
 3231SOL     OW10435   3.218   0.037   3.887
 3231SOL    HW110436   3.252   5.295   3.808
 3231SOL    HW210437   3.138   5.289   3.907
 3232SOL     OW10438   3.163   0.464   4.408
 3232SOL    HW110439   3.109   0.543   4.413
 3232SOL    HW210440   3.156   0.424   4.495
 3233SOL     OW10441   3.456   0.215   4.606
 3233SOL    HW110442   3.391   0.227   4.675
 3233SOL    HW210443   3.449   0.294   4.552
 3234SOL     OW10444   1.906   1.070   4.030
 3234SOL    HW110445   1.999   1.062   4.013
 3234SOL    HW210446   1.877   0.981   4.053
 3235SOL     OW10447   2.744   1.646   4.062
 3235SOL    HW110448   2.678   1.620   3.998
 3235SOL    HW210449   2.711   1.728   4.100
 3236SOL     OW10450   2.089   0.625   5.710
 3236SOL    HW110451   2.001   0.622   5.745
 3236SOL    HW210452   2.079   0.599   5.618
 3237SOL     OW10453   2.080   0.285   6.579
 3237SOL    HW110454   2.108   0.249   6.663
 3237SOL    HW210455   1.995   0.243   6.563
 3238SOL     OW10456   1.865   0.387   6.224
 3238SOL    HW110457   1.781   0.408   6.264
 3238SOL    HW210458   1.847   0.310   6.170
 3239SOL     OW10459   2.429   1.289   6.762
 3239SOL    HW110460   2.342   1.294   6.723
 3239SOL    HW210461   2.445   1.378   6.795
 3240SOL     OW10462   3.425   1.512   6.293
 3240SOL    HW110463   3.382   1.492   6.376
 3240SOL    HW210464   3.353   1.516   6.230
 3241SOL     OW10465   2.994   0.698   6.287
 3241SOL    HW110466   3.042   0.779   6.272
 3241SOL    HW210467   2.946   0.712   6.368
 3242SOL     OW10468   3.630   0.605   5.814
 3242SOL    HW110469   3.609   0.598   5.721
 3242SOL    HW210470   3.594   0.525   5.853
 3243SOL     OW10471   2.615   1.141   6.628
 3243SOL    HW110472   2.547   1.177   6.685
 3243SOL    HW210473   2.652   1.218   6.583
 3244SOL     OW10474   2.728   0.777   7.406
 3244SOL    HW110475   2.716   0.851   7.466
 3244SOL    HW210476   2.754   0.816   7.323
 3245SOL     OW10477   2.548   1.002   6.232
 3245SOL    HW110478   2.613   0.991   6.301
 3245SOL    HW210479   2.479   1.054   6.272
 3246SOL     OW10480   2.573   1.151   7.399
 3246SOL    HW110481   2.621   1.229   7.427
 3246SOL    HW210482   2.491   1.185   7.362
 3247SOL     OW10483   2.192   1.424   6.654
 3247SOL    HW110484   2.120   1.386   6.604
 3247SOL    HW210485   2.242   1.475   6.589
 3248SOL     OW10486   3.323   1.500   6.942
 3248SOL    HW110487   3.374   1.580   6.951
 3248SOL    HW210488   3.259   1.504   7.013
 3249SOL     OW10489   2.307   0.398   7.072
 3249SOL    HW110490   2.382   0.338   7.071
 3249SOL    HW210491   2.231   0.341   7.086
 3250SOL     OW10492   3.472   0.451   6.325
 3250SOL    HW110493   3.396   0.473   6.270
 3250SOL    HW210494   3.488   0.530   6.376
 3251SOL     OW10495   2.081   1.715   6.058
 3251SOL    HW110496   2.103   1.792   6.111
 3251SOL    HW210497   2.154   1.707   5.997
 3252SOL     OW10498   2.998   1.341   7.276
 3252SOL    HW110499   3.039   1.338   7.363
 3252SOL    HW210500   2.947   1.261   7.271
 3253SOL     OW10501   2.092   1.442   6.121
 3253SOL    HW110502   2.075   1.536   6.124
 3253SOL    HW210503   2.033   1.404   6.186
 3254SOL     OW10504   2.120   1.090   6.477
 3254SOL    HW110505   2.117   1.003   6.517
 3254SOL    HW210506   2.063   1.144   6.531
 3255SOL     OW10507   2.472   1.790   7.014
 3255SOL    HW110508   2.391   1.774   7.062
 3255SOL    HW210509   2.496   1.880   7.039
 3256SOL     OW10510   2.446   0.983   5.721
 3256SOL    HW110511   2.492   1.030   5.652
 3256SOL    HW210512   2.486   1.013   5.803
 3257SOL     OW10513   3.449   0.136   7.042
 3257SOL    HW110514   3.473   0.221   7.003
 3257SOL    HW210515   3.444   0.153   7.136
 3258SOL     OW10516   1.977   0.654   6.146
 3258SOL    HW110517   1.949   0.565   6.167
 3258SOL    HW210518   1.969   0.702   6.228
 3259SOL     OW10519   3.704   1.758   5.920
 3259SOL    HW110520   3.770   1.730   5.984
 3259SOL    HW210521   3.727   1.849   5.901
 3260SOL     OW10522   1.895   1.594   5.710
 3260SOL    HW110523   1.877   1.502   5.730
 3260SOL    HW210524   1.870   1.641   5.790
 3261SOL     OW10525   3.551   0.918   6.228
 3261SOL    HW110526   3.634   0.875   6.205
 3261SOL    HW210527   3.528   0.969   6.150
 3262SOL     OW10528   3.508   1.106   6.015
 3262SOL    HW110529   3.594   1.111   5.973
 3262SOL    HW210530   3.514   1.168   6.088
 3263SOL     OW10531   1.985   0.744   7.171
 3263SOL    HW110532   2.077   0.771   7.177
 3263SOL    HW210533   1.935   0.825   7.179
 3264SOL     OW10534   2.475   1.387   6.321
 3264SOL    HW110535   2.430   1.303   6.330
 3264SOL    HW210536   2.460   1.413   6.231
 3265SOL     OW10537   3.150   1.238   7.009
 3265SOL    HW110538   3.182   1.170   6.949
 3265SOL    HW210539   3.208   1.232   7.085
 3266SOL     OW10540   2.674   0.029   6.116
 3266SOL    HW110541   2.702   0.116   6.089
 3266SOL    HW210542   2.578   0.032   6.109
 3267SOL     OW10543   2.051   0.965   6.859
 3267SOL    HW110544   2.137   0.924   6.844
 3267SOL    HW210545   1.990   0.912   6.808
 3268SOL     OW10546   3.393   0.994   5.785
 3268SOL    HW110547   3.324   0.937   5.817
 3268SOL    HW210548   3.435   1.029   5.864
 3269SOL     OW10549   3.047   1.807   7.209
 3269SOL    HW110550   3.055   1.867   7.135
 3269SOL    HW210551   3.065   1.721   7.172
 3270SOL     OW10552   2.190   0.263   7.405
 3270SOL    HW110553   2.241   0.341   7.428
 3270SOL    HW210554   2.102   0.281   7.439
 3271SOL     OW10555   3.329   1.419   6.537
 3271SOL    HW110556   3.261   1.435   6.602
 3271SOL    HW210557   3.316   1.328   6.510
 3272SOL     OW10558   3.520   1.741   6.164
 3272SOL    HW110559   3.501   1.711   6.075
 3272SOL    HW210560   3.495   1.668   6.220
 3273SOL     OW10561   2.457   0.721   5.853
 3273SOL    HW110562   2.462   0.802   5.803
 3273SOL    HW210563   2.391   0.738   5.920
 3274SOL     OW10564   3.140   0.348   6.517
 3274SOL    HW110565   3.049   0.320   6.530
 3274SOL    HW210566   3.190   0.298   6.581
 3275SOL     OW10567   3.442   1.671   5.895
 3275SOL    HW110568   3.533   1.701   5.888
 3275SOL    HW210569   3.415   1.654   5.805
 3276SOL     OW10570   2.656   0.618   7.035
 3276SOL    HW110571   2.628   0.597   7.124
 3276SOL    HW210572   2.614   0.551   6.981
 3277SOL     OW10573   3.257   0.475   7.264
 3277SOL    HW110574   3.258   0.520   7.349
 3277SOL    HW210575   3.319   0.403   7.273
 3278SOL     OW10576   2.816   0.887   7.168
 3278SOL    HW110577   2.871   0.818   7.132
 3278SOL    HW210578   2.768   0.922   7.093
 3279SOL     OW10579   2.856   0.417   6.821
 3279SOL    HW110580   2.770   0.438   6.858
 3279SOL    HW210581   2.836   0.369   6.740
 3280SOL     OW10582   2.913   0.697   6.012
 3280SOL    HW110583   2.929   0.691   6.106
 3280SOL    HW210584   2.830   0.652   5.998
 3281SOL     OW10585   1.950   0.821   6.363
 3281SOL    HW110586   2.031   0.814   6.414
 3281SOL    HW210587   1.907   0.899   6.398
 3282SOL     OW10588   1.987   1.857   7.167
 3282SOL    HW110589   1.989   1.833   7.260
 3282SOL    HW210590   1.899   1.834   7.138
 3283SOL     OW10591   2.738   0.366   5.775
 3283SOL    HW110592   2.777   0.425   5.711
 3283SOL    HW210593   2.794   0.288   5.773
 3284SOL     OW10594   3.570   0.574   7.415
 3284SOL    HW110595   3.533   0.648   7.367
 3284SOL    HW210596   3.599   0.514   7.347
 3285SOL     OW10597   3.239   1.142   6.127
 3285SOL    HW110598   3.318   1.130   6.074
 3285SOL    HW210599   3.186   1.204   6.077
 3286SOL     OW10600   2.387   0.202   6.468
 3286SOL    HW110601   2.409   0.218   6.560
 3286SOL    HW210602   2.409   0.284   6.423
 3287SOL     OW10603   2.867   1.444   6.057
 3287SOL    HW110604   2.830   1.517   6.008
 3287SOL    HW210605   2.848   1.465   6.149
 3288SOL     OW10606   2.216   1.809   6.449
 3288SOL    HW110607   2.260   1.725   6.457
 3288SOL    HW210608   2.285   1.874   6.467
 3289SOL     OW10609   3.662   1.055   6.455
 3289SOL    HW110610   3.607   1.038   6.378
 3289SOL    HW210611   3.599   1.061   6.527
 3290SOL     OW10612   3.090   1.539   7.098
 3290SOL    HW110613   3.076   1.466   7.159
 3290SOL    HW210614   3.025   1.525   7.030
 3291SOL     OW10615   2.181   0.958   5.837
 3291SOL    HW110616   2.264   0.977   5.792
 3291SOL    HW210617   2.151   0.876   5.798
 3292SOL     OW10618   3.342   0.744   6.312
 3292SOL    HW110619   3.334   0.702   6.398
 3292SOL    HW210620   3.419   0.800   6.319
 3293SOL     OW10621   2.328   1.264   7.324
 3293SOL    HW110622   2.301   1.269   7.232
 3293SOL    HW210623   2.246   1.263   7.373
 3294SOL     OW10624   2.984   1.778   5.817
 3294SOL    HW110625   2.910   1.736   5.862
 3294SOL    HW210626   3.008   1.716   5.748
 3295SOL     OW10627   2.059   0.278   7.089
 3295SOL    HW110628   1.980   0.332   7.085
 3295SOL    HW210629   2.049   0.228   7.170
 3296SOL     OW10630   3.490   1.380   5.674
 3296SOL    HW110631   3.449   1.465   5.659
 3296SOL    HW210632   3.422   1.316   5.655
 3297SOL     OW10633   2.328   1.737   5.906
 3297SOL    HW110634   2.372   1.792   5.971
 3297SOL    HW210635   2.398   1.705   5.850
 3298SOL     OW10636   3.270   0.100   6.018
 3298SOL    HW110637   3.262   0.081   5.924
 3298SOL    HW210638   3.362   0.122   6.031
 3299SOL     OW10639   2.116   1.791   6.818
 3299SOL    HW110640   2.170   1.726   6.863
 3299SOL    HW210641   2.110   1.759   6.728
 3300SOL     OW10642   2.800   1.698   6.485
 3300SOL    HW110643   2.879   1.647   6.505
 3300SOL    HW210644   2.756   1.648   6.416
 3301SOL     OW10645   2.255   0.696   6.061
 3301SOL    HW110646   2.275   0.603   6.072
 3301SOL    HW210647   2.161   0.703   6.079
 3302SOL     OW10648   3.400   0.227   7.310
 3302SOL    HW110649   3.407   0.245   7.404
 3302SOL    HW210650   3.323   0.170   7.302
 3303SOL     OW10651   2.486   0.132   5.694
 3303SOL    HW110652   2.548   0.063   5.719
 3303SOL    HW210653   2.434   0.093   5.623
 3304SOL     OW10654   2.640   0.312   7.350
 3304SOL    HW110655   2.701   0.239   7.352
 3304SOL    HW210656   2.601   0.312   7.438
 3305SOL     OW10657   2.737   1.520   6.780
 3305SOL    HW110658   2.722   1.485   6.693
 3305SOL    HW210659   2.808   1.467   6.816
 3306SOL     OW10660   3.203   0.589   7.018
 3306SOL    HW110661   3.233   0.558   7.103
 3306SOL    HW210662   3.238   0.677   7.010
 3307SOL     OW10663   2.678   1.393   6.526
 3307SOL    HW110664   2.762   1.382   6.483
 3307SOL    HW210665   2.614   1.396   6.455
 3308SOL     OW10666   2.790   0.510   6.489
 3308SOL    HW110667   2.765   0.502   6.397
 3308SOL    HW210668   2.821   0.423   6.513
 3309SOL     OW10669   2.404   0.062   6.093
 3309SOL    HW110670   2.319   0.060   6.137
 3309SOL    HW210671   2.397   0.132   6.028
 3310SOL     OW10672   3.290   1.199   5.627
 3310SOL    HW110673   3.320   1.123   5.677
 3310SOL    HW210674   3.204   1.220   5.664
 3311SOL     OW10675   2.163   0.063   5.778
 3311SOL    HW110676   2.221   0.134   5.749
 3311SOL    HW210677   2.220   5.287   5.784
 3312SOL     OW10678   2.801   0.263   6.048
 3312SOL    HW110679   2.773   0.300   5.964
 3312SOL    HW210680   2.897   0.274   6.048
 3313SOL     OW10681   2.943   0.682   7.045
 3313SOL    HW110682   2.875   0.615   7.050
 3313SOL    HW210683   3.025   0.633   7.039
 3314SOL     OW10684   3.085   1.571   6.380
 3314SOL    HW110685   3.100   1.637   6.313
 3314SOL    HW210686   3.153   1.586   6.445
 3315SOL     OW10687   2.331   1.150   6.318
 3315SOL    HW110688   2.262   1.130   6.382
 3315SOL    HW210689   2.291   1.134   6.233
 3316SOL     OW10690   3.130   1.793   6.195
 3316SOL    HW110691   3.177   1.854   6.138
 3316SOL    HW210692   3.063   1.847   6.238
 3317SOL     OW10693   2.887   0.545   5.609
 3317SOL    HW110694   2.844   0.629   5.591
 3317SOL    HW210695   2.950   0.565   5.678
 3318SOL     OW10696   1.942   0.553   6.980
 3318SOL    HW110697   2.033   0.553   6.952
 3318SOL    HW210698   1.936   0.624   7.044
 3319SOL     OW10699   2.417   0.238   6.744
 3319SOL    HW110700   2.449   0.153   6.773
 3319SOL    HW210701   2.324   0.239   6.770
 3320SOL     OW10702   2.728   0.463   6.227
 3320SOL    HW110703   2.682   0.517   6.163
 3320SOL    HW210704   2.752   0.383   6.179
 3321SOL     OW10705   2.840   0.061   6.349
 3321SOL    HW110706   2.775   0.057   6.279
 3321SOL    HW210707   2.850   5.270   6.378
 3322SOL     OW10708   3.300   1.162   6.443
 3322SOL    HW110709   3.229   1.097   6.442
 3322SOL    HW210710   3.324   1.173   6.351
 3323SOL     OW10711   3.328   0.607   6.562
 3323SOL    HW110712   3.278   0.526   6.565
 3323SOL    HW210713   3.388   0.601   6.636
 3324SOL     OW10714   3.707   0.816   5.969
 3324SOL    HW110715   3.763   0.765   6.027
 3324SOL    HW210716   3.679   0.753   5.902
 3325SOL     OW10717   2.352   1.419   5.741
 3325SOL    HW110718   2.277   1.390   5.793
 3325SOL    HW210719   2.341   1.376   5.657
 3326SOL     OW10720   3.533   1.264   6.232
 3326SOL    HW110721   3.628   1.267   6.245
 3326SOL    HW210722   3.503   1.352   6.252
 3327SOL     OW10723   3.256   0.572   5.657
 3327SOL    HW110724   3.194   0.552   5.728
 3327SOL    HW210725   3.341   0.542   5.690
 3328SOL     OW10726   2.385   0.265   5.907
 3328SOL    HW110727   2.431   0.217   5.838
 3328SOL    HW210728   2.363   0.349   5.867
 3329SOL     OW10729   3.614   1.240   7.157
 3329SOL    HW110730   3.701   1.201   7.152
 3329SOL    HW210731   3.629   1.329   7.186
 3330SOL     OW10732   2.920   1.353   6.919
 3330SOL    HW110733   2.845   1.322   6.970
 3330SOL    HW210734   2.996   1.312   6.960
 3331SOL     OW10735   3.470   1.625   7.239
 3331SOL    HW110736   3.464   1.660   7.150
 3331SOL    HW210737   3.553   1.577   7.241
 3332SOL     OW10738   2.992   1.204   6.691
 3332SOL    HW110739   2.933   1.242   6.756
 3332SOL    HW210740   2.960   1.237   6.607
 3333SOL     OW10741   3.489   1.098   6.663
 3333SOL    HW110742   3.484   1.160   6.735
 3333SOL    HW210743   3.411   1.115   6.611
 3334SOL     OW10744   2.766   0.107   6.974
 3334SOL    HW110745   2.796   0.073   6.890
 3334SOL    HW210746   2.843   0.149   7.012
 3335SOL     OW10747   2.846   1.114   7.311
 3335SOL    HW110748   2.754   1.131   7.330
 3335SOL    HW210749   2.845   1.037   7.254
 3336SOL     OW10750   2.571   1.062   5.957
 3336SOL    HW110751   2.557   1.044   6.050
 3336SOL    HW210752   2.647   1.008   5.934
 3337SOL     OW10753   2.281   0.816   6.838
 3337SOL    HW110754   2.350   0.825   6.904
 3337SOL    HW210755   2.246   0.728   6.851
 3338SOL     OW10756   3.128   0.378   6.859
 3338SOL    HW110757   3.161   0.455   6.906
 3338SOL    HW210758   3.038   0.401   6.837
 3339SOL     OW10759   1.934   1.574   6.940
 3339SOL    HW110760   1.905   1.646   6.884
 3339SOL    HW210761   2.029   1.575   6.933
 3340SOL     OW10762   2.208   1.111   6.076
 3340SOL    HW110763   2.215   1.184   6.015
 3340SOL    HW210764   2.207   1.033   6.021
 3341SOL     OW10765   2.415   0.537   6.446
 3341SOL    HW110766   2.429   0.595   6.372
 3341SOL    HW210767   2.481   0.563   6.511
 3342SOL     OW10768   3.110   1.348   5.976
 3342SOL    HW110769   3.166   1.420   6.006
 3342SOL    HW210770   3.023   1.370   6.009
 3343SOL     OW10771   3.145   1.458   6.733
 3343SOL    HW110772   3.201   1.461   6.811
 3343SOL    HW210773   3.089   1.381   6.747
 3344SOL     OW10774   3.444   0.622   6.066
 3344SOL    HW110775   3.396   0.675   6.130
 3344SOL    HW210776   3.488   0.686   6.010
 3345SOL     OW10777   2.208   1.528   6.900
 3345SOL    HW110778   2.196   1.485   6.815
 3345SOL    HW210779   2.303   1.539   6.908
 3346SOL     OW10780   2.277   0.744   7.188
 3346SOL    HW110781   2.338   0.790   7.130
 3346SOL    HW210782   2.319   0.660   7.206
 3347SOL     OW10783   3.464   0.778   7.269
 3347SOL    HW110784   3.378   0.820   7.262
 3347SOL    HW210785   3.517   0.821   7.201
 3348SOL     OW10786   2.907   0.117   7.374
 3348SOL    HW110787   2.936   0.196   7.329
 3348SOL    HW210788   2.913   0.048   7.307
 3349SOL     OW10789   2.345   0.057   7.323
 3349SOL    HW110790   2.285   5.293   7.286
 3349SOL    HW210791   2.289   0.132   7.346
 3350SOL     OW10792   2.446   0.873   6.618
 3350SOL    HW110793   2.477   0.963   6.617
 3350SOL    HW210794   2.389   0.868   6.694
 3351SOL     OW10795   3.218   0.859   6.615
 3351SOL    HW110796   3.135   0.849   6.569
 3351SOL    HW210797   3.260   0.773   6.608
 3352SOL     OW10798   3.067   0.528   5.852
 3352SOL    HW110799   3.071   0.447   5.904
 3352SOL    HW210800   3.024   0.591   5.910
 3353SOL     OW10801   2.158   0.203   6.834
 3353SOL    HW110802   2.118   0.242   6.912
 3353SOL    HW210803   2.158   0.109   6.852
 3354SOL     OW10804   1.908   1.311   6.862
 3354SOL    HW110805   1.941   1.256   6.933
 3354SOL    HW210806   1.915   1.401   6.896
 3355SOL     OW10807   2.587   0.632   6.645
 3355SOL    HW110808   2.661   0.616   6.587
 3355SOL    HW210809   2.558   0.720   6.623
 3356SOL     OW10810   3.598   0.960   7.439
 3356SOL    HW110811   3.550   0.897   7.384
 3356SOL    HW210812   3.540   0.975   7.514
 3357SOL     OW10813   2.167   0.071   6.241
 3357SOL    HW110814   2.147   0.165   6.245
 3357SOL    HW210815   2.213   0.053   6.322
 3358SOL     OW10816   3.475   0.376   5.949
 3358SOL    HW110817   3.508   0.312   6.013
 3358SOL    HW210818   3.455   0.453   6.002
 3359SOL     OW10819   2.890   0.759   6.546
 3359SOL    HW110820   2.886   0.777   6.640
 3359SOL    HW210821   2.863   0.668   6.537
 3360SOL     OW10822   2.843   1.565   7.303
 3360SOL    HW110823   2.829   1.610   7.220
 3360SOL    HW210824   2.888   1.484   7.279
 3361SOL     OW10825   3.716   1.505   7.191
 3361SOL    HW110826   3.735   1.531   7.101
 3361SOL    HW210827   3.798   1.522   7.238
 3362SOL     OW10828   2.215   0.914   7.396
 3362SOL    HW110829   2.298   0.935   7.439
 3362SOL    HW210830   2.239   0.852   7.327
 3363SOL     OW10831   3.388   0.271   5.712
 3363SOL    HW110832   3.323   0.208   5.743
 3363SOL    HW210833   3.424   0.310   5.791
 3364SOL     OW10834   3.153   0.826   5.617
 3364SOL    HW110835   3.195   0.740   5.620
 3364SOL    HW210836   3.184   0.865   5.535
 3365SOL     OW10837   2.928   1.336   6.441
 3365SOL    HW110838   2.932   1.264   6.378
 3365SOL    HW210839   2.989   1.401   6.406
 3366SOL     OW10840   2.171   0.809   6.533
 3366SOL    HW110841   2.264   0.830   6.526
 3366SOL    HW210842   2.169   0.718   6.565
 3367SOL     OW10843   2.194   0.527   6.599
 3367SOL    HW110844   2.157   0.440   6.584
 3367SOL    HW210845   2.270   0.531   6.542
 3368SOL     OW10846   2.997   0.376   7.275
 3368SOL    HW110847   2.950   0.431   7.337
 3368SOL    HW210848   3.084   0.416   7.270
 3369SOL     OW10849   2.995   0.222   7.052
 3369SOL    HW110850   2.998   0.280   7.127
 3369SOL    HW210851   3.050   0.263   6.986
 3370SOL     OW10852   1.867   1.321   5.782
 3370SOL    HW110853   1.780   1.335   5.744
 3370SOL    HW210854   1.864   1.231   5.815
 3371SOL     OW10855   1.952   1.787   6.524
 3371SOL    HW110856   1.922   1.707   6.480
 3371SOL    HW210857   2.042   1.798   6.494
 3372SOL     OW10858   2.357   1.573   6.491
 3372SOL    HW110859   2.425   1.635   6.515
 3372SOL    HW210860   2.401   1.510   6.434
 3373SOL     OW10861   2.844   0.791   6.812
 3373SOL    HW110862   2.900   0.769   6.886
 3373SOL    HW210863   2.758   0.754   6.835
 3374SOL     OW10864   1.897   0.544   6.703
 3374SOL    HW110865   1.977   0.531   6.651
 3374SOL    HW210866   1.928   0.548   6.794
 3375SOL     OW10867   2.050   0.521   7.313
 3375SOL    HW110868   2.113   0.487   7.251
 3375SOL    HW210869   2.010   0.596   7.269
 3376SOL     OW10870   3.240   0.938   7.245
 3376SOL    HW110871   3.261   1.031   7.243
 3376SOL    HW210872   3.236   0.912   7.152
 3377SOL     OW10873   2.676   0.573   5.950
 3377SOL    HW110874   2.680   0.499   5.889
 3377SOL    HW210875   2.602   0.625   5.919
 3378SOL     OW10876   3.504   0.601   6.771
 3378SOL    HW110877   3.493   0.542   6.845
 3378SOL    HW210878   3.591   0.581   6.737
 3379SOL     OW10879   2.103   1.551   7.312
 3379SOL    HW110880   2.082   1.615   7.380
 3379SOL    HW210881   2.108   1.467   7.359
 3380SOL     OW10882   2.563   0.451   6.845
 3380SOL    HW110883   2.511   0.378   6.812
 3380SOL    HW210884   2.561   0.515   6.774
 3381SOL     OW10885   2.789   1.679   7.054
 3381SOL    HW110886   2.763   1.644   6.969
 3381SOL    HW210887   2.785   1.774   7.043
 3382SOL     OW10888   2.324   0.492   5.768
 3382SOL    HW110889   2.384   0.563   5.792
 3382SOL    HW210890   2.239   0.536   5.759
 3383SOL     OW10891   2.006   1.141   7.059
 3383SOL    HW110892   2.009   1.090   7.140
 3383SOL    HW210893   2.024   1.077   6.990
 3384SOL     OW10894   3.187   1.046   6.809
 3384SOL    HW110895   3.210   0.983   6.741
 3384SOL    HW210896   3.117   1.099   6.770
 3385SOL     OW10897   3.174   0.856   5.892
 3385SOL    HW110898   3.099   0.826   5.942
 3385SOL    HW210899   3.149   0.843   5.800
 3386SOL     OW10900   3.635   1.743   6.737
 3386SOL    HW110901   3.695   1.769   6.667
 3386SOL    HW210902   3.611   1.653   6.715
 3387SOL     OW10903   3.103   1.732   6.697
 3387SOL    HW110904   3.185   1.754   6.653
 3387SOL    HW210905   3.110   1.639   6.716
 3388SOL     OW10906   1.946   1.267   6.598
 3388SOL    HW110907   1.931   1.280   6.691
 3388SOL    HW210908   1.873   1.211   6.569
 3389SOL     OW10909   2.538   1.665   7.315
 3389SOL    HW110910   2.488   1.746   7.314
 3389SOL    HW210911   2.607   1.679   7.250
 3390SOL     OW10912   3.574   0.150   6.087
 3390SOL    HW110913   3.649   0.130   6.032
 3390SOL    HW210914   3.568   0.076   6.147
 3391SOL     OW10915   3.253   1.568   6.072
 3391SOL    HW110916   3.313   1.600   6.005
 3391SOL    HW210917   3.204   1.645   6.100
 3392SOL     OW10918   1.998   1.796   7.430
 3392SOL    HW110919   1.947   1.731   7.479
 3392SOL    HW210920   2.046   1.844   7.498
 3393SOL     OW10921   3.139   0.926   6.257
 3393SOL    HW110922   3.213   0.865   6.264
 3393SOL    HW210923   3.173   0.998   6.204
 3394SOL     OW10924   2.675   1.273   7.015
 3394SOL    HW110925   2.646   1.313   7.097
 3394SOL    HW210926   2.607   1.296   6.952
 3395SOL     OW10927   2.533   1.621   5.742
 3395SOL    HW110928   2.545   1.635   5.648
 3395SOL    HW210929   2.477   1.543   5.748
 3396SOL     OW10930   3.487   1.727   6.977
 3396SOL    HW110931   3.537   1.734   6.896
 3396SOL    HW210932   3.473   1.818   7.004
 3397SOL     OW10933   3.708   0.156   6.543
 3397SOL    HW110934   3.705   0.060   6.535
 3397SOL    HW210935   3.621   0.185   6.513
 3398SOL     OW10936   2.123   0.329   6.305
 3398SOL    HW110937   2.035   0.360   6.283
 3398SOL    HW210938   2.122   0.318   6.400
 3399SOL     OW10939   3.069   1.605   5.618
 3399SOL    HW110940   3.059   1.514   5.644
 3399SOL    HW210941   3.005   1.618   5.548
 3400SOL     OW10942   2.686   1.006   6.958
 3400SOL    HW110943   2.730   1.001   6.874
 3400SOL    HW210944   2.685   1.099   6.980
 3401SOL     OW10945   2.778   0.911   5.877
 3401SOL    HW110946   2.839   0.943   5.810
 3401SOL    HW210947   2.826   0.841   5.921
 3402SOL     OW10948   3.353   1.625   5.629
 3402SOL    HW110949   3.259   1.619   5.615
 3402SOL    HW210950   3.390   1.632   5.541
 3403SOL     OW10951   2.230   1.304   7.078
 3403SOL    HW110952   2.218   1.380   7.022
 3403SOL    HW210953   2.153   1.249   7.061
 3404SOL     OW10954   3.472   1.283   6.866
 3404SOL    HW110955   3.532   1.271   6.940
 3404SOL    HW210956   3.412   1.352   6.895
 3405SOL     OW10957   2.916   1.108   6.294
 3405SOL    HW110958   2.844   1.057   6.332
 3405SOL    HW210959   2.978   1.042   6.262
 3406SOL     OW10960   2.881   0.243   6.555
 3406SOL    HW110961   2.861   0.198   6.473
 3406SOL    HW210962   2.874   0.176   6.622
 3407SOL     OW10963   2.465   1.488   6.067
 3407SOL    HW110964   2.512   1.438   6.000
 3407SOL    HW210965   2.395   1.532   6.020
 3408SOL     OW10966   3.588   0.386   6.964
 3408SOL    HW110967   3.658   0.451   6.963
 3408SOL    HW210968   3.619   0.316   6.906
 3409SOL     OW10969   2.122   1.344   5.875
 3409SOL    HW110970   2.029   1.342   5.852
 3409SOL    HW210971   2.124   1.381   5.963
 3410SOL     OW10972   1.975   1.023   7.306
 3410SOL    HW110973   1.899   1.000   7.358
 3410SOL    HW210974   2.049   0.984   7.353
 3411SOL     OW10975   2.535   0.213   7.077
 3411SOL    HW110976   2.618   0.196   7.032
 3411SOL    HW210977   2.559   0.262   7.155
 3412SOL     OW10978   1.940   0.338   5.627
 3412SOL    HW110979   1.856   0.305   5.594
 3412SOL    HW210980   1.961   0.412   5.570
 3413SOL     OW10981   3.291   0.858   6.986
 3413SOL    HW110982   3.242   0.919   6.931
 3413SOL    HW210983   3.380   0.861   6.951
 3414SOL     OW10984   1.933   0.167   5.900
 3414SOL    HW110985   1.936   0.250   5.853
 3414SOL    HW210986   2.018   0.126   5.881
 3415SOL     OW10987   3.041   1.338   5.703
 3415SOL    HW110988   2.950   1.309   5.705
 3415SOL    HW210989   3.068   1.339   5.795
 3416SOL     OW10990   2.482   0.831   7.020
 3416SOL    HW110991   2.537   0.907   7.004
 3416SOL    HW210992   2.543   0.757   7.028
 3417SOL     OW10993   3.345   1.777   6.565
 3417SOL    HW110994   3.367   1.838   6.495
 3417SOL    HW210995   3.429   1.759   6.608
 3418SOL     OW10996   2.576   0.573   7.288
 3418SOL    HW110997   2.618   0.636   7.347
 3418SOL    HW210998   2.605   0.487   7.318
 3419SOL     OW10999   3.334   1.199   7.218
 3419SOL    HW111000   3.321   1.213   7.312
 3419SOL    HW211001   3.427   1.215   7.203
 3420SOL     OW11002   2.238   1.740   7.149
 3420SOL    HW111003   2.153   1.782   7.136
 3420SOL    HW211004   2.218   1.656   7.191
 3421SOL     OW11005   3.531   0.881   6.841
 3421SOL    HW111006   3.525   0.796   6.798
 3421SOL    HW211007   3.521   0.945   6.770
 3422SOL     OW11008   3.082   0.318   6.052
 3422SOL    HW111009   3.145   0.247   6.045
 3422SOL    HW211010   3.112   0.370   6.126
 3423SOL     OW11011   2.451   0.738   6.257
 3423SOL    HW111012   2.490   0.823   6.241
 3423SOL    HW211013   2.384   0.729   6.189
 3424SOL     OW11014   3.627   0.361   7.236
 3424SOL    HW111015   3.609   0.377   7.144
 3424SOL    HW211016   3.555   0.306   7.266
 3425SOL     OW11017   3.608   0.933   7.098
 3425SOL    HW111018   3.603   1.028   7.112
 3425SOL    HW211019   3.592   0.922   7.004
 3426SOL     OW11020   2.725   1.367   5.621
 3426SOL    HW111021   2.686   1.396   5.704
 3426SOL    HW211022   2.743   1.448   5.573
 3427SOL     OW11023   2.524   1.784   6.529
 3427SOL    HW111024   2.503   1.875   6.509
 3427SOL    HW211025   2.619   1.781   6.525
 3428SOL     OW11026   2.729   0.967   6.441
 3428SOL    HW111027   2.780   0.896   6.480
 3428SOL    HW211028   2.694   1.016   6.516
 3429SOL     OW11029   2.940   0.988   5.675
 3429SOL    HW111030   2.919   1.039   5.597
 3429SOL    HW211031   3.015   0.934   5.649
 3430SOL     OW11032   3.715   1.554   6.430
 3430SOL    HW111033   3.637   1.543   6.376
 3430SOL    HW211034   3.706   1.489   6.499
 3431SOL     OW11035   2.087   1.302   7.442
 3431SOL    HW111036   2.021   1.241   7.411
 3431SOL    HW211037   2.066   1.316   7.535
 3432SOL     OW11038   1.946   1.233   6.251
 3432SOL    HW111039   1.954   1.185   6.333
 3432SOL    HW211040   2.014   1.195   6.195
 3433SOL     OW11041   2.543   1.403   7.214
 3433SOL    HW111042   2.463   1.361   7.246
 3433SOL    HW211043   2.540   1.492   7.250
 3434SOL     OW11044   3.675   0.176   6.818
 3434SOL    HW111045   3.639   0.087   6.821
 3434SOL    HW211046   3.695   0.190   6.726
 3435SOL     OW11047   2.291   0.436   6.110
 3435SOL    HW111048   2.324   0.363   6.057
 3435SOL    HW211049   2.244   0.394   6.182
 3436SOL     OW11050   3.562   1.488   6.681
 3436SOL    HW111051   3.481   1.466   6.634
 3436SOL    HW211052   3.572   1.419   6.746
 3437SOL     OW11053   2.191   0.557   6.877
 3437SOL    HW111054   2.247   0.502   6.931
 3437SOL    HW211055   2.211   0.530   6.787
 3438SOL     OW11056   2.691   1.578   6.263
 3438SOL    HW111057   2.677   1.634   6.187
 3438SOL    HW211058   2.614   1.520   6.265
 3439SOL     OW11059   3.289   0.219   6.702
 3439SOL    HW111060   3.326   0.144   6.750
 3439SOL    HW211061   3.241   0.268   6.768
 3440SOL     OW11062   2.865   0.021   6.725
 3440SOL    HW111063   2.814   5.252   6.682
 3440SOL    HW211064   2.951   5.282   6.739
 3441SOL     OW11065   2.633   1.333   5.903
 3441SOL    HW111066   2.604   1.242   5.909
 3441SOL    HW211067   2.716   1.334   5.951
 3442SOL     OW11068   2.481   1.556   6.871
 3442SOL    HW111069   2.484   1.638   6.920
 3442SOL    HW211070   2.569   1.548   6.833
 3443SOL     OW11071   3.218   0.037   5.749
 3443SOL    HW111072   3.252   5.295   5.670
 3443SOL    HW211073   3.138   5.290   5.769
 3444SOL     OW11074   3.163   0.464   6.270
 3444SOL    HW111075   3.109   0.543   6.275
 3444SOL    HW211076   3.156   0.424   6.357
 3445SOL     OW11077   3.456   0.215   6.468
 3445SOL    HW111078   3.391   0.227   6.537
 3445SOL    HW211079   3.449   0.294   6.414
 3446SOL     OW11080   1.905   1.070   5.893
 3446SOL    HW111081   1.999   1.062   5.875
 3446SOL    HW211082   1.877   0.981   5.915
 3447SOL     OW11083   2.747   1.654   5.927
 3447SOL    HW111084   2.674   1.637   5.868
 3447SOL    HW211085   2.718   1.728   5.980
 3448SOL     OW11086   2.088   0.620   7.572
 3448SOL    HW111087   1.998   0.628   7.605
 3448SOL    HW211088   2.078   0.598   7.480
 3449SOL     OW11089   3.631   0.597   7.679
 3449SOL    HW111090   3.610   0.592   7.586
 3449SOL    HW211091   3.589   0.519   7.716
 3450SOL     OW11092   2.082   1.717   7.918
 3450SOL    HW111093   2.110   1.757   8.001
 3450SOL    HW211094   2.161   1.715   7.865
 3451SOL     OW11095   2.079   1.438   7.992
 3451SOL    HW111096   2.063   1.533   7.989
 3451SOL    HW211097   2.019   1.406   8.060
 3452SOL     OW11098   2.446   0.983   7.580
 3452SOL    HW111099   2.492   1.031   7.511
 3452SOL    HW211100   2.486   1.015   7.661
 3453SOL     OW11101   3.699   1.759   7.797
 3453SOL    HW111102   3.771   1.728   7.853
 3453SOL    HW211103   3.725   1.847   7.771
 3454SOL     OW11104   1.892   1.599   7.577
 3454SOL    HW111105   1.877   1.505   7.593
 3454SOL    HW211106   1.866   1.641   7.659
 3455SOL     OW11107   3.546   0.864   8.031
 3455SOL    HW111108   3.624   0.876   0.005
 3455SOL    HW211109   3.531   0.948   7.990
 3456SOL     OW11110   3.517   1.098   7.878
 3456SOL    HW111111   3.605   1.124   7.849
 3456SOL    HW211112   3.487   1.170   7.933
 3457SOL     OW11113   2.673   5.288   7.943
 3457SOL    HW111114   2.716   0.072   7.929
 3457SOL    HW211115   2.579   0.008   7.942
 3458SOL     OW11116   3.396   0.995   7.650
 3458SOL    HW111117   3.328   0.937   7.684
 3458SOL    HW211118   3.439   1.029   7.728
 3459SOL     OW11119   2.452   0.724   7.708
 3459SOL    HW111120   2.455   0.807   7.660
 3459SOL    HW211121   2.392   0.741   7.781
 3460SOL     OW11122   3.436   1.672   7.757
 3460SOL    HW111123   3.527   1.700   7.765
 3460SOL    HW211124   3.424   1.659   7.663
 3461SOL     OW11125   1.921   0.864   0.087
 3461SOL    HW111126   1.984   0.796   0.112
 3461SOL    HW211127   1.920   0.925   0.161
 3462SOL     OW11128   2.734   0.359   7.630
 3462SOL    HW111129   2.777   0.422   7.572
 3462SOL    HW211130   2.798   0.289   7.641
 3463SOL     OW11131   2.184   0.957   7.698
 3463SOL    HW111132   2.265   0.974   7.648
 3463SOL    HW211133   2.148   0.878   7.658
 3464SOL     OW11134   2.987   1.775   7.682
 3464SOL    HW111135   2.909   1.736   7.722
 3464SOL    HW211136   3.011   1.715   7.612
 3465SOL     OW11137   3.490   1.381   7.534
 3465SOL    HW111138   3.448   1.466   7.520
 3465SOL    HW211139   3.422   1.317   7.516
 3466SOL     OW11140   2.328   1.737   7.770
 3466SOL    HW111141   2.380   1.787   7.833
 3466SOL    HW211142   2.393   1.701   7.709
 3467SOL     OW11143   3.273   0.107   7.883
 3467SOL    HW111144   3.269   0.083   7.791
 3467SOL    HW211145   3.367   0.113   7.902
 3468SOL     OW11146   2.253   0.696   7.918
 3468SOL    HW111147   2.256   0.600   7.927
 3468SOL    HW211148   2.163   0.719   7.938
 3469SOL     OW11149   2.480   0.131   7.560
 3469SOL    HW111150   2.550   0.070   7.580
 3469SOL    HW211151   2.432   0.090   7.488
 3470SOL     OW11152   2.410   0.064   7.951
 3470SOL    HW111153   2.319   0.047   7.973
 3470SOL    HW211154   2.407   0.138   7.890
 3471SOL     OW11155   3.290   1.198   7.489
 3471SOL    HW111156   3.320   1.124   7.542
 3471SOL    HW211157   3.206   1.222   7.527
 3472SOL     OW11158   2.166   0.074   7.662
 3472SOL    HW111159   2.215   0.133   7.604
 3472SOL    HW211160   2.215   5.292   7.659
 3473SOL     OW11161   2.812   0.227   7.906
 3473SOL    HW111162   2.762   0.299   7.869
 3473SOL    HW211163   2.900   0.262   7.917
 3474SOL     OW11164   2.302   1.151   0.098
 3474SOL    HW111165   2.227   1.189   0.144
 3474SOL    HW211166   2.271   1.137   0.009
 3475SOL     OW11167   3.154   1.812   8.014
 3475SOL    HW111168   3.190   1.881   7.958
 3475SOL    HW211169   3.067   1.845   8.039
 3476SOL     OW11170   2.888   0.545   7.468
 3476SOL    HW111171   2.844   0.629   7.453
 3476SOL    HW211172   2.947   0.562   7.542
 3477SOL     OW11173   3.737   0.815   7.801
 3477SOL    HW111174   3.721   0.794   7.893
 3477SOL    HW211175   3.696   0.743   7.753
 3478SOL     OW11176   2.349   1.417   7.603
 3478SOL    HW111177   2.275   1.388   7.656
 3478SOL    HW211178   2.336   1.374   7.519
 3479SOL     OW11179   3.255   0.572   7.519
 3479SOL    HW111180   3.193   0.551   7.589
 3479SOL    HW211181   3.339   0.540   7.552
 3480SOL     OW11182   2.386   0.272   7.773
 3480SOL    HW111183   2.428   0.219   7.705
 3480SOL    HW211184   2.364   0.355   7.730
 3481SOL     OW11185   2.574   1.063   7.811
 3481SOL    HW111186   2.548   1.047   7.901
 3481SOL    HW211187   2.652   1.009   7.798
 3482SOL     OW11188   2.226   1.104   7.926
 3482SOL    HW111189   2.207   1.183   7.875
 3482SOL    HW211190   2.213   1.032   7.864
 3483SOL     OW11191   3.084   1.357   7.821
 3483SOL    HW111192   3.145   1.426   7.845
 3483SOL    HW211193   3.050   1.325   7.905
 3484SOL     OW11194   3.451   0.624   7.921
 3484SOL    HW111195   3.437   0.682   7.996
 3484SOL    HW211196   3.487   0.681   7.853
 3485SOL     OW11197   3.065   0.525   7.714
 3485SOL    HW111198   3.065   0.438   7.754
 3485SOL    HW211199   3.043   0.584   7.786
 3486SOL     OW11200   3.480   0.376   7.813
 3486SOL    HW111201   3.500   0.308   7.878
 3486SOL    HW211202   3.456   0.453   7.865
 3487SOL     OW11203   3.390   0.272   7.575
 3487SOL    HW111204   3.327   0.206   7.605
 3487SOL    HW211205   3.426   0.310   7.656
 3488SOL     OW11206   3.155   0.827   7.481
 3488SOL    HW111207   3.196   0.741   7.482
 3488SOL    HW211208   3.186   0.867   7.399
 3489SOL     OW11209   1.868   1.324   7.640
 3489SOL    HW111210   1.781   1.337   7.603
 3489SOL    HW211211   1.867   1.234   7.673
 3490SOL     OW11212   2.701   0.605   7.762
 3490SOL    HW111213   2.693   0.514   7.733
 3490SOL    HW211214   2.611   0.639   7.762
 3491SOL     OW11215   2.321   0.494   7.636
 3491SOL    HW111216   2.382   0.567   7.654
 3491SOL    HW211217   2.237   0.537   7.621
 3492SOL     OW11218   3.174   0.852   7.754
 3492SOL    HW111219   3.087   0.858   7.794
 3492SOL    HW211220   3.157   0.841   7.661
 3493SOL     OW11221   3.571   0.132   7.945
 3493SOL    HW111222   3.645   0.132   7.884
 3493SOL    HW211223   3.604   0.086   8.022
 3494SOL     OW11224   3.225   1.577   7.896
 3494SOL    HW111225   3.300   1.597   7.840
 3494SOL    HW211226   3.194   1.662   7.926
 3495SOL     OW11227   2.529   1.619   7.604
 3495SOL    HW111228   2.541   1.633   7.510
 3495SOL    HW211229   2.475   1.540   7.610
 3496SOL     OW11230   3.072   1.607   7.478
 3496SOL    HW111231   3.060   1.515   7.505
 3496SOL    HW211232   3.005   1.620   7.411
 3497SOL     OW11233   2.788   0.908   7.757
 3497SOL    HW111234   2.841   0.932   7.681
 3497SOL    HW211235   2.782   0.812   7.752
 3498SOL     OW11236   3.355   1.626   7.489
 3498SOL    HW111237   3.260   1.619   7.476
 3498SOL    HW211238   3.390   1.632   7.400
 3499SOL     OW11239   2.471   1.509   7.935
 3499SOL    HW111240   2.517   1.448   7.878
 3499SOL    HW211241   2.395   1.537   7.885
 3500SOL     OW11242   2.120   1.345   7.743
 3500SOL    HW111243   2.028   1.343   7.716
 3500SOL    HW211244   2.119   1.381   7.832
 3501SOL     OW11245   1.937   0.337   7.489
 3501SOL    HW111246   1.854   0.307   7.452
 3501SOL    HW211247   1.961   0.413   7.436
 3502SOL     OW11248   1.924   0.183   7.743
 3502SOL    HW111249   1.923   0.258   7.685
 3502SOL    HW211250   2.006   0.137   7.722
 3503SOL     OW11251   3.038   1.338   7.556
 3503SOL    HW111252   2.945   1.312   7.555
 3503SOL    HW211253   3.060   1.344   7.648
 3504SOL     OW11254   3.084   0.318   7.917
 3504SOL    HW111255   3.150   0.249   7.910
 3504SOL    HW211256   3.107   0.366   7.996
 3505SOL     OW11257   2.489   0.736   8.054
 3505SOL    HW111258   2.492   0.818   0.024
 3505SOL    HW211259   2.401   0.735   8.015
 3506SOL     OW11260   2.724   1.367   7.484
 3506SOL    HW111261   2.686   1.397   7.567
 3506SOL    HW211262   2.743   1.448   7.436
 3507SOL     OW11263   2.933   0.977   7.537
 3507SOL    HW111264   2.915   1.035   7.463
 3507SOL    HW211265   3.012   0.929   7.512
 3508SOL     OW11266   2.250   0.421   7.985
 3508SOL    HW111267   2.303   0.369   7.925
 3508SOL    HW211268   2.299   0.421   8.067
 3509SOL     OW11269   2.627   1.336   7.764
 3509SOL    HW111270   2.597   1.245   7.764
 3509SOL    HW211271   2.710   1.334   7.811
 3510SOL     OW11272   3.229   0.036   7.612
 3510SOL    HW111273   3.238   5.288   7.530
 3510SOL    HW211274   3.144   0.009   7.646
 3511SOL     OW11275   1.914   1.078   7.749
 3511SOL    HW111276   2.008   1.068   7.736
 3511SOL    HW211277   1.883   0.989   7.764
 3512SOL     OW11278   2.755   1.653   7.780
 3512SOL    HW111279   2.679   1.629   7.728
 3512SOL    HW211280   2.722   1.715   7.844
 3513SOL     OW11281   2.085   2.501   0.118
 3513SOL    HW111282   2.016   2.445   0.154
 3513SOL    HW211283   2.114   2.454   0.039
 3514SOL     OW11284   2.087   2.122   0.990
 3514SOL    HW111285   2.114   2.092   1.076
 3514SOL    HW211286   1.995   2.095   0.983
 3515SOL     OW11287   1.863   2.239   0.644
 3515SOL    HW111288   1.780   2.265   0.684
 3515SOL    HW211289   1.840   2.162   0.591
 3516SOL     OW11290   2.418   3.160   1.196
 3516SOL    HW111291   2.334   3.167   1.151
 3516SOL    HW211292   2.437   3.249   1.225
 3517SOL     OW11293   3.423   3.374   0.707
 3517SOL    HW111294   3.381   3.353   0.791
 3517SOL    HW211295   3.351   3.378   0.645
 3518SOL     OW11296   3.631   2.463   0.233
 3518SOL    HW111297   3.593   2.465   0.145
 3518SOL    HW211298   3.592   2.385   0.273
 3519SOL     OW11299   2.575   3.034   1.017
 3519SOL    HW111300   2.515   3.062   1.086
 3519SOL    HW211301   2.620   3.114   0.990
 3520SOL     OW11302   2.549   3.032   1.840
 3520SOL    HW111303   2.619   3.096   1.825
 3520SOL    HW211304   2.475   3.066   1.790
 3521SOL     OW11305   2.191   3.289   1.068
 3521SOL    HW111306   2.120   3.249   1.018
 3521SOL    HW211307   2.241   3.337   1.002
 3522SOL     OW11308   3.324   3.360   1.359
 3522SOL    HW111309   3.374   3.441   1.366
 3522SOL    HW211310   3.258   3.367   1.428
 3523SOL     OW11311   2.293   2.231   1.482
 3523SOL    HW111312   2.367   2.171   1.487
 3523SOL    HW211313   2.216   2.177   1.500
 3524SOL     OW11314   3.475   2.309   0.741
 3524SOL    HW111315   3.400   2.332   0.686
 3524SOL    HW211316   3.487   2.384   0.798
 3525SOL     OW11317   2.082   3.578   0.471
 3525SOL    HW111318   2.103   3.654   0.525
 3525SOL    HW211319   2.157   3.569   0.412
 3526SOL     OW11320   2.994   3.199   1.690
 3526SOL    HW111321   3.026   3.185   1.779
 3526SOL    HW211322   2.953   3.116   1.666
 3527SOL     OW11323   2.087   3.307   0.536
 3527SOL    HW111324   2.072   3.401   0.538
 3527SOL    HW211325   2.029   3.272   0.603
 3528SOL     OW11326   2.115   2.954   0.886
 3528SOL    HW111327   2.116   2.870   0.932
 3528SOL    HW211328   2.062   3.011   0.942
 3529SOL     OW11329   2.471   3.655   1.429
 3529SOL    HW111330   2.390   3.636   1.476
 3529SOL    HW211331   2.495   3.744   1.455
 3530SOL     OW11332   2.443   2.822   0.142
 3530SOL    HW111333   2.415   2.908   0.110
 3530SOL    HW211334   2.514   2.840   0.203
 3531SOL     OW11335   3.458   1.986   1.467
 3531SOL    HW111336   3.467   2.067   1.417
 3531SOL    HW211337   3.443   2.015   1.557
 3532SOL     OW11338   1.942   2.504   0.574
 3532SOL    HW111339   1.917   2.414   0.597
 3532SOL    HW211340   1.939   2.551   0.657
 3533SOL     OW11341   3.708   3.619   0.330
 3533SOL    HW111342   3.774   3.590   0.394
 3533SOL    HW211343   3.732   3.710   0.312
 3534SOL     OW11344   1.894   3.458   0.110
 3534SOL    HW111345   1.879   3.369   0.144
 3534SOL    HW211346   1.876   3.515   0.184
 3535SOL     OW11347   3.546   2.778   0.643
 3535SOL    HW111348   3.631   2.737   0.624
 3535SOL    HW211349   3.528   2.831   0.565
 3536SOL     OW11350   3.511   2.968   0.434
 3536SOL    HW111351   3.592   2.979   0.385
 3536SOL    HW211352   3.518   3.029   0.507
 3537SOL     OW11353   1.955   2.600   1.591
 3537SOL    HW111354   2.048   2.624   1.591
 3537SOL    HW211355   1.909   2.683   1.594
 3538SOL     OW11356   2.480   3.249   0.734
 3538SOL    HW111357   2.437   3.165   0.747
 3538SOL    HW211358   2.458   3.274   0.644
 3539SOL     OW11359   3.146   3.094   1.429
 3539SOL    HW111360   3.180   3.031   1.365
 3539SOL    HW211361   3.209   3.091   1.501
 3540SOL     OW11362   2.678   1.863   0.512
 3540SOL    HW111363   2.718   1.947   0.488
 3540SOL    HW211364   2.585   1.883   0.520
 3541SOL     OW11365   2.033   2.838   1.269
 3541SOL    HW111366   2.117   2.793   1.261
 3541SOL    HW211367   1.972   2.783   1.219
 3542SOL     OW11368   3.370   2.874   0.213
 3542SOL    HW111369   3.322   2.797   0.244
 3542SOL    HW211370   3.426   2.898   0.287
 3543SOL     OW11371   3.048   3.669   1.623
 3543SOL    HW111372   3.056   3.728   1.549
 3543SOL    HW211373   3.063   3.582   1.586
 3544SOL     OW11374   2.195   2.110   1.816
 3544SOL    HW111375   2.226   2.200   1.810
 3544SOL    HW211376   2.104   2.118   1.845
 3545SOL     OW11377   3.330   3.281   0.951
 3545SOL    HW111378   3.263   3.300   1.016
 3545SOL    HW211379   3.315   3.190   0.927
 3546SOL     OW11380   3.520   3.604   0.582
 3546SOL    HW111381   3.500   3.576   0.493
 3546SOL    HW211382   3.496   3.530   0.637
 3547SOL     OW11383   3.144   2.212   0.931
 3547SOL    HW111384   3.054   2.182   0.941
 3547SOL    HW211385   3.193   2.160   0.995
 3548SOL     OW11386   3.449   3.532   0.320
 3548SOL    HW111387   3.540   3.561   0.313
 3548SOL    HW211388   3.422   3.516   0.230
 3549SOL     OW11389   3.254   2.336   1.677
 3549SOL    HW111390   3.258   2.378   1.762
 3549SOL    HW211391   3.317   2.264   1.682
 3550SOL     OW11392   2.857   2.266   1.238
 3550SOL    HW111393   2.785   2.308   1.285
 3550SOL    HW211394   2.826   2.260   1.148
 3551SOL     OW11395   1.945   2.682   0.781
 3551SOL    HW111396   2.028   2.682   0.829
 3551SOL    HW211397   1.900   2.761   0.810
 3552SOL     OW11398   1.988   3.714   1.579
 3552SOL    HW111399   1.990   3.692   1.672
 3552SOL    HW211400   1.898   3.700   1.552
 3553SOL     OW11401   2.744   2.209   0.207
 3553SOL    HW111402   2.794   2.260   0.143
 3553SOL    HW211403   2.748   2.120   0.174
 3554SOL     OW11404   3.570   2.436   1.828
 3554SOL    HW111405   3.532   2.509   1.779
 3554SOL    HW211406   3.598   2.374   1.760
 3555SOL     OW11407   3.243   3.003   0.526
 3555SOL    HW111408   3.326   2.999   0.478
 3555SOL    HW211409   3.193   3.072   0.483
 3556SOL     OW11410   2.408   2.030   0.887
 3556SOL    HW111411   2.409   2.055   0.979
 3556SOL    HW211412   2.427   2.112   0.840
 3557SOL     OW11413   2.857   3.300   0.471
 3557SOL    HW111414   2.826   3.377   0.423
 3557SOL    HW211415   2.846   3.324   0.564
 3558SOL     OW11416   2.217   3.671   0.863
 3558SOL    HW111417   2.260   3.586   0.871
 3558SOL    HW211418   2.286   3.735   0.882
 3559SOL     OW11419   3.660   2.916   0.869
 3559SOL    HW111420   3.605   2.900   0.793
 3559SOL    HW211421   3.599   2.923   0.942
 3560SOL     OW11422   3.089   3.400   1.512
 3560SOL    HW111423   3.076   3.328   1.574
 3560SOL    HW211424   3.027   3.382   1.442
 3561SOL     OW11425   2.185   2.808   0.246
 3561SOL    HW111426   2.270   2.812   0.203
 3561SOL    HW211427   2.168   2.715   0.257
 3562SOL     OW11428   3.344   2.598   0.727
 3562SOL    HW111429   3.337   2.558   0.814
 3562SOL    HW211430   3.418   2.657   0.734
 3563SOL     OW11431   2.321   3.136   1.735
 3563SOL    HW111432   2.295   3.139   1.643
 3563SOL    HW211433   2.239   3.130   1.784
 3564SOL     OW11434   2.969   3.643   0.223
 3564SOL    HW111435   2.913   3.603   0.289
 3564SOL    HW211436   2.990   3.572   0.162
 3565SOL     OW11437   2.045   2.134   1.505
 3565SOL    HW111438   1.963   2.183   1.504
 3565SOL    HW211439   2.027   2.056   1.558
 3566SOL     OW11440   3.496   3.235   0.084
 3566SOL    HW111441   3.455   3.322   0.083
 3566SOL    HW211442   3.425   3.175   0.063
 3567SOL     OW11443   2.327   3.599   0.325
 3567SOL    HW111444   2.368   3.660   0.386
 3567SOL    HW211445   2.397   3.574   0.264
 3568SOL     OW11446   3.269   1.974   0.445
 3568SOL    HW111447   3.261   1.951   0.352
 3568SOL    HW211448   3.364   1.979   0.460
 3569SOL     OW11449   2.117   3.653   1.231
 3569SOL    HW111450   2.169   3.587   1.277
 3569SOL    HW211451   2.109   3.619   1.142
 3570SOL     OW11452   2.799   3.564   0.898
 3570SOL    HW111453   2.872   3.509   0.927
 3570SOL    HW211454   2.756   3.512   0.830
 3571SOL     OW11455   2.180   2.595   0.494
 3571SOL    HW111456   2.229   2.513   0.491
 3571SOL    HW211457   2.092   2.570   0.519
 3572SOL     OW11458   3.396   2.087   1.725
 3572SOL    HW111459   3.406   2.108   1.818
 3572SOL    HW211460   3.327   2.021   1.722
 3573SOL     OW11461   2.494   1.981   0.133
 3573SOL    HW111462   2.588   1.963   0.141
 3573SOL    HW211463   2.471   1.952   0.045
 3574SOL     OW11464   2.625   2.130   1.750
 3574SOL    HW111465   2.704   2.075   1.750
 3574SOL    HW211466   2.585   2.113   1.835
 3575SOL     OW11467   2.739   3.389   1.195
 3575SOL    HW111468   2.722   3.353   1.109
 3575SOL    HW211469   2.806   3.332   1.233
 3576SOL     OW11470   3.216   2.450   1.424
 3576SOL    HW111471   3.235   2.421   1.514
 3576SOL    HW211472   3.240   2.542   1.423
 3577SOL     OW11473   2.674   3.277   0.940
 3577SOL    HW111474   2.761   3.262   0.902
 3577SOL    HW211475   2.614   3.270   0.866
 3578SOL     OW11476   2.800   2.335   0.913
 3578SOL    HW111477   2.789   2.339   0.818
 3578SOL    HW211478   2.834   2.248   0.930
 3579SOL     OW11479   2.412   1.926   0.505
 3579SOL    HW111480   2.332   1.923   0.558
 3579SOL    HW211481   2.402   2.002   0.449
 3580SOL     OW11482   3.296   3.062   0.033
 3580SOL    HW111483   3.319   2.990   0.091
 3580SOL    HW211484   3.208   3.087   0.059
 3581SOL     OW11485   2.174   1.917   0.168
 3581SOL    HW111486   2.237   1.986   0.191
 3581SOL    HW211487   2.208   1.838   0.210
 3582SOL     OW11488   2.802   2.104   0.451
 3582SOL    HW111489   2.777   2.145   0.369
 3582SOL    HW211490   2.896   2.118   0.458
 3583SOL     OW11491   3.094   3.437   0.794
 3583SOL    HW111492   3.106   3.505   0.728
 3583SOL    HW211493   3.159   3.456   0.861
 3584SOL     OW11494   2.330   3.019   0.731
 3584SOL    HW111495   2.261   2.996   0.793
 3584SOL    HW211496   2.294   2.996   0.645
 3585SOL     OW11497   3.130   3.656   0.608
 3585SOL    HW111498   3.180   3.719   0.556
 3585SOL    HW211499   3.062   3.708   0.651
 3586SOL     OW11500   2.919   2.371   0.024
 3586SOL    HW111501   2.860   2.442   8.076
 3586SOL    HW211502   2.967   2.408   0.098
 3587SOL     OW11503   1.931   2.417   1.393
 3587SOL    HW111504   2.024   2.418   1.369
 3587SOL    HW211505   1.924   2.486   1.460
 3588SOL     OW11506   2.413   2.077   1.151
 3588SOL    HW111507   2.469   2.027   1.210
 3588SOL    HW211508   2.328   2.078   1.195
 3589SOL     OW11509   2.768   2.289   0.650
 3589SOL    HW111510   2.708   2.355   0.615
 3589SOL    HW211511   2.770   2.221   0.583
 3590SOL     OW11512   2.879   1.909   0.746
 3590SOL    HW111513   2.817   1.904   0.674
 3590SOL    HW211514   2.855   1.836   0.803
 3591SOL     OW11515   3.301   3.023   0.858
 3591SOL    HW111516   3.223   2.968   0.852
 3591SOL    HW211517   3.329   3.036   0.768
 3592SOL     OW11518   3.328   2.466   0.976
 3592SOL    HW111519   3.275   2.387   0.982
 3592SOL    HW211520   3.387   2.461   1.050
 3593SOL     OW11521   3.709   2.676   0.388
 3593SOL    HW111522   3.762   2.624   0.448
 3593SOL    HW211523   3.679   2.614   0.322
 3594SOL     OW11524   2.345   3.303   0.181
 3594SOL    HW111525   2.271   3.267   0.230
 3594SOL    HW211526   2.352   3.247   0.104
 3595SOL     OW11527   3.533   3.127   0.648
 3595SOL    HW111528   3.628   3.129   0.661
 3595SOL    HW211529   3.504   3.215   0.668
 3596SOL     OW11530   3.261   2.436   0.086
 3596SOL    HW111531   3.198   2.415   0.155
 3596SOL    HW211532   3.316   2.357   0.080
 3597SOL     OW11533   2.375   2.122   0.320
 3597SOL    HW111534   2.424   2.070   0.256
 3597SOL    HW211535   2.405   2.212   0.305
 3598SOL     OW11536   3.614   3.102   1.572
 3598SOL    HW111537   3.701   3.063   1.568
 3598SOL    HW211538   3.629   3.192   1.600
 3599SOL     OW11539   2.922   3.229   1.345
 3599SOL    HW111540   2.843   3.192   1.385
 3599SOL    HW211541   2.994   3.177   1.381
 3600SOL     OW11542   3.470   3.488   1.655
 3600SOL    HW111543   3.463   3.522   1.566
 3600SOL    HW211544   3.553   3.440   1.656
 3601SOL     OW11545   3.018   3.100   1.105
 3601SOL    HW111546   2.948   3.090   1.169
 3601SOL    HW211547   2.974   3.103   1.020
 3602SOL     OW11548   3.489   2.960   1.077
 3602SOL    HW111549   3.484   3.022   1.149
 3602SOL    HW211550   3.411   2.978   1.024
 3603SOL     OW11551   2.780   1.957   1.396
 3603SOL    HW111552   2.801   1.941   1.304
 3603SOL    HW211553   2.858   1.999   1.431
 3604SOL     OW11554   2.254   2.680   1.271
 3604SOL    HW111555   2.349   2.684   1.273
 3604SOL    HW211556   2.233   2.588   1.287
 3605SOL     OW11557   3.128   2.238   1.276
 3605SOL    HW111558   3.159   2.317   1.321
 3605SOL    HW211559   3.037   2.257   1.254
 3606SOL     OW11560   1.933   3.436   1.354
 3606SOL    HW111561   1.904   3.509   1.299
 3606SOL    HW211562   2.029   3.438   1.348
 3607SOL     OW11563   2.216   2.972   0.484
 3607SOL    HW111564   2.202   3.042   0.420
 3607SOL    HW211565   2.211   2.891   0.432
 3608SOL     OW11566   3.105   3.209   0.395
 3608SOL    HW111567   3.162   3.282   0.421
 3608SOL    HW211568   3.018   3.234   0.427
 3609SOL     OW11569   3.148   3.331   1.146
 3609SOL    HW111570   3.198   3.324   1.227
 3609SOL    HW211571   3.093   3.253   1.145
 3610SOL     OW11572   3.441   2.483   0.481
 3610SOL    HW111573   3.398   2.535   0.549
 3610SOL    HW211574   3.479   2.549   0.422
 3611SOL     OW11575   2.207   3.392   1.314
 3611SOL    HW111576   2.196   3.349   1.229
 3611SOL    HW211577   2.302   3.404   1.322
 3612SOL     OW11578   2.220   2.629   1.587
 3612SOL    HW111579   2.274   2.696   1.546
 3612SOL    HW211580   2.283   2.567   1.625
 3613SOL     OW11581   3.463   2.642   1.684
 3613SOL    HW111582   3.377   2.683   1.676
 3613SOL    HW211583   3.516   2.684   1.615
 3614SOL     OW11584   2.861   1.988   1.757
 3614SOL    HW111585   2.918   2.059   1.728
 3614SOL    HW211586   2.906   1.908   1.731
 3615SOL     OW11587   2.359   1.901   1.748
 3615SOL    HW111588   2.315   1.846   1.682
 3615SOL    HW211589   2.299   1.974   1.762
 3616SOL     OW11590   3.222   2.720   1.034
 3616SOL    HW111591   3.154   2.715   0.967
 3616SOL    HW211592   3.264   2.633   1.031
 3617SOL     OW11593   3.060   2.390   0.272
 3617SOL    HW111594   3.064   2.306   0.319
 3617SOL    HW211595   3.068   2.456   0.340
 3618SOL     OW11596   2.156   2.060   1.250
 3618SOL    HW111597   2.113   2.090   1.330
 3618SOL    HW211598   2.141   1.966   1.249
 3619SOL     OW11599   1.907   3.174   1.276
 3619SOL    HW111600   1.940   3.119   1.347
 3619SOL    HW211601   1.914   3.264   1.309
 3620SOL     OW11602   3.598   2.822   1.853
 3620SOL    HW111603   3.552   2.758   1.798
 3620SOL    HW211604   3.539   2.838   1.926
 3621SOL     OW11605   2.166   1.929   0.624
 3621SOL    HW111606   2.144   2.018   0.650
 3621SOL    HW211607   2.174   1.881   0.707
 3622SOL     OW11608   3.485   2.237   0.368
 3622SOL    HW111609   3.509   2.172   0.434
 3622SOL    HW211610   3.459   2.314   0.419
 3623SOL     OW11611   2.844   3.427   1.715
 3623SOL    HW111612   2.828   3.472   1.633
 3623SOL    HW211613   2.888   3.346   1.690
 3624SOL     OW11614   3.716   3.367   1.605
 3624SOL    HW111615   3.735   3.393   1.515
 3624SOL    HW211616   3.797   3.384   1.653
 3625SOL     OW11617   2.207   2.801   1.813
 3625SOL    HW111618   2.285   2.809   1.868
 3625SOL    HW211619   2.221   2.721   1.762
 3626SOL     OW11620   3.376   2.166   0.127
 3626SOL    HW111621   3.330   2.084   0.142
 3626SOL    HW211622   3.418   2.185   0.211
 3627SOL     OW11623   3.157   2.682   0.033
 3627SOL    HW111624   3.198   2.595   0.037
 3627SOL    HW211625   3.212   2.731   8.052
 3628SOL     OW11626   2.924   3.231   0.856
 3628SOL    HW111627   2.952   3.152   0.809
 3628SOL    HW211628   2.988   3.298   0.831
 3629SOL     OW11629   2.156   2.688   0.961
 3629SOL    HW111630   2.243   2.693   0.920
 3629SOL    HW211631   2.152   2.599   0.995
 3630SOL     OW11632   2.155   2.374   1.015
 3630SOL    HW111633   2.132   2.282   1.003
 3630SOL    HW211634   2.216   2.393   0.944
 3631SOL     OW11635   3.001   2.230   1.684
 3631SOL    HW111636   2.949   2.301   1.723
 3631SOL    HW211637   3.089   2.267   1.677
 3632SOL     OW11638   3.024   2.062   1.469
 3632SOL    HW111639   3.014   2.125   1.540
 3632SOL    HW211640   3.060   2.113   1.397
 3633SOL     OW11641   1.875   3.186   0.190
 3633SOL    HW111642   1.788   3.200   0.152
 3633SOL    HW211643   1.873   3.096   0.222
 3634SOL     OW11644   1.952   3.648   0.938
 3634SOL    HW111645   1.922   3.569   0.894
 3634SOL    HW211646   2.042   3.661   0.907
 3635SOL     OW11647   2.358   3.435   0.904
 3635SOL    HW111648   2.427   3.497   0.930
 3635SOL    HW211649   2.403   3.371   0.850
 3636SOL     OW11650   1.895   2.406   1.117
 3636SOL    HW111651   1.978   2.398   1.070
 3636SOL    HW211652   1.920   2.411   1.209
 3637SOL     OW11653   2.057   2.379   1.724
 3637SOL    HW111654   2.098   2.339   1.648
 3637SOL    HW211655   2.008   2.453   1.689
 3638SOL     OW11656   3.234   2.799   1.657
 3638SOL    HW111657   3.258   2.892   1.658
 3638SOL    HW211658   3.238   2.774   1.565
 3639SOL     OW11659   3.504   2.465   1.184
 3639SOL    HW111660   3.490   2.408   1.259
 3639SOL    HW211661   3.591   2.443   1.152
 3640SOL     OW11662   2.105   3.413   1.727
 3640SOL    HW111663   2.081   3.477   1.794
 3640SOL    HW211664   2.106   3.329   1.773
 3641SOL     OW11665   2.785   3.543   1.470
 3641SOL    HW111666   2.766   3.503   1.385
 3641SOL    HW211667   2.781   3.637   1.454
 3642SOL     OW11668   2.005   3.006   1.475
 3642SOL    HW111669   2.006   2.954   1.554
 3642SOL    HW211670   2.017   2.943   1.404
 3643SOL     OW11671   3.185   2.910   1.223
 3643SOL    HW111672   3.207   2.846   1.156
 3643SOL    HW211673   3.126   2.972   1.180
 3644SOL     OW11674   3.190   2.687   0.307
 3644SOL    HW111675   3.109   2.711   0.352
 3644SOL    HW211676   3.168   2.686   0.214
 3645SOL     OW11677   3.634   3.605   1.151
 3645SOL    HW111678   3.695   3.631   1.081
 3645SOL    HW211679   3.610   3.515   1.129
 3646SOL     OW11680   3.103   3.598   1.111
 3646SOL    HW111681   3.185   3.618   1.067
 3646SOL    HW211682   3.109   3.505   1.131
 3647SOL     OW11683   1.946   3.130   1.011
 3647SOL    HW111684   1.931   3.142   1.105
 3647SOL    HW211685   1.874   3.073   0.983
 3648SOL     OW11686   2.540   3.528   1.729
 3648SOL    HW111687   2.485   3.607   1.724
 3648SOL    HW211688   2.607   3.541   1.662
 3649SOL     OW11689   2.768   1.951   0.132
 3649SOL    HW111690   2.782   1.934   0.039
 3649SOL    HW211691   2.834   1.898   0.176
 3650SOL     OW11692   3.581   2.008   0.509
 3650SOL    HW111693   3.653   1.992   0.448
 3650SOL    HW211694   3.566   1.924   0.551
 3651SOL     OW11695   3.250   3.429   0.484
 3651SOL    HW111696   3.315   3.463   0.422
 3651SOL    HW211697   3.204   3.507   0.515
 3652SOL     OW11698   1.999   3.659   1.843
 3652SOL    HW111699   1.948   3.593   1.891
 3652SOL    HW211700   2.046   3.706   1.911
 3653SOL     OW11701   3.160   2.793   0.667
 3653SOL    HW111702   3.222   2.721   0.673
 3653SOL    HW211703   3.203   2.856   0.609
 3654SOL     OW11704   2.676   3.152   1.426
 3654SOL    HW111705   2.640   3.189   1.506
 3654SOL    HW211706   2.601   3.143   1.368
 3655SOL     OW11707   2.539   3.483   0.155
 3655SOL    HW111708   2.545   3.491   0.059
 3655SOL    HW211709   2.475   3.414   0.169
 3656SOL     OW11710   3.487   3.589   1.391
 3656SOL    HW111711   3.537   3.595   1.310
 3656SOL    HW211712   3.473   3.679   1.418
 3657SOL     OW11713   3.703   2.035   0.966
 3657SOL    HW111714   3.732   1.947   0.940
 3657SOL    HW211715   3.616   2.044   0.927
 3658SOL     OW11716   2.120   2.180   0.723
 3658SOL    HW111717   2.032   2.211   0.700
 3658SOL    HW211718   2.114   2.159   0.817
 3659SOL     OW11719   3.019   3.442   0.051
 3659SOL    HW111720   3.035   3.349   0.069
 3659SOL    HW211721   3.030   3.450   8.036
 3660SOL     OW11722   3.372   3.485   0.061
 3660SOL    HW111723   3.277   3.487   0.048
 3660SOL    HW211724   3.408   3.489   8.052
 3661SOL     OW11725   2.229   3.166   1.489
 3661SOL    HW111726   2.217   3.242   1.431
 3661SOL    HW211727   2.152   3.112   1.474
 3662SOL     OW11728   3.472   3.144   1.280
 3662SOL    HW111729   3.532   3.133   1.353
 3662SOL    HW211730   3.412   3.213   1.309
 3663SOL     OW11731   2.985   3.003   0.730
 3663SOL    HW111732   2.903   2.987   0.683
 3663SOL    HW211733   3.045   2.936   0.697
 3664SOL     OW11734   2.895   2.089   0.962
 3664SOL    HW111735   2.888   2.036   0.882
 3664SOL    HW211736   2.883   2.026   1.033
 3665SOL     OW11737   2.463   3.350   0.476
 3665SOL    HW111738   2.502   3.313   0.397
 3665SOL    HW211739   2.389   3.402   0.444
 3666SOL     OW11740   3.585   2.254   1.381
 3666SOL    HW111741   3.657   2.317   1.379
 3666SOL    HW211742   3.615   2.183   1.324
 3667SOL     OW11743   2.128   3.182   0.304
 3667SOL    HW111744   2.044   3.193   0.260
 3667SOL    HW211745   2.118   3.229   0.387
 3668SOL     OW11746   1.969   2.888   1.718
 3668SOL    HW111747   1.894   2.862   1.772
 3668SOL    HW211748   2.045   2.855   1.765
 3669SOL     OW11749   2.533   2.055   1.497
 3669SOL    HW111750   2.616   2.040   1.453
 3669SOL    HW211751   2.556   2.087   1.584
 3670SOL     OW11752   1.921   2.215   0.046
 3670SOL    HW111753   1.844   2.171   0.010
 3670SOL    HW211754   1.974   2.238   8.049
 3671SOL     OW11755   3.290   2.725   1.401
 3671SOL    HW111756   3.243   2.786   1.344
 3671SOL    HW211757   3.379   2.723   1.367
 3672SOL     OW11758   1.934   2.016   0.302
 3672SOL    HW111759   1.915   2.099   0.258
 3672SOL    HW211760   2.016   1.986   0.264
 3673SOL     OW11761   3.048   3.176   0.120
 3673SOL    HW111762   2.953   3.171   0.113
 3673SOL    HW211763   3.065   3.184   0.214
 3674SOL     OW11764   3.346   3.639   0.977
 3674SOL    HW111765   3.370   3.701   0.909
 3674SOL    HW211766   3.428   3.620   1.023
 3675SOL     OW11767   3.335   3.059   1.631
 3675SOL    HW111768   3.323   3.074   1.725
 3675SOL    HW211769   3.428   3.076   1.616
 3676SOL     OW11770   2.240   3.601   1.565
 3676SOL    HW111771   2.155   3.644   1.550
 3676SOL    HW211772   2.218   3.518   1.606
 3677SOL     OW11773   3.530   2.743   1.256
 3677SOL    HW111774   3.524   2.657   1.213
 3677SOL    HW211775   3.520   2.806   1.184
 3678SOL     OW11776   3.079   2.179   0.457
 3678SOL    HW111777   3.143   2.108   0.449
 3678SOL    HW211778   3.106   2.226   0.536
 3679SOL     OW11779   3.623   2.224   1.651
 3679SOL    HW111780   3.607   2.239   1.558
 3679SOL    HW211781   3.552   2.167   1.679
 3680SOL     OW11782   3.607   2.795   1.512
 3680SOL    HW111783   3.603   2.890   1.525
 3680SOL    HW211784   3.591   2.783   1.419
 3681SOL     OW11785   2.760   3.239   0.038
 3681SOL    HW111786   2.698   3.231   0.111
 3681SOL    HW211787   2.739   3.324   8.079
 3682SOL     OW11788   2.522   3.653   0.943
 3682SOL    HW111789   2.504   3.744   0.921
 3682SOL    HW211790   2.617   3.645   0.937
 3683SOL     OW11791   3.716   3.415   0.844
 3683SOL    HW111792   3.636   3.405   0.791
 3683SOL    HW211793   3.706   3.351   0.914
 3684SOL     OW11794   2.082   3.165   1.855
 3684SOL    HW111795   2.017   3.101   1.826
 3684SOL    HW211796   2.065   3.176   1.949
 3685SOL     OW11797   1.946   3.094   0.667
 3685SOL    HW111798   1.953   3.046   0.749
 3685SOL    HW211799   2.019   3.061   0.614
 3686SOL     OW11800   2.545   3.263   1.637
 3686SOL    HW111801   2.460   3.225   1.659
 3686SOL    HW211802   2.540   3.354   1.667
 3687SOL     OW11803   3.675   2.046   1.237
 3687SOL    HW111804   3.684   1.952   1.251
 3687SOL    HW211805   3.684   2.057   1.142
 3688SOL     OW11806   2.268   2.278   0.520
 3688SOL    HW111807   2.285   2.204   0.463
 3688SOL    HW211808   2.217   2.242   0.593
 3689SOL     OW11809   3.563   3.350   1.094
 3689SOL    HW111810   3.481   3.328   1.049
 3689SOL    HW211811   3.573   3.282   1.160
 3690SOL     OW11812   2.179   2.408   1.295
 3690SOL    HW111813   2.225   2.343   1.347
 3690SOL    HW211814   2.184   2.375   1.205
 3691SOL     OW11815   2.690   3.441   0.674
 3691SOL    HW111816   2.672   3.497   0.598
 3691SOL    HW211817   2.614   3.383   0.680
 3692SOL     OW11818   3.295   2.089   1.119
 3692SOL    HW111819   3.317   2.008   1.166
 3692SOL    HW211820   3.243   2.139   1.181
 3693SOL     OW11821   2.869   1.876   1.142
 3693SOL    HW111822   2.817   1.808   1.100
 3693SOL    HW211823   2.958   1.840   1.144
 3694SOL     OW11824   2.645   3.191   0.299
 3694SOL    HW111825   2.595   3.120   0.340
 3694SOL    HW211826   2.715   3.210   0.361
 3695SOL     OW11827   2.481   3.421   1.285
 3695SOL    HW111828   2.484   3.503   1.334
 3695SOL    HW211829   2.569   3.410   1.249
 3696SOL     OW11830   3.218   1.916   0.185
 3696SOL    HW111831   3.239   1.869   0.104
 3696SOL    HW211832   3.132   1.883   0.211
 3697SOL     OW11833   3.162   2.317   0.682
 3697SOL    HW111834   3.112   2.397   0.698
 3697SOL    HW211835   3.161   2.270   0.765
 3698SOL     OW11836   3.448   2.062   0.879
 3698SOL    HW111837   3.389   2.083   0.951
 3698SOL    HW211838   3.447   2.141   0.824
 3699SOL     OW11839   1.906   2.929   0.304
 3699SOL    HW111840   2.002   2.925   0.300
 3699SOL    HW211841   1.880   2.846   0.342
 3700SOL     OW11842   2.745   3.516   0.347
 3700SOL    HW111843   2.678   3.502   0.280
 3700SOL    HW211844   2.715   3.592   0.397
 3701SOL     OW11845   2.080   2.513   1.978
 3701SOL    HW111846   2.001   2.484   2.023
 3701SOL    HW211847   2.081   2.466   1.895
 3702SOL     OW11848   2.086   2.130   2.873
 3702SOL    HW111849   2.097   2.105   2.965
 3702SOL    HW211850   1.997   2.103   2.852
 3703SOL     OW11851   1.868   2.235   2.509
 3703SOL    HW111852   1.784   2.267   2.544
 3703SOL    HW211853   1.843   2.162   2.453
 3704SOL     OW11854   2.395   3.155   3.052
 3704SOL    HW111855   2.317   3.183   3.005
 3704SOL    HW211856   2.429   3.235   3.093
 3705SOL     OW11857   3.422   3.373   2.572
 3705SOL    HW111858   3.376   3.355   2.654
 3705SOL    HW211859   3.352   3.378   2.506
 3706SOL     OW11860   3.061   2.532   2.612
 3706SOL    HW111861   3.070   2.626   2.594
 3706SOL    HW211862   2.976   2.524   2.654
 3707SOL     OW11863   3.633   2.466   2.089
 3707SOL    HW111864   3.610   2.459   1.996
 3707SOL    HW211865   3.594   2.389   2.130
 3708SOL     OW11866   2.583   3.025   2.920
 3708SOL    HW111867   2.515   3.068   2.972
 3708SOL    HW211868   2.621   3.096   2.867
 3709SOL     OW11869   2.191   3.287   2.930
 3709SOL    HW111870   2.117   3.253   2.879
 3709SOL    HW211871   2.241   3.340   2.868
 3710SOL     OW11872   3.335   3.373   3.207
 3710SOL    HW111873   3.384   3.455   3.219
 3710SOL    HW211874   3.291   3.359   3.291
 3711SOL     OW11875   3.476   2.309   2.602
 3711SOL    HW111876   3.397   2.327   2.551
 3711SOL    HW211877   3.486   2.386   2.658
 3712SOL     OW11878   2.081   3.577   2.334
 3712SOL    HW111879   2.103   3.653   2.388
 3712SOL    HW211880   2.155   3.569   2.273
 3713SOL     OW11881   2.092   3.304   2.397
 3713SOL    HW111882   2.074   3.398   2.401
 3713SOL    HW211883   2.033   3.266   2.463
 3714SOL     OW11884   2.113   2.953   2.744
 3714SOL    HW111885   2.118   2.867   2.786
 3714SOL    HW211886   2.061   3.006   2.804
 3715SOL     OW11887   2.468   3.650   3.293
 3715SOL    HW111888   2.381   3.639   3.333
 3715SOL    HW211889   2.493   3.739   3.314
 3716SOL     OW11890   2.418   2.853   1.985
 3716SOL    HW111891   2.460   2.919   1.930
 3716SOL    HW211892   2.486   2.825   2.046
 3717SOL     OW11893   3.458   1.984   3.321
 3717SOL    HW111894   3.476   2.068   3.278
 3717SOL    HW211895   3.457   2.005   3.414
 3718SOL     OW11896   1.946   2.514   2.422
 3718SOL    HW111897   1.949   2.422   2.446
 3718SOL    HW211898   1.961   2.561   2.504
 3719SOL     OW11899   3.704   3.620   2.197
 3719SOL    HW111900   3.771   3.592   2.260
 3719SOL    HW211901   3.727   3.711   2.177
 3720SOL     OW11902   1.895   3.456   1.985
 3720SOL    HW111903   1.877   3.364   2.005
 3720SOL    HW211904   1.871   3.503   2.065
 3721SOL     OW11905   3.556   2.787   2.505
 3721SOL    HW111906   3.637   2.741   2.484
 3721SOL    HW211907   3.533   2.834   2.425
 3722SOL     OW11908   3.508   2.969   2.291
 3722SOL    HW111909   3.594   2.973   2.248
 3722SOL    HW211910   3.514   3.031   2.364
 3723SOL     OW11911   2.475   3.249   2.593
 3723SOL    HW111912   2.429   3.165   2.603
 3723SOL    HW211913   2.455   3.276   2.503
 3724SOL     OW11914   2.678   1.862   2.371
 3724SOL    HW111915   2.718   1.946   2.351
 3724SOL    HW211916   2.585   1.881   2.381
 3725SOL     OW11917   3.399   2.860   2.059
 3725SOL    HW111918   3.332   2.798   2.087
 3725SOL    HW211919   3.437   2.893   2.140
 3726SOL     OW11920   3.053   3.674   3.483
 3726SOL    HW111921   3.055   3.749   3.423
 3726SOL    HW211922   3.035   3.599   3.427
 3727SOL     OW11923   3.320   3.279   2.824
 3727SOL    HW111924   3.267   3.273   2.904
 3727SOL    HW211925   3.312   3.192   2.784
 3728SOL     OW11926   3.519   3.604   2.441
 3728SOL    HW111927   3.501   3.573   2.352
 3728SOL    HW211928   3.495   3.529   2.497
 3729SOL     OW11929   3.150   2.206   2.799
 3729SOL    HW111930   3.057   2.182   2.805
 3729SOL    HW211931   3.193   2.155   2.868
 3730SOL     OW11932   3.442   3.532   2.172
 3730SOL    HW111933   3.533   3.563   2.164
 3730SOL    HW211934   3.415   3.516   2.081
 3731SOL     OW11935   2.853   2.258   3.106
 3731SOL    HW111936   2.787   2.323   3.134
 3731SOL    HW211937   2.841   2.251   3.011
 3732SOL     OW11938   1.945   2.683   2.642
 3732SOL    HW111939   2.026   2.674   2.692
 3732SOL    HW211940   1.906   2.765   2.672
 3733SOL     OW11941   1.978   3.719   3.444
 3733SOL    HW111942   1.978   3.699   3.538
 3733SOL    HW211943   1.888   3.701   3.417
 3734SOL     OW11944   2.745   2.183   2.064
 3734SOL    HW111945   2.777   2.269   2.039
 3734SOL    HW211946   2.790   2.122   2.005
 3735SOL     OW11947   3.592   2.433   3.686
 3735SOL    HW111948   3.580   2.518   3.642
 3735SOL    HW211949   3.605   2.371   3.615
 3736SOL     OW11950   3.236   3.003   2.396
 3736SOL    HW111951   3.319   2.993   2.349
 3736SOL    HW211952   3.188   3.069   2.346
 3737SOL     OW11953   2.413   2.034   2.765
 3737SOL    HW111954   2.405   2.078   2.849
 3737SOL    HW211955   2.425   2.104   2.701
 3738SOL     OW11956   2.865   3.304   2.337
 3738SOL    HW111957   2.831   3.376   2.284
 3738SOL    HW211958   2.845   3.329   2.427
 3739SOL     OW11959   2.217   3.672   2.727
 3739SOL    HW111960   2.260   3.587   2.733
 3739SOL    HW211961   2.287   3.736   2.743
 3740SOL     OW11962   3.661   2.919   2.732
 3740SOL    HW111963   3.608   2.898   2.655
 3740SOL    HW211964   3.598   2.926   2.804
 3741SOL     OW11965   2.175   2.815   2.118
 3741SOL    HW111966   2.253   2.837   2.067
 3741SOL    HW211967   2.145   2.731   2.081
 3742SOL     OW11968   3.361   2.594   2.582
 3742SOL    HW111969   3.336   2.556   2.666
 3742SOL    HW211970   3.431   2.655   2.602
 3743SOL     OW11971   2.984   3.639   2.093
 3743SOL    HW111972   2.910   3.598   2.137
 3743SOL    HW211973   3.007   3.577   2.023
 3744SOL     OW11974   3.490   3.242   1.951
 3744SOL    HW111975   3.449   3.328   1.935
 3744SOL    HW211976   3.422   3.179   1.930
 3745SOL     OW11977   2.328   3.598   2.183
 3745SOL    HW111978   2.370   3.656   2.246
 3745SOL    HW211979   2.399   3.568   2.127
 3746SOL     OW11980   3.263   1.968   2.295
 3746SOL    HW111981   3.255   1.943   2.203
 3746SOL    HW211982   3.357   1.977   2.310
 3747SOL     OW11983   2.120   3.644   3.096
 3747SOL    HW111984   2.199   3.601   3.128
 3747SOL    HW211985   2.112   3.615   3.006
 3748SOL     OW11986   2.799   3.571   2.745
 3748SOL    HW111987   2.846   3.510   2.802
 3748SOL    HW211988   2.760   3.515   2.678
 3749SOL     OW11989   3.438   2.057   3.585
 3749SOL    HW111990   3.446   2.094   3.673
 3749SOL    HW211991   3.348   2.023   3.581
 3750SOL     OW11992   2.492   1.989   1.966
 3750SOL    HW111993   2.564   1.928   1.982
 3750SOL    HW211994   2.447   1.953   1.889
 3751SOL     OW11995   2.739   3.427   2.987
 3751SOL    HW111996   2.705   3.360   2.928
 3751SOL    HW211997   2.774   3.378   3.061
 3752SOL     OW11998   2.672   3.248   2.788
 3752SOL    HW111999   2.757   3.237   2.745
 3752SOL    HW212000   2.609   3.250   2.716
 3753SOL     OW12001   2.844   2.347   2.760
 3753SOL    HW112002   2.785   2.351   2.685
 3753SOL    HW212003   2.855   2.253   2.777
 3754SOL     OW12004   2.412   1.922   2.368
 3754SOL    HW112005   2.329   1.923   2.416
 3754SOL    HW212006   2.407   1.997   2.309
 3755SOL     OW12007   3.290   3.061   1.901
 3755SOL    HW112008   3.321   2.986   1.952
 3755SOL    HW212009   3.205   3.083   1.940
 3756SOL     OW12010   2.153   1.910   2.047
 3756SOL    HW112011   2.212   1.972   2.004
 3756SOL    HW212012   2.212   1.846   2.089
 3757SOL     OW12013   2.800   2.106   2.321
 3757SOL    HW112014   2.773   2.136   2.234
 3757SOL    HW212015   2.895   2.120   2.322
 3758SOL     OW12016   3.094   3.425   2.653
 3758SOL    HW112017   3.099   3.497   2.590
 3758SOL    HW212018   3.162   3.444   2.717
 3759SOL     OW12019   2.332   3.019   2.594
 3759SOL    HW112020   2.263   2.993   2.655
 3759SOL    HW212021   2.298   2.993   2.508
 3760SOL     OW12022   3.129   3.655   2.472
 3760SOL    HW112023   3.176   3.716   2.415
 3760SOL    HW212024   3.062   3.708   2.514
 3761SOL     OW12025   2.725   2.297   2.503
 3761SOL    HW112026   2.720   2.372   2.444
 3761SOL    HW212027   2.753   2.224   2.448
 3762SOL     OW12028   2.878   1.911   2.612
 3762SOL    HW112029   2.820   1.905   2.536
 3762SOL    HW212030   2.855   1.836   2.666
 3763SOL     OW12031   3.292   3.032   2.711
 3763SOL    HW112032   3.238   2.953   2.714
 3763SOL    HW212033   3.323   3.036   2.621
 3764SOL     OW12034   3.329   2.471   2.833
 3764SOL    HW112035   3.279   2.390   2.844
 3764SOL    HW212036   3.393   2.469   2.904
 3765SOL     OW12037   3.706   2.677   2.245
 3765SOL    HW112038   3.763   2.627   2.303
 3765SOL    HW212039   3.679   2.615   2.178
 3766SOL     OW12040   2.354   3.277   2.019
 3766SOL    HW112041   2.278   3.251   2.070
 3766SOL    HW212042   2.340   3.237   1.933
 3767SOL     OW12043   3.532   3.127   2.506
 3767SOL    HW112044   3.626   3.128   2.521
 3767SOL    HW212045   3.503   3.215   2.529
 3768SOL     OW12046   3.255   2.427   1.932
 3768SOL    HW112047   3.191   2.408   2.001
 3768SOL    HW212048   3.338   2.396   1.967
 3769SOL     OW12049   2.394   2.117   2.185
 3769SOL    HW112050   2.431   2.075   2.107
 3769SOL    HW212051   2.399   2.210   2.167
 3770SOL     OW12052   3.617   3.102   3.415
 3770SOL    HW112053   3.706   3.065   3.412
 3770SOL    HW212054   3.627   3.184   3.462
 3771SOL     OW12055   3.461   3.477   3.508
 3771SOL    HW112056   3.464   3.523   3.424
 3771SOL    HW212057   3.546   3.435   3.516
 3772SOL     OW12058   2.970   3.115   2.971
 3772SOL    HW112059   2.896   3.067   3.010
 3772SOL    HW212060   2.947   3.122   2.878
 3773SOL     OW12061   3.493   2.964   2.944
 3773SOL    HW112062   3.493   3.027   3.015
 3773SOL    HW212063   3.404   2.967   2.909
 3774SOL     OW12064   2.276   2.734   3.138
 3774SOL    HW112065   2.332   2.697   3.206
 3774SOL    HW212066   2.212   2.665   3.120
 3775SOL     OW12067   1.937   3.447   3.208
 3775SOL    HW112068   1.886   3.509   3.156
 3775SOL    HW212069   2.027   3.479   3.203
 3776SOL     OW12070   2.220   2.970   2.346
 3776SOL    HW112071   2.209   3.046   2.288
 3776SOL    HW212072   2.206   2.894   2.289
 3777SOL     OW12073   3.108   3.212   2.251
 3777SOL    HW112074   3.165   3.283   2.280
 3777SOL    HW212075   3.021   3.235   2.285
 3778SOL     OW12076   3.440   2.484   2.336
 3778SOL    HW112077   3.404   2.529   2.412
 3778SOL    HW212078   3.487   2.552   2.288
 3779SOL     OW12079   2.388   2.802   2.892
 3779SOL    HW112080   2.450   2.875   2.897
 3779SOL    HW212081   2.355   2.793   2.982
 3780SOL     OW12082   3.238   2.724   2.898
 3780SOL    HW112083   3.164   2.730   2.837
 3780SOL    HW212084   3.272   2.635   2.885
 3781SOL     OW12085   3.073   2.382   2.136
 3781SOL    HW112086   3.076   2.301   2.187
 3781SOL    HW212087   3.066   2.451   2.201
 3782SOL     OW12088   1.871   3.193   3.138
 3782SOL    HW112089   1.934   3.132   3.177
 3782SOL    HW212090   1.902   3.280   3.164
 3783SOL     OW12091   3.605   2.831   3.715
 3783SOL    HW112092   3.549   2.784   3.653
 3783SOL    HW212093   3.551   2.841   3.793
 3784SOL     OW12094   2.166   1.927   2.487
 3784SOL    HW112095   2.140   2.015   2.514
 3784SOL    HW212096   2.174   1.878   2.569
 3785SOL     OW12097   3.478   2.236   2.227
 3785SOL    HW112098   3.506   2.173   2.294
 3785SOL    HW212099   3.455   2.315   2.277
 3786SOL     OW12100   3.714   3.373   3.469
 3786SOL    HW112101   3.734   3.396   3.379
 3786SOL    HW212102   3.796   3.387   3.517
 3787SOL     OW12103   3.391   2.134   1.989
 3787SOL    HW112104   3.326   2.069   2.016
 3787SOL    HW212105   3.424   2.170   2.071
 3788SOL     OW12106   3.183   2.689   1.905
 3788SOL    HW112107   3.215   2.599   1.897
 3788SOL    HW212108   3.198   2.728   1.819
 3789SOL     OW12109   2.927   3.204   2.699
 3789SOL    HW112110   2.959   3.130   2.647
 3789SOL    HW212111   2.987   3.276   2.678
 3790SOL     OW12112   2.160   2.672   2.811
 3790SOL    HW112113   2.246   2.710   2.829
 3790SOL    HW212114   2.168   2.581   2.841
 3791SOL     OW12115   2.160   2.389   2.853
 3791SOL    HW112116   2.125   2.303   2.873
 3791SOL    HW212117   2.218   2.375   2.778
 3792SOL     OW12118   1.867   3.183   2.058
 3792SOL    HW112119   1.780   3.197   2.020
 3792SOL    HW212120   1.864   3.093   2.091
 3793SOL     OW12121   1.952   3.649   2.801
 3793SOL    HW112122   1.922   3.569   2.756
 3793SOL    HW212123   2.042   3.661   2.770
 3794SOL     OW12124   2.359   3.436   2.768
 3794SOL    HW112125   2.428   3.498   2.789
 3794SOL    HW212126   2.401   3.371   2.711
 3795SOL     OW12127   3.522   2.485   3.025
 3795SOL    HW112128   3.486   2.429   3.094
 3795SOL    HW212129   3.607   2.446   3.004
 3796SOL     OW12130   2.076   3.427   3.603
 3796SOL    HW112131   2.055   3.503   3.657
 3796SOL    HW212132   2.066   3.352   3.662
 3797SOL     OW12133   2.769   3.600   3.355
 3797SOL    HW112134   2.743   3.553   3.276
 3797SOL    HW212135   2.768   3.693   3.330
 3798SOL     OW12136   3.183   2.719   2.171
 3798SOL    HW112137   3.095   2.719   2.208
 3798SOL    HW212138   3.170   2.705   2.077
 3799SOL     OW12139   3.636   3.606   3.014
 3799SOL    HW112140   3.696   3.633   2.945
 3799SOL    HW212141   3.612   3.517   2.991
 3800SOL     OW12142   3.106   3.601   2.980
 3800SOL    HW112143   3.186   3.619   2.930
 3800SOL    HW212144   3.120   3.514   3.017
 3801SOL     OW12145   1.943   3.125   2.878
 3801SOL    HW112146   1.912   3.144   2.967
 3801SOL    HW212147   1.876   3.067   2.842
 3802SOL     OW12148   2.558   3.584   3.604
 3802SOL    HW112149   2.491   3.651   3.602
 3802SOL    HW212150   2.605   3.593   3.522
 3803SOL     OW12151   3.581   2.010   2.371
 3803SOL    HW112152   3.654   1.995   2.310
 3803SOL    HW212153   3.566   1.924   2.411
 3804SOL     OW12154   3.253   3.429   2.347
 3804SOL    HW112155   3.313   3.462   2.281
 3804SOL    HW212156   3.204   3.506   2.376
 3805SOL     OW12157   1.990   3.668   3.711
 3805SOL    HW112158   1.940   3.604   3.761
 3805SOL    HW212159   2.042   3.714   3.777
 3806SOL     OW12160   3.167   2.790   2.553
 3806SOL    HW112161   3.237   2.726   2.539
 3806SOL    HW212162   3.186   2.860   2.492
 3807SOL     OW12163   2.532   3.483   2.017
 3807SOL    HW112164   2.543   3.496   1.922
 3807SOL    HW212165   2.477   3.405   2.024
 3808SOL     OW12166   3.488   3.593   3.254
 3808SOL    HW112167   3.540   3.598   3.173
 3808SOL    HW212168   3.474   3.684   3.279
 3809SOL     OW12169   3.703   2.035   2.827
 3809SOL    HW112170   3.731   1.947   2.800
 3809SOL    HW212171   3.616   2.045   2.788
 3810SOL     OW12172   2.120   2.173   2.600
 3810SOL    HW112173   2.036   2.207   2.571
 3810SOL    HW212174   2.109   2.159   2.694
 3811SOL     OW12175   3.069   3.466   1.894
 3811SOL    HW112176   3.060   3.373   1.916
 3811SOL    HW212177   3.005   3.480   1.824
 3812SOL     OW12178   3.353   3.487   1.905
 3812SOL    HW112179   3.259   3.481   1.890
 3812SOL    HW212180   3.390   3.494   1.817
 3813SOL     OW12181   3.494   3.162   3.140
 3813SOL    HW112182   3.540   3.144   3.222
 3813SOL    HW212183   3.427   3.226   3.163
 3814SOL     OW12184   2.888   2.087   2.829
 3814SOL    HW112185   2.887   2.034   2.750
 3814SOL    HW212186   2.880   2.024   2.901
 3815SOL     OW12187   2.462   3.355   2.342
 3815SOL    HW112188   2.510   3.309   2.273
 3815SOL    HW212189   2.391   3.400   2.296
 3816SOL     OW12190   3.595   2.249   3.241
 3816SOL    HW112191   3.662   2.316   3.234
 3816SOL    HW212192   3.624   2.179   3.182
 3817SOL     OW12193   2.122   3.206   2.152
 3817SOL    HW112194   2.029   3.203   2.128
 3817SOL    HW212195   2.124   3.244   2.240
 3818SOL     OW12196   1.941   2.194   1.896
 3818SOL    HW112197   1.852   2.177   1.866
 3818SOL    HW212198   1.970   2.270   1.844
 3819SOL     OW12199   1.929   2.017   2.172
 3819SOL    HW112200   1.916   2.099   2.125
 3819SOL    HW212201   2.014   1.985   2.141
 3820SOL     OW12202   3.038   3.194   1.977
 3820SOL    HW112203   2.942   3.187   1.979
 3820SOL    HW212204   3.063   3.198   2.069
 3821SOL     OW12205   3.346   3.637   2.843
 3821SOL    HW112206   3.366   3.698   2.771
 3821SOL    HW212207   3.431   3.620   2.884
 3822SOL     OW12208   2.228   3.617   3.420
 3822SOL    HW112209   2.142   3.659   3.414
 3822SOL    HW212210   2.208   3.527   3.446
 3823SOL     OW12211   3.590   2.752   3.109
 3823SOL    HW112212   3.553   2.668   3.080
 3823SOL    HW212213   3.555   2.816   3.048
 3824SOL     OW12214   3.077   2.176   2.322
 3824SOL    HW112215   3.140   2.104   2.310
 3824SOL    HW212216   3.107   2.222   2.400
 3825SOL     OW12217   3.627   2.233   3.507
 3825SOL    HW112218   3.613   2.240   3.413
 3825SOL    HW212219   3.565   2.166   3.536
 3826SOL     OW12220   3.632   2.786   3.379
 3826SOL    HW112221   3.620   2.880   3.393
 3826SOL    HW212222   3.620   2.773   3.285
 3827SOL     OW12223   2.752   3.231   1.906
 3827SOL    HW112224   2.692   3.258   1.976
 3827SOL    HW212225   2.755   3.306   1.847
 3828SOL     OW12226   2.521   3.653   2.804
 3828SOL    HW112227   2.505   3.744   2.781
 3828SOL    HW212228   2.617   3.643   2.800
 3829SOL     OW12229   3.717   3.416   2.704
 3829SOL    HW112230   3.639   3.403   2.652
 3829SOL    HW212231   3.712   3.350   2.773
 3830SOL     OW12232   1.946   3.095   2.529
 3830SOL    HW112233   1.953   3.046   2.610
 3830SOL    HW212234   2.014   3.058   2.472
 3831SOL     OW12235   3.678   2.041   3.097
 3831SOL    HW112236   3.683   1.947   3.109
 3831SOL    HW212237   3.687   2.055   3.003
 3832SOL     OW12238   2.230   2.254   2.366
 3832SOL    HW112239   2.276   2.180   2.327
 3832SOL    HW212240   2.202   2.222   2.452
 3833SOL     OW12241   3.562   3.355   2.951
 3833SOL    HW112242   3.481   3.332   2.905
 3833SOL    HW212243   3.572   3.287   3.018
 3834SOL     OW12244   2.690   3.437   2.533
 3834SOL    HW112245   2.673   3.497   2.461
 3834SOL    HW212246   2.612   3.382   2.538
 3835SOL     OW12247   3.286   2.079   2.994
 3835SOL    HW112248   3.326   1.994   3.014
 3835SOL    HW212249   3.250   2.109   3.078
 3836SOL     OW12250   2.865   1.877   3.019
 3836SOL    HW112251   2.816   1.808   2.975
 3836SOL    HW212252   2.955   1.845   3.022
 3837SOL     OW12253   2.633   3.207   2.178
 3837SOL    HW112254   2.607   3.116   2.163
 3837SOL    HW212255   2.718   3.200   2.222
 3838SOL     OW12256   3.214   1.915   2.028
 3838SOL    HW112257   3.244   1.850   1.964
 3838SOL    HW212258   3.127   1.886   2.053
 3839SOL     OW12259   3.173   2.302   2.544
 3839SOL    HW112260   3.137   2.389   2.557
 3839SOL    HW212261   3.168   2.259   2.629
 3840SOL     OW12262   3.447   2.065   2.742
 3840SOL    HW112263   3.382   2.089   2.807
 3840SOL    HW212264   3.451   2.141   2.683
 3841SOL     OW12265   1.906   2.933   2.168
 3841SOL    HW112266   1.999   2.922   2.148
 3841SOL    HW212267   1.876   2.845   2.190
 3842SOL     OW12268   2.749   3.515   2.203
 3842SOL    HW112269   2.675   3.498   2.143
 3842SOL    HW212270   2.720   3.589   2.256
 3843SOL     OW12271   1.823   2.155   4.376
 3843SOL    HW112272   1.750   2.209   4.407
 3843SOL    HW212273   1.782   2.093   4.316
 3844SOL     OW12274   3.412   3.373   4.430
 3844SOL    HW112275   3.358   3.401   4.504
 3844SOL    HW212276   3.353   3.375   4.354
 3845SOL     OW12277   3.657   2.465   3.941
 3845SOL    HW112278   3.628   2.454   3.850
 3845SOL    HW212279   3.604   2.404   3.991
 3846SOL     OW12280   2.548   3.032   5.564
 3846SOL    HW112281   2.618   3.096   5.551
 3846SOL    HW212282   2.474   3.067   5.515
 3847SOL     OW12283   3.332   3.365   5.077
 3847SOL    HW112284   3.381   3.446   5.091
 3847SOL    HW212285   3.257   3.372   5.135
 3848SOL     OW12286   2.295   2.220   5.209
 3848SOL    HW112287   2.371   2.162   5.219
 3848SOL    HW212288   2.221   2.169   5.242
 3849SOL     OW12289   2.085   3.591   4.193
 3849SOL    HW112290   2.108   3.666   4.248
 3849SOL    HW212291   2.160   3.580   4.135
 3850SOL     OW12292   3.001   3.199   5.417
 3850SOL    HW112293   3.028   3.185   5.508
 3850SOL    HW212294   2.957   3.119   5.391
 3851SOL     OW12295   2.032   3.326   4.238
 3851SOL    HW112296   2.051   3.420   4.248
 3851SOL    HW212297   2.062   3.286   4.319
 3852SOL     OW12298   2.480   3.662   5.161
 3852SOL    HW112299   2.396   3.639   5.201
 3852SOL    HW212300   2.495   3.753   5.186
 3853SOL     OW12301   2.420   2.875   3.868
 3853SOL    HW112302   2.437   2.925   3.789
 3853SOL    HW212303   2.504   2.833   3.888
 3854SOL     OW12304   3.460   1.985   5.193
 3854SOL    HW112305   3.475   2.065   5.143
 3854SOL    HW212306   3.443   2.015   5.282
 3855SOL     OW12307   3.704   3.620   4.059
 3855SOL    HW112308   3.771   3.593   4.122
 3855SOL    HW212309   3.727   3.711   4.039
 3856SOL     OW12310   1.896   3.457   3.850
 3856SOL    HW112311   1.877   3.365   3.869
 3856SOL    HW212312   1.872   3.504   3.931
 3857SOL     OW12313   3.608   2.793   4.360
 3857SOL    HW112314   3.671   2.730   4.327
 3857SOL    HW212315   3.575   2.838   4.282
 3858SOL     OW12316   3.524   2.959   4.155
 3858SOL    HW112317   3.610   2.982   4.120
 3858SOL    HW212318   3.507   3.026   4.221
 3859SOL     OW12319   1.953   2.594   5.322
 3859SOL    HW112320   2.045   2.618   5.314
 3859SOL    HW212321   1.905   2.676   5.311
 3860SOL     OW12322   3.142   3.067   5.149
 3860SOL    HW112323   3.201   3.084   5.075
 3860SOL    HW212324   3.199   3.074   5.226
 3861SOL     OW12325   2.636   1.867   4.165
 3861SOL    HW112326   2.699   1.939   4.163
 3861SOL    HW212327   2.571   1.893   4.231
 3862SOL     OW12328   3.415   2.858   3.930
 3862SOL    HW112329   3.353   2.793   3.963
 3862SOL    HW212330   3.450   2.900   4.008
 3863SOL     OW12331   3.048   3.670   5.347
 3863SOL    HW112332   3.058   3.730   5.273
 3863SOL    HW212333   3.065   3.583   5.310
 3864SOL     OW12334   2.197   2.110   5.549
 3864SOL    HW112335   2.225   2.200   5.530
 3864SOL    HW212336   2.105   2.119   5.573
 3865SOL     OW12337   3.521   3.601   4.303
 3865SOL    HW112338   3.500   3.574   4.214
 3865SOL    HW212339   3.495   3.527   4.358
 3866SOL     OW12340   3.443   3.531   4.035
 3866SOL    HW112341   3.533   3.563   4.029
 3866SOL    HW212342   3.416   3.517   3.944
 3867SOL     OW12343   3.256   2.333   5.402
 3867SOL    HW112344   3.259   2.377   5.488
 3867SOL    HW212345   3.317   2.261   5.409
 3868SOL     OW12346   1.988   3.712   5.302
 3868SOL    HW112347   1.990   3.690   5.395
 3868SOL    HW212348   1.897   3.702   5.277
 3869SOL     OW12349   3.571   2.436   5.553
 3869SOL    HW112350   3.532   2.508   5.504
 3869SOL    HW212351   3.598   2.374   5.485
 3870SOL     OW12352   2.216   3.671   4.588
 3870SOL    HW112353   2.266   3.593   4.562
 3870SOL    HW212354   2.283   3.737   4.608
 3871SOL     OW12355   3.644   2.932   4.607
 3871SOL    HW112356   3.627   2.905   4.517
 3871SOL    HW212357   3.564   2.910   4.654
 3872SOL     OW12358   3.099   3.404   5.239
 3872SOL    HW112359   3.093   3.340   5.310
 3872SOL    HW212360   3.036   3.375   5.174
 3873SOL     OW12361   2.179   2.804   3.974
 3873SOL    HW112362   2.258   2.825   3.926
 3873SOL    HW212363   2.148   2.721   3.936
 3874SOL     OW12364   2.321   3.138   5.460
 3874SOL    HW112365   2.295   3.138   5.368
 3874SOL    HW212366   2.239   3.130   5.508
 3875SOL     OW12367   2.987   3.642   3.955
 3875SOL    HW112368   2.910   3.606   3.999
 3875SOL    HW212369   3.012   3.574   3.891
 3876SOL     OW12370   2.045   2.140   5.262
 3876SOL    HW112371   1.959   2.168   5.231
 3876SOL    HW212372   2.033   2.049   5.288
 3877SOL     OW12373   3.484   3.238   3.812
 3877SOL    HW112374   3.452   3.327   3.797
 3877SOL    HW212375   3.405   3.184   3.815
 3878SOL     OW12376   2.324   3.603   4.043
 3878SOL    HW112377   2.370   3.654   4.109
 3878SOL    HW212378   2.394   3.569   3.986
 3879SOL     OW12379   3.267   1.968   4.162
 3879SOL    HW112380   3.251   1.948   4.070
 3879SOL    HW212381   3.362   1.976   4.169
 3880SOL     OW12382   2.119   3.654   4.955
 3880SOL    HW112383   2.172   3.587   4.998
 3880SOL    HW212384   2.109   3.623   4.865
 3881SOL     OW12385   2.152   2.551   4.157
 3881SOL    HW112386   2.247   2.543   4.158
 3881SOL    HW212387   2.121   2.474   4.204
 3882SOL     OW12388   3.396   2.086   5.449
 3882SOL    HW112389   3.405   2.107   5.542
 3882SOL    HW212390   3.327   2.020   5.446
 3883SOL     OW12391   2.628   2.131   5.479
 3883SOL    HW112392   2.705   2.074   5.477
 3883SOL    HW212393   2.584   2.110   5.561
 3884SOL     OW12394   3.203   2.459   5.163
 3884SOL    HW112395   3.228   2.419   5.246
 3884SOL    HW212396   3.246   2.545   5.164
 3885SOL     OW12397   2.158   1.914   3.905
 3885SOL    HW112398   2.218   1.975   3.863
 3885SOL    HW212399   2.215   1.853   3.951
 3886SOL     OW12400   2.789   2.093   4.169
 3886SOL    HW112401   2.778   2.137   4.085
 3886SOL    HW212402   2.884   2.098   4.186
 3887SOL     OW12403   3.142   3.657   4.320
 3887SOL    HW112404   3.183   3.722   4.263
 3887SOL    HW212405   3.075   3.707   4.368
 3888SOL     OW12406   2.877   2.407   3.752
 3888SOL    HW112407   2.819   2.482   3.741
 3888SOL    HW212408   2.914   2.419   3.840
 3889SOL     OW12409   2.798   2.318   4.340
 3889SOL    HW112410   2.725   2.380   4.349
 3889SOL    HW212411   2.759   2.241   4.298
 3890SOL     OW12412   3.720   2.678   4.096
 3890SOL    HW112413   3.772   2.626   4.157
 3890SOL    HW212414   3.704   2.619   4.023
 3891SOL     OW12415   2.356   3.265   3.902
 3891SOL    HW112416   2.272   3.244   3.943
 3891SOL    HW212417   2.341   3.250   3.808
 3892SOL     OW12418   3.538   3.132   4.370
 3892SOL    HW112419   3.633   3.136   4.382
 3892SOL    HW212420   3.507   3.220   4.392
 3893SOL     OW12421   2.375   2.112   4.072
 3893SOL    HW112422   2.426   2.050   4.019
 3893SOL    HW212423   2.423   2.194   4.064
 3894SOL     OW12424   3.615   3.101   5.298
 3894SOL    HW112425   3.703   3.064   5.293
 3894SOL    HW212426   3.629   3.192   5.325
 3895SOL     OW12427   2.931   3.247   5.096
 3895SOL    HW112428   2.849   3.208   5.127
 3895SOL    HW212429   2.997   3.181   5.113
 3896SOL     OW12430   3.471   3.489   5.380
 3896SOL    HW112431   3.464   3.523   5.291
 3896SOL    HW212432   3.554   3.440   5.381
 3897SOL     OW12433   2.780   1.953   5.141
 3897SOL    HW112434   2.786   1.930   5.048
 3897SOL    HW212435   2.865   1.992   5.162
 3898SOL     OW12436   2.234   2.690   4.989
 3898SOL    HW112437   2.328   2.702   4.999
 3898SOL    HW212438   2.218   2.600   5.020
 3899SOL     OW12439   1.933   3.440   5.078
 3899SOL    HW112440   1.903   3.513   5.024
 3899SOL    HW212441   2.028   3.440   5.067
 3900SOL     OW12442   2.238   2.964   4.182
 3900SOL    HW112443   2.248   3.038   4.121
 3900SOL    HW212444   2.213   2.891   4.127
 3901SOL     OW12445   3.093   3.236   4.049
 3901SOL    HW112446   3.160   3.291   4.089
 3901SOL    HW212447   3.056   3.187   4.123
 3902SOL     OW12448   3.503   2.509   4.181
 3902SOL    HW112449   3.441   2.564   4.228
 3902SOL    HW212450   3.550   2.570   4.124
 3903SOL     OW12451   2.203   3.386   5.025
 3903SOL    HW112452   2.194   3.311   4.965
 3903SOL    HW212453   2.297   3.402   5.028
 3904SOL     OW12454   2.219   2.626   5.312
 3904SOL    HW112455   2.282   2.689   5.277
 3904SOL    HW212456   2.274   2.560   5.354
 3905SOL     OW12457   3.460   2.639   5.411
 3905SOL    HW112458   3.375   2.681   5.404
 3905SOL    HW212459   3.514   2.685   5.346
 3906SOL     OW12460   2.861   1.986   5.486
 3906SOL    HW112461   2.917   2.057   5.453
 3906SOL    HW212462   2.906   1.906   5.458
 3907SOL     OW12463   2.357   1.899   5.476
 3907SOL    HW112464   2.315   1.848   5.407
 3907SOL    HW212465   2.299   1.973   5.489
 3908SOL     OW12466   3.035   2.407   4.001
 3908SOL    HW112467   3.078   2.323   4.015
 3908SOL    HW212468   3.068   2.464   4.071
 3909SOL     OW12469   1.875   3.177   5.034
 3909SOL    HW112470   1.907   3.126   5.109
 3909SOL    HW212471   1.892   3.268   5.058
 3910SOL     OW12472   3.599   2.822   5.578
 3910SOL    HW112473   3.553   2.759   5.523
 3910SOL    HW212474   3.539   2.838   5.651
 3911SOL     OW12475   2.089   1.902   4.340
 3911SOL    HW112476   2.108   1.994   4.321
 3911SOL    HW212477   2.137   1.883   4.421
 3912SOL     OW12478   3.463   2.240   4.106
 3912SOL    HW112479   3.503   2.181   4.170
 3912SOL    HW212480   3.462   2.326   4.149
 3913SOL     OW12481   2.846   3.425   5.443
 3913SOL    HW112482   2.828   3.473   5.363
 3913SOL    HW212483   2.890   3.345   5.414
 3914SOL     OW12484   3.716   3.367   5.328
 3914SOL    HW112485   3.735   3.394   5.238
 3914SOL    HW212486   3.797   3.384   5.376
 3915SOL     OW12487   2.210   2.810   5.529
 3915SOL    HW112488   2.283   2.812   5.591
 3915SOL    HW212489   2.218   2.725   5.485
 3916SOL     OW12490   3.458   2.099   3.873
 3916SOL    HW112491   3.394   2.031   3.897
 3916SOL    HW212492   3.460   2.158   3.948
 3917SOL     OW12493   3.001   2.230   5.408
 3917SOL    HW112494   2.947   2.298   5.447
 3917SOL    HW212495   3.089   2.269   5.403
 3918SOL     OW12496   3.027   2.068   5.190
 3918SOL    HW112497   3.019   2.123   5.268
 3918SOL    HW212498   3.028   2.130   5.117
 3919SOL     OW12499   1.860   3.189   3.921
 3919SOL    HW112500   1.774   3.202   3.880
 3919SOL    HW212501   1.858   3.098   3.951
 3920SOL     OW12502   1.952   3.645   4.662
 3920SOL    HW112503   1.924   3.565   4.617
 3920SOL    HW212504   2.042   3.659   4.633
 3921SOL     OW12505   2.060   2.376   5.446
 3921SOL    HW112506   2.076   2.317   5.372
 3921SOL    HW212507   2.012   2.449   5.408
 3922SOL     OW12508   3.234   2.801   5.386
 3922SOL    HW112509   3.256   2.894   5.387
 3922SOL    HW212510   3.241   2.776   5.294
 3923SOL     OW12511   3.512   2.459   4.934
 3923SOL    HW112512   3.496   2.386   4.994
 3923SOL    HW212513   3.591   2.435   4.886
 3924SOL     OW12514   2.105   3.413   5.450
 3924SOL    HW112515   2.082   3.478   5.517
 3924SOL    HW212516   2.106   3.330   5.498
 3925SOL     OW12517   2.781   3.551   5.209
 3925SOL    HW112518   2.771   3.507   5.124
 3925SOL    HW212519   2.777   3.644   5.189
 3926SOL     OW12520   2.016   2.992   5.191
 3926SOL    HW112521   2.009   2.954   5.278
 3926SOL    HW212522   2.017   2.916   5.132
 3927SOL     OW12523   3.197   2.706   4.025
 3927SOL    HW112524   3.137   2.710   4.100
 3927SOL    HW212525   3.152   2.755   3.956
 3928SOL     OW12526   3.629   3.605   4.870
 3928SOL    HW112527   3.693   3.630   4.803
 3928SOL    HW212528   3.608   3.513   4.850
 3929SOL     OW12529   3.100   3.591   4.834
 3929SOL    HW112530   3.182   3.608   4.788
 3929SOL    HW212531   3.115   3.507   4.877
 3930SOL     OW12532   2.541   3.531   5.454
 3930SOL    HW112533   2.486   3.608   5.448
 3930SOL    HW212534   2.608   3.543   5.386
 3931SOL     OW12535   3.588   2.016   4.242
 3931SOL    HW112536   3.655   2.001   4.175
 3931SOL    HW212537   3.568   1.929   4.276
 3932SOL     OW12538   3.249   3.428   4.209
 3932SOL    HW112539   3.309   3.461   4.143
 3932SOL    HW212540   3.203   3.506   4.241
 3933SOL     OW12541   1.999   3.658   5.567
 3933SOL    HW112542   1.949   3.592   5.615
 3933SOL    HW212543   2.047   3.706   5.635
 3934SOL     OW12544   2.691   3.147   5.175
 3934SOL    HW112545   2.648   3.179   5.255
 3934SOL    HW212546   2.640   3.185   5.104
 3935SOL     OW12547   2.520   3.495   3.886
 3935SOL    HW112548   2.548   3.505   3.795
 3935SOL    HW212549   2.489   3.404   3.891
 3936SOL     OW12550   3.490   3.592   5.116
 3936SOL    HW112551   3.538   3.599   5.033
 3936SOL    HW212552   3.475   3.683   5.143
 3937SOL     OW12553   3.703   2.034   4.687
 3937SOL    HW112554   3.734   1.946   4.664
 3937SOL    HW212555   3.612   2.035   4.656
 3938SOL     OW12556   3.081   3.465   3.761
 3938SOL    HW112557   3.076   3.374   3.789
 3938SOL    HW212558   3.023   3.470   3.685
 3939SOL     OW12559   3.359   3.489   3.767
 3939SOL    HW112560   3.264   3.481   3.758
 3939SOL    HW212561   3.392   3.493   3.677
 3940SOL     OW12562   2.233   3.161   5.211
 3940SOL    HW112563   2.219   3.240   5.157
 3940SOL    HW212564   2.156   3.107   5.194
 3941SOL     OW12565   3.456   3.130   5.012
 3941SOL    HW112566   3.527   3.128   5.076
 3941SOL    HW212567   3.407   3.210   5.034
 3942SOL     OW12568   2.442   3.368   4.190
 3942SOL    HW112569   2.496   3.306   4.142
 3942SOL    HW212570   2.385   3.407   4.123
 3943SOL     OW12571   3.588   2.245   5.109
 3943SOL    HW112572   3.656   2.312   5.106
 3943SOL    HW212573   3.620   2.176   5.051
 3944SOL     OW12574   2.111   3.205   4.013
 3944SOL    HW112575   2.018   3.197   3.988
 3944SOL    HW212576   2.109   3.252   4.096
 3945SOL     OW12577   1.968   2.904   5.444
 3945SOL    HW112578   1.895   2.868   5.494
 3945SOL    HW212579   2.046   2.865   5.484
 3946SOL     OW12580   2.524   2.055   5.228
 3946SOL    HW112581   2.600   2.046   5.170
 3946SOL    HW212582   2.561   2.085   5.311
 3947SOL     OW12583   1.919   2.214   3.775
 3947SOL    HW112584   1.845   2.182   3.722
 3947SOL    HW212585   1.949   2.292   3.729
 3948SOL     OW12586   3.303   2.722   5.135
 3948SOL    HW112587   3.255   2.766   5.065
 3948SOL    HW212588   3.395   2.727   5.107
 3949SOL     OW12589   1.926   2.016   4.027
 3949SOL    HW112590   1.909   2.096   3.977
 3949SOL    HW212591   2.013   1.987   3.997
 3950SOL     OW12592   3.353   3.630   4.704
 3950SOL    HW112593   3.367   3.694   4.635
 3950SOL    HW212594   3.435   3.628   4.753
 3951SOL     OW12595   3.333   3.062   5.355
 3951SOL    HW112596   3.322   3.077   5.449
 3951SOL    HW212597   3.426   3.078   5.339
 3952SOL     OW12598   2.241   3.601   5.287
 3952SOL    HW112599   2.157   3.643   5.272
 3952SOL    HW212600   2.220   3.518   5.329
 3953SOL     OW12601   3.572   2.747   4.998
 3953SOL    HW112602   3.552   2.659   4.966
 3953SOL    HW212603   3.548   2.805   4.926
 3954SOL     OW12604   3.623   2.224   5.379
 3954SOL    HW112605   3.608   2.237   5.285
 3954SOL    HW212606   3.552   2.167   5.406
 3955SOL     OW12607   3.607   2.801   5.254
 3955SOL    HW112608   3.604   2.896   5.265
 3955SOL    HW212609   3.606   2.787   5.160
 3956SOL     OW12610   2.531   3.671   4.684
 3956SOL    HW112611   2.488   3.754   4.660
 3956SOL    HW212612   2.604   3.664   4.624
 3957SOL     OW12613   3.056   2.849   3.844
 3957SOL    HW112614   3.039   2.935   3.806
 3957SOL    HW212615   3.073   2.792   3.768
 3958SOL     OW12616   3.717   3.416   4.571
 3958SOL    HW112617   3.641   3.402   4.513
 3958SOL    HW212618   3.709   3.346   4.636
 3959SOL     OW12619   2.081   3.165   5.579
 3959SOL    HW112620   2.019   3.097   5.553
 3959SOL    HW212621   2.067   3.176   5.673
 3960SOL     OW12622   2.544   3.266   5.365
 3960SOL    HW112623   2.458   3.228   5.388
 3960SOL    HW212624   2.537   3.357   5.394
 3961SOL     OW12625   3.678   2.044   4.959
 3961SOL    HW112626   3.682   1.949   4.972
 3961SOL    HW212627   3.689   2.055   4.865
 3962SOL     OW12628   3.562   3.343   4.828
 3962SOL    HW112629   3.469   3.321   4.833
 3962SOL    HW212630   3.605   3.280   4.886
 3963SOL     OW12631   2.191   2.421   5.044
 3963SOL    HW112632   2.223   2.370   5.118
 3963SOL    HW212633   2.205   2.365   4.968
 3964SOL     OW12634   2.860   1.826   4.905
 3964SOL    HW112635   2.811   1.784   4.835
 3964SOL    HW212636   2.952   1.804   4.886
 3965SOL     OW12637   2.618   3.194   4.082
 3965SOL    HW112638   2.607   3.104   4.052
 3965SOL    HW212639   2.708   3.217   4.057
 3966SOL     OW12640   2.464   3.432   5.017
 3966SOL    HW112641   2.491   3.512   5.061
 3966SOL    HW212642   2.544   3.397   4.978
 3967SOL     OW12643   3.218   1.918   3.896
 3967SOL    HW112644   3.250   1.858   3.829
 3967SOL    HW212645   3.132   1.883   3.921
 3968SOL     OW12646   3.439   2.068   4.627
 3968SOL    HW112647   3.383   2.085   4.703
 3968SOL    HW212648   3.445   2.153   4.583
 3969SOL     OW12649   1.903   2.941   4.024
 3969SOL    HW112650   1.998   2.931   4.015
 3969SOL    HW212651   1.871   2.851   4.033
 3970SOL     OW12652   2.755   3.525   4.050
 3970SOL    HW112653   2.674   3.502   4.005
 3970SOL    HW212654   2.726   3.573   4.128
 3971SOL     OW12655   2.074   2.509   5.697
 3971SOL    HW112656   1.993   2.480   5.739
 3971SOL    HW212657   2.076   2.462   5.614
 3972SOL     OW12658   2.085   2.134   6.580
 3972SOL    HW112659   2.114   2.101   6.665
 3972SOL    HW212660   1.994   2.104   6.572
 3973SOL     OW12661   1.864   2.240   6.230
 3973SOL    HW112662   1.780   2.266   6.269
 3973SOL    HW212663   1.843   2.164   6.176
 3974SOL     OW12664   2.412   3.162   6.782
 3974SOL    HW112665   2.329   3.172   6.735
 3974SOL    HW212666   2.434   3.250   6.811
 3975SOL     OW12667   3.424   3.374   6.293
 3975SOL    HW112668   3.382   3.354   6.377
 3975SOL    HW212669   3.352   3.379   6.230
 3976SOL     OW12670   3.062   2.532   6.338
 3976SOL    HW112671   3.072   2.623   6.312
 3976SOL    HW212672   2.970   2.524   6.364
 3977SOL     OW12673   3.633   2.466   5.814
 3977SOL    HW112674   3.610   2.459   5.721
 3977SOL    HW212675   3.594   2.389   5.854
 3978SOL     OW12676   2.590   3.037   6.628
 3978SOL    HW112677   2.520   3.069   6.685
 3978SOL    HW212678   2.625   3.116   6.587
 3979SOL     OW12679   2.546   3.037   7.407
 3979SOL    HW112680   2.604   3.112   7.421
 3979SOL    HW212681   2.469   3.074   7.365
 3980SOL     OW12682   2.190   3.289   6.653
 3980SOL    HW112683   2.119   3.249   6.604
 3980SOL    HW212684   2.240   3.338   6.588
 3981SOL     OW12685   3.325   3.361   6.942
 3981SOL    HW112686   3.376   3.441   6.950
 3981SOL    HW212687   3.256   3.369   7.008
 3982SOL     OW12688   2.303   2.228   7.040
 3982SOL    HW112689   2.377   2.170   7.059
 3982SOL    HW212690   2.227   2.180   7.074
 3983SOL     OW12691   3.475   2.308   6.327
 3983SOL    HW112692   3.396   2.323   6.275
 3983SOL    HW212693   3.485   2.387   6.379
 3984SOL     OW12694   2.081   3.577   6.057
 3984SOL    HW112695   2.102   3.653   6.112
 3984SOL    HW212696   2.155   3.569   5.997
 3985SOL     OW12697   3.041   3.244   7.285
 3985SOL    HW112698   3.070   3.240   7.376
 3985SOL    HW212699   2.995   3.161   7.270
 3986SOL     OW12700   2.092   3.304   6.121
 3986SOL    HW112701   2.074   3.398   6.124
 3986SOL    HW212702   2.033   3.266   6.186
 3987SOL     OW12703   2.115   2.952   6.471
 3987SOL    HW112704   2.119   2.868   6.517
 3987SOL    HW212705   2.062   3.008   6.529
 3988SOL     OW12706   2.471   3.655   7.013
 3988SOL    HW112707   2.390   3.637   7.061
 3988SOL    HW212708   2.495   3.744   7.040
 3989SOL     OW12709   2.417   2.856   5.713
 3989SOL    HW112710   2.460   2.920   5.657
 3989SOL    HW212711   2.486   2.822   5.769
 3990SOL     OW12712   3.458   1.986   7.053
 3990SOL    HW112713   3.468   2.067   7.003
 3990SOL    HW212714   3.442   2.015   7.143
 3991SOL     OW12715   1.948   2.510   6.157
 3991SOL    HW112716   1.926   2.420   6.181
 3991SOL    HW212717   1.948   2.558   6.240
 3992SOL     OW12718   3.704   3.620   5.920
 3992SOL    HW112719   3.770   3.592   5.984
 3992SOL    HW212720   3.727   3.711   5.901
 3993SOL     OW12721   1.895   3.456   5.709
 3993SOL    HW112722   1.877   3.364   5.729
 3993SOL    HW212723   1.871   3.503   5.789
 3994SOL     OW12724   3.556   2.787   6.229
 3994SOL    HW112725   3.636   2.740   6.206
 3994SOL    HW212726   3.532   2.834   6.149
 3995SOL     OW12727   3.508   2.969   6.016
 3995SOL    HW112728   3.594   2.974   5.973
 3995SOL    HW212729   3.514   3.031   6.089
 3996SOL     OW12730   1.983   2.612   7.178
 3996SOL    HW112731   2.054   2.652   7.227
 3996SOL    HW212732   1.919   2.682   7.166
 3997SOL     OW12733   2.480   3.249   6.321
 3997SOL    HW112734   2.435   3.165   6.333
 3997SOL    HW212735   2.459   3.275   6.232
 3998SOL     OW12736   3.147   3.095   7.015
 3998SOL    HW112737   3.182   3.031   6.952
 3998SOL    HW212738   3.209   3.093   7.088
 3999SOL     OW12739   2.677   1.860   6.096
 3999SOL    HW112740   2.718   1.944   6.074
 3999SOL    HW212741   2.584   1.880   6.105
 4000SOL     OW12742   2.033   2.838   6.854
 4000SOL    HW112743   2.117   2.793   6.844
 4000SOL    HW212744   1.971   2.784   6.805
 4001SOL     OW12745   3.400   2.861   5.783
 4001SOL    HW112746   3.333   2.799   5.810
 4001SOL    HW212747   3.437   2.894   5.865
 4002SOL     OW12748   3.047   3.669   7.207
 4002SOL    HW112749   3.056   3.731   7.134
 4002SOL    HW212750   3.064   3.584   7.168
 4003SOL     OW12751   2.195   2.109   7.403
 4003SOL    HW112752   2.229   2.198   7.398
 4003SOL    HW212753   2.104   2.120   7.431
 4004SOL     OW12754   3.329   3.280   6.537
 4004SOL    HW112755   3.262   3.297   6.603
 4004SOL    HW212756   3.315   3.189   6.511
 4005SOL     OW12757   3.519   3.604   6.164
 4005SOL    HW112758   3.501   3.573   6.075
 4005SOL    HW212759   3.495   3.530   6.220
 4006SOL     OW12760   3.146   2.210   6.519
 4006SOL    HW112761   3.055   2.182   6.528
 4006SOL    HW212762   3.194   2.157   6.583
 4007SOL     OW12763   3.442   3.532   5.896
 4007SOL    HW112764   3.533   3.563   5.888
 4007SOL    HW212765   3.415   3.516   5.805
 4008SOL     OW12766   3.258   2.337   7.262
 4008SOL    HW112767   3.257   2.381   7.347
 4008SOL    HW212768   3.316   2.262   7.275
 4009SOL     OW12769   2.859   2.273   6.828
 4009SOL    HW112770   2.778   2.314   6.858
 4009SOL    HW212771   2.839   2.243   6.739
 4010SOL     OW12772   1.947   2.682   6.370
 4010SOL    HW112773   2.030   2.681   6.418
 4010SOL    HW212774   1.904   2.762   6.399
 4011SOL     OW12775   1.988   3.716   7.166
 4011SOL    HW112776   1.989   3.693   7.259
 4011SOL    HW212777   1.898   3.698   7.138
 4012SOL     OW12778   2.742   2.185   5.789
 4012SOL    HW112779   2.774   2.272   5.763
 4012SOL    HW212780   2.785   2.125   5.729
 4013SOL     OW12781   3.571   2.437   7.416
 4013SOL    HW112782   3.532   2.511   7.368
 4013SOL    HW212783   3.597   2.375   7.347
 4014SOL     OW12784   3.236   3.003   6.120
 4014SOL    HW112785   3.318   2.993   6.073
 4014SOL    HW212786   3.188   3.069   6.070
 4015SOL     OW12787   2.408   2.031   6.473
 4015SOL    HW112788   2.410   2.056   6.565
 4015SOL    HW212789   2.428   2.111   6.425
 4016SOL     OW12790   2.865   3.305   6.062
 4016SOL    HW112791   2.830   3.376   6.009
 4016SOL    HW212792   2.846   3.330   6.152
 4017SOL     OW12793   2.217   3.671   6.450
 4017SOL    HW112794   2.260   3.586   6.457
 4017SOL    HW212795   2.286   3.735   6.468
 4018SOL     OW12796   3.662   2.919   6.455
 4018SOL    HW112797   3.610   2.898   6.378
 4018SOL    HW212798   3.599   2.924   6.527
 4019SOL     OW12799   3.093   3.413   7.084
 4019SOL    HW112800   3.086   3.350   7.156
 4019SOL    HW212801   3.025   3.386   7.022
 4020SOL     OW12802   2.170   2.823   5.840
 4020SOL    HW112803   2.249   2.840   5.789
 4020SOL    HW212804   2.153   2.730   5.829
 4021SOL     OW12805   3.361   2.594   6.306
 4021SOL    HW112806   3.336   2.557   6.391
 4021SOL    HW212807   3.431   2.655   6.327
 4022SOL     OW12808   2.317   3.137   7.321
 4022SOL    HW112809   2.291   3.139   7.229
 4022SOL    HW212810   2.235   3.133   7.370
 4023SOL     OW12811   2.984   3.639   5.816
 4023SOL    HW112812   2.910   3.599   5.861
 4023SOL    HW212813   3.007   3.577   5.747
 4024SOL     OW12814   2.053   2.138   7.094
 4024SOL    HW112815   1.969   2.184   7.090
 4024SOL    HW212816   2.033   2.058   7.144
 4025SOL     OW12817   3.490   3.242   5.674
 4025SOL    HW112818   3.449   3.327   5.659
 4025SOL    HW212819   3.422   3.179   5.654
 4026SOL     OW12820   2.328   3.599   5.907
 4026SOL    HW112821   2.370   3.656   5.971
 4026SOL    HW212822   2.399   3.568   5.851
 4027SOL     OW12823   3.263   1.968   6.019
 4027SOL    HW112824   3.254   1.943   5.927
 4027SOL    HW212825   3.357   1.976   6.033
 4028SOL     OW12826   2.117   3.653   6.817
 4028SOL    HW112827   2.169   3.587   6.863
 4028SOL    HW212828   2.109   3.620   6.728
 4029SOL     OW12829   2.798   3.564   6.484
 4029SOL    HW112830   2.872   3.510   6.513
 4029SOL    HW212831   2.756   3.512   6.416
 4030SOL     OW12832   2.181   2.564   6.032
 4030SOL    HW112833   2.213   2.474   6.030
 4030SOL    HW212834   2.094   2.558   6.070
 4031SOL     OW12835   3.396   2.087   7.311
 4031SOL    HW112836   3.405   2.107   7.404
 4031SOL    HW212837   3.326   2.022   7.308
 4032SOL     OW12838   2.492   1.987   5.693
 4032SOL    HW112839   2.565   1.927   5.706
 4032SOL    HW212840   2.446   1.953   5.616
 4033SOL     OW12841   2.618   2.116   7.334
 4033SOL    HW112842   2.702   2.069   7.336
 4033SOL    HW212843   2.607   2.147   7.424
 4034SOL     OW12844   2.740   3.390   6.779
 4034SOL    HW112845   2.723   3.353   6.693
 4034SOL    HW212846   2.802   3.330   6.820
 4035SOL     OW12847   3.247   2.436   7.004
 4035SOL    HW112848   3.261   2.410   7.095
 4035SOL    HW212849   3.261   2.531   7.004
 4036SOL     OW12850   2.680   3.272   6.523
 4036SOL    HW112851   2.763   3.250   6.481
 4036SOL    HW212852   2.615   3.267   6.452
 4037SOL     OW12853   2.804   2.358   6.487
 4037SOL    HW112854   2.795   2.345   6.393
 4037SOL    HW212855   2.831   2.273   6.521
 4038SOL     OW12856   2.412   1.923   6.090
 4038SOL    HW112857   2.331   1.924   6.141
 4038SOL    HW212858   2.405   2.000   6.033
 4039SOL     OW12859   3.290   3.061   5.625
 4039SOL    HW112860   3.322   2.987   5.675
 4039SOL    HW212861   3.205   3.083   5.664
 4040SOL     OW12862   2.152   1.910   5.771
 4040SOL    HW112863   2.208   1.971   5.723
 4040SOL    HW212864   2.213   1.848   5.812
 4041SOL     OW12865   2.800   2.102   6.043
 4041SOL    HW112866   2.771   2.135   5.958
 4041SOL    HW212867   2.894   2.117   6.044
 4042SOL     OW12868   2.983   2.475   7.053
 4042SOL    HW112869   2.921   2.407   7.027
 4042SOL    HW212870   3.068   2.443   7.023
 4043SOL     OW12871   3.088   3.428   6.379
 4043SOL    HW112872   3.101   3.497   6.314
 4043SOL    HW212873   3.153   3.447   6.447
 4044SOL     OW12874   2.330   3.020   6.318
 4044SOL    HW112875   2.261   2.995   6.379
 4044SOL    HW212876   2.297   2.994   6.232
 4045SOL     OW12877   3.130   3.655   6.195
 4045SOL    HW112878   3.176   3.716   6.138
 4045SOL    HW212879   3.063   3.708   6.238
 4046SOL     OW12880   1.932   2.420   6.984
 4046SOL    HW112881   2.023   2.414   6.955
 4046SOL    HW212882   1.932   2.492   7.048
 4047SOL     OW12883   2.413   2.074   6.737
 4047SOL    HW112884   2.470   2.027   6.798
 4047SOL    HW212885   2.329   2.080   6.781
 4048SOL     OW12886   2.776   2.302   6.229
 4048SOL    HW112887   2.687   2.334   6.217
 4048SOL    HW212888   2.783   2.227   6.170
 4049SOL     OW12889   2.878   1.913   6.336
 4049SOL    HW112890   2.820   1.907   6.260
 4049SOL    HW212891   2.855   1.838   6.391
 4050SOL     OW12892   3.297   3.023   6.441
 4050SOL    HW112893   3.236   2.949   6.434
 4050SOL    HW212894   3.329   3.037   6.352
 4051SOL     OW12895   3.329   2.468   6.561
 4051SOL    HW112896   3.275   2.389   6.563
 4051SOL    HW212897   3.387   2.459   6.637
 4052SOL     OW12898   3.706   2.677   5.970
 4052SOL    HW112899   3.763   2.627   6.028
 4052SOL    HW212900   3.679   2.615   5.902
 4053SOL     OW12901   2.355   3.277   5.742
 4053SOL    HW112902   2.278   3.252   5.794
 4053SOL    HW212903   2.341   3.236   5.657
 4054SOL     OW12904   3.531   3.126   6.233
 4054SOL    HW112905   3.626   3.128   6.246
 4054SOL    HW212906   3.503   3.215   6.253
 4055SOL     OW12907   3.255   2.426   5.656
 4055SOL    HW112908   3.191   2.408   5.726
 4055SOL    HW212909   3.338   2.395   5.692
 4056SOL     OW12910   2.390   2.122   5.907
 4056SOL    HW112911   2.426   2.072   5.834
 4056SOL    HW212912   2.407   2.213   5.885
 4057SOL     OW12913   3.614   3.101   7.157
 4057SOL    HW112914   3.701   3.063   7.153
 4057SOL    HW212915   3.629   3.191   7.186
 4058SOL     OW12916   2.923   3.219   6.920
 4058SOL    HW112917   2.844   3.191   6.965
 4058SOL    HW212918   2.994   3.172   6.964
 4059SOL     OW12919   3.471   3.488   7.239
 4059SOL    HW112920   3.464   3.522   7.150
 4059SOL    HW212921   3.553   3.440   7.241
 4060SOL     OW12922   3.001   3.075   6.696
 4060SOL    HW112923   2.942   3.107   6.764
 4060SOL    HW212924   2.954   3.089   6.614
 4061SOL     OW12925   3.489   2.960   6.663
 4061SOL    HW112926   3.486   3.022   6.736
 4061SOL    HW212927   3.409   2.977   6.613
 4062SOL     OW12928   2.778   1.958   6.981
 4062SOL    HW112929   2.801   1.940   6.890
 4062SOL    HW212930   2.857   1.998   7.019
 4063SOL     OW12931   2.899   3.026   7.284
 4063SOL    HW112932   2.813   3.060   7.311
 4063SOL    HW212933   2.885   2.995   7.194
 4064SOL     OW12934   2.252   2.678   6.848
 4064SOL    HW112935   2.340   2.693   6.883
 4064SOL    HW212936   2.231   2.588   6.873
 4065SOL     OW12937   3.131   2.232   6.861
 4065SOL    HW112938   3.174   2.309   6.898
 4065SOL    HW212939   3.042   2.261   6.840
 4066SOL     OW12940   1.933   3.436   6.940
 4066SOL    HW112941   1.905   3.508   6.884
 4066SOL    HW212942   2.029   3.438   6.934
 4067SOL     OW12943   2.219   2.968   6.072
 4067SOL    HW112944   2.210   3.043   6.013
 4067SOL    HW212945   2.204   2.892   6.017
 4068SOL     OW12946   3.108   3.212   5.975
 4068SOL    HW112947   3.164   3.283   6.004
 4068SOL    HW212948   3.021   3.235   6.009
 4069SOL     OW12949   3.145   3.322   6.732
 4069SOL    HW112950   3.199   3.323   6.811
 4069SOL    HW212951   3.088   3.247   6.743
 4070SOL     OW12952   3.441   2.483   6.060
 4070SOL    HW112953   3.404   2.529   6.136
 4070SOL    HW212954   3.487   2.552   6.011
 4071SOL     OW12955   2.207   3.391   6.900
 4071SOL    HW112956   2.195   3.349   6.815
 4071SOL    HW212957   2.302   3.404   6.908
 4072SOL     OW12958   3.463   2.642   7.270
 4072SOL    HW112959   3.376   2.681   7.261
 4072SOL    HW212960   3.515   2.684   7.201
 4073SOL     OW12961   2.861   1.988   7.341
 4073SOL    HW112962   2.917   2.061   7.314
 4073SOL    HW212963   2.909   1.910   7.315
 4074SOL     OW12964   2.359   1.900   7.334
 4074SOL    HW112965   2.315   1.846   7.268
 4074SOL    HW212966   2.300   1.974   7.347
 4075SOL     OW12967   3.232   2.722   6.614
 4075SOL    HW112968   3.162   2.717   6.549
 4075SOL    HW212969   3.271   2.635   6.614
 4076SOL     OW12970   3.076   2.382   5.861
 4076SOL    HW112971   3.077   2.300   5.911
 4076SOL    HW212972   3.057   2.450   5.925
 4077SOL     OW12973   2.154   2.059   6.834
 4077SOL    HW112974   2.117   2.090   6.917
 4077SOL    HW212975   2.139   1.965   6.835
 4078SOL     OW12976   1.906   3.174   6.862
 4078SOL    HW112977   1.939   3.120   6.933
 4078SOL    HW212978   1.914   3.264   6.895
 4079SOL     OW12979   3.598   2.822   7.439
 4079SOL    HW112980   3.551   2.759   7.384
 4079SOL    HW212981   3.541   2.836   7.514
 4080SOL     OW12982   2.166   1.928   6.210
 4080SOL    HW112983   2.144   2.018   6.236
 4080SOL    HW212984   2.174   1.881   6.293
 4081SOL     OW12985   3.479   2.236   5.951
 4081SOL    HW112986   3.506   2.173   6.018
 4081SOL    HW212987   3.456   2.314   6.001
 4082SOL     OW12988   2.839   3.430   7.302
 4082SOL    HW112989   2.823   3.474   7.219
 4082SOL    HW212990   2.900   3.359   7.281
 4083SOL     OW12991   3.716   3.367   7.191
 4083SOL    HW112992   3.735   3.393   7.101
 4083SOL    HW212993   3.798   3.384   7.238
 4084SOL     OW12994   2.223   2.764   7.367
 4084SOL    HW112995   2.277   2.804   7.434
 4084SOL    HW212996   2.275   2.690   7.335
 4085SOL     OW12997   3.391   2.134   5.713
 4085SOL    HW112998   3.326   2.069   5.740
 4085SOL    HW212999   3.424   2.170   5.795
 4086SOL     OW13000   3.187   2.690   5.634
 4086SOL    HW113001   3.216   2.599   5.624
 4086SOL    HW213002   3.200   2.729   5.547
 4087SOL     OW13003   2.926   3.205   6.431
 4087SOL    HW113004   2.955   3.130   6.379
 4087SOL    HW213005   2.988   3.275   6.407
 4088SOL     OW13006   2.171   2.677   6.533
 4088SOL    HW113007   2.264   2.694   6.519
 4088SOL    HW213008   2.168   2.592   6.575
 4089SOL     OW13009   2.169   2.383   6.585
 4089SOL    HW113010   2.137   2.292   6.582
 4089SOL    HW213011   2.238   2.386   6.518
 4090SOL     OW13012   3.001   2.229   7.267
 4090SOL    HW113013   2.952   2.280   7.331
 4090SOL    HW213014   3.084   2.276   7.258
 4091SOL     OW13015   3.023   2.060   7.054
 4091SOL    HW113016   3.014   2.122   7.127
 4091SOL    HW213017   3.062   2.110   6.984
 4092SOL     OW13018   1.867   3.183   5.783
 4092SOL    HW113019   1.780   3.196   5.745
 4092SOL    HW213020   1.865   3.093   5.816
 4093SOL     OW13021   1.952   3.649   6.524
 4093SOL    HW113022   1.922   3.569   6.480
 4093SOL    HW213023   2.042   3.661   6.494
 4094SOL     OW13024   2.358   3.435   6.491
 4094SOL    HW113025   2.427   3.497   6.515
 4094SOL    HW213026   2.402   3.371   6.435
 4095SOL     OW13027   1.895   2.405   6.703
 4095SOL    HW113028   1.975   2.398   6.651
 4095SOL    HW213029   1.926   2.411   6.793
 4096SOL     OW13030   2.056   2.379   7.311
 4096SOL    HW113031   2.105   2.338   7.240
 4096SOL    HW213032   2.010   2.452   7.270
 4097SOL     OW13033   3.233   2.801   7.246
 4097SOL    HW113034   3.260   2.893   7.242
 4097SOL    HW213035   3.233   2.772   7.154
 4098SOL     OW13036   3.503   2.466   6.771
 4098SOL    HW113037   3.489   2.408   6.847
 4098SOL    HW213038   3.590   2.442   6.739
 4099SOL     OW13039   2.104   3.413   7.313
 4099SOL    HW113040   2.082   3.478   7.380
 4099SOL    HW213041   2.106   3.330   7.360
 4100SOL     OW13042   2.786   3.543   7.055
 4100SOL    HW113043   2.764   3.504   6.970
 4100SOL    HW213044   2.782   3.637   7.041
 4101SOL     OW13045   2.004   3.006   7.061
 4101SOL    HW113046   2.008   2.954   7.141
 4101SOL    HW213047   2.016   2.943   6.990
 4102SOL     OW13048   3.191   2.909   6.809
 4102SOL    HW113049   3.214   2.846   6.740
 4102SOL    HW213050   3.126   2.967   6.768
 4103SOL     OW13051   3.185   2.721   5.899
 4103SOL    HW113052   3.098   2.715   5.937
 4103SOL    HW213053   3.173   2.705   5.806
 4104SOL     OW13054   3.634   3.605   6.736
 4104SOL    HW113055   3.695   3.631   6.667
 4104SOL    HW213056   3.610   3.515   6.715
 4105SOL     OW13057   3.102   3.595   6.696
 4105SOL    HW113058   3.185   3.616   6.653
 4105SOL    HW213059   3.109   3.502   6.717
 4106SOL     OW13060   1.946   3.130   6.597
 4106SOL    HW113061   1.931   3.142   6.691
 4106SOL    HW213062   1.875   3.073   6.569
 4107SOL     OW13063   2.538   3.528   7.316
 4107SOL    HW113064   2.486   3.609   7.311
 4107SOL    HW213065   2.607   3.540   7.251
 4108SOL     OW13066   3.582   2.010   6.095
 4108SOL    HW113067   3.654   1.995   6.034
 4108SOL    HW213068   3.566   1.924   6.135
 4109SOL     OW13069   3.252   3.430   6.071
 4109SOL    HW113070   3.313   3.463   6.005
 4109SOL    HW213071   3.204   3.507   6.100
 4110SOL     OW13072   1.998   3.658   7.430
 4110SOL    HW113073   1.947   3.593   7.479
 4110SOL    HW213074   2.046   3.706   7.497
 4111SOL     OW13075   3.168   2.790   6.276
 4111SOL    HW113076   3.238   2.726   6.262
 4111SOL    HW213077   3.187   2.860   6.214
 4112SOL     OW13078   2.676   3.171   7.012
 4112SOL    HW113079   2.633   3.207   7.090
 4112SOL    HW213080   2.604   3.143   6.956
 4113SOL     OW13081   2.532   3.483   5.741
 4113SOL    HW113082   2.543   3.496   5.647
 4113SOL    HW213083   2.477   3.405   5.748
 4114SOL     OW13084   3.487   3.589   6.976
 4114SOL    HW113085   3.538   3.596   6.895
 4114SOL    HW213086   3.473   3.679   7.004
 4115SOL     OW13087   3.703   2.035   6.552
 4115SOL    HW113088   3.731   1.947   6.526
 4115SOL    HW213089   3.617   2.045   6.513
 4116SOL     OW13090   2.120   2.180   6.312
 4116SOL    HW113091   2.033   2.210   6.287
 4116SOL    HW213092   2.113   2.160   6.406
 4117SOL     OW13093   3.069   3.465   5.617
 4117SOL    HW113094   3.061   3.373   5.641
 4117SOL    HW213095   3.003   3.479   5.549
 4118SOL     OW13096   3.353   3.487   5.629
 4118SOL    HW113097   3.259   3.481   5.614
 4118SOL    HW213098   3.391   3.494   5.541
 4119SOL     OW13099   2.228   3.166   7.075
 4119SOL    HW113100   2.217   3.242   7.018
 4119SOL    HW213101   2.150   3.112   7.059
 4120SOL     OW13102   3.473   3.144   6.867
 4120SOL    HW113103   3.532   3.132   6.941
 4120SOL    HW213104   3.413   3.214   6.895
 4121SOL     OW13105   2.889   2.097   6.553
 4121SOL    HW113106   2.885   2.048   6.470
 4121SOL    HW213107   2.881   2.031   6.621
 4122SOL     OW13108   2.463   3.354   6.068
 4122SOL    HW113109   2.510   3.308   5.998
 4122SOL    HW213110   2.391   3.399   6.023
 4123SOL     OW13111   3.586   2.253   6.968
 4123SOL    HW113112   3.657   2.317   6.965
 4123SOL    HW213113   3.616   2.182   6.911
 4124SOL     OW13114   2.122   3.208   5.874
 4124SOL    HW113115   2.029   3.204   5.852
 4124SOL    HW213116   2.124   3.245   5.962
 4125SOL     OW13117   1.976   2.886   7.307
 4125SOL    HW113118   1.900   2.862   7.360
 4125SOL    HW213119   2.050   2.845   7.351
 4126SOL     OW13120   2.534   2.060   7.080
 4126SOL    HW113121   2.619   2.038   7.040
 4126SOL    HW213122   2.554   2.082   7.170
 4127SOL     OW13123   1.940   2.196   5.621
 4127SOL    HW113124   1.853   2.176   5.585
 4127SOL    HW213125   1.971   2.270   5.569
 4128SOL     OW13126   3.292   2.722   6.989
 4128SOL    HW113127   3.243   2.782   6.933
 4128SOL    HW213128   3.381   2.723   6.953
 4129SOL     OW13129   1.929   2.018   5.895
 4129SOL    HW113130   1.915   2.098   5.845
 4129SOL    HW213131   2.014   1.985   5.865
 4130SOL     OW13132   3.038   3.194   5.702
 4130SOL    HW113133   2.942   3.187   5.704
 4130SOL    HW213134   3.064   3.197   5.794
 4131SOL     OW13135   3.346   3.639   6.565
 4131SOL    HW113136   3.369   3.700   6.495
 4131SOL    HW213137   3.429   3.620   6.609
 4132SOL     OW13138   3.335   3.058   7.220
 4132SOL    HW113139   3.322   3.075   7.313
 4132SOL    HW213140   3.428   3.075   7.204
 4133SOL     OW13141   2.240   3.602   7.151
 4133SOL    HW113142   2.155   3.644   7.137
 4133SOL    HW213143   2.218   3.518   7.192
 4134SOL     OW13144   3.530   2.743   6.842
 4134SOL    HW113145   3.524   2.657   6.800
 4134SOL    HW213146   3.520   2.805   6.770
 4135SOL     OW13147   3.077   2.174   6.045
 4135SOL    HW113148   3.140   2.103   6.034
 4135SOL    HW213149   3.106   2.222   6.122
 4136SOL     OW13150   3.623   2.224   7.239
 4136SOL    HW113151   3.607   2.240   7.146
 4136SOL    HW213152   3.551   2.168   7.266
 4137SOL     OW13153   3.608   2.795   7.098
 4137SOL    HW113154   3.603   2.890   7.111
 4137SOL    HW213155   3.592   2.783   7.005
 4138SOL     OW13156   2.751   3.230   5.630
 4138SOL    HW113157   2.692   3.258   5.700
 4138SOL    HW213158   2.756   3.306   5.571
 4139SOL     OW13159   2.522   3.653   6.529
 4139SOL    HW113160   2.504   3.744   6.506
 4139SOL    HW213161   2.617   3.645   6.523
 4140SOL     OW13162   3.715   3.416   6.430
 4140SOL    HW113163   3.637   3.404   6.377
 4140SOL    HW213164   3.707   3.350   6.499
 4141SOL     OW13165   2.082   3.166   7.443
 4141SOL    HW113166   2.014   3.105   7.414
 4141SOL    HW213167   2.064   3.178   7.536
 4142SOL     OW13168   1.946   3.095   6.253
 4142SOL    HW113169   1.954   3.048   6.335
 4142SOL    HW213170   2.014   3.057   6.197
 4143SOL     OW13171   2.536   3.270   7.217
 4143SOL    HW113172   2.453   3.230   7.244
 4143SOL    HW213173   2.535   3.357   7.255
 4144SOL     OW13174   3.676   2.046   6.823
 4144SOL    HW113175   3.684   1.951   6.837
 4144SOL    HW213176   3.685   2.057   6.729
 4145SOL     OW13177   2.238   2.282   6.087
 4145SOL    HW113178   2.280   2.207   6.044
 4145SOL    HW213179   2.205   2.246   6.170
 4146SOL     OW13180   3.562   3.350   6.681
 4146SOL    HW113181   3.481   3.328   6.635
 4146SOL    HW213182   3.572   3.282   6.747
 4147SOL     OW13183   2.175   2.404   6.874
 4147SOL    HW113184   2.224   2.340   6.927
 4147SOL    HW213185   2.189   2.376   6.784
 4148SOL     OW13186   2.692   3.440   6.260
 4148SOL    HW113187   2.673   3.497   6.185
 4148SOL    HW213188   2.615   3.383   6.266
 4149SOL     OW13189   3.296   2.083   6.706
 4149SOL    HW113190   3.320   2.003   6.752
 4149SOL    HW213191   3.243   2.133   6.768
 4150SOL     OW13192   2.870   1.877   6.728
 4150SOL    HW113193   2.817   1.810   6.686
 4150SOL    HW213194   2.958   1.841   6.730
 4151SOL     OW13195   2.634   3.207   5.901
 4151SOL    HW113196   2.606   3.117   5.888
 4151SOL    HW213197   2.718   3.199   5.947
 4152SOL     OW13198   2.480   3.422   6.870
 4152SOL    HW113199   2.484   3.504   6.919
 4152SOL    HW213200   2.569   3.410   6.835
 4153SOL     OW13201   3.214   1.916   5.752
 4153SOL    HW113202   3.243   1.851   5.687
 4153SOL    HW213203   3.127   1.886   5.778
 4154SOL     OW13204   3.178   2.302   6.266
 4154SOL    HW113205   3.139   2.389   6.279
 4154SOL    HW213206   3.169   2.259   6.351
 4155SOL     OW13207   3.448   2.062   6.465
 4155SOL    HW113208   3.389   2.084   6.536
 4155SOL    HW213209   3.448   2.140   6.409
 4156SOL     OW13210   1.907   2.931   5.892
 4156SOL    HW113211   1.999   2.919   5.868
 4156SOL    HW213212   1.877   2.844   5.915
 4157SOL     OW13213   2.749   3.515   5.927
 4157SOL    HW113214   2.676   3.498   5.868
 4157SOL    HW213215   2.720   3.590   5.980
 4158SOL     OW13216   2.090   2.503   7.564
 4158SOL    HW113217   2.004   2.491   7.604
 4158SOL    HW213218   2.082   2.463   7.478
 4159SOL     OW13219   3.629   2.460   7.679
 4159SOL    HW113220   3.609   2.456   7.585
 4159SOL    HW213221   3.589   2.381   7.716
 4160SOL     OW13222   2.082   3.582   7.919
 4160SOL    HW113223   2.111   3.620   8.001
 4160SOL    HW213224   2.161   3.578   7.865
 4161SOL     OW13225   2.078   3.302   7.990
 4161SOL    HW113226   2.059   3.396   7.990
 4161SOL    HW213227   2.026   3.266   8.061
 4162SOL     OW13228   2.410   2.862   7.565
 4162SOL    HW113229   2.453   2.926   7.508
 4162SOL    HW213230   2.483   2.817   7.609
 4163SOL     OW13231   3.700   3.620   7.797
 4163SOL    HW113232   3.771   3.590   7.853
 4163SOL    HW213233   3.725   3.709   7.771
 4164SOL     OW13234   1.892   3.461   7.578
 4164SOL    HW113235   1.877   3.367   7.593
 4164SOL    HW213236   1.866   3.503   7.659
 4165SOL     OW13237   3.543   2.727   8.035
 4165SOL    HW113238   3.623   2.738   0.006
 4165SOL    HW213239   3.531   2.810   7.990
 4166SOL     OW13240   3.518   2.959   7.878
 4166SOL    HW113241   3.604   2.986   7.849
 4166SOL    HW213242   3.486   3.032   7.932
 4167SOL     OW13243   2.665   1.859   7.941
 4167SOL    HW113244   2.713   1.939   7.921
 4167SOL    HW213245   2.574   1.885   7.947
 4168SOL     OW13246   3.399   2.856   7.649
 4168SOL    HW113247   3.334   2.794   7.683
 4168SOL    HW213248   3.441   2.892   7.727
 4169SOL     OW13249   3.436   3.534   7.757
 4169SOL    HW113250   3.527   3.562   7.766
 4169SOL    HW213251   3.423   3.521   7.663
 4170SOL     OW13252   1.918   2.722   0.086
 4170SOL    HW113253   1.988   2.659   0.106
 4170SOL    HW213254   1.920   2.784   0.159
 4171SOL     OW13255   2.738   2.190   7.644
 4171SOL    HW113256   2.760   2.271   7.600
 4171SOL    HW213257   2.797   2.124   7.605
 4172SOL     OW13258   2.170   2.817   7.691
 4172SOL    HW113259   2.254   2.835   7.649
 4172SOL    HW213260   2.149   2.727   7.665
 4173SOL     OW13261   2.986   3.639   7.684
 4173SOL    HW113262   2.909   3.598   7.724
 4173SOL    HW213263   3.011   3.580   7.613
 4174SOL     OW13264   3.489   3.242   7.534
 4174SOL    HW113265   3.448   3.328   7.521
 4174SOL    HW213266   3.419   3.179   7.518
 4175SOL     OW13267   2.328   3.601   7.770
 4175SOL    HW113268   2.378   3.653   7.832
 4175SOL    HW213269   2.395   3.563   7.712
 4176SOL     OW13270   3.279   1.995   7.864
 4176SOL    HW113271   3.266   1.960   7.776
 4176SOL    HW213272   3.374   1.993   7.877
 4177SOL     OW13273   2.478   1.975   7.569
 4177SOL    HW113274   2.567   1.938   7.571
 4177SOL    HW213275   2.445   1.952   7.482
 4178SOL     OW13276   2.393   1.933   7.963
 4178SOL    HW113277   2.305   1.932   8.000
 4178SOL    HW213278   2.391   2.002   7.896
 4179SOL     OW13279   3.290   3.058   7.492
 4179SOL    HW113280   3.327   2.985   7.542
 4179SOL    HW213281   3.201   3.066   7.525
 4180SOL     OW13282   2.155   1.911   7.633
 4180SOL    HW113283   2.213   1.968   7.582
 4180SOL    HW213284   2.213   1.846   7.672
 4181SOL     OW13285   2.802   2.092   7.908
 4181SOL    HW113286   2.765   2.143   7.835
 4181SOL    HW213287   2.892   2.122   7.915
 4182SOL     OW13288   2.298   3.041   0.086
 4182SOL    HW113289   2.221   3.028   0.141
 4182SOL    HW213290   2.270   3.012   8.079
 4183SOL     OW13291   3.153   3.674   8.014
 4183SOL    HW113292   3.189   3.742   7.958
 4183SOL    HW213293   3.067   3.707   8.040
 4184SOL     OW13294   2.900   2.375   7.479
 4184SOL    HW113295   2.853   2.455   7.456
 4184SOL    HW213296   2.956   2.400   7.552
 4185SOL     OW13297   3.736   2.677   7.802
 4185SOL    HW113298   3.723   2.652   7.894
 4185SOL    HW213299   3.695   2.606   7.752
 4186SOL     OW13300   2.352   3.275   7.607
 4186SOL    HW113301   2.276   3.249   7.658
 4186SOL    HW213302   2.337   3.236   7.520
 4187SOL     OW13303   3.256   2.434   7.520
 4187SOL    HW113304   3.195   2.412   7.591
 4187SOL    HW213305   3.341   2.400   7.549
 4188SOL     OW13306   2.385   2.121   7.774
 4188SOL    HW113307   2.418   2.065   7.703
 4188SOL    HW213308   2.406   2.210   7.746
 4189SOL     OW13309   2.232   2.964   7.918
 4189SOL    HW113310   2.203   3.041   7.869
 4189SOL    HW213311   2.213   2.890   7.860
 4190SOL     OW13312   3.087   3.215   7.825
 4190SOL    HW113313   3.146   3.286   7.849
 4190SOL    HW213314   3.053   3.183   7.908
 4191SOL     OW13315   3.450   2.489   7.921
 4191SOL    HW113316   3.441   2.550   7.994
 4191SOL    HW213317   3.485   2.542   7.850
 4192SOL     OW13318   3.065   2.390   7.716
 4192SOL    HW113319   3.063   2.308   7.764
 4192SOL    HW213320   3.055   2.458   7.783
 4193SOL     OW13321   3.481   2.241   7.813
 4193SOL    HW113322   3.503   2.175   7.879
 4193SOL    HW213323   3.457   2.318   7.865
 4194SOL     OW13324   3.391   2.137   7.575
 4194SOL    HW113325   3.325   2.072   7.600
 4194SOL    HW213326   3.423   2.172   7.658
 4195SOL     OW13327   3.155   2.689   7.482
 4195SOL    HW113328   3.192   2.601   7.484
 4195SOL    HW213329   3.183   2.724   7.397
 4196SOL     OW13330   1.868   3.186   7.640
 4196SOL    HW113331   1.780   3.198   7.603
 4196SOL    HW213332   1.867   3.096   7.674
 4197SOL     OW13333   3.191   2.700   7.753
 4197SOL    HW113334   3.108   2.723   7.795
 4197SOL    HW213335   3.169   2.692   7.660
 4198SOL     OW13336   3.575   2.010   7.947
 4198SOL    HW113337   3.651   2.003   7.889
 4198SOL    HW213338   3.578   1.931   8.000
 4199SOL     OW13339   3.225   3.439   7.896
 4199SOL    HW113340   3.300   3.459   7.840
 4199SOL    HW213341   3.193   3.525   7.926
 4200SOL     OW13342   2.527   3.483   7.603
 4200SOL    HW113343   2.541   3.494   7.509
 4200SOL    HW213344   2.476   3.402   7.611
 4201SOL     OW13345   3.073   3.480   7.479
 4201SOL    HW113346   3.059   3.391   7.511
 4201SOL    HW213347   3.008   3.491   7.410
 4202SOL     OW13348   3.355   3.489   7.489
 4202SOL    HW113349   3.261   3.483   7.476
 4202SOL    HW213350   3.391   3.494   7.400
 4203SOL     OW13351   2.473   3.377   7.936
 4203SOL    HW113352   2.516   3.318   7.874
 4203SOL    HW213353   2.392   3.403   7.892
 4204SOL     OW13354   2.120   3.209   7.742
 4204SOL    HW113355   2.028   3.205   7.716
 4204SOL    HW213356   2.119   3.244   7.830
 4205SOL     OW13357   1.941   2.194   7.483
 4205SOL    HW113358   1.853   2.176   7.451
 4205SOL    HW213359   1.970   2.270   7.431
 4206SOL     OW13360   1.930   2.017   7.757
 4206SOL    HW113361   1.915   2.096   7.705
 4206SOL    HW213362   2.014   1.982   7.725
 4207SOL     OW13363   3.039   3.224   7.561
 4207SOL    HW113364   2.961   3.168   7.557
 4207SOL    HW213365   3.066   3.220   7.652
 4208SOL     OW13366   3.075   2.180   7.901
 4208SOL    HW113367   3.150   2.121   7.893
 4208SOL    HW213368   3.091   2.228   7.982
 4209SOL     OW13369   2.727   3.230   7.476
 4209SOL    HW113370   2.696   3.256   7.563
 4209SOL    HW213371   2.748   3.313   7.432
 4210SOL     OW13372   3.026   2.935   7.529
 4210SOL    HW113373   2.992   2.962   7.443
 4210SOL    HW213374   3.075   2.854   7.511
 4211SOL     OW13375   2.214   2.246   7.985
 4211SOL    HW113376   2.269   2.212   7.914
 4211SOL    HW213377   2.264   2.229   8.064
 4212SOL     OW13378   2.636   3.205   7.759
 4212SOL    HW113379   2.591   3.121   7.764
 4212SOL    HW213380   2.711   3.196   7.819
 4213SOL     OW13381   3.215   1.915   7.610
 4213SOL    HW113382   3.244   1.848   7.549
 4213SOL    HW213383   3.128   1.885   7.638
 4214SOL     OW13384   1.914   2.940   7.749
 4214SOL    HW113385   2.007   2.925   7.730
 4214SOL    HW213386   1.879   2.853   7.766
 4215SOL     OW13387   2.755   3.515   7.780
 4215SOL    HW113388   2.679   3.490   7.728
 4215SOL    HW213389   2.721   3.577   7.844
 4216SOL     OW13390   2.079   4.347   0.123
 4216SOL    HW113391   1.999   4.312   0.162
 4216SOL    HW213392   2.101   4.284   0.053
 4217SOL     OW13393   2.087   4.006   0.992
 4217SOL    HW113394   2.115   3.971   1.077
 4217SOL    HW213395   1.997   3.974   0.982
 4218SOL     OW13396   1.865   4.107   0.638
 4218SOL    HW113397   1.783   4.133   0.679
 4218SOL    HW213398   1.843   4.027   0.590
 4219SOL     OW13399   2.429   5.007   1.180
 4219SOL    HW113400   2.344   5.005   1.136
 4219SOL    HW213401   2.440   5.099   1.206
 4220SOL     OW13402   3.419   5.233   0.687
 4220SOL    HW113403   3.396   5.230   0.780
 4220SOL    HW213404   3.341   5.269   0.645
 4221SOL     OW13405   2.993   4.422   0.700
 4221SOL    HW113406   3.042   4.503   0.686
 4221SOL    HW213407   2.946   4.436   0.783
 4222SOL     OW13408   3.632   4.324   0.232
 4222SOL    HW113409   3.593   4.326   0.145
 4222SOL    HW213410   3.592   4.248   0.275
 4223SOL     OW13411   2.616   4.867   1.039
 4223SOL    HW113412   2.550   4.899   1.100
 4223SOL    HW213413   2.647   4.945   0.993
 4224SOL     OW13414   2.730   4.496   1.822
 4224SOL    HW113415   2.717   4.568   1.885
 4224SOL    HW213416   2.754   4.540   1.740
 4225SOL     OW13417   2.546   4.723   0.651
 4225SOL    HW113418   2.612   4.714   0.719
 4225SOL    HW213419   2.478   4.779   0.690
 4226SOL     OW13420   2.571   4.871   1.813
 4226SOL    HW113421   2.619   4.951   1.837
 4226SOL    HW213422   2.488   4.903   1.777
 4227SOL     OW13423   2.199   5.149   1.059
 4227SOL    HW113424   2.121   5.104   1.026
 4227SOL    HW213425   2.237   5.192   0.983
 4228SOL     OW13426   3.317   5.221   1.348
 4228SOL    HW113427   3.371   5.293   1.379
 4228SOL    HW213428   3.249   5.211   1.415
 4229SOL     OW13429   2.312   4.122   1.485
 4229SOL    HW113430   2.386   4.063   1.492
 4229SOL    HW213431   2.235   4.066   1.500
 4230SOL     OW13432   3.473   4.171   0.741
 4230SOL    HW113433   3.398   4.193   0.686
 4230SOL    HW213434   3.487   4.248   0.796
 4231SOL     OW13435   2.995   5.073   1.702
 4231SOL    HW113436   3.025   5.074   1.793
 4231SOL    HW213437   2.942   4.994   1.695
 4232SOL     OW13438   2.069   5.156   0.515
 4232SOL    HW113439   2.098   5.237   0.557
 4232SOL    HW213440   2.018   5.111   0.583
 4233SOL     OW13441   2.121   4.811   0.892
 4233SOL    HW113442   2.118   4.724   0.931
 4233SOL    HW213443   2.064   4.864   0.947
 4234SOL     OW13444   2.490   4.684   0.134
 4234SOL    HW113445   2.437   4.760   0.109
 4234SOL    HW213446   2.540   4.714   0.209
 4235SOL     OW13447   3.458   3.848   1.467
 4235SOL    HW113448   3.469   3.929   1.417
 4235SOL    HW213449   3.443   3.878   1.557
 4236SOL     OW13450   1.977   4.375   0.563
 4236SOL    HW113451   1.947   4.286   0.584
 4236SOL    HW213452   1.969   4.423   0.645
 4237SOL     OW13453   1.838   0.021   0.094
 4237SOL    HW113454   1.853   5.230   0.121
 4237SOL    HW213455   1.868   0.073   0.168
 4238SOL     OW13456   3.548   4.641   0.644
 4238SOL    HW113457   3.632   4.599   0.622
 4238SOL    HW213458   3.527   4.694   0.566
 4239SOL     OW13459   3.508   4.829   0.434
 4239SOL    HW113460   3.590   4.839   0.386
 4239SOL    HW213461   3.515   4.890   0.507
 4240SOL     OW13462   1.985   4.467   1.586
 4240SOL    HW113463   2.077   4.493   1.592
 4240SOL    HW213464   1.936   4.548   1.593
 4241SOL     OW13465   2.484   5.099   0.739
 4241SOL    HW113466   2.430   5.020   0.735
 4241SOL    HW213467   2.467   5.144   0.656
 4242SOL     OW13468   3.150   4.953   1.426
 4242SOL    HW113469   3.185   4.888   1.365
 4242SOL    HW213470   3.211   4.951   1.500
 4243SOL     OW13471   2.678   3.727   0.510
 4243SOL    HW113472   2.718   3.811   0.488
 4243SOL    HW213473   2.585   3.745   0.518
 4244SOL     OW13474   2.052   4.689   1.271
 4244SOL    HW113475   2.137   4.647   1.257
 4244SOL    HW213476   1.990   4.635   1.222
 4245SOL     OW13477   3.370   4.735   0.211
 4245SOL    HW113478   3.309   4.669   0.244
 4245SOL    HW213479   3.423   4.759   0.287
 4246SOL     OW13480   2.197   3.974   1.815
 4246SOL    HW113481   2.240   4.058   1.831
 4246SOL    HW213482   2.107   3.987   1.844
 4247SOL     OW13483   3.340   5.147   0.962
 4247SOL    HW113484   3.266   5.160   1.022
 4247SOL    HW213485   3.327   5.059   0.928
 4248SOL     OW13486   2.460   4.437   0.283
 4248SOL    HW113487   2.479   4.515   0.231
 4248SOL    HW213488   2.396   4.465   0.348
 4249SOL     OW13489   3.141   4.078   0.933
 4249SOL    HW113490   3.051   4.045   0.941
 4249SOL    HW213491   3.192   4.025   0.993
 4250SOL     OW13492   2.654   4.342   1.450
 4250SOL    HW113493   2.628   4.318   1.539
 4250SOL    HW213494   2.614   4.274   1.395
 4251SOL     OW13495   3.255   4.198   1.678
 4251SOL    HW113496   3.258   4.243   1.762
 4251SOL    HW213497   3.316   4.125   1.687
 4252SOL     OW13498   2.816   4.612   1.583
 4252SOL    HW113499   2.871   4.542   1.548
 4252SOL    HW213500   2.768   4.645   1.508
 4253SOL     OW13501   2.854   4.136   1.238
 4253SOL    HW113502   2.768   4.157   1.274
 4253SOL    HW213503   2.836   4.090   1.156
 4254SOL     OW13504   2.915   4.423   0.427
 4254SOL    HW113505   2.931   4.416   0.522
 4254SOL    HW213506   2.832   4.377   0.414
 4255SOL     OW13507   1.950   4.546   0.776
 4255SOL    HW113508   2.031   4.539   0.827
 4255SOL    HW213509   1.906   4.623   0.811
 4256SOL     OW13510   2.747   4.081   0.202
 4256SOL    HW113511   2.792   4.132   0.134
 4256SOL    HW213512   2.748   3.991   0.170
 4257SOL     OW13513   3.569   4.298   1.828
 4257SOL    HW113514   3.532   4.371   1.780
 4257SOL    HW213515   3.598   4.236   1.760
 4258SOL     OW13516   3.239   4.863   0.539
 4258SOL    HW113517   3.319   4.851   0.489
 4258SOL    HW213518   3.188   4.926   0.487
 4259SOL     OW13519   2.412   3.905   0.893
 4259SOL    HW113520   2.414   3.934   0.985
 4259SOL    HW213521   2.414   3.987   0.843
 4260SOL     OW13522   2.877   5.163   0.470
 4260SOL    HW113523   2.804   5.224   0.470
 4260SOL    HW213524   2.900   5.153   0.562
 4261SOL     OW13525   3.662   4.780   0.867
 4261SOL    HW113526   3.605   4.762   0.792
 4261SOL    HW213527   3.603   4.787   0.942
 4262SOL     OW13528   3.113   5.239   1.525
 4262SOL    HW113529   3.077   5.173   1.583
 4262SOL    HW213530   3.040   5.263   1.467
 4263SOL     OW13531   2.187   4.665   0.256
 4263SOL    HW113532   2.255   4.708   0.203
 4263SOL    HW213533   2.190   4.573   0.229
 4264SOL     OW13534   3.341   4.466   0.726
 4264SOL    HW113535   3.334   4.425   0.812
 4264SOL    HW213536   3.418   4.523   0.733
 4265SOL     OW13537   2.326   4.988   1.741
 4265SOL    HW113538   2.300   4.990   1.649
 4265SOL    HW213539   2.244   4.987   1.790
 4266SOL     OW13540   3.021   0.157   0.237
 4266SOL    HW113541   2.938   0.178   0.280
 4266SOL    HW213542   2.996   0.136   0.146
 4267SOL     OW13543   2.063   4.004   1.502
 4267SOL    HW113544   1.981   4.053   1.498
 4267SOL    HW213545   2.044   3.931   1.560
 4268SOL     OW13546   3.492   5.094   0.077
 4268SOL    HW113547   3.453   5.180   0.094
 4268SOL    HW213548   3.417   5.036   0.062
 4269SOL     OW13549   3.270   3.835   0.446
 4269SOL    HW113550   3.261   3.814   0.353
 4269SOL    HW213551   3.364   3.843   0.460
 4270SOL     OW13552   2.249   4.421   0.477
 4270SOL    HW113553   2.272   4.329   0.488
 4270SOL    HW213554   2.156   4.426   0.499
 4271SOL     OW13555   3.396   3.949   1.725
 4271SOL    HW113556   3.406   3.970   1.818
 4271SOL    HW213557   3.327   3.883   1.722
 4272SOL     OW13558   2.492   3.833   0.137
 4272SOL    HW113559   2.587   3.822   0.143
 4272SOL    HW213560   2.472   3.815   0.045
 4273SOL     OW13561   2.628   4.002   1.754
 4273SOL    HW113562   2.704   3.945   1.755
 4273SOL    HW213563   2.580   3.979   1.834
 4274SOL     OW13564   3.202   4.313   1.432
 4274SOL    HW113565   3.233   4.282   1.517
 4274SOL    HW213566   3.238   4.401   1.424
 4275SOL     OW13567   2.675   5.118   0.937
 4275SOL    HW113568   2.756   5.106   0.887
 4275SOL    HW213569   2.607   5.125   0.871
 4276SOL     OW13570   2.790   4.233   0.902
 4276SOL    HW113571   2.766   4.225   0.810
 4276SOL    HW213572   2.821   4.146   0.927
 4277SOL     OW13573   2.412   3.787   0.505
 4277SOL    HW113574   2.332   3.786   0.557
 4277SOL    HW213575   2.405   3.866   0.451
 4278SOL     OW13576   3.287   4.925   0.035
 4278SOL    HW113577   3.315   4.852   0.089
 4278SOL    HW213578   3.201   4.949   0.069
 4279SOL     OW13579   2.174   3.781   0.170
 4279SOL    HW113580   2.239   3.849   0.187
 4279SOL    HW213581   2.209   3.702   0.212
 4280SOL     OW13582   2.802   3.971   0.458
 4280SOL    HW113583   2.775   4.013   0.376
 4280SOL    HW213584   2.897   3.987   0.463
 4281SOL     OW13585   2.942   4.405   1.460
 4281SOL    HW113586   2.874   4.338   1.464
 4281SOL    HW213587   3.024   4.356   1.453
 4282SOL     OW13588   3.124   5.265   0.781
 4282SOL    HW113589   3.085   0.046   0.748
 4282SOL    HW213590   3.170   5.290   0.860
 4283SOL     OW13591   2.327   4.873   0.729
 4283SOL    HW113592   2.260   4.853   0.794
 4283SOL    HW213593   2.286   4.856   0.645
 4284SOL     OW13594   2.893   4.250   0.032
 4284SOL    HW113595   2.852   4.332   0.002
 4284SOL    HW213596   2.956   4.279   0.099
 4285SOL     OW13597   1.942   4.278   1.392
 4285SOL    HW113598   2.034   4.277   1.365
 4285SOL    HW213599   1.937   4.348   1.457
 4286SOL     OW13600   2.421   3.951   1.166
 4286SOL    HW113601   2.463   3.875   1.206
 4286SOL    HW213602   2.330   3.947   1.196
 4287SOL     OW13603   2.728   4.182   0.639
 4287SOL    HW113604   2.688   4.238   0.573
 4287SOL    HW213605   2.751   4.102   0.591
 4288SOL     OW13606   2.879   3.777   0.749
 4288SOL    HW113607   2.819   3.772   0.675
 4288SOL    HW213608   2.856   3.703   0.805
 4289SOL     OW13609   3.300   4.890   0.859
 4289SOL    HW113610   3.232   4.822   0.855
 4289SOL    HW213611   3.325   4.903   0.767
 4290SOL     OW13612   3.328   4.330   0.975
 4290SOL    HW113613   3.276   4.249   0.979
 4290SOL    HW213614   3.387   4.324   1.050
 4291SOL     OW13615   3.710   4.538   0.388
 4291SOL    HW113616   3.763   4.486   0.448
 4291SOL    HW213617   3.680   4.476   0.322
 4292SOL     OW13618   2.326   5.161   0.153
 4292SOL    HW113619   2.280   5.105   0.216
 4292SOL    HW213620   2.369   5.099   0.094
 4293SOL     OW13621   3.532   4.988   0.647
 4293SOL    HW113622   3.626   4.995   0.665
 4293SOL    HW213623   3.498   5.076   0.663
 4294SOL     OW13624   3.260   4.301   0.087
 4294SOL    HW113625   3.198   4.283   0.158
 4294SOL    HW213626   3.314   4.223   0.082
 4295SOL     OW13627   2.378   3.988   0.323
 4295SOL    HW113628   2.429   3.936   0.261
 4295SOL    HW213629   2.365   4.072   0.279
 4296SOL     OW13630   3.613   4.960   1.574
 4296SOL    HW113631   3.699   4.918   1.574
 4296SOL    HW213632   3.632   5.053   1.586
 4297SOL     OW13633   2.926   5.073   1.330
 4297SOL    HW113634   2.848   5.048   1.378
 4297SOL    HW213635   2.998   5.034   1.379
 4298SOL     OW13636   2.989   4.925   1.107
 4298SOL    HW113637   2.939   4.967   1.177
 4298SOL    HW213638   2.944   4.952   1.027
 4299SOL     OW13639   3.490   4.822   1.076
 4299SOL    HW113640   3.485   4.883   1.149
 4299SOL    HW213641   3.413   4.841   1.023
 4300SOL     OW13642   2.780   3.821   1.395
 4300SOL    HW113643   2.803   3.802   1.304
 4300SOL    HW213644   2.859   3.860   1.432
 4301SOL     OW13645   2.846   4.839   1.726
 4301SOL    HW113646   2.754   4.855   1.745
 4301SOL    HW213647   2.846   4.762   1.668
 4302SOL     OW13648   2.573   4.784   0.381
 4302SOL    HW113649   2.556   4.767   0.474
 4302SOL    HW213650   2.652   4.735   0.361
 4303SOL     OW13651   2.281   4.539   1.251
 4303SOL    HW113652   2.349   4.549   1.318
 4303SOL    HW213653   2.246   4.451   1.265
 4304SOL     OW13654   3.127   4.100   1.276
 4304SOL    HW113655   3.160   4.178   1.322
 4304SOL    HW213656   3.036   4.122   1.254
 4305SOL     OW13657   2.203   4.832   0.490
 4305SOL    HW113658   2.205   4.904   0.427
 4305SOL    HW213659   2.213   4.753   0.436
 4306SOL     OW13660   2.413   4.260   0.860
 4306SOL    HW113661   2.428   4.318   0.785
 4306SOL    HW213662   2.479   4.286   0.924
 4307SOL     OW13663   3.119   5.073   0.385
 4307SOL    HW113664   3.173   5.148   0.410
 4307SOL    HW213665   3.030   5.098   0.412
 4308SOL     OW13666   3.132   5.182   1.142
 4308SOL    HW113667   3.192   5.197   1.215
 4308SOL    HW213668   3.088   5.100   1.162
 4309SOL     OW13669   3.444   4.347   0.483
 4309SOL    HW113670   3.394   4.396   0.548
 4309SOL    HW213671   3.478   4.413   0.424
 4310SOL     OW13672   2.210   5.236   1.313
 4310SOL    HW113673   2.199   5.200   1.225
 4310SOL    HW213674   2.304   5.256   1.319
 4311SOL     OW13675   2.277   4.469   1.602
 4311SOL    HW113676   2.339   4.513   1.544
 4311SOL    HW213677   2.316   4.383   1.618
 4312SOL     OW13678   3.464   4.503   1.683
 4312SOL    HW113679   3.378   4.545   1.676
 4312SOL    HW213680   3.517   4.545   1.614
 4313SOL     OW13681   2.858   3.849   1.755
 4313SOL    HW113682   2.914   3.921   1.728
 4313SOL    HW213683   2.906   3.770   1.729
 4314SOL     OW13684   2.359   3.763   1.748
 4314SOL    HW113685   2.315   3.710   1.682
 4314SOL    HW213686   2.301   3.838   1.761
 4315SOL     OW13687   2.445   4.596   1.031
 4315SOL    HW113688   2.476   4.687   1.030
 4315SOL    HW213689   2.389   4.591   1.109
 4316SOL     OW13690   3.218   4.582   1.027
 4316SOL    HW113691   3.134   4.571   0.982
 4316SOL    HW213692   3.260   4.496   1.021
 4317SOL     OW13693   3.065   4.251   0.271
 4317SOL    HW113694   3.072   4.173   0.325
 4317SOL    HW213695   3.022   4.315   0.327
 4318SOL     OW13696   2.160   3.922   1.247
 4318SOL    HW113697   2.123   3.954   1.329
 4318SOL    HW213698   2.141   3.828   1.247
 4319SOL     OW13699   1.916   5.047   1.285
 4319SOL    HW113700   1.940   4.982   1.351
 4319SOL    HW213701   1.950   5.130   1.320
 4320SOL     OW13702   2.585   4.354   1.056
 4320SOL    HW113703   2.661   4.339   1.000
 4320SOL    HW213704   2.557   4.443   1.036
 4321SOL     OW13705   3.597   4.684   1.853
 4321SOL    HW113706   3.552   4.621   1.797
 4321SOL    HW213707   3.537   4.698   1.926
 4322SOL     OW13708   2.165   3.788   0.624
 4322SOL    HW113709   2.146   3.879   0.647
 4322SOL    HW213710   2.173   3.743   0.708
 4323SOL     OW13711   3.484   4.100   0.369
 4323SOL    HW113712   3.508   4.035   0.434
 4323SOL    HW213713   3.458   4.177   0.419
 4324SOL     OW13714   2.890   4.483   0.960
 4324SOL    HW113715   2.886   4.500   1.054
 4324SOL    HW213716   2.863   4.391   0.952
 4325SOL     OW13717   3.716   5.213   1.583
 4325SOL    HW113718   3.708   5.290   1.527
 4325SOL    HW213719   3.785   5.236   1.645
 4326SOL     OW13720   2.215   4.640   1.809
 4326SOL    HW113721   2.297   4.659   1.855
 4326SOL    HW213722   2.240   4.578   1.741
 4327SOL     OW13723   3.378   4.027   0.127
 4327SOL    HW113724   3.329   3.946   0.143
 4327SOL    HW213725   3.419   4.048   0.211
 4328SOL     OW13726   3.157   4.547   0.019
 4328SOL    HW113727   3.195   4.461   0.038
 4328SOL    HW213728   3.218   4.587   8.037
 4329SOL     OW13729   2.919   5.080   0.825
 4329SOL    HW113730   2.925   4.995   0.782
 4329SOL    HW213731   3.005   5.120   0.812
 4330SOL     OW13732   2.171   4.532   0.946
 4330SOL    HW113733   2.264   4.553   0.941
 4330SOL    HW213734   2.168   4.442   0.979
 4331SOL     OW13735   2.192   4.251   1.012
 4331SOL    HW113736   2.157   4.163   0.998
 4331SOL    HW213737   2.269   4.256   0.955
 4332SOL     OW13738   2.996   4.099   1.683
 4332SOL    HW113739   2.948   4.154   1.745
 4332SOL    HW213740   3.083   4.138   1.679
 4333SOL     OW13741   3.023   3.926   1.471
 4333SOL    HW113742   3.012   3.989   1.542
 4333SOL    HW213743   3.063   3.976   1.400
 4334SOL     OW13744   1.874   5.043   0.176
 4334SOL    HW113745   1.786   5.056   0.142
 4334SOL    HW213746   1.872   4.957   0.218
 4335SOL     OW13747   2.843   4.515   1.226
 4335SOL    HW113748   2.900   4.493   1.300
 4335SOL    HW213749   2.758   4.477   1.250
 4336SOL     OW13750   1.898   4.269   1.116
 4336SOL    HW113751   1.979   4.257   1.067
 4336SOL    HW213752   1.926   4.272   1.208
 4337SOL     OW13753   2.054   4.244   1.728
 4337SOL    HW113754   2.109   4.204   1.661
 4337SOL    HW213755   2.012   4.318   1.684
 4338SOL     OW13756   3.239   4.662   1.658
 4338SOL    HW113757   3.260   4.755   1.655
 4338SOL    HW213758   3.236   4.635   1.566
 4339SOL     OW13759   2.681   4.293   0.369
 4339SOL    HW113760   2.690   4.222   0.306
 4339SOL    HW213761   2.605   4.343   0.339
 4340SOL     OW13762   3.504   4.325   1.185
 4340SOL    HW113763   3.494   4.267   1.260
 4340SOL    HW213764   3.591   4.306   1.150
 4341SOL     OW13765   2.067   5.276   1.746
 4341SOL    HW113766   2.051   0.028   1.824
 4341SOL    HW213767   2.079   5.187   1.778
 4342SOL     OW13768   2.565   4.173   1.258
 4342SOL    HW113769   2.511   4.100   1.229
 4342SOL    HW213770   2.561   4.237   1.186
 4343SOL     OW13771   2.330   4.215   0.178
 4343SOL    HW113772   2.397   4.280   0.197
 4343SOL    HW213773   2.247   4.261   0.190
 4344SOL     OW13774   2.006   4.863   1.471
 4344SOL    HW113775   2.008   4.812   1.552
 4344SOL    HW213776   2.024   4.799   1.402
 4345SOL     OW13777   3.188   4.768   1.222
 4345SOL    HW113778   3.211   4.706   1.153
 4345SOL    HW213779   3.117   4.821   1.184
 4346SOL     OW13780   3.169   4.572   0.307
 4346SOL    HW113781   3.092   4.544   0.357
 4346SOL    HW213782   3.143   4.561   0.216
 4347SOL     OW13783   1.956   4.987   1.022
 4347SOL    HW113784   1.935   5.005   1.113
 4347SOL    HW213785   1.876   4.949   0.986
 4348SOL     OW13786   2.615   0.036   1.709
 4348SOL    HW113787   2.523   0.059   1.721
 4348SOL    HW213788   2.635   0.062   1.619
 4349SOL     OW13789   2.767   3.816   0.132
 4349SOL    HW113790   2.782   3.798   0.039
 4349SOL    HW213791   2.833   3.763   0.177
 4350SOL     OW13792   3.581   3.870   0.509
 4350SOL    HW113793   3.653   3.854   0.448
 4350SOL    HW213794   3.566   3.786   0.551
 4351SOL     OW13795   3.139   4.649   0.672
 4351SOL    HW113796   3.213   4.589   0.679
 4351SOL    HW213797   3.173   4.721   0.618
 4352SOL     OW13798   2.679   4.993   1.418
 4352SOL    HW113799   2.648   5.028   1.502
 4352SOL    HW213800   2.605   5.002   1.359
 4353SOL     OW13801   3.703   3.896   0.966
 4353SOL    HW113802   3.732   3.809   0.940
 4353SOL    HW213803   3.616   3.906   0.927
 4354SOL     OW13804   2.123   4.039   0.717
 4354SOL    HW113805   2.037   4.075   0.694
 4354SOL    HW213806   2.121   4.032   0.812
 4355SOL     OW13807   3.002   0.018   0.002
 4355SOL    HW113808   3.016   5.229   0.032
 4355SOL    HW213809   3.008   0.013   7.986
 4356SOL     OW13810   2.687   4.727   1.370
 4356SOL    HW113811   2.734   4.720   1.287
 4356SOL    HW213812   2.690   4.820   1.392
 4357SOL     OW13813   2.782   4.639   0.300
 4357SOL    HW113814   2.836   4.665   0.225
 4357SOL    HW213815   2.829   4.567   0.340
 4358SOL     OW13816   2.227   5.026   1.497
 4358SOL    HW113817   2.216   5.100   1.436
 4358SOL    HW213818   2.151   4.970   1.480
 4359SOL     OW13819   3.474   5.004   1.282
 4359SOL    HW113820   3.531   4.997   1.359
 4359SOL    HW213821   3.412   5.073   1.305
 4360SOL     OW13822   2.918   4.834   0.713
 4360SOL    HW113823   2.845   4.782   0.749
 4360SOL    HW213824   2.979   4.769   0.679
 4361SOL     OW13825   2.883   3.964   0.966
 4361SOL    HW113826   2.880   3.916   0.883
 4361SOL    HW213827   2.878   3.896   1.033
 4362SOL     OW13828   3.585   4.116   1.380
 4362SOL    HW113829   3.656   4.179   1.379
 4362SOL    HW213830   3.614   4.045   1.324
 4363SOL     OW13831   2.127   5.026   0.289
 4363SOL    HW113832   2.046   5.042   0.240
 4363SOL    HW213833   2.117   5.078   0.369
 4364SOL     OW13834   1.974   4.747   1.719
 4364SOL    HW113835   1.898   4.723   1.772
 4364SOL    HW213836   2.049   4.709   1.765
 4365SOL     OW13837   2.537   3.920   1.499
 4365SOL    HW113838   2.621   3.900   1.458
 4365SOL    HW213839   2.560   3.952   1.587
 4366SOL     OW13840   1.920   4.086   0.039
 4366SOL    HW113841   1.843   4.034   0.015
 4366SOL    HW213842   1.969   4.095   8.037
 4367SOL     OW13843   3.291   4.581   1.399
 4367SOL    HW113844   3.242   4.642   1.344
 4367SOL    HW213845   3.380   4.584   1.365
 4368SOL     OW13846   1.933   3.877   0.303
 4368SOL    HW113847   1.917   3.963   0.262
 4368SOL    HW213848   2.017   3.849   0.267
 4369SOL     OW13849   3.045   5.063   0.111
 4369SOL    HW113850   2.950   5.050   0.108
 4369SOL    HW213851   3.066   5.059   0.204
 4370SOL     OW13852   2.481   4.555   1.434
 4370SOL    HW113853   2.538   4.630   1.418
 4370SOL    HW213854   2.542   4.481   1.442
 4371SOL     OW13855   2.580   4.287   1.703
 4371SOL    HW113856   2.621   4.350   1.763
 4371SOL    HW213857   2.606   4.201   1.736
 4372SOL     OW13858   3.336   4.922   1.630
 4372SOL    HW113859   3.323   4.935   1.724
 4372SOL    HW213860   3.430   4.936   1.617
 4373SOL     OW13861   3.531   4.605   1.255
 4373SOL    HW113862   3.525   4.520   1.212
 4373SOL    HW213863   3.521   4.669   1.184
 4374SOL     OW13864   3.079   4.041   0.460
 4374SOL    HW113865   3.144   3.971   0.454
 4374SOL    HW213866   3.106   4.093   0.536
 4375SOL     OW13867   2.450   4.460   0.670
 4375SOL    HW113868   2.490   4.546   0.657
 4375SOL    HW213869   2.382   4.455   0.603
 4376SOL     OW13870   3.623   4.086   1.651
 4376SOL    HW113871   3.607   4.102   1.558
 4376SOL    HW213872   3.551   4.030   1.679
 4377SOL     OW13873   3.607   4.657   1.512
 4377SOL    HW113874   3.602   4.752   1.525
 4377SOL    HW213875   3.592   4.645   1.418
 4378SOL     OW13876   2.773   5.096   0.038
 4378SOL    HW113877   2.713   5.077   0.110
 4378SOL    HW213878   2.726   5.158   8.063
 4379SOL     OW13879   2.730   4.692   0.855
 4379SOL    HW113880   2.780   4.620   0.895
 4379SOL    HW213881   2.695   4.741   0.930
 4380SOL     OW13882   2.942   4.701   0.088
 4380SOL    HW113883   2.921   4.756   0.013
 4380SOL    HW213884   3.018   4.650   0.061
 4381SOL     OW13885   2.085   5.023   1.852
 4381SOL    HW113886   2.017   4.960   1.827
 4381SOL    HW213887   2.073   5.033   1.947
 4382SOL     OW13888   1.950   4.954   0.670
 4382SOL    HW113889   1.947   4.902   0.750
 4382SOL    HW213890   2.018   4.912   0.617
 4383SOL     OW13891   2.534   5.105   1.608
 4383SOL    HW113892   2.457   5.073   1.656
 4383SOL    HW213893   2.566   5.178   1.661
 4384SOL     OW13894   3.674   3.908   1.237
 4384SOL    HW113895   3.685   3.814   1.252
 4384SOL    HW213896   3.684   3.919   1.143
 4385SOL     OW13897   2.286   4.160   0.524
 4385SOL    HW113898   2.320   4.089   0.470
 4385SOL    HW213899   2.241   4.116   0.596
 4386SOL     OW13900   3.569   5.224   1.118
 4386SOL    HW113901   3.495   5.208   1.060
 4386SOL    HW213902   3.575   5.145   1.172
 4387SOL     OW13903   2.193   4.280   1.292
 4387SOL    HW113904   2.248   4.225   1.347
 4387SOL    HW213905   2.212   4.251   1.203
 4388SOL     OW13906   3.294   3.950   1.118
 4388SOL    HW113907   3.318   3.869   1.164
 4388SOL    HW213908   3.242   3.999   1.181
 4389SOL     OW13909   2.871   3.743   1.141
 4389SOL    HW113910   2.816   3.674   1.102
 4389SOL    HW213911   2.958   3.705   1.143
 4390SOL     OW13912   2.657   5.038   0.282
 4390SOL    HW113913   2.605   4.962   0.308
 4390SOL    HW213914   2.716   5.055   0.355
 4391SOL     OW13915   2.484   5.299   1.292
 4391SOL    HW113916   2.490   0.054   1.370
 4391SOL    HW213917   2.575   5.279   1.269
 4392SOL     OW13918   3.219   3.778   0.185
 4392SOL    HW113919   3.239   3.732   0.104
 4392SOL    HW213920   3.132   3.746   0.211
 4393SOL     OW13921   3.158   4.185   0.680
 4393SOL    HW113922   3.106   4.265   0.687
 4393SOL    HW213923   3.154   4.146   0.768
 4394SOL     OW13924   3.448   3.924   0.878
 4394SOL    HW113925   3.389   3.946   0.951
 4394SOL    HW213926   3.448   4.003   0.823
 4395SOL     OW13927   1.903   4.791   0.305
 4395SOL    HW113928   1.999   4.793   0.309
 4395SOL    HW213929   1.880   4.706   0.343
 4396SOL     OW13930   2.091   4.347   1.986
 4396SOL    HW113931   2.001   4.346   2.020
 4396SOL    HW213932   2.081   4.322   1.894
 4397SOL     OW13933   2.086   4.006   2.854
 4397SOL    HW113934   2.115   3.971   2.939
 4397SOL    HW213935   1.997   3.974   2.844
 4398SOL     OW13936   1.865   4.107   2.500
 4398SOL    HW113937   1.783   4.132   2.542
 4398SOL    HW213938   1.844   4.028   2.451
 4399SOL     OW13939   2.429   5.007   3.042
 4399SOL    HW113940   2.344   5.004   2.998
 4399SOL    HW213941   2.440   5.099   3.068
 4400SOL     OW13942   3.418   5.232   2.551
 4400SOL    HW113943   3.400   5.229   2.644
 4400SOL    HW213944   3.338   5.268   2.512
 4401SOL     OW13945   2.992   4.422   2.562
 4401SOL    HW113946   3.041   4.503   2.548
 4401SOL    HW213947   2.946   4.436   2.644
 4402SOL     OW13948   3.630   4.329   2.090
 4402SOL    HW113949   3.608   4.321   1.997
 4402SOL    HW213950   3.594   4.249   2.129
 4403SOL     OW13951   2.617   4.867   2.901
 4403SOL    HW113952   2.550   4.899   2.962
 4403SOL    HW213953   2.647   4.946   2.856
 4404SOL     OW13954   2.730   4.496   3.684
 4404SOL    HW113955   2.716   4.567   3.747
 4404SOL    HW213956   2.754   4.540   3.603
 4405SOL     OW13957   2.548   4.725   2.509
 4405SOL    HW113958   2.613   4.715   2.579
 4405SOL    HW213959   2.479   4.779   2.548
 4406SOL     OW13960   2.571   4.872   3.674
 4406SOL    HW113961   2.619   4.951   3.699
 4406SOL    HW213962   2.488   4.903   3.639
 4407SOL     OW13963   2.199   5.149   2.921
 4407SOL    HW113964   2.121   5.104   2.888
 4407SOL    HW213965   2.237   5.192   2.845
 4408SOL     OW13966   3.316   5.221   3.210
 4408SOL    HW113967   3.371   5.293   3.241
 4408SOL    HW213968   3.249   5.211   3.277
 4409SOL     OW13969   2.311   4.121   3.347
 4409SOL    HW113970   2.386   4.062   3.354
 4409SOL    HW213971   2.235   4.066   3.362
 4410SOL     OW13972   3.473   4.171   2.603
 4410SOL    HW113973   3.399   4.193   2.547
 4410SOL    HW213974   3.487   4.249   2.656
 4411SOL     OW13975   2.995   5.073   3.564
 4411SOL    HW113976   3.025   5.074   3.655
 4411SOL    HW213977   2.942   4.994   3.557
 4412SOL     OW13978   2.072   5.157   2.383
 4412SOL    HW113979   2.099   5.237   2.426
 4412SOL    HW213980   2.021   5.110   2.449
 4413SOL     OW13981   2.122   4.811   2.754
 4413SOL    HW113982   2.119   4.724   2.793
 4413SOL    HW213983   2.064   4.864   2.810
 4414SOL     OW13984   2.446   4.706   1.997
 4414SOL    HW113985   2.493   4.753   1.929
 4414SOL    HW213986   2.485   4.736   2.079
 4415SOL     OW13987   3.455   3.849   3.330
 4415SOL    HW113988   3.471   3.929   3.279
 4415SOL    HW213989   3.442   3.880   3.419
 4416SOL     OW13990   1.977   4.377   2.422
 4416SOL    HW113991   1.948   4.288   2.443
 4416SOL    HW213992   1.969   4.425   2.504
 4417SOL     OW13993   1.848   0.013   1.959
 4417SOL    HW113994   1.864   5.224   1.990
 4417SOL    HW213995   1.870   0.069   2.034
 4418SOL     OW13996   3.550   4.641   2.503
 4418SOL    HW113997   3.633   4.599   2.482
 4418SOL    HW213998   3.529   4.692   2.425
 4419SOL     OW13999   3.508   4.830   2.292
 4419SOL    HW114000   3.594   4.834   2.249
 4419SOL    HW214001   3.515   4.891   2.365
 4420SOL     OW14002   1.985   4.467   3.447
 4420SOL    HW114003   2.077   4.494   3.454
 4420SOL    HW214004   1.936   4.549   3.455
 4421SOL     OW14005   2.485   5.098   2.600
 4421SOL    HW114006   2.431   5.019   2.598
 4421SOL    HW214007   2.466   5.143   2.517
 4422SOL     OW14008   3.150   4.953   3.288
 4422SOL    HW114009   3.185   4.888   3.227
 4422SOL    HW214010   3.211   4.951   3.362
 4423SOL     OW14011   2.677   3.724   2.369
 4423SOL    HW114012   2.718   3.808   2.350
 4423SOL    HW214013   2.584   3.744   2.379
 4424SOL     OW14014   2.052   4.689   3.133
 4424SOL    HW114015   2.137   4.647   3.119
 4424SOL    HW214016   1.990   4.636   3.084
 4425SOL     OW14017   3.392   4.720   2.060
 4425SOL    HW114018   3.323   4.662   2.092
 4425SOL    HW214019   3.434   4.754   2.139
 4426SOL     OW14020   2.195   3.978   3.676
 4426SOL    HW114021   2.238   4.061   3.695
 4426SOL    HW214022   2.105   3.990   3.706
 4427SOL     OW14023   3.339   5.147   2.824
 4427SOL    HW114024   3.267   5.160   2.885
 4427SOL    HW214025   3.327   5.059   2.790
 4428SOL     OW14026   2.458   4.444   2.129
 4428SOL    HW114027   2.463   4.526   2.079
 4428SOL    HW214028   2.393   4.462   2.197
 4429SOL     OW14029   3.140   4.079   2.795
 4429SOL    HW114030   3.051   4.045   2.803
 4429SOL    HW214031   3.192   4.025   2.855
 4430SOL     OW14032   2.654   4.341   3.312
 4430SOL    HW114033   2.628   4.317   3.401
 4430SOL    HW214034   2.615   4.274   3.257
 4431SOL     OW14035   3.255   4.198   3.540
 4431SOL    HW114036   3.257   4.243   3.624
 4431SOL    HW214037   3.317   4.126   3.549
 4432SOL     OW14038   2.816   4.612   3.445
 4432SOL    HW114039   2.871   4.542   3.410
 4432SOL    HW214040   2.768   4.646   3.370
 4433SOL     OW14041   2.855   4.136   3.100
 4433SOL    HW114042   2.769   4.156   3.136
 4433SOL    HW214043   2.836   4.092   3.017
 4434SOL     OW14044   2.913   4.422   2.288
 4434SOL    HW114045   2.929   4.415   2.382
 4434SOL    HW214046   2.831   4.376   2.274
 4435SOL     OW14047   1.950   4.545   2.639
 4435SOL    HW114048   2.031   4.538   2.689
 4435SOL    HW214049   1.906   4.623   2.674
 4436SOL     OW14050   2.757   4.073   2.056
 4436SOL    HW114051   2.796   4.136   1.996
 4436SOL    HW214052   2.773   3.988   2.016
 4437SOL     OW14053   3.569   4.297   3.690
 4437SOL    HW114054   3.532   4.371   3.642
 4437SOL    HW214055   3.599   4.237   3.622
 4438SOL     OW14056   3.240   4.863   2.401
 4438SOL    HW114057   3.321   4.850   2.352
 4438SOL    HW214058   3.190   4.925   2.347
 4439SOL     OW14059   2.412   3.906   2.755
 4439SOL    HW114060   2.414   3.936   2.846
 4439SOL    HW214061   2.413   3.987   2.704
 4440SOL     OW14062   2.883   5.169   2.333
 4440SOL    HW114063   2.806   5.226   2.330
 4440SOL    HW214064   2.899   5.156   2.427
 4441SOL     OW14065   3.663   4.780   2.729
 4441SOL    HW114066   3.606   4.762   2.654
 4441SOL    HW214067   3.602   4.787   2.803
 4442SOL     OW14068   3.113   5.239   3.387
 4442SOL    HW114069   3.077   5.173   3.445
 4442SOL    HW214070   3.040   5.264   3.329
 4443SOL     OW14071   2.181   4.681   2.113
 4443SOL    HW114072   2.264   4.700   2.068
 4443SOL    HW214073   2.151   4.599   2.073
 4444SOL     OW14074   3.341   4.468   2.589
 4444SOL    HW114075   3.334   4.425   2.674
 4444SOL    HW214076   3.419   4.523   2.595
 4445SOL     OW14077   2.327   4.988   3.603
 4445SOL    HW114078   2.300   4.990   3.511
 4445SOL    HW214079   2.244   4.987   3.652
 4446SOL     OW14080   2.930   0.179   2.066
 4446SOL    HW114081   2.941   0.103   2.124
 4446SOL    HW214082   2.957   0.147   1.980
 4447SOL     OW14083   2.063   4.004   3.364
 4447SOL    HW114084   1.982   4.054   3.359
 4447SOL    HW214085   2.043   3.932   3.423
 4448SOL     OW14086   3.484   5.101   1.971
 4448SOL    HW114087   3.485   5.175   1.911
 4448SOL    HW214088   3.416   5.043   1.936
 4449SOL     OW14089   3.263   3.831   2.296
 4449SOL    HW114090   3.253   3.806   2.204
 4449SOL    HW214091   3.357   3.838   2.309
 4450SOL     OW14092   2.256   4.419   2.338
 4450SOL    HW114093   2.276   4.326   2.350
 4450SOL    HW214094   2.162   4.426   2.355
 4451SOL     OW14095   3.397   3.949   3.588
 4451SOL    HW114096   3.407   3.970   3.680
 4451SOL    HW214097   3.326   3.885   3.585
 4452SOL     OW14098   2.498   3.845   1.967
 4452SOL    HW114099   2.567   3.780   1.979
 4452SOL    HW214100   2.448   3.814   1.892
 4453SOL     OW14101   2.626   4.001   3.617
 4453SOL    HW114102   2.704   3.945   3.617
 4453SOL    HW214103   2.578   3.975   3.696
 4454SOL     OW14104   3.202   4.312   3.294
 4454SOL    HW114105   3.233   4.282   3.379
 4454SOL    HW214106   3.238   4.401   3.285
 4455SOL     OW14107   2.675   5.118   2.798
 4455SOL    HW114108   2.756   5.105   2.748
 4455SOL    HW214109   2.607   5.125   2.732
 4456SOL     OW14110   2.790   4.233   2.765
 4456SOL    HW114111   2.766   4.225   2.672
 4456SOL    HW214112   2.821   4.146   2.789
 4457SOL     OW14113   2.411   3.787   2.363
 4457SOL    HW114114   2.331   3.788   2.415
 4457SOL    HW214115   2.405   3.865   2.308
 4458SOL     OW14116   3.290   4.924   1.900
 4458SOL    HW114117   3.320   4.849   1.951
 4458SOL    HW214118   3.202   4.942   1.933
 4459SOL     OW14119   2.154   3.772   2.047
 4459SOL    HW114120   2.212   3.836   2.007
 4459SOL    HW214121   2.212   3.709   2.089
 4460SOL     OW14122   2.801   3.971   2.321
 4460SOL    HW114123   2.775   4.012   2.239
 4460SOL    HW214124   2.895   3.985   2.326
 4461SOL     OW14125   2.942   4.406   3.322
 4461SOL    HW114126   2.874   4.339   3.326
 4461SOL    HW214127   3.024   4.356   3.314
 4462SOL     OW14128   3.126   5.266   2.640
 4462SOL    HW114129   3.082   0.047   2.614
 4462SOL    HW214130   3.171   5.289   2.721
 4463SOL     OW14131   2.328   4.872   2.591
 4463SOL    HW114132   2.260   4.852   2.655
 4463SOL    HW214133   2.287   4.855   2.507
 4464SOL     OW14134   2.885   4.265   1.886
 4464SOL    HW114135   2.842   4.348   1.866
 4464SOL    HW214136   2.951   4.287   1.952
 4465SOL     OW14137   1.942   4.278   3.254
 4465SOL    HW114138   2.034   4.277   3.227
 4465SOL    HW214139   1.937   4.348   3.319
 4466SOL     OW14140   2.420   3.952   3.029
 4466SOL    HW114141   2.463   3.876   3.068
 4466SOL    HW214142   2.330   3.947   3.059
 4467SOL     OW14143   2.729   4.183   2.502
 4467SOL    HW114144   2.684   4.238   2.437
 4467SOL    HW214145   2.751   4.103   2.454
 4468SOL     OW14146   2.882   3.784   2.608
 4468SOL    HW114147   2.823   3.779   2.533
 4468SOL    HW214148   2.860   3.708   2.662
 4469SOL     OW14149   3.300   4.890   2.721
 4469SOL    HW114150   3.233   4.822   2.717
 4469SOL    HW214151   3.327   4.903   2.630
 4470SOL     OW14152   3.328   4.330   2.837
 4470SOL    HW114153   3.276   4.250   2.840
 4470SOL    HW214154   3.387   4.324   2.912
 4471SOL     OW14155   3.707   4.539   2.245
 4471SOL    HW114156   3.763   4.488   2.303
 4471SOL    HW214157   3.679   4.476   2.178
 4472SOL     OW14158   2.341   5.149   2.013
 4472SOL    HW114159   2.281   5.096   2.066
 4472SOL    HW214160   2.347   5.101   1.930
 4473SOL     OW14161   3.532   4.986   2.508
 4473SOL    HW114162   3.626   4.993   2.526
 4473SOL    HW214163   3.498   5.075   2.524
 4474SOL     OW14164   3.256   4.296   1.933
 4474SOL    HW114165   3.195   4.276   2.004
 4474SOL    HW214166   3.341   4.264   1.965
 4475SOL     OW14167   2.387   3.987   2.179
 4475SOL    HW114168   2.433   3.940   2.109
 4475SOL    HW214169   2.364   4.071   2.140
 4476SOL     OW14170   3.613   4.960   3.436
 4476SOL    HW114171   3.699   4.918   3.436
 4476SOL    HW214172   3.632   5.053   3.448
 4477SOL     OW14173   2.926   5.073   3.191
 4477SOL    HW114174   2.848   5.048   3.240
 4477SOL    HW214175   2.998   5.035   3.241
 4478SOL     OW14176   2.989   4.925   2.969
 4478SOL    HW114177   2.940   4.967   3.040
 4478SOL    HW214178   2.943   4.951   2.889
 4479SOL     OW14179   3.490   4.822   2.938
 4479SOL    HW114180   3.485   4.883   3.011
 4479SOL    HW214181   3.412   4.841   2.885
 4480SOL     OW14182   2.779   3.849   3.247
 4480SOL    HW114183   2.802   3.820   3.159
 4480SOL    HW214184   2.860   3.883   3.284
 4481SOL     OW14185   2.846   4.839   3.588
 4481SOL    HW114186   2.754   4.855   3.607
 4481SOL    HW214187   2.846   4.762   3.530
 4482SOL     OW14188   2.567   4.783   2.233
 4482SOL    HW114189   2.554   4.767   2.327
 4482SOL    HW214190   2.644   4.732   2.210
 4483SOL     OW14191   2.281   4.539   3.113
 4483SOL    HW114192   2.349   4.549   3.180
 4483SOL    HW214193   2.246   4.451   3.127
 4484SOL     OW14194   3.127   4.098   3.140
 4484SOL    HW114195   3.160   4.177   3.184
 4484SOL    HW214196   3.037   4.121   3.116
 4485SOL     OW14197   2.207   4.833   2.350
 4485SOL    HW114198   2.209   4.907   2.289
 4485SOL    HW214199   2.206   4.755   2.295
 4486SOL     OW14200   2.414   4.260   2.722
 4486SOL    HW114201   2.428   4.318   2.647
 4486SOL    HW214202   2.479   4.286   2.786
 4487SOL     OW14203   3.122   5.078   2.248
 4487SOL    HW114204   3.179   5.145   2.286
 4487SOL    HW214205   3.034   5.101   2.277
 4488SOL     OW14206   3.132   5.182   3.004
 4488SOL    HW114207   3.192   5.197   3.077
 4488SOL    HW214208   3.088   5.100   3.025
 4489SOL     OW14209   3.443   4.346   2.342
 4489SOL    HW114210   3.396   4.399   2.406
 4489SOL    HW214211   3.488   4.409   2.287
 4490SOL     OW14212   2.210   5.236   3.175
 4490SOL    HW114213   2.199   5.201   3.087
 4490SOL    HW214214   2.304   5.256   3.181
 4491SOL     OW14215   2.277   4.469   3.464
 4491SOL    HW114216   2.339   4.513   3.406
 4491SOL    HW214217   2.316   4.383   3.481
 4492SOL     OW14218   3.464   4.503   3.545
 4492SOL    HW114219   3.378   4.545   3.538
 4492SOL    HW214220   3.517   4.545   3.476
 4493SOL     OW14221   2.857   3.852   3.615
 4493SOL    HW114222   2.915   3.925   3.592
 4493SOL    HW214223   2.907   3.774   3.592
 4494SOL     OW14224   2.355   3.770   3.608
 4494SOL    HW114225   2.310   3.718   3.541
 4494SOL    HW214226   2.297   3.845   3.623
 4495SOL     OW14227   2.446   4.596   2.894
 4495SOL    HW114228   2.476   4.687   2.892
 4495SOL    HW214229   2.389   4.591   2.971
 4496SOL     OW14230   3.218   4.582   2.889
 4496SOL    HW114231   3.134   4.571   2.844
 4496SOL    HW214232   3.260   4.496   2.883
 4497SOL     OW14233   3.066   4.252   2.128
 4497SOL    HW114234   3.074   4.174   2.183
 4497SOL    HW214235   3.023   4.316   2.184
 4498SOL     OW14236   2.159   3.919   3.109
 4498SOL    HW114237   2.123   3.954   3.190
 4498SOL    HW214238   2.137   3.826   3.111
 4499SOL     OW14239   1.916   5.047   3.147
 4499SOL    HW114240   1.939   4.982   3.213
 4499SOL    HW214241   1.951   5.129   3.181
 4500SOL     OW14242   2.585   4.354   2.919
 4500SOL    HW114243   2.661   4.339   2.862
 4500SOL    HW214244   2.557   4.443   2.898
 4501SOL     OW14245   3.597   4.683   3.715
 4501SOL    HW114246   3.552   4.621   3.659
 4501SOL    HW214247   3.537   4.698   3.788
 4502SOL     OW14248   2.166   3.788   2.486
 4502SOL    HW114249   2.146   3.878   2.508
 4502SOL    HW214250   2.173   3.743   2.570
 4503SOL     OW14251   3.479   4.099   2.228
 4503SOL    HW114252   3.507   4.035   2.293
 4503SOL    HW214253   3.456   4.177   2.279
 4504SOL     OW14254   2.890   4.483   2.822
 4504SOL    HW114255   2.886   4.500   2.916
 4504SOL    HW214256   2.864   4.391   2.813
 4505SOL     OW14257   3.716   5.213   3.445
 4505SOL    HW114258   3.708   5.290   3.389
 4505SOL    HW214259   3.785   5.236   3.507
 4506SOL     OW14260   2.215   4.641   3.671
 4506SOL    HW114261   2.297   4.659   3.717
 4506SOL    HW214262   2.240   4.578   3.603
 4507SOL     OW14263   3.391   3.996   1.989
 4507SOL    HW114264   3.325   3.932   2.016
 4507SOL    HW214265   3.424   4.032   2.071
 4508SOL     OW14266   3.153   4.550   1.892
 4508SOL    HW114267   3.196   4.464   1.896
 4508SOL    HW214268   3.184   4.589   1.811
 4509SOL     OW14269   2.919   5.081   2.685
 4509SOL    HW114270   2.925   4.995   2.643
 4509SOL    HW214271   3.006   5.119   2.674
 4510SOL     OW14272   2.171   4.533   2.809
 4510SOL    HW114273   2.264   4.553   2.802
 4510SOL    HW214274   2.168   4.442   2.841
 4511SOL     OW14275   2.193   4.251   2.875
 4511SOL    HW114276   2.157   4.163   2.860
 4511SOL    HW214277   2.269   4.256   2.817
 4512SOL     OW14278   2.996   4.098   3.546
 4512SOL    HW114279   2.948   4.153   3.607
 4512SOL    HW214280   3.083   4.138   3.541
 4513SOL     OW14281   3.028   3.923   3.337
 4513SOL    HW114282   3.015   3.988   3.406
 4513SOL    HW214283   3.068   3.973   3.265
 4514SOL     OW14284   1.868   5.040   2.052
 4514SOL    HW114285   1.778   5.057   2.027
 4514SOL    HW214286   1.866   4.952   2.090
 4515SOL     OW14287   2.843   4.515   3.088
 4515SOL    HW114288   2.900   4.493   3.162
 4515SOL    HW214289   2.758   4.477   3.112
 4516SOL     OW14290   1.898   4.269   2.979
 4516SOL    HW114291   1.978   4.257   2.929
 4516SOL    HW214292   1.926   4.272   3.070
 4517SOL     OW14293   2.053   4.244   3.590
 4517SOL    HW114294   2.109   4.204   3.524
 4517SOL    HW214295   2.012   4.319   3.546
 4518SOL     OW14296   3.239   4.662   3.520
 4518SOL    HW114297   3.260   4.755   3.517
 4518SOL    HW214298   3.236   4.635   3.428
 4519SOL     OW14299   2.678   4.293   2.224
 4519SOL    HW114300   2.682   4.219   2.163
 4519SOL    HW214301   2.604   4.345   2.192
 4520SOL     OW14302   3.504   4.325   3.047
 4520SOL    HW114303   3.494   4.267   3.122
 4520SOL    HW214304   3.591   4.305   3.012
 4521SOL     OW14305   2.067   5.276   3.608
 4521SOL    HW114306   2.051   0.028   3.686
 4521SOL    HW214307   2.079   5.187   3.640
 4522SOL     OW14308   2.565   4.173   3.120
 4522SOL    HW114309   2.511   4.100   3.091
 4522SOL    HW214310   2.561   4.237   3.049
 4523SOL     OW14311   2.325   4.216   2.048
 4523SOL    HW114312   2.384   4.289   2.070
 4523SOL    HW214313   2.240   4.257   2.036
 4524SOL     OW14314   2.006   4.863   3.333
 4524SOL    HW114315   2.008   4.812   3.414
 4524SOL    HW214316   2.024   4.799   3.264
 4525SOL     OW14317   3.188   4.768   3.084
 4525SOL    HW114318   3.211   4.706   3.015
 4525SOL    HW214319   3.118   4.821   3.046
 4526SOL     OW14320   3.174   4.581   2.168
 4526SOL    HW114321   3.098   4.550   2.218
 4526SOL    HW214322   3.149   4.567   2.076
 4527SOL     OW14323   1.957   4.987   2.884
 4527SOL    HW114324   1.935   5.005   2.975
 4527SOL    HW214325   1.877   4.948   2.848
 4528SOL     OW14326   2.615   0.036   3.571
 4528SOL    HW114327   2.523   0.059   3.583
 4528SOL    HW214328   2.635   0.063   3.481
 4529SOL     OW14329   3.581   3.872   2.371
 4529SOL    HW114330   3.654   3.857   2.310
 4529SOL    HW214331   3.566   3.786   2.411
 4530SOL     OW14332   3.139   4.650   2.533
 4530SOL    HW114333   3.213   4.589   2.542
 4530SOL    HW214334   3.174   4.722   2.480
 4531SOL     OW14335   2.679   4.993   3.280
 4531SOL    HW114336   2.649   5.028   3.364
 4531SOL    HW214337   2.605   5.002   3.221
 4532SOL     OW14338   3.703   3.897   2.829
 4532SOL    HW114339   3.732   3.810   2.802
 4532SOL    HW214340   3.616   3.907   2.789
 4533SOL     OW14341   2.123   4.039   2.578
 4533SOL    HW114342   2.037   4.075   2.555
 4533SOL    HW214343   2.120   4.032   2.674
 4534SOL     OW14344   2.687   4.727   3.233
 4534SOL    HW114345   2.734   4.720   3.149
 4534SOL    HW214346   2.690   4.820   3.254
 4535SOL     OW14347   2.778   4.636   2.153
 4535SOL    HW114348   2.839   4.668   2.086
 4535SOL    HW214349   2.826   4.566   2.197
 4536SOL     OW14350   2.227   5.026   3.359
 4536SOL    HW114351   2.216   5.100   3.298
 4536SOL    HW214352   2.151   4.970   3.342
 4537SOL     OW14353   3.474   5.004   3.144
 4537SOL    HW114354   3.531   4.997   3.220
 4537SOL    HW214355   3.412   5.073   3.167
 4538SOL     OW14356   2.918   4.834   2.574
 4538SOL    HW114357   2.845   4.783   2.610
 4538SOL    HW214358   2.980   4.768   2.542
 4539SOL     OW14359   2.883   3.964   2.828
 4539SOL    HW114360   2.880   3.917   2.745
 4539SOL    HW214361   2.876   3.895   2.894
 4540SOL     OW14362   3.585   4.116   3.243
 4540SOL    HW114363   3.656   4.179   3.242
 4540SOL    HW214364   3.614   4.045   3.186
 4541SOL     OW14365   2.120   5.051   2.145
 4541SOL    HW114366   2.029   5.052   2.118
 4541SOL    HW214367   2.121   5.095   2.230
 4542SOL     OW14368   1.974   4.747   3.581
 4542SOL    HW114369   1.898   4.723   3.634
 4542SOL    HW214370   2.049   4.709   3.627
 4543SOL     OW14371   2.534   3.919   3.362
 4543SOL    HW114372   2.618   3.909   3.317
 4543SOL    HW214373   2.557   3.950   3.449
 4544SOL     OW14374   1.941   4.057   1.897
 4544SOL    HW114375   1.854   4.037   1.862
 4544SOL    HW214376   1.971   4.132   1.845
 4545SOL     OW14377   3.291   4.581   3.261
 4545SOL    HW114378   3.242   4.642   3.206
 4545SOL    HW214379   3.380   4.584   3.227
 4546SOL     OW14380   1.929   3.880   2.171
 4546SOL    HW114381   1.915   3.960   2.120
 4546SOL    HW214382   2.014   3.847   2.141
 4547SOL     OW14383   3.044   5.062   1.983
 4547SOL    HW114384   2.953   5.034   1.984
 4547SOL    HW214385   3.072   5.055   2.074
 4548SOL     OW14386   2.481   4.554   3.296
 4548SOL    HW114387   2.538   4.630   3.280
 4548SOL    HW214388   2.542   4.481   3.304
 4549SOL     OW14389   2.580   4.286   3.565
 4549SOL    HW114390   2.621   4.349   3.625
 4549SOL    HW214391   2.605   4.201   3.599
 4550SOL     OW14392   3.336   4.921   3.492
 4550SOL    HW114393   3.323   4.935   3.586
 4550SOL    HW214394   3.430   4.936   3.479
 4551SOL     OW14395   3.531   4.605   3.117
 4551SOL    HW114396   3.525   4.520   3.074
 4551SOL    HW214397   3.521   4.669   3.046
 4552SOL     OW14398   3.078   4.043   2.320
 4552SOL    HW114399   3.141   3.971   2.312
 4552SOL    HW214400   3.107   4.092   2.397
 4553SOL     OW14401   2.451   4.461   2.533
 4553SOL    HW114402   2.490   4.547   2.518
 4553SOL    HW214403   2.384   4.453   2.465
 4554SOL     OW14404   3.624   4.086   3.513
 4554SOL    HW114405   3.607   4.102   3.420
 4554SOL    HW214406   3.552   4.030   3.541
 4555SOL     OW14407   3.607   4.657   3.374
 4555SOL    HW114408   3.602   4.752   3.387
 4555SOL    HW214409   3.592   4.645   3.280
 4556SOL     OW14410   2.711   5.094   1.882
 4556SOL    HW114411   2.693   5.095   1.976
 4556SOL    HW214412   2.724   5.186   1.860
 4557SOL     OW14413   2.730   4.692   2.717
 4557SOL    HW114414   2.780   4.620   2.757
 4557SOL    HW214415   2.695   4.741   2.791
 4558SOL     OW14416   2.942   4.713   1.952
 4558SOL    HW114417   2.919   4.763   1.873
 4558SOL    HW214418   3.016   4.659   1.925
 4559SOL     OW14419   2.085   5.023   3.714
 4559SOL    HW114420   2.017   4.960   3.689
 4559SOL    HW214421   2.073   5.033   3.809
 4560SOL     OW14422   1.949   4.955   2.532
 4560SOL    HW114423   1.948   4.903   2.612
 4560SOL    HW214424   2.012   4.911   2.475
 4561SOL     OW14425   2.534   5.105   3.470
 4561SOL    HW114426   2.457   5.073   3.518
 4561SOL    HW214427   2.566   5.178   3.523
 4562SOL     OW14428   3.672   3.907   3.100
 4562SOL    HW114429   3.687   3.813   3.113
 4562SOL    HW214430   3.682   3.919   3.005
 4563SOL     OW14431   2.291   4.158   2.388
 4563SOL    HW114432   2.321   4.087   2.331
 4563SOL    HW214433   2.243   4.113   2.457
 4564SOL     OW14434   3.569   5.224   2.980
 4564SOL    HW114435   3.495   5.208   2.922
 4564SOL    HW214436   3.575   5.145   3.034
 4565SOL     OW14437   2.193   4.280   3.154
 4565SOL    HW114438   2.248   4.225   3.209
 4565SOL    HW214439   2.212   4.252   3.064
 4566SOL     OW14440   3.293   3.950   2.980
 4566SOL    HW114441   3.321   3.871   3.026
 4566SOL    HW214442   3.241   3.999   3.044
 4567SOL     OW14443   2.868   3.741   3.005
 4567SOL    HW114444   2.811   3.669   2.975
 4567SOL    HW214445   2.956   3.704   3.003
 4568SOL     OW14446   2.666   5.047   2.146
 4568SOL    HW114447   2.607   4.974   2.166
 4568SOL    HW214448   2.721   5.055   2.224
 4569SOL     OW14449   2.484   5.299   3.154
 4569SOL    HW114450   2.490   0.054   3.233
 4569SOL    HW214451   2.575   5.279   3.131
 4570SOL     OW14452   3.215   3.778   2.028
 4570SOL    HW114453   3.244   3.713   1.964
 4570SOL    HW214454   3.127   3.748   2.054
 4571SOL     OW14455   3.158   4.185   2.542
 4571SOL    HW114456   3.105   4.265   2.549
 4571SOL    HW214457   3.154   4.146   2.630
 4572SOL     OW14458   3.448   3.925   2.741
 4572SOL    HW114459   3.388   3.947   2.812
 4572SOL    HW214460   3.448   4.003   2.685
 4573SOL     OW14461   1.904   4.793   2.170
 4573SOL    HW114462   1.998   4.787   2.153
 4573SOL    HW214463   1.878   4.704   2.192
 4574SOL     OW14464   2.090   4.348   3.848
 4574SOL    HW114465   2.001   4.346   3.883
 4574SOL    HW214466   2.081   4.323   3.756
 4575SOL     OW14467   2.086   4.006   4.716
 4575SOL    HW114468   2.114   3.972   4.801
 4575SOL    HW214469   1.997   3.973   4.706
 4576SOL     OW14470   1.865   4.107   4.362
 4576SOL    HW114471   1.782   4.132   4.403
 4576SOL    HW214472   1.844   4.028   4.313
 4577SOL     OW14473   2.429   5.007   4.904
 4577SOL    HW114474   2.344   5.005   4.860
 4577SOL    HW214475   2.440   5.098   4.930
 4578SOL     OW14476   3.418   5.232   4.413
 4578SOL    HW114477   3.400   5.229   4.506
 4578SOL    HW214478   3.338   5.268   4.374
 4579SOL     OW14479   2.993   4.422   4.424
 4579SOL    HW114480   3.042   4.503   4.410
 4579SOL    HW214481   2.946   4.436   4.506
 4580SOL     OW14482   3.630   4.328   3.952
 4580SOL    HW114483   3.608   4.321   3.859
 4580SOL    HW214484   3.594   4.249   3.991
 4581SOL     OW14485   2.617   4.867   4.763
 4581SOL    HW114486   2.550   4.899   4.824
 4581SOL    HW214487   2.647   4.946   4.718
 4582SOL     OW14488   2.730   4.496   5.546
 4582SOL    HW114489   2.716   4.567   5.609
 4582SOL    HW214490   2.754   4.540   5.465
 4583SOL     OW14491   2.548   4.725   4.371
 4583SOL    HW114492   2.613   4.715   4.441
 4583SOL    HW214493   2.479   4.779   4.410
 4584SOL     OW14494   2.571   4.871   5.536
 4584SOL    HW114495   2.619   4.951   5.561
 4584SOL    HW214496   2.488   4.903   5.501
 4585SOL     OW14497   2.199   5.149   4.783
 4585SOL    HW114498   2.121   5.104   4.750
 4585SOL    HW214499   2.237   5.192   4.707
 4586SOL     OW14500   3.317   5.221   5.072
 4586SOL    HW114501   3.371   5.293   5.103
 4586SOL    HW214502   3.249   5.211   5.139
 4587SOL     OW14503   2.312   4.122   5.209
 4587SOL    HW114504   2.387   4.063   5.216
 4587SOL    HW214505   2.236   4.066   5.224
 4588SOL     OW14506   3.473   4.171   4.465
 4588SOL    HW114507   3.399   4.193   4.409
 4588SOL    HW214508   3.488   4.249   4.518
 4589SOL     OW14509   2.995   5.073   5.426
 4589SOL    HW114510   3.025   5.074   5.517
 4589SOL    HW214511   2.942   4.994   5.419
 4590SOL     OW14512   2.072   5.157   4.245
 4590SOL    HW114513   2.099   5.237   4.288
 4590SOL    HW214514   2.021   5.110   4.311
 4591SOL     OW14515   2.122   4.811   4.616
 4591SOL    HW114516   2.119   4.724   4.655
 4591SOL    HW214517   2.064   4.864   4.672
 4592SOL     OW14518   2.446   4.706   3.859
 4592SOL    HW114519   2.493   4.753   3.791
 4592SOL    HW214520   2.485   4.736   3.941
 4593SOL     OW14521   3.456   3.851   5.190
 4593SOL    HW114522   3.470   3.932   5.142
 4593SOL    HW214523   3.442   3.878   5.281
 4594SOL     OW14524   1.977   4.377   4.284
 4594SOL    HW114525   1.948   4.288   4.305
 4594SOL    HW214526   1.969   4.425   4.366
 4595SOL     OW14527   1.848   0.013   3.821
 4595SOL    HW114528   1.864   5.224   3.853
 4595SOL    HW214529   1.870   0.069   3.896
 4596SOL     OW14530   3.550   4.641   4.365
 4596SOL    HW114531   3.634   4.599   4.344
 4596SOL    HW214532   3.529   4.693   4.287
 4597SOL     OW14533   3.508   4.830   4.154
 4597SOL    HW114534   3.594   4.834   4.111
 4597SOL    HW214535   3.515   4.891   4.227
 4598SOL     OW14536   1.985   4.467   5.310
 4598SOL    HW114537   2.077   4.494   5.316
 4598SOL    HW214538   1.936   4.549   5.317
 4599SOL     OW14539   2.485   5.098   4.462
 4599SOL    HW114540   2.431   5.019   4.460
 4599SOL    HW214541   2.466   5.143   4.379
 4600SOL     OW14542   3.150   4.953   5.150
 4600SOL    HW114543   3.185   4.888   5.089
 4600SOL    HW214544   3.211   4.951   5.224
 4601SOL     OW14545   2.684   3.730   4.247
 4601SOL    HW114546   2.718   3.813   4.215
 4601SOL    HW214547   2.589   3.742   4.247
 4602SOL     OW14548   2.052   4.689   4.995
 4602SOL    HW114549   2.137   4.647   4.981
 4602SOL    HW214550   1.990   4.636   4.946
 4603SOL     OW14551   3.393   4.720   3.922
 4603SOL    HW114552   3.323   4.662   3.954
 4603SOL    HW214553   3.434   4.754   4.001
 4604SOL     OW14554   2.197   3.974   5.537
 4604SOL    HW114555   2.240   4.057   5.555
 4604SOL    HW214556   2.107   3.987   5.567
 4605SOL     OW14557   3.339   5.147   4.686
 4605SOL    HW114558   3.267   5.160   4.747
 4605SOL    HW214559   3.327   5.059   4.652
 4606SOL     OW14560   2.458   4.444   3.991
 4606SOL    HW114561   2.463   4.526   3.941
 4606SOL    HW214562   2.393   4.462   4.059
 4607SOL     OW14563   3.141   4.078   4.657
 4607SOL    HW114564   3.051   4.046   4.665
 4607SOL    HW214565   3.191   4.024   4.718
 4608SOL     OW14566   2.654   4.341   5.174
 4608SOL    HW114567   2.628   4.318   5.263
 4608SOL    HW214568   2.614   4.274   5.119
 4609SOL     OW14569   3.255   4.198   5.402
 4609SOL    HW114570   3.258   4.243   5.486
 4609SOL    HW214571   3.316   4.124   5.412
 4610SOL     OW14572   2.816   4.612   5.307
 4610SOL    HW114573   2.871   4.542   5.272
 4610SOL    HW214574   2.768   4.646   5.232
 4611SOL     OW14575   2.854   4.135   4.962
 4611SOL    HW114576   2.768   4.157   4.999
 4611SOL    HW214577   2.835   4.094   4.878
 4612SOL     OW14578   2.914   4.422   4.150
 4612SOL    HW114579   2.929   4.415   4.244
 4612SOL    HW214580   2.831   4.376   4.136
 4613SOL     OW14581   1.950   4.545   4.501
 4613SOL    HW114582   2.031   4.538   4.551
 4613SOL    HW214583   1.906   4.623   4.536
 4614SOL     OW14584   2.756   4.074   3.920
 4614SOL    HW114585   2.797   4.134   3.858
 4614SOL    HW214586   2.764   3.988   3.879
 4615SOL     OW14587   3.569   4.297   5.552
 4615SOL    HW114588   3.532   4.371   5.504
 4615SOL    HW214589   3.598   4.237   5.484
 4616SOL     OW14590   3.240   4.863   4.263
 4616SOL    HW114591   3.321   4.851   4.214
 4616SOL    HW214592   3.190   4.925   4.209
 4617SOL     OW14593   2.404   3.904   4.618
 4617SOL    HW114594   2.409   3.937   4.708
 4617SOL    HW214595   2.409   3.983   4.564
 4618SOL     OW14596   2.883   5.169   4.195
 4618SOL    HW114597   2.806   5.226   4.192
 4618SOL    HW214598   2.899   5.156   4.289
 4619SOL     OW14599   3.662   4.779   4.591
 4619SOL    HW114600   3.606   4.762   4.516
 4619SOL    HW214601   3.602   4.787   4.665
 4620SOL     OW14602   3.113   5.239   5.249
 4620SOL    HW114603   3.077   5.173   5.307
 4620SOL    HW214604   3.040   5.264   5.192
 4621SOL     OW14605   2.181   4.681   3.975
 4621SOL    HW114606   2.264   4.700   3.930
 4621SOL    HW214607   2.151   4.599   3.935
 4622SOL     OW14608   3.341   4.467   4.450
 4622SOL    HW114609   3.334   4.426   4.536
 4622SOL    HW214610   3.419   4.523   4.457
 4623SOL     OW14611   2.327   4.988   5.465
 4623SOL    HW114612   2.300   4.990   5.373
 4623SOL    HW214613   2.244   4.987   5.514
 4624SOL     OW14614   2.930   0.179   3.928
 4624SOL    HW114615   2.941   0.103   3.986
 4624SOL    HW214616   2.956   0.147   3.842
 4625SOL     OW14617   2.063   4.005   5.226
 4625SOL    HW114618   1.981   4.054   5.222
 4625SOL    HW214619   2.045   3.933   5.286
 4626SOL     OW14620   3.484   5.101   3.833
 4626SOL    HW114621   3.485   5.176   3.773
 4626SOL    HW214622   3.416   5.043   3.798
 4627SOL     OW14623   3.266   3.838   4.154
 4627SOL    HW114624   3.255   3.811   4.063
 4627SOL    HW214625   3.361   3.842   4.167
 4628SOL     OW14626   2.256   4.419   4.200
 4628SOL    HW114627   2.276   4.326   4.211
 4628SOL    HW214628   2.162   4.426   4.217
 4629SOL     OW14629   3.396   3.949   5.449
 4629SOL    HW114630   3.406   3.970   5.542
 4629SOL    HW214631   3.327   3.883   5.447
 4630SOL     OW14632   2.501   3.847   3.827
 4630SOL    HW114633   2.560   3.774   3.846
 4630SOL    HW214634   2.448   3.816   3.753
 4631SOL     OW14635   2.628   4.002   5.479
 4631SOL    HW114636   2.705   3.945   5.479
 4631SOL    HW214637   2.580   3.979   5.558
 4632SOL     OW14638   3.202   4.312   5.156
 4632SOL    HW114639   3.233   4.282   5.241
 4632SOL    HW214640   3.238   4.401   5.148
 4633SOL     OW14641   2.675   5.118   4.660
 4633SOL    HW114642   2.756   5.105   4.610
 4633SOL    HW214643   2.607   5.125   4.594
 4634SOL     OW14644   2.790   4.233   4.626
 4634SOL    HW114645   2.766   4.226   4.534
 4634SOL    HW214646   2.822   4.146   4.650
 4635SOL     OW14647   2.414   3.788   4.225
 4635SOL    HW114648   2.333   3.789   4.277
 4635SOL    HW214649   2.407   3.865   4.169
 4636SOL     OW14650   3.290   4.924   3.762
 4636SOL    HW114651   3.320   4.849   3.813
 4636SOL    HW214652   3.202   4.942   3.795
 4637SOL     OW14653   2.154   3.774   3.908
 4637SOL    HW114654   2.214   3.838   3.871
 4637SOL    HW214655   2.211   3.710   3.952
 4638SOL     OW14656   2.802   3.975   4.183
 4638SOL    HW114657   2.775   4.013   4.100
 4638SOL    HW214658   2.897   3.988   4.186
 4639SOL     OW14659   2.942   4.406   5.183
 4639SOL    HW114660   2.874   4.339   5.188
 4639SOL    HW214661   3.024   4.356   5.177
 4640SOL     OW14662   3.126   5.266   4.502
 4640SOL    HW114663   3.081   0.047   4.476
 4640SOL    HW214664   3.171   5.289   4.583
 4641SOL     OW14665   2.328   4.872   4.453
 4641SOL    HW114666   2.260   4.852   4.517
 4641SOL    HW214667   2.287   4.855   4.368
 4642SOL     OW14668   2.885   4.264   3.747
 4642SOL    HW114669   2.842   4.348   3.727
 4642SOL    HW214670   2.950   4.286   3.813
 4643SOL     OW14671   1.942   4.278   5.116
 4643SOL    HW114672   2.034   4.277   5.089
 4643SOL    HW214673   1.937   4.348   5.181
 4644SOL     OW14674   2.420   3.952   4.890
 4644SOL    HW114675   2.462   3.874   4.927
 4644SOL    HW214676   2.330   3.948   4.921
 4645SOL     OW14677   2.729   4.183   4.364
 4645SOL    HW114678   2.684   4.238   4.300
 4645SOL    HW214679   2.751   4.104   4.315
 4646SOL     OW14680   2.852   3.763   4.485
 4646SOL    HW114681   2.804   3.771   4.403
 4646SOL    HW214682   2.867   3.669   4.496
 4647SOL     OW14683   3.300   4.890   4.583
 4647SOL    HW114684   3.233   4.822   4.579
 4647SOL    HW214685   3.327   4.903   4.492
 4648SOL     OW14686   3.328   4.330   4.699
 4648SOL    HW114687   3.276   4.250   4.703
 4648SOL    HW214688   3.387   4.324   4.774
 4649SOL     OW14689   3.707   4.539   4.107
 4649SOL    HW114690   3.764   4.488   4.165
 4649SOL    HW214691   3.679   4.476   4.040
 4650SOL     OW14692   2.341   5.149   3.875
 4650SOL    HW114693   2.281   5.096   3.928
 4650SOL    HW214694   2.347   5.101   3.792
 4651SOL     OW14695   3.532   4.986   4.370
 4651SOL    HW114696   3.625   4.993   4.387
 4651SOL    HW214697   3.498   5.075   4.386
 4652SOL     OW14698   3.256   4.296   3.795
 4652SOL    HW114699   3.195   4.276   3.866
 4652SOL    HW214700   3.341   4.265   3.827
 4653SOL     OW14701   2.387   3.986   4.040
 4653SOL    HW114702   2.435   3.940   3.971
 4653SOL    HW214703   2.364   4.071   4.001
 4654SOL     OW14704   3.613   4.960   5.298
 4654SOL    HW114705   3.699   4.918   5.298
 4654SOL    HW214706   3.632   5.053   5.310
 4655SOL     OW14707   2.926   5.073   5.053
 4655SOL    HW114708   2.848   5.048   5.102
 4655SOL    HW214709   2.998   5.035   5.103
 4656SOL     OW14710   2.989   4.925   4.831
 4656SOL    HW114711   2.940   4.967   4.902
 4656SOL    HW214712   2.943   4.952   4.751
 4657SOL     OW14713   3.490   4.822   4.800
 4657SOL    HW114714   3.485   4.883   4.873
 4657SOL    HW214715   3.412   4.841   4.748
 4658SOL     OW14716   2.782   3.823   5.121
 4658SOL    HW114717   2.805   3.811   5.029
 4658SOL    HW214718   2.860   3.862   5.160
 4659SOL     OW14719   2.846   4.839   5.450
 4659SOL    HW114720   2.754   4.855   5.469
 4659SOL    HW214721   2.846   4.762   5.392
 4660SOL     OW14722   2.567   4.783   4.095
 4660SOL    HW114723   2.554   4.767   4.189
 4660SOL    HW214724   2.644   4.732   4.072
 4661SOL     OW14725   2.281   4.539   4.975
 4661SOL    HW114726   2.349   4.549   5.042
 4661SOL    HW214727   2.246   4.451   4.989
 4662SOL     OW14728   3.127   4.101   5.000
 4662SOL    HW114729   3.160   4.178   5.046
 4662SOL    HW214730   3.036   4.122   4.978
 4663SOL     OW14731   2.207   4.833   4.212
 4663SOL    HW114732   2.209   4.907   4.151
 4663SOL    HW214733   2.206   4.755   4.157
 4664SOL     OW14734   2.414   4.260   4.584
 4664SOL    HW114735   2.428   4.318   4.509
 4664SOL    HW214736   2.479   4.286   4.648
 4665SOL     OW14737   3.122   5.078   4.110
 4665SOL    HW114738   3.178   5.145   4.148
 4665SOL    HW214739   3.034   5.101   4.139
 4666SOL     OW14740   3.133   5.182   4.866
 4666SOL    HW114741   3.192   5.197   4.939
 4666SOL    HW214742   3.088   5.100   4.887
 4667SOL     OW14743   3.443   4.346   4.204
 4667SOL    HW114744   3.396   4.399   4.268
 4667SOL    HW214745   3.488   4.410   4.149
 4668SOL     OW14746   2.210   5.236   5.037
 4668SOL    HW114747   2.199   5.200   4.949
 4668SOL    HW214748   2.304   5.256   5.043
 4669SOL     OW14749   2.277   4.469   5.326
 4669SOL    HW114750   2.339   4.513   5.268
 4669SOL    HW214751   2.316   4.383   5.343
 4670SOL     OW14752   3.464   4.503   5.407
 4670SOL    HW114753   3.378   4.545   5.400
 4670SOL    HW214754   3.517   4.545   5.338
 4671SOL     OW14755   2.858   3.849   5.478
 4671SOL    HW114756   2.915   3.921   5.453
 4671SOL    HW214757   2.906   3.770   5.453
 4672SOL     OW14758   2.359   3.764   5.472
 4672SOL    HW114759   2.316   3.710   5.406
 4672SOL    HW214760   2.301   3.838   5.484
 4673SOL     OW14761   2.446   4.596   4.756
 4673SOL    HW114762   2.476   4.687   4.754
 4673SOL    HW214763   2.389   4.591   4.833
 4674SOL     OW14764   3.218   4.582   4.751
 4674SOL    HW114765   3.134   4.571   4.706
 4674SOL    HW214766   3.260   4.496   4.745
 4675SOL     OW14767   3.066   4.252   3.990
 4675SOL    HW114768   3.073   4.174   4.044
 4675SOL    HW214769   3.023   4.317   4.046
 4676SOL     OW14770   2.160   3.923   4.971
 4676SOL    HW114771   2.123   3.955   5.053
 4676SOL    HW214772   2.142   3.829   4.972
 4677SOL     OW14773   1.916   5.047   5.009
 4677SOL    HW114774   1.939   4.982   5.075
 4677SOL    HW214775   1.951   5.130   5.043
 4678SOL     OW14776   2.585   4.354   4.781
 4678SOL    HW114777   2.661   4.340   4.724
 4678SOL    HW214778   2.557   4.444   4.761
 4679SOL     OW14779   3.597   4.683   5.577
 4679SOL    HW114780   3.552   4.621   5.521
 4679SOL    HW214781   3.538   4.698   5.650
 4680SOL     OW14782   2.169   3.794   4.350
 4680SOL    HW114783   2.149   3.885   4.372
 4680SOL    HW214784   2.172   3.748   4.434
 4681SOL     OW14785   3.480   4.099   4.090
 4681SOL    HW114786   3.507   4.035   4.155
 4681SOL    HW214787   3.457   4.177   4.140
 4682SOL     OW14788   2.890   4.483   4.684
 4682SOL    HW114789   2.886   4.500   4.778
 4682SOL    HW214790   2.863   4.391   4.675
 4683SOL     OW14791   3.716   5.213   5.307
 4683SOL    HW114792   3.708   5.290   5.251
 4683SOL    HW214793   3.785   5.236   5.369
 4684SOL     OW14794   2.215   4.640   5.533
 4684SOL    HW114795   2.297   4.659   5.579
 4684SOL    HW214796   2.240   4.578   5.465
 4685SOL     OW14797   3.391   3.996   3.851
 4685SOL    HW114798   3.325   3.932   3.878
 4685SOL    HW214799   3.424   4.033   3.933
 4686SOL     OW14800   3.153   4.550   3.754
 4686SOL    HW114801   3.196   4.464   3.758
 4686SOL    HW214802   3.184   4.589   3.673
 4687SOL     OW14803   2.919   5.081   4.547
 4687SOL    HW114804   2.925   4.995   4.505
 4687SOL    HW214805   3.006   5.119   4.536
 4688SOL     OW14806   2.171   4.532   4.671
 4688SOL    HW114807   2.264   4.553   4.664
 4688SOL    HW214808   2.168   4.442   4.703
 4689SOL     OW14809   2.193   4.251   4.737
 4689SOL    HW114810   2.157   4.163   4.722
 4689SOL    HW214811   2.269   4.256   4.679
 4690SOL     OW14812   2.996   4.099   5.407
 4690SOL    HW114813   2.948   4.154   5.469
 4690SOL    HW214814   3.083   4.138   5.403
 4691SOL     OW14815   3.024   3.926   5.195
 4691SOL    HW114816   3.013   3.989   5.266
 4691SOL    HW214817   3.064   3.977   5.124
 4692SOL     OW14818   1.868   5.040   3.914
 4692SOL    HW114819   1.778   5.057   3.889
 4692SOL    HW214820   1.866   4.952   3.952
 4693SOL     OW14821   2.843   4.514   4.950
 4693SOL    HW114822   2.900   4.493   5.024
 4693SOL    HW214823   2.758   4.478   4.974
 4694SOL     OW14824   1.898   4.269   4.841
 4694SOL    HW114825   1.978   4.257   4.791
 4694SOL    HW214826   1.926   4.272   4.932
 4695SOL     OW14827   2.053   4.244   5.452
 4695SOL    HW114828   2.110   4.205   5.385
 4695SOL    HW214829   2.012   4.318   5.408
 4696SOL     OW14830   3.239   4.661   5.382
 4696SOL    HW114831   3.260   4.755   5.379
 4696SOL    HW214832   3.236   4.635   5.290
 4697SOL     OW14833   2.678   4.294   4.086
 4697SOL    HW114834   2.683   4.219   4.026
 4697SOL    HW214835   2.604   4.346   4.054
 4698SOL     OW14836   3.504   4.325   4.908
 4698SOL    HW114837   3.494   4.267   4.984
 4698SOL    HW214838   3.591   4.305   4.874
 4699SOL     OW14839   2.067   5.276   5.469
 4699SOL    HW114840   2.051   0.028   5.548
 4699SOL    HW214841   2.079   5.187   5.502
 4700SOL     OW14842   2.566   4.173   4.982
 4700SOL    HW114843   2.511   4.100   4.953
 4700SOL    HW214844   2.561   4.237   4.911
 4701SOL     OW14845   2.325   4.216   3.909
 4701SOL    HW114846   2.384   4.289   3.932
 4701SOL    HW214847   2.240   4.258   3.897
 4702SOL     OW14848   2.006   4.863   5.195
 4702SOL    HW114849   2.008   4.812   5.276
 4702SOL    HW214850   2.024   4.799   5.126
 4703SOL     OW14851   3.188   4.768   4.946
 4703SOL    HW114852   3.211   4.706   4.877
 4703SOL    HW214853   3.118   4.821   4.908
 4704SOL     OW14854   3.174   4.581   4.030
 4704SOL    HW114855   3.098   4.550   4.080
 4704SOL    HW214856   3.149   4.568   3.938
 4705SOL     OW14857   1.957   4.987   4.746
 4705SOL    HW114858   1.935   5.005   4.837
 4705SOL    HW214859   1.877   4.948   4.710
 4706SOL     OW14860   2.615   0.036   5.433
 4706SOL    HW114861   2.523   0.059   5.445
 4706SOL    HW214862   2.635   0.063   5.343
 4707SOL     OW14863   3.581   3.871   4.232
 4707SOL    HW114864   3.654   3.857   4.171
 4707SOL    HW214865   3.567   3.786   4.273
 4708SOL     OW14866   3.139   4.650   4.395
 4708SOL    HW114867   3.213   4.589   4.404
 4708SOL    HW214868   3.174   4.722   4.342
 4709SOL     OW14869   2.679   4.993   5.142
 4709SOL    HW114870   2.648   5.028   5.226
 4709SOL    HW214871   2.605   5.003   5.083
 4710SOL     OW14872   3.703   3.897   4.691
 4710SOL    HW114873   3.732   3.810   4.664
 4710SOL    HW214874   3.616   3.907   4.651
 4711SOL     OW14875   2.123   4.043   4.442
 4711SOL    HW114876   2.037   4.077   4.417
 4711SOL    HW214877   2.119   4.035   4.537
 4712SOL     OW14878   2.687   4.727   5.094
 4712SOL    HW114879   2.733   4.721   5.011
 4712SOL    HW214880   2.690   4.820   5.116
 4713SOL     OW14881   2.778   4.636   4.015
 4713SOL    HW114882   2.839   4.668   3.948
 4713SOL    HW214883   2.826   4.566   4.059
 4714SOL     OW14884   2.227   5.026   5.221
 4714SOL    HW114885   2.216   5.100   5.160
 4714SOL    HW214886   2.151   4.970   5.204
 4715SOL     OW14887   3.474   5.004   5.006
 4715SOL    HW114888   3.531   4.997   5.083
 4715SOL    HW214889   3.412   5.073   5.029
 4716SOL     OW14890   2.918   4.834   4.436
 4716SOL    HW114891   2.845   4.783   4.472
 4716SOL    HW214892   2.980   4.768   4.404
 4717SOL     OW14893   2.883   3.965   4.688
 4717SOL    HW114894   2.870   3.915   4.608
 4717SOL    HW214895   2.880   3.900   4.758
 4718SOL     OW14896   3.584   4.116   5.105
 4718SOL    HW114897   3.656   4.180   5.104
 4718SOL    HW214898   3.614   4.045   5.048
 4719SOL     OW14899   2.120   5.051   4.007
 4719SOL    HW114900   2.029   5.052   3.980
 4719SOL    HW214901   2.121   5.095   4.092
 4720SOL     OW14902   1.974   4.747   5.443
 4720SOL    HW114903   1.898   4.723   5.496
 4720SOL    HW214904   2.049   4.709   5.489
 4721SOL     OW14905   2.537   3.925   5.225
 4721SOL    HW114906   2.621   3.904   5.183
 4721SOL    HW214907   2.560   3.956   5.312
 4722SOL     OW14908   1.940   4.057   3.759
 4722SOL    HW114909   1.853   4.037   3.725
 4722SOL    HW214910   1.969   4.133   3.708
 4723SOL     OW14911   3.291   4.581   5.123
 4723SOL    HW114912   3.242   4.642   5.068
 4723SOL    HW214913   3.380   4.584   5.089
 4724SOL     OW14914   1.929   3.880   4.033
 4724SOL    HW114915   1.916   3.960   3.981
 4724SOL    HW214916   2.014   3.847   4.004
 4725SOL     OW14917   3.044   5.062   3.845
 4725SOL    HW114918   2.953   5.034   3.846
 4725SOL    HW214919   3.072   5.055   3.936
 4726SOL     OW14920   2.481   4.554   5.158
 4726SOL    HW114921   2.538   4.630   5.142
 4726SOL    HW214922   2.542   4.481   5.166
 4727SOL     OW14923   2.580   4.287   5.427
 4727SOL    HW114924   2.621   4.350   5.487
 4727SOL    HW214925   2.606   4.201   5.461
 4728SOL     OW14926   3.336   4.921   5.354
 4728SOL    HW114927   3.323   4.935   5.448
 4728SOL    HW214928   3.430   4.936   5.342
 4729SOL     OW14929   3.531   4.605   4.979
 4729SOL    HW114930   3.525   4.520   4.935
 4729SOL    HW214931   3.521   4.669   4.908
 4730SOL     OW14932   3.078   4.044   4.182
 4730SOL    HW114933   3.143   3.974   4.172
 4730SOL    HW214934   3.107   4.093   4.258
 4731SOL     OW14935   2.451   4.461   4.395
 4731SOL    HW114936   2.490   4.547   4.380
 4731SOL    HW214937   2.384   4.453   4.327
 4732SOL     OW14938   3.624   4.086   5.375
 4732SOL    HW114939   3.607   4.102   5.282
 4732SOL    HW214940   3.552   4.030   5.403
 4733SOL     OW14941   3.607   4.657   5.236
 4733SOL    HW114942   3.602   4.752   5.249
 4733SOL    HW214943   3.592   4.645   5.142
 4734SOL     OW14944   2.711   5.094   3.744
 4734SOL    HW114945   2.693   5.095   3.838
 4734SOL    HW214946   2.724   5.186   3.722
 4735SOL     OW14947   2.730   4.692   4.579
 4735SOL    HW114948   2.780   4.621   4.619
 4735SOL    HW214949   2.695   4.741   4.653
 4736SOL     OW14950   2.942   4.714   3.814
 4736SOL    HW114951   2.919   4.763   3.736
 4736SOL    HW214952   3.016   4.659   3.787
 4737SOL     OW14953   2.085   5.023   5.576
 4737SOL    HW114954   2.017   4.960   5.551
 4737SOL    HW214955   2.073   5.033   5.671
 4738SOL     OW14956   1.949   4.955   4.394
 4738SOL    HW114957   1.948   4.903   4.474
 4738SOL    HW214958   2.012   4.911   4.337
 4739SOL     OW14959   2.534   5.105   5.332
 4739SOL    HW114960   2.457   5.073   5.380
 4739SOL    HW214961   2.566   5.178   5.385
 4740SOL     OW14962   3.673   3.908   4.961
 4740SOL    HW114963   3.688   3.815   4.976
 4740SOL    HW214964   3.683   3.919   4.867
 4741SOL     OW14965   2.292   4.158   4.249
 4741SOL    HW114966   2.321   4.087   4.193
 4741SOL    HW214967   2.243   4.114   4.319
 4742SOL     OW14968   3.569   5.224   4.842
 4742SOL    HW114969   3.495   5.208   4.784
 4742SOL    HW214970   3.575   5.145   4.896
 4743SOL     OW14971   2.193   4.280   5.016
 4743SOL    HW114972   2.248   4.225   5.071
 4743SOL    HW214973   2.212   4.252   4.926
 4744SOL     OW14974   3.292   3.948   4.843
 4744SOL    HW114975   3.324   3.873   4.893
 4744SOL    HW214976   3.240   3.999   4.905
 4745SOL     OW14977   2.874   3.749   4.867
 4745SOL    HW114978   2.811   3.679   4.847
 4745SOL    HW214979   2.960   3.706   4.862
 4746SOL     OW14980   2.666   5.047   4.008
 4746SOL    HW114981   2.607   4.974   4.028
 4746SOL    HW214982   2.721   5.055   4.086
 4747SOL     OW14983   2.484   5.299   5.016
 4747SOL    HW114984   2.490   0.054   5.095
 4747SOL    HW214985   2.575   5.280   4.993
 4748SOL     OW14986   3.215   3.778   3.890
 4748SOL    HW114987   3.244   3.712   3.827
 4748SOL    HW214988   3.128   3.749   3.917
 4749SOL     OW14989   3.158   4.185   4.404
 4749SOL    HW114990   3.106   4.265   4.411
 4749SOL    HW214991   3.154   4.147   4.492
 4750SOL     OW14992   3.448   3.925   4.603
 4750SOL    HW114993   3.387   3.947   4.674
 4750SOL    HW214994   3.448   4.002   4.547
 4751SOL     OW14995   1.904   4.793   4.032
 4751SOL    HW114996   1.998   4.787   4.015
 4751SOL    HW214997   1.878   4.704   4.054
 4752SOL     OW14998   2.091   4.347   5.710
 4752SOL    HW114999   2.001   4.346   5.745
 4752SOL    HW215000   2.081   4.322   5.618
 4753SOL     OW15001   2.087   4.006   6.578
 4753SOL    HW115002   2.115   3.971   6.662
 4753SOL    HW215003   1.997   3.974   6.568
 4754SOL     OW15004   1.865   4.107   6.224
 4754SOL    HW115005   1.783   4.132   6.266
 4754SOL    HW215006   1.844   4.028   6.175
 4755SOL     OW15007   2.429   5.007   6.767
 4755SOL    HW115008   2.344   5.004   6.722
 4755SOL    HW215009   2.440   5.099   6.791
 4756SOL     OW15010   3.418   5.232   6.275
 4756SOL    HW115011   3.399   5.229   6.368
 4756SOL    HW215012   3.338   5.268   6.236
 4757SOL     OW15013   2.992   4.422   6.286
 4757SOL    HW115014   3.041   4.503   6.272
 4757SOL    HW215015   2.946   4.436   6.368
 4758SOL     OW15016   3.630   4.328   5.814
 4758SOL    HW115017   3.608   4.321   5.721
 4758SOL    HW215018   3.594   4.249   5.853
 4759SOL     OW15019   2.617   4.867   6.625
 4759SOL    HW115020   2.550   4.899   6.686
 4759SOL    HW215021   2.647   4.946   6.579
 4760SOL     OW15022   2.730   4.498   7.406
 4760SOL    HW115023   2.713   4.572   7.464
 4760SOL    HW215024   2.755   4.538   7.323
 4761SOL     OW15025   2.548   4.725   6.233
 4761SOL    HW115026   2.613   4.715   6.303
 4761SOL    HW215027   2.479   4.779   6.272
 4762SOL     OW15028   2.571   4.872   7.398
 4762SOL    HW115029   2.619   4.951   7.422
 4762SOL    HW215030   2.488   4.904   7.362
 4763SOL     OW15031   2.199   5.149   6.645
 4763SOL    HW115032   2.121   5.104   6.612
 4763SOL    HW215033   2.237   5.192   6.568
 4764SOL     OW15034   3.316   5.221   6.934
 4764SOL    HW115035   3.371   5.293   6.965
 4764SOL    HW215036   3.249   5.211   7.001
 4765SOL     OW15037   2.312   4.122   7.072
 4765SOL    HW115038   2.387   4.063   7.078
 4765SOL    HW215039   2.236   4.066   7.086
 4766SOL     OW15040   3.473   4.171   6.327
 4766SOL    HW115041   3.399   4.193   6.271
 4766SOL    HW215042   3.487   4.249   6.381
 4767SOL     OW15043   2.995   5.072   7.286
 4767SOL    HW115044   3.027   5.072   7.377
 4767SOL    HW215045   2.941   4.993   7.280
 4768SOL     OW15046   2.072   5.157   6.107
 4768SOL    HW115047   2.099   5.237   6.150
 4768SOL    HW215048   2.021   5.110   6.173
 4769SOL     OW15049   2.122   4.811   6.478
 4769SOL    HW115050   2.119   4.724   6.517
 4769SOL    HW215051   2.064   4.864   6.534
 4770SOL     OW15052   2.446   4.706   5.721
 4770SOL    HW115053   2.493   4.753   5.653
 4770SOL    HW215054   2.485   4.736   5.803
 4771SOL     OW15055   3.458   3.848   7.053
 4771SOL    HW115056   3.468   3.929   7.003
 4771SOL    HW215057   3.442   3.877   7.143
 4772SOL     OW15058   1.977   4.377   6.146
 4772SOL    HW115059   1.948   4.288   6.167
 4772SOL    HW215060   1.969   4.425   6.228
 4773SOL     OW15061   1.848   0.013   5.683
 4773SOL    HW115062   1.864   5.224   5.715
 4773SOL    HW215063   1.870   0.069   5.758
 4774SOL     OW15064   3.550   4.641   6.227
 4774SOL    HW115065   3.634   4.599   6.206
 4774SOL    HW215066   3.529   4.693   6.149
 4775SOL     OW15067   3.508   4.830   6.015
 4775SOL    HW115068   3.594   4.834   5.973
 4775SOL    HW215069   3.515   4.891   6.089
 4776SOL     OW15070   1.985   4.466   7.172
 4776SOL    HW115071   2.077   4.493   7.178
 4776SOL    HW215072   1.936   4.548   7.179
 4777SOL     OW15073   2.485   5.098   6.324
 4777SOL    HW115074   2.431   5.019   6.322
 4777SOL    HW215075   2.466   5.143   6.241
 4778SOL     OW15076   3.150   4.953   7.012
 4778SOL    HW115077   3.185   4.888   6.951
 4778SOL    HW215078   3.211   4.951   7.086
 4779SOL     OW15079   2.677   3.724   6.093
 4779SOL    HW115080   2.718   3.809   6.074
 4779SOL    HW215081   2.584   3.744   6.103
 4780SOL     OW15082   2.052   4.689   6.857
 4780SOL    HW115083   2.137   4.647   6.843
 4780SOL    HW215084   1.990   4.635   6.808
 4781SOL     OW15085   3.393   4.720   5.784
 4781SOL    HW115086   3.323   4.662   5.816
 4781SOL    HW215087   3.434   4.754   5.863
 4782SOL     OW15088   2.196   3.972   7.401
 4782SOL    HW115089   2.240   4.057   7.415
 4782SOL    HW215090   2.106   3.987   7.430
 4783SOL     OW15091   3.339   5.147   6.548
 4783SOL    HW115092   3.267   5.160   6.609
 4783SOL    HW215093   3.327   5.059   6.514
 4784SOL     OW15094   2.458   4.444   5.853
 4784SOL    HW115095   2.463   4.526   5.804
 4784SOL    HW215096   2.393   4.462   5.921
 4785SOL     OW15097   3.141   4.078   6.519
 4785SOL    HW115098   3.051   4.045   6.527
 4785SOL    HW215099   3.192   4.025   6.579
 4786SOL     OW15100   2.653   4.342   7.037
 4786SOL    HW115101   2.627   4.317   7.126
 4786SOL    HW215102   2.614   4.274   6.981
 4787SOL     OW15103   3.256   4.198   7.263
 4787SOL    HW115104   3.258   4.243   7.348
 4787SOL    HW215105   3.316   4.124   7.273
 4788SOL     OW15106   2.816   4.612   7.169
 4788SOL    HW115107   2.871   4.542   7.133
 4788SOL    HW215108   2.768   4.645   7.093
 4789SOL     OW15109   2.854   4.137   6.824
 4789SOL    HW115110   2.768   4.157   6.860
 4789SOL    HW215111   2.836   4.090   6.742
 4790SOL     OW15112   2.914   4.422   6.012
 4790SOL    HW115113   2.929   4.415   6.106
 4790SOL    HW215114   2.831   4.376   5.998
 4791SOL     OW15115   1.950   4.545   6.362
 4791SOL    HW115116   2.031   4.538   6.413
 4791SOL    HW215117   1.906   4.623   6.398
 4792SOL     OW15118   2.757   4.073   5.780
 4792SOL    HW115119   2.796   4.136   5.720
 4792SOL    HW215120   2.773   3.987   5.740
 4793SOL     OW15121   3.570   4.299   7.416
 4793SOL    HW115122   3.533   4.372   7.367
 4793SOL    HW215123   3.598   4.237   7.348
 4794SOL     OW15124   3.240   4.863   6.125
 4794SOL    HW115125   3.321   4.850   6.076
 4794SOL    HW215126   3.190   4.925   6.071
 4795SOL     OW15127   2.413   3.905   6.480
 4795SOL    HW115128   2.414   3.934   6.571
 4795SOL    HW215129   2.413   3.986   6.428
 4796SOL     OW15130   2.883   5.169   6.057
 4796SOL    HW115131   2.806   5.226   6.054
 4796SOL    HW215132   2.899   5.156   6.151
 4797SOL     OW15133   3.663   4.780   6.453
 4797SOL    HW115134   3.606   4.762   6.378
 4797SOL    HW215135   3.602   4.787   6.527
 4798SOL     OW15136   3.113   5.240   7.111
 4798SOL    HW115137   3.076   5.173   7.169
 4798SOL    HW215138   3.041   5.264   7.053
 4799SOL     OW15139   2.181   4.681   5.837
 4799SOL    HW115140   2.264   4.700   5.792
 4799SOL    HW215141   2.151   4.599   5.797
 4800SOL     OW15142   3.341   4.467   6.313
 4800SOL    HW115143   3.334   4.425   6.398
 4800SOL    HW215144   3.419   4.523   6.319
 4801SOL     OW15145   2.325   4.988   7.328
 4801SOL    HW115146   2.299   4.990   7.236
 4801SOL    HW215147   2.243   4.987   7.377
 4802SOL     OW15148   2.930   0.179   5.790
 4802SOL    HW115149   2.940   0.103   5.848
 4802SOL    HW215150   2.956   0.146   5.704
 4803SOL     OW15151   2.063   4.004   7.088
 4803SOL    HW115152   1.981   4.052   7.084
 4803SOL    HW215153   2.044   3.929   7.144
 4804SOL     OW15154   3.484   5.101   5.695
 4804SOL    HW115155   3.484   5.176   5.635
 4804SOL    HW215156   3.416   5.043   5.660
 4805SOL     OW15157   3.263   3.831   6.020
 4805SOL    HW115158   3.253   3.807   5.928
 4805SOL    HW215159   3.358   3.838   6.034
 4806SOL     OW15160   2.256   4.419   6.062
 4806SOL    HW115161   2.275   4.326   6.074
 4806SOL    HW215162   2.162   4.426   6.079
 4807SOL     OW15163   3.396   3.949   7.311
 4807SOL    HW115164   3.405   3.970   7.404
 4807SOL    HW215165   3.327   3.881   7.309
 4808SOL     OW15166   2.498   3.846   5.691
 4808SOL    HW115167   2.566   3.779   5.704
 4808SOL    HW215168   2.448   3.814   5.615
 4809SOL     OW15169   2.627   4.001   7.340
 4809SOL    HW115170   2.704   3.944   7.341
 4809SOL    HW215171   2.585   3.984   7.424
 4810SOL     OW15172   3.202   4.313   7.018
 4810SOL    HW115173   3.233   4.282   7.103
 4810SOL    HW215174   3.238   4.401   7.010
 4811SOL     OW15175   2.675   5.118   6.522
 4811SOL    HW115176   2.756   5.105   6.472
 4811SOL    HW215177   2.606   5.125   6.456
 4812SOL     OW15178   2.790   4.233   6.489
 4812SOL    HW115179   2.766   4.225   6.396
 4812SOL    HW215180   2.821   4.146   6.513
 4813SOL     OW15181   2.411   3.787   6.087
 4813SOL    HW115182   2.331   3.787   6.139
 4813SOL    HW215183   2.405   3.866   6.032
 4814SOL     OW15184   3.290   4.924   5.624
 4814SOL    HW115185   3.320   4.849   5.675
 4814SOL    HW215186   3.202   4.942   5.657
 4815SOL     OW15187   2.154   3.772   5.771
 4815SOL    HW115188   2.213   3.836   5.732
 4815SOL    HW215189   2.212   3.708   5.813
 4816SOL     OW15190   2.801   3.971   6.045
 4816SOL    HW115191   2.775   4.012   5.963
 4816SOL    HW215192   2.895   3.985   6.050
 4817SOL     OW15193   2.942   4.405   7.045
 4817SOL    HW115194   2.874   4.338   7.050
 4817SOL    HW215195   3.024   4.357   7.039
 4818SOL     OW15196   3.126   5.266   6.364
 4818SOL    HW115197   3.082   0.047   6.338
 4818SOL    HW215198   3.171   5.289   6.445
 4819SOL     OW15199   2.328   4.872   6.315
 4819SOL    HW115200   2.260   4.852   6.379
 4819SOL    HW215201   2.287   4.855   6.230
 4820SOL     OW15202   2.885   4.264   5.609
 4820SOL    HW115203   2.842   4.348   5.590
 4820SOL    HW215204   2.950   4.286   5.676
 4821SOL     OW15205   1.942   4.278   6.978
 4821SOL    HW115206   2.034   4.277   6.951
 4821SOL    HW215207   1.937   4.348   7.043
 4822SOL     OW15208   2.421   3.951   6.753
 4822SOL    HW115209   2.463   3.875   6.793
 4822SOL    HW215210   2.330   3.947   6.782
 4823SOL     OW15211   2.729   4.183   6.226
 4823SOL    HW115212   2.684   4.238   6.161
 4823SOL    HW215213   2.751   4.103   6.178
 4824SOL     OW15214   2.879   3.778   6.336
 4824SOL    HW115215   2.820   3.772   6.261
 4824SOL    HW215216   2.856   3.703   6.391
 4825SOL     OW15217   3.300   4.890   6.445
 4825SOL    HW115218   3.233   4.822   6.441
 4825SOL    HW215219   3.326   4.903   6.354
 4826SOL     OW15220   3.328   4.330   6.561
 4826SOL    HW115221   3.276   4.249   6.565
 4826SOL    HW215222   3.387   4.323   6.636
 4827SOL     OW15223   3.707   4.539   5.969
 4827SOL    HW115224   3.763   4.488   6.027
 4827SOL    HW215225   3.679   4.476   5.902
 4828SOL     OW15226   2.341   5.149   5.737
 4828SOL    HW115227   2.281   5.096   5.790
 4828SOL    HW215228   2.347   5.102   5.654
 4829SOL     OW15229   3.532   4.986   6.232
 4829SOL    HW115230   3.625   4.993   6.249
 4829SOL    HW215231   3.498   5.075   6.248
 4830SOL     OW15232   3.256   4.296   5.657
 4830SOL    HW115233   3.195   4.276   5.728
 4830SOL    HW215234   3.341   4.265   5.689
 4831SOL     OW15235   2.387   3.987   5.903
 4831SOL    HW115236   2.433   3.940   5.833
 4831SOL    HW215237   2.364   4.071   5.864
 4832SOL     OW15238   3.612   4.959   7.159
 4832SOL    HW115239   3.698   4.917   7.159
 4832SOL    HW215240   3.631   5.052   7.172
 4833SOL     OW15241   2.926   5.073   6.915
 4833SOL    HW115242   2.848   5.048   6.964
 4833SOL    HW215243   2.999   5.035   6.965
 4834SOL     OW15244   2.989   4.925   6.693
 4834SOL    HW115245   2.940   4.967   6.764
 4834SOL    HW215246   2.943   4.951   6.613
 4835SOL     OW15247   3.490   4.822   6.662
 4835SOL    HW115248   3.485   4.883   6.735
 4835SOL    HW215249   3.412   4.841   6.610
 4836SOL     OW15250   2.780   3.821   6.981
 4836SOL    HW115251   2.803   3.802   6.890
 4836SOL    HW215252   2.859   3.860   7.018
 4837SOL     OW15253   2.847   4.838   7.313
 4837SOL    HW115254   2.754   4.855   7.330
 4837SOL    HW215255   2.847   4.762   7.255
 4838SOL     OW15256   2.567   4.783   5.957
 4838SOL    HW115257   2.554   4.767   6.051
 4838SOL    HW215258   2.644   4.732   5.934
 4839SOL     OW15259   2.281   4.539   6.837
 4839SOL    HW115260   2.350   4.549   6.904
 4839SOL    HW215261   2.246   4.451   6.851
 4840SOL     OW15262   3.127   4.101   6.862
 4840SOL    HW115263   3.160   4.178   6.908
 4840SOL    HW215264   3.036   4.123   6.839
 4841SOL     OW15265   2.207   4.834   6.074
 4841SOL    HW115266   2.209   4.907   6.013
 4841SOL    HW215267   2.206   4.755   6.019
 4842SOL     OW15268   2.414   4.260   6.446
 4842SOL    HW115269   2.429   4.318   6.371
 4842SOL    HW215270   2.479   4.286   6.510
 4843SOL     OW15271   3.122   5.078   5.972
 4843SOL    HW115272   3.178   5.145   6.010
 4843SOL    HW215273   3.034   5.101   6.001
 4844SOL     OW15274   3.133   5.182   6.728
 4844SOL    HW115275   3.192   5.197   6.801
 4844SOL    HW215276   3.088   5.100   6.748
 4845SOL     OW15277   3.443   4.346   6.066
 4845SOL    HW115278   3.395   4.399   6.130
 4845SOL    HW215279   3.488   4.410   6.011
 4846SOL     OW15280   2.211   5.236   6.900
 4846SOL    HW115281   2.199   5.200   6.811
 4846SOL    HW215282   2.304   5.256   6.905
 4847SOL     OW15283   2.277   4.469   7.188
 4847SOL    HW115284   2.339   4.513   7.131
 4847SOL    HW215285   2.315   4.383   7.203
 4848SOL     OW15286   3.464   4.503   7.269
 4848SOL    HW115287   3.378   4.545   7.262
 4848SOL    HW215288   3.517   4.545   7.201
 4849SOL     OW15289   2.858   3.849   7.340
 4849SOL    HW115290   2.915   3.921   7.313
 4849SOL    HW215291   2.905   3.770   7.315
 4850SOL     OW15292   2.360   3.764   7.334
 4850SOL    HW115293   2.316   3.709   7.268
 4850SOL    HW215294   2.302   3.839   7.346
 4851SOL     OW15295   2.446   4.596   6.617
 4851SOL    HW115296   2.476   4.687   6.616
 4851SOL    HW215297   2.389   4.591   6.694
 4852SOL     OW15298   3.218   4.582   6.613
 4852SOL    HW115299   3.134   4.571   6.568
 4852SOL    HW215300   3.260   4.496   6.607
 4853SOL     OW15301   3.066   4.252   5.852
 4853SOL    HW115302   3.074   4.174   5.907
 4853SOL    HW215303   3.023   4.316   5.908
 4854SOL     OW15304   2.160   3.922   6.833
 4854SOL    HW115305   2.123   3.954   6.915
 4854SOL    HW215306   2.142   3.828   6.833
 4855SOL     OW15307   1.916   5.047   6.871
 4855SOL    HW115308   1.939   4.982   6.937
 4855SOL    HW215309   1.951   5.129   6.905
 4856SOL     OW15310   2.585   4.354   6.643
 4856SOL    HW115311   2.661   4.339   6.586
 4856SOL    HW215312   2.557   4.443   6.622
 4857SOL     OW15313   3.598   4.684   7.438
 4857SOL    HW115314   3.551   4.621   7.384
 4857SOL    HW215315   3.540   4.699   7.513
 4858SOL     OW15316   2.166   3.788   6.210
 4858SOL    HW115317   2.146   3.879   6.232
 4858SOL    HW215318   2.174   3.743   6.294
 4859SOL     OW15319   3.479   4.099   5.952
 4859SOL    HW115320   3.507   4.035   6.017
 4859SOL    HW215321   3.456   4.177   6.002
 4860SOL     OW15322   2.890   4.483   6.546
 4860SOL    HW115323   2.886   4.500   6.640
 4860SOL    HW215324   2.864   4.391   6.538
 4861SOL     OW15325   3.715   5.213   7.168
 4861SOL    HW115326   3.707   5.290   7.112
 4861SOL    HW215327   3.786   5.235   7.229
 4862SOL     OW15328   2.215   4.639   7.395
 4862SOL    HW115329   2.298   4.659   7.440
 4862SOL    HW215330   2.239   4.577   7.327
 4863SOL     OW15331   3.391   3.997   5.713
 4863SOL    HW115332   3.326   3.932   5.740
 4863SOL    HW215333   3.424   4.033   5.795
 4864SOL     OW15334   3.153   4.550   5.616
 4864SOL    HW115335   3.196   4.464   5.620
 4864SOL    HW215336   3.184   4.589   5.535
 4865SOL     OW15337   2.919   5.081   6.409
 4865SOL    HW115338   2.925   4.995   6.367
 4865SOL    HW215339   3.006   5.119   6.398
 4866SOL     OW15340   2.170   4.532   6.533
 4866SOL    HW115341   2.264   4.553   6.526
 4866SOL    HW215342   2.168   4.442   6.565
 4867SOL     OW15343   2.192   4.251   6.598
 4867SOL    HW115344   2.157   4.163   6.584
 4867SOL    HW215345   2.269   4.256   6.541
 4868SOL     OW15346   2.996   4.099   7.268
 4868SOL    HW115347   2.949   4.154   7.330
 4868SOL    HW215348   3.084   4.138   7.264
 4869SOL     OW15349   3.023   3.926   7.056
 4869SOL    HW115350   3.012   3.989   7.127
 4869SOL    HW215351   3.063   3.976   6.985
 4870SOL     OW15352   1.868   5.039   5.776
 4870SOL    HW115353   1.778   5.057   5.751
 4870SOL    HW215354   1.866   4.951   5.814
 4871SOL     OW15355   2.843   4.515   6.812
 4871SOL    HW115356   2.900   4.493   6.886
 4871SOL    HW215357   2.758   4.477   6.836
 4872SOL     OW15358   1.898   4.270   6.703
 4872SOL    HW115359   1.978   4.256   6.652
 4872SOL    HW215360   1.926   4.272   6.794
 4873SOL     OW15361   2.055   4.243   7.314
 4873SOL    HW115362   2.109   4.202   7.247
 4873SOL    HW215363   2.013   4.318   7.270
 4874SOL     OW15364   3.239   4.662   7.244
 4874SOL    HW115365   3.260   4.755   7.241
 4874SOL    HW215366   3.235   4.635   7.152
 4875SOL     OW15367   2.678   4.293   5.948
 4875SOL    HW115368   2.682   4.219   5.887
 4875SOL    HW215369   2.604   4.346   5.916
 4876SOL     OW15370   3.504   4.325   6.771
 4876SOL    HW115371   3.494   4.266   6.846
 4876SOL    HW215372   3.591   4.306   6.737
 4877SOL     OW15373   2.068   5.275   7.330
 4877SOL    HW115374   2.033   0.023   7.405
 4877SOL    HW215375   2.081   5.186   7.363
 4878SOL     OW15376   2.565   4.174   6.844
 4878SOL    HW115377   2.511   4.100   6.815
 4878SOL    HW215378   2.561   4.237   6.773
 4879SOL     OW15379   2.326   4.216   5.772
 4879SOL    HW115380   2.384   4.289   5.794
 4879SOL    HW215381   2.240   4.257   5.759
 4880SOL     OW15382   2.006   4.863   7.057
 4880SOL    HW115383   2.008   4.812   7.138
 4880SOL    HW215384   2.024   4.799   6.988
 4881SOL     OW15385   3.188   4.768   6.808
 4881SOL    HW115386   3.211   4.706   6.739
 4881SOL    HW215387   3.118   4.821   6.770
 4882SOL     OW15388   3.174   4.581   5.892
 4882SOL    HW115389   3.099   4.550   5.942
 4882SOL    HW215390   3.149   4.567   5.800
 4883SOL     OW15391   1.956   4.987   6.608
 4883SOL    HW115392   1.935   5.005   6.699
 4883SOL    HW215393   1.877   4.948   6.571
 4884SOL     OW15394   2.615   0.035   7.297
 4884SOL    HW115395   2.523   0.058   7.307
 4884SOL    HW215396   2.637   0.063   7.208
 4885SOL     OW15397   3.581   3.872   6.094
 4885SOL    HW115398   3.654   3.857   6.034
 4885SOL    HW215399   3.566   3.787   6.135
 4886SOL     OW15400   3.139   4.650   6.257
 4886SOL    HW115401   3.213   4.589   6.266
 4886SOL    HW215402   3.174   4.722   6.204
 4887SOL     OW15403   2.679   4.993   7.004
 4887SOL    HW115404   2.648   5.028   7.088
 4887SOL    HW215405   2.605   5.002   6.945
 4888SOL     OW15406   3.703   3.897   6.553
 4888SOL    HW115407   3.732   3.809   6.526
 4888SOL    HW215408   3.617   3.906   6.513
 4889SOL     OW15409   2.123   4.039   6.303
 4889SOL    HW115410   2.037   4.075   6.279
 4889SOL    HW215411   2.121   4.032   6.398
 4890SOL     OW15412   2.687   4.727   6.957
 4890SOL    HW115413   2.734   4.719   6.874
 4890SOL    HW215414   2.690   4.820   6.978
 4891SOL     OW15415   2.778   4.636   5.877
 4891SOL    HW115416   2.839   4.668   5.810
 4891SOL    HW215417   2.826   4.566   5.921
 4892SOL     OW15418   2.226   5.027   7.084
 4892SOL    HW115419   2.216   5.100   7.023
 4892SOL    HW215420   2.151   4.970   7.066
 4893SOL     OW15421   3.474   5.004   6.868
 4893SOL    HW115422   3.531   4.996   6.945
 4893SOL    HW215423   3.412   5.073   6.891
 4894SOL     OW15424   2.918   4.834   6.298
 4894SOL    HW115425   2.845   4.783   6.334
 4894SOL    HW215426   2.980   4.768   6.266
 4895SOL     OW15427   2.883   3.964   6.552
 4895SOL    HW115428   2.880   3.917   6.469
 4895SOL    HW215429   2.878   3.896   6.619
 4896SOL     OW15430   3.585   4.116   6.967
 4896SOL    HW115431   3.657   4.179   6.966
 4896SOL    HW215432   3.614   4.045   6.910
 4897SOL     OW15433   2.120   5.051   5.869
 4897SOL    HW115434   2.029   5.052   5.842
 4897SOL    HW215435   2.121   5.095   5.954
 4898SOL     OW15436   1.975   4.748   7.306
 4898SOL    HW115437   1.898   4.724   7.358
 4898SOL    HW215438   2.049   4.709   7.352
 4899SOL     OW15439   2.536   3.920   7.085
 4899SOL    HW115440   2.620   3.900   7.045
 4899SOL    HW215441   2.559   3.951   7.173
 4900SOL     OW15442   1.941   4.056   5.620
 4900SOL    HW115443   1.853   4.038   5.587
 4900SOL    HW215444   1.971   4.132   5.569
 4901SOL     OW15445   3.291   4.582   6.986
 4901SOL    HW115446   3.242   4.643   6.930
 4901SOL    HW215447   3.380   4.584   6.952
 4902SOL     OW15448   1.929   3.880   5.895
 4902SOL    HW115449   1.916   3.960   5.844
 4902SOL    HW215450   2.014   3.847   5.865
 4903SOL     OW15451   3.044   5.062   5.707
 4903SOL    HW115452   2.953   5.034   5.708
 4903SOL    HW215453   3.072   5.055   5.798
 4904SOL     OW15454   2.481   4.555   7.020
 4904SOL    HW115455   2.538   4.630   7.004
 4904SOL    HW215456   2.541   4.481   7.028
 4905SOL     OW15457   2.580   4.287   7.290
 4905SOL    HW115458   2.621   4.348   7.350
 4905SOL    HW215459   2.605   4.200   7.322
 4906SOL     OW15460   3.336   4.922   7.217
 4906SOL    HW115461   3.323   4.935   7.311
 4906SOL    HW215462   3.430   4.936   7.204
 4907SOL     OW15463   3.531   4.605   6.841
 4907SOL    HW115464   3.525   4.520   6.798
 4907SOL    HW215465   3.521   4.668   6.770
 4908SOL     OW15466   3.078   4.043   6.044
 4908SOL    HW115467   3.141   3.971   6.036
 4908SOL    HW215468   3.107   4.092   6.120
 4909SOL     OW15469   2.451   4.461   6.256
 4909SOL    HW115470   2.490   4.547   6.242
 4909SOL    HW215471   2.384   4.453   6.189
 4910SOL     OW15472   3.623   4.087   7.238
 4910SOL    HW115473   3.607   4.102   7.145
 4910SOL    HW215474   3.551   4.029   7.265
 4911SOL     OW15475   3.608   4.657   7.098
 4911SOL    HW115476   3.601   4.752   7.111
 4911SOL    HW215477   3.592   4.645   7.004
 4912SOL     OW15478   2.711   5.094   5.606
 4912SOL    HW115479   2.693   5.094   5.700
 4912SOL    HW215480   2.724   5.186   5.584
 4913SOL     OW15481   2.730   4.692   6.441
 4913SOL    HW115482   2.780   4.620   6.481
 4913SOL    HW215483   2.695   4.741   6.515
 4914SOL     OW15484   2.942   4.713   5.676
 4914SOL    HW115485   2.919   4.763   5.598
 4914SOL    HW215486   3.016   4.659   5.649
 4915SOL     OW15487   2.083   5.022   7.441
 4915SOL    HW115488   2.019   4.958   7.410
 4915SOL    HW215489   2.061   5.035   7.533
 4916SOL     OW15490   1.949   4.955   6.256
 4916SOL    HW115491   1.948   4.903   6.336
 4916SOL    HW215492   2.012   4.911   6.199
 4917SOL     OW15493   2.533   5.104   7.195
 4917SOL    HW115494   2.456   5.073   7.242
 4917SOL    HW215495   2.566   5.178   7.246
 4918SOL     OW15496   3.675   3.908   6.824
 4918SOL    HW115497   3.684   3.814   6.838
 4918SOL    HW215498   3.684   3.919   6.729
 4919SOL     OW15499   2.291   4.158   6.112
 4919SOL    HW115500   2.321   4.087   6.055
 4919SOL    HW215501   2.243   4.114   6.181
 4920SOL     OW15502   3.569   5.224   6.705
 4920SOL    HW115503   3.495   5.208   6.646
 4920SOL    HW215504   3.575   5.145   6.758
 4921SOL     OW15505   2.193   4.280   6.878
 4921SOL    HW115506   2.248   4.224   6.933
 4921SOL    HW215507   2.212   4.251   6.789
 4922SOL     OW15508   3.294   3.950   6.704
 4922SOL    HW115509   3.317   3.869   6.749
 4922SOL    HW215510   3.242   3.999   6.767
 4923SOL     OW15511   2.871   3.743   6.728
 4923SOL    HW115512   2.816   3.675   6.689
 4923SOL    HW215513   2.959   3.704   6.729
 4924SOL     OW15514   2.666   5.047   5.870
 4924SOL    HW115515   2.607   4.974   5.890
 4924SOL    HW215516   2.721   5.055   5.948
 4925SOL     OW15517   2.484   5.299   6.879
 4925SOL    HW115518   2.491   0.054   6.957
 4925SOL    HW215519   2.575   5.280   6.855
 4926SOL     OW15520   3.215   3.778   5.752
 4926SOL    HW115521   3.244   3.712   5.689
 4926SOL    HW215522   3.127   3.748   5.778
 4927SOL     OW15523   3.158   4.185   6.266
 4927SOL    HW115524   3.105   4.265   6.273
 4927SOL    HW215525   3.154   4.146   6.354
 4928SOL     OW15526   3.448   3.925   6.465
 4928SOL    HW115527   3.389   3.946   6.536
 4928SOL    HW215528   3.448   4.003   6.409
 4929SOL     OW15529   1.904   4.793   5.894
 4929SOL    HW115530   1.998   4.787   5.877
 4929SOL    HW215531   1.878   4.704   5.916
 4930SOL     OW15532   2.090   4.344   7.572
 4930SOL    HW115533   2.000   4.350   7.604
 4930SOL    HW215534   2.082   4.321   7.480
 4931SOL     OW15535   3.629   4.321   7.679
 4931SOL    HW115536   3.609   4.317   7.585
 4931SOL    HW215537   3.588   4.243   7.716
 4932SOL     OW15538   2.139   0.125   7.958
 4932SOL    HW115539   2.115   0.210   7.993
 4932SOL    HW215540   2.145   0.138   7.863
 4933SOL     OW15541   2.079   5.157   7.991
 4933SOL    HW115542   2.093   5.251   7.997
 4933SOL    HW215543   2.021   5.136   8.065
 4934SOL     OW15544   2.446   4.706   7.580
 4934SOL    HW115545   2.492   4.754   7.511
 4934SOL    HW215546   2.485   4.737   7.662
 4935SOL     OW15547   1.862   0.009   7.536
 4935SOL    HW115548   1.865   5.221   7.573
 4935SOL    HW215549   1.861   0.067   7.613
 4936SOL     OW15550   3.544   4.589   8.032
 4936SOL    HW115551   3.623   4.600   0.006
 4936SOL    HW215552   3.532   4.673   7.990
 4937SOL     OW15553   3.519   4.824   7.877
 4937SOL    HW115554   3.607   4.844   7.846
 4937SOL    HW215555   3.498   4.896   7.936
 4938SOL     OW15556   2.664   3.719   7.940
 4938SOL    HW115557   2.713   3.799   7.921
 4938SOL    HW215558   2.573   3.748   7.947
 4939SOL     OW15559   3.394   4.721   7.649
 4939SOL    HW115560   3.328   4.661   7.683
 4939SOL    HW215561   3.438   4.755   7.727
 4940SOL     OW15562   2.453   4.448   7.709
 4940SOL    HW115563   2.456   4.530   7.660
 4940SOL    HW215564   2.393   4.465   7.781
 4941SOL     OW15565   1.921   4.587   0.087
 4941SOL    HW115566   1.985   4.521   0.114
 4941SOL    HW215567   1.919   4.650   0.160
 4942SOL     OW15568   2.746   4.072   7.637
 4942SOL    HW115569   2.789   4.132   7.577
 4942SOL    HW215570   2.779   3.985   7.613
 4943SOL     OW15571   2.184   4.680   7.697
 4943SOL    HW115572   2.265   4.697   7.648
 4943SOL    HW215573   2.147   4.601   7.657
 4944SOL     OW15574   2.951   0.188   7.644
 4944SOL    HW115575   2.922   0.123   7.708
 4944SOL    HW215576   2.946   0.143   7.559
 4945SOL     OW15577   3.489   5.100   7.551
 4945SOL    HW115578   3.475   5.179   7.500
 4945SOL    HW215579   3.419   5.041   7.522
 4946SOL     OW15580   3.278   3.856   7.864
 4946SOL    HW115581   3.267   3.821   7.775
 4946SOL    HW215582   3.373   3.855   7.878
 4947SOL     OW15583   2.254   4.423   7.917
 4947SOL    HW115584   2.255   4.327   7.927
 4947SOL    HW215585   2.163   4.447   7.934
 4948SOL     OW15586   2.492   3.843   7.559
 4948SOL    HW115587   2.566   3.783   7.569
 4948SOL    HW215588   2.447   3.812   7.480
 4949SOL     OW15589   2.394   3.799   7.959
 4949SOL    HW115590   2.309   3.803   8.002
 4949SOL    HW215591   2.393   3.870   7.895
 4950SOL     OW15592   3.290   4.925   7.487
 4950SOL    HW115593   3.319   4.850   7.539
 4950SOL    HW215594   3.202   4.944   7.520
 4951SOL     OW15595   2.154   3.773   7.633
 4951SOL    HW115596   2.213   3.834   7.587
 4951SOL    HW215597   2.213   3.709   7.672
 4952SOL     OW15598   2.806   3.950   7.909
 4952SOL    HW115599   2.763   4.015   7.854
 4952SOL    HW215600   2.897   3.979   7.914
 4953SOL     OW15601   2.301   4.873   0.099
 4953SOL    HW115602   2.227   4.913   0.145
 4953SOL    HW215603   2.270   4.861   0.009
 4954SOL     OW15604   2.887   4.265   7.468
 4954SOL    HW115605   2.841   4.347   7.451
 4954SOL    HW215606   2.947   4.285   7.539
 4955SOL     OW15607   3.735   4.539   7.801
 4955SOL    HW115608   3.724   4.514   7.893
 4955SOL    HW215609   3.695   4.467   7.753
 4956SOL     OW15610   2.333   5.152   7.599
 4956SOL    HW115611   2.277   5.099   7.656
 4956SOL    HW215612   2.343   5.100   7.520
 4957SOL     OW15613   3.256   4.296   7.519
 4957SOL    HW115614   3.195   4.275   7.590
 4957SOL    HW215615   3.340   4.262   7.550
 4958SOL     OW15616   2.387   3.990   7.770
 4958SOL    HW115617   2.432   3.940   7.701
 4958SOL    HW215618   2.364   4.073   7.728
 4959SOL     OW15619   2.571   4.784   7.812
 4959SOL    HW115620   2.546   4.770   7.903
 4959SOL    HW215621   2.651   4.733   7.800
 4960SOL     OW15622   2.226   4.828   7.926
 4960SOL    HW115623   2.203   4.907   7.877
 4960SOL    HW215624   2.214   4.756   7.863
 4961SOL     OW15625   3.087   5.115   7.832
 4961SOL    HW115626   3.173   5.124   7.872
 4961SOL    HW215627   3.037   5.061   7.894
 4962SOL     OW15628   3.450   4.350   7.921
 4962SOL    HW115629   3.438   4.409   7.995
 4962SOL    HW215630   3.488   4.405   7.852
 4963SOL     OW15631   3.065   4.250   7.714
 4963SOL    HW115632   3.067   4.167   7.762
 4963SOL    HW215633   3.040   4.315   7.780
 4964SOL     OW15634   3.481   4.103   7.813
 4964SOL    HW115635   3.503   4.037   7.878
 4964SOL    HW215636   3.457   4.180   7.864
 4965SOL     OW15637   3.391   3.999   7.575
 4965SOL    HW115638   3.326   3.933   7.600
 4965SOL    HW215639   3.423   4.034   7.658
 4966SOL     OW15640   3.156   4.551   7.481
 4966SOL    HW115641   3.197   4.465   7.482
 4966SOL    HW215642   3.186   4.590   7.399
 4967SOL     OW15643   1.871   5.044   7.640
 4967SOL    HW115644   1.780   5.058   7.612
 4967SOL    HW215645   1.872   4.955   7.675
 4968SOL     OW15646   2.703   4.327   7.759
 4968SOL    HW115647   2.695   4.236   7.733
 4968SOL    HW215648   2.613   4.360   7.760
 4969SOL     OW15649   2.322   4.217   7.642
 4969SOL    HW115650   2.382   4.291   7.657
 4969SOL    HW215651   2.238   4.258   7.623
 4970SOL     OW15652   3.172   4.578   7.754
 4970SOL    HW115653   3.085   4.582   7.793
 4970SOL    HW215654   3.156   4.566   7.660
 4971SOL     OW15655   3.574   3.872   7.946
 4971SOL    HW115656   3.651   3.864   7.889
 4971SOL    HW215657   3.578   3.794   8.001
 4972SOL     OW15658   2.791   4.632   7.759
 4972SOL    HW115659   2.842   4.658   7.682
 4972SOL    HW215660   2.781   4.538   7.751
 4973SOL     OW15661   2.120   5.056   7.747
 4973SOL    HW115662   2.029   5.059   7.718
 4973SOL    HW215663   2.119   5.096   7.834
 4974SOL     OW15664   1.940   4.056   7.483
 4974SOL    HW115665   1.854   4.037   7.446
 4974SOL    HW215666   1.971   4.132   7.433
 4975SOL     OW15667   1.931   3.881   7.757
 4975SOL    HW115668   1.915   3.957   7.701
 4975SOL    HW215669   2.014   3.845   7.726
 4976SOL     OW15670   3.043   5.057   7.565
 4976SOL    HW115671   2.950   5.032   7.562
 4976SOL    HW215672   3.061   5.074   7.657
 4977SOL     OW15673   3.076   4.042   7.904
 4977SOL    HW115674   3.150   3.981   7.892
 4977SOL    HW215675   3.097   4.089   7.984
 4978SOL     OW15676   2.489   4.459   8.055
 4978SOL    HW115677   2.493   4.541   0.024
 4978SOL    HW215678   2.402   4.459   8.015
 4979SOL     OW15679   2.713   5.093   7.466
 4979SOL    HW115680   2.696   5.093   7.561
 4979SOL    HW215681   2.723   5.186   7.444
 4980SOL     OW15682   2.935   4.703   7.539
 4980SOL    HW115683   2.915   4.759   7.464
 4980SOL    HW215684   3.012   4.654   7.512
 4981SOL     OW15685   2.249   4.152   7.984
 4981SOL    HW115686   2.299   4.100   7.921
 4981SOL    HW215687   2.300   4.148   8.064
 4982SOL     OW15688   2.668   5.049   7.730
 4982SOL    HW115689   2.616   4.971   7.750
 4982SOL    HW215690   2.683   5.090   7.816
 4983SOL     OW15691   3.215   3.776   7.610
 4983SOL    HW115692   3.244   3.708   7.550
 4983SOL    HW215693   3.128   3.748   7.638
 4984SOL     OW15694   1.913   4.801   7.750
 4984SOL    HW115695   2.008   4.793   7.738
 4984SOL    HW215696   1.883   4.711   7.765
 4985SOL     OW15697   3.939   0.623   0.121
 4985SOL    HW115698   3.860   0.589   0.163
 4985SOL    HW215699   3.965   0.556   0.058
 4986SOL     OW15700   3.941   0.285   0.993
 4986SOL    HW115701   3.970   0.249   1.077
 4986SOL    HW215702   3.857   0.243   0.977
 4987SOL     OW15703   3.727   0.387   0.637
 4987SOL    HW115704   3.643   0.409   0.678
 4987SOL    HW215705   3.709   0.309   0.585
 4988SOL     OW15706   4.291   1.290   1.176
 4988SOL    HW115707   4.204   1.293   1.138
 4988SOL    HW215708   4.307   1.378   1.209
 4989SOL     OW15709   5.284   1.549   0.707
 4989SOL    HW115710   5.249   1.496   0.778
 4989SOL    HW215711   5.226   1.533   0.633
 4990SOL     OW15712   4.860   0.699   0.700
 4990SOL    HW115713   4.910   0.780   0.690
 4990SOL    HW215714   4.810   0.711   0.781
 4991SOL     OW15715   4.478   1.142   1.042
 4991SOL    HW115716   4.409   1.177   1.099
 4991SOL    HW215717   4.513   1.218   0.997
 4992SOL     OW15718   4.594   0.775   1.824
 4992SOL    HW115719   4.575   0.847   1.884
 4992SOL    HW215720   4.616   0.818   1.741
 4993SOL     OW15721   4.409   1.001   0.649
 4993SOL    HW115722   4.474   0.990   0.718
 4993SOL    HW215723   4.340   1.054   0.690
 4994SOL     OW15724   4.436   1.151   1.814
 4994SOL    HW115725   4.483   1.229   1.841
 4994SOL    HW215726   4.354   1.184   1.777
 4995SOL     OW15727   4.054   1.424   1.068
 4995SOL    HW115728   3.982   1.386   1.018
 4995SOL    HW215729   4.104   1.475   1.003
 4996SOL     OW15730   5.161   1.480   1.354
 4996SOL    HW115731   5.208   1.559   1.378
 4996SOL    HW215732   5.101   1.464   1.427
 4997SOL     OW15733   4.169   0.398   1.484
 4997SOL    HW115734   4.244   0.339   1.484
 4997SOL    HW215735   4.094   0.341   1.501
 4998SOL     OW15736   3.944   1.715   0.470
 4998SOL    HW115737   3.965   1.790   0.525
 4998SOL    HW215738   4.020   1.706   0.412
 4999SOL     OW15739   4.859   1.340   1.694
 4999SOL    HW115740   4.898   1.336   1.782
 4999SOL    HW215741   4.807   1.260   1.687
 5000SOL     OW15742   3.950   1.441   0.529
 5000SOL    HW115743   3.937   1.535   0.533
 5000SOL    HW215744   3.893   1.405   0.596
 5001SOL     OW15745   3.983   1.090   0.891
 5001SOL    HW115746   3.980   1.003   0.932
 5001SOL    HW215747   3.925   1.144   0.945
 5002SOL     OW15748   4.332   1.793   1.426
 5002SOL    HW115749   4.251   1.774   1.474
 5002SOL    HW215750   4.356   1.881   1.453
 5003SOL     OW15751   4.352   0.960   0.135
 5003SOL    HW115752   4.299   1.035   0.110
 5003SOL    HW215753   4.404   0.990   0.210
 5004SOL     OW15754   5.250   0.144   1.479
 5004SOL    HW115755   5.300   0.224   1.462
 5004SOL    HW215756   5.274   0.120   1.569
 5005SOL     OW15757   3.839   0.652   0.562
 5005SOL    HW115758   3.810   0.563   0.583
 5005SOL    HW215759   3.831   0.700   0.645
 5006SOL     OW15760   3.755   1.595   0.110
 5006SOL    HW115761   3.741   1.507   0.145
 5006SOL    HW215762   3.738   1.653   0.184
 5007SOL     OW15763   0.115   0.946   0.595
 5007SOL    HW115764   0.202   0.908   0.590
 5007SOL    HW215765   0.114   1.014   0.527
 5008SOL     OW15766   3.847   0.744   1.584
 5008SOL    HW115767   3.939   0.771   1.591
 5008SOL    HW215768   3.798   0.826   1.592
 5009SOL     OW15769   4.338   1.387   0.735
 5009SOL    HW115770   4.292   1.304   0.744
 5009SOL    HW215771   4.322   1.413   0.644
 5010SOL     OW15772   5.005   1.236   1.425
 5010SOL    HW115773   5.038   1.169   1.364
 5010SOL    HW215774   5.061   1.228   1.502
 5011SOL     OW15775   4.536   0.029   0.529
 5011SOL    HW115776   4.566   0.114   0.499
 5011SOL    HW215777   4.441   0.032   0.523
 5012SOL     OW15778   3.914   0.966   1.272
 5012SOL    HW115779   3.999   0.924   1.257
 5012SOL    HW215780   3.852   0.911   1.223
 5013SOL     OW15781   4.896   1.808   1.624
 5013SOL    HW115782   4.916   1.867   1.552
 5013SOL    HW215783   4.919   1.721   1.591
 5014SOL     OW15784   4.051   0.268   1.812
 5014SOL    HW115785   4.103   0.342   1.843
 5014SOL    HW215786   3.965   0.281   1.852
 5015SOL     OW15787   5.168   1.435   0.934
 5015SOL    HW115788   5.106   1.442   1.007
 5015SOL    HW215789   5.162   1.344   0.906
 5016SOL     OW15790   4.322   0.714   0.283
 5016SOL    HW115791   4.339   0.793   0.232
 5016SOL    HW215792   4.257   0.740   0.347
 5017SOL     OW15793   4.995   0.329   0.919
 5017SOL    HW115794   4.906   0.305   0.942
 5017SOL    HW215795   5.048   0.300   0.994
 5018SOL     OW15796   4.517   0.619   1.449
 5018SOL    HW115797   4.490   0.596   1.538
 5018SOL    HW215798   4.476   0.552   1.394
 5019SOL     OW15799   5.116   0.488   1.680
 5019SOL    HW115800   5.119   0.521   1.769
 5019SOL    HW215801   5.182   0.418   1.678
 5020SOL     OW15802   4.678   0.888   1.583
 5020SOL    HW115803   4.730   0.816   1.547
 5020SOL    HW215804   4.629   0.922   1.508
 5021SOL     OW15805   4.718   0.423   1.230
 5021SOL    HW115806   4.632   0.436   1.271
 5021SOL    HW215807   4.700   0.367   1.154
 5022SOL     OW15808   4.778   0.698   0.427
 5022SOL    HW115809   4.794   0.692   0.521
 5022SOL    HW215810   4.694   0.653   0.414
 5023SOL     OW15811   3.813   0.822   0.776
 5023SOL    HW115812   3.893   0.814   0.828
 5023SOL    HW215813   3.769   0.899   0.812
 5024SOL     OW15814   3.850   1.851   1.579
 5024SOL    HW115815   3.851   1.830   1.672
 5024SOL    HW215816   3.759   1.839   1.552
 5025SOL     OW15817   4.607   0.360   0.200
 5025SOL    HW115818   4.654   0.401   0.127
 5025SOL    HW215819   4.589   0.272   0.169
 5026SOL     OW15820   5.096   1.149   0.550
 5026SOL    HW115821   5.179   1.143   0.502
 5026SOL    HW215822   5.042   1.206   0.496
 5027SOL     OW15823   4.246   0.202   0.882
 5027SOL    HW115824   4.270   0.217   0.974
 5027SOL    HW215825   4.271   0.283   0.838
 5028SOL     OW15826   4.729   1.444   0.473
 5028SOL    HW115827   4.690   1.516   0.423
 5028SOL    HW215828   4.708   1.464   0.564
 5029SOL     OW15829   4.078   1.810   0.863
 5029SOL    HW115830   4.122   1.725   0.871
 5029SOL    HW215831   4.147   1.874   0.882
 5030SOL     OW15832   4.940   1.541   1.518
 5030SOL    HW115833   4.927   1.468   1.580
 5030SOL    HW215834   4.880   1.522   1.446
 5031SOL     OW15835   4.048   0.943   0.257
 5031SOL    HW115836   4.115   0.985   0.204
 5031SOL    HW215837   4.050   0.851   0.230
 5032SOL     OW15838   4.191   1.265   1.738
 5032SOL    HW115839   4.164   1.269   1.646
 5032SOL    HW215840   4.108   1.263   1.787
 5033SOL     OW15841   4.823   1.774   0.224
 5033SOL    HW115842   4.768   1.734   0.292
 5033SOL    HW215843   4.839   1.703   0.162
 5034SOL     OW15844   3.921   0.277   1.504
 5034SOL    HW115845   3.842   0.331   1.501
 5034SOL    HW215846   3.914   0.228   1.585
 5035SOL     OW15847   4.188   1.737   0.323
 5035SOL    HW115848   4.231   1.796   0.385
 5035SOL    HW215849   4.258   1.710   0.264
 5036SOL     OW15850   5.099   0.115   0.444
 5036SOL    HW115851   5.092   0.073   0.358
 5036SOL    HW215852   5.192   0.129   0.457
 5037SOL     OW15853   3.979   1.791   1.231
 5037SOL    HW115854   4.031   1.725   1.277
 5037SOL    HW215855   3.971   1.757   1.142
 5038SOL     OW15856   4.662   1.698   0.898
 5038SOL    HW115857   4.743   1.649   0.915
 5038SOL    HW215858   4.618   1.649   0.829
 5039SOL     OW15859   4.111   0.698   0.476
 5039SOL    HW115860   4.134   0.606   0.487
 5039SOL    HW215861   4.018   0.702   0.499
 5040SOL     OW15862   4.348   0.138   0.123
 5040SOL    HW115863   4.439   0.110   0.134
 5040SOL    HW215864   4.320   0.099   0.040
 5041SOL     OW15865   4.507   0.310   1.767
 5041SOL    HW115866   4.573   0.240   1.766
 5041SOL    HW215867   4.459   0.297   1.848
 5042SOL     OW15868   4.599   1.522   1.194
 5042SOL    HW115869   4.584   1.486   1.106
 5042SOL    HW215870   4.670   1.468   1.230
 5043SOL     OW15871   5.060   0.592   1.431
 5043SOL    HW115872   5.089   0.562   1.517
 5043SOL    HW215873   5.099   0.679   1.421
 5044SOL     OW15874   4.539   1.394   0.941
 5044SOL    HW115875   4.623   1.382   0.897
 5044SOL    HW215876   4.476   1.397   0.869
 5045SOL     OW15877   4.651   0.511   0.902
 5045SOL    HW115878   4.628   0.501   0.809
 5045SOL    HW215879   4.681   0.424   0.928
 5046SOL     OW15880   4.266   0.061   0.510
 5046SOL    HW115881   4.180   0.058   0.552
 5046SOL    HW215882   4.259   0.130   0.445
 5047SOL     OW15883   5.139   1.171   0.045
 5047SOL    HW115884   5.134   1.099   0.107
 5047SOL    HW215885   5.055   1.217   0.055
 5048SOL     OW15886   4.024   0.071   0.206
 5048SOL    HW115887   4.081   0.141   0.176
 5048SOL    HW215888   4.077   5.291   0.196
 5049SOL     OW15889   4.668   0.258   0.452
 5049SOL    HW115890   4.641   0.304   0.372
 5049SOL    HW215891   4.760   0.282   0.464
 5050SOL     OW15892   4.802   0.681   1.461
 5050SOL    HW115893   4.733   0.615   1.462
 5050SOL    HW215894   4.883   0.632   1.450
 5051SOL     OW15895   4.940   1.572   0.796
 5051SOL    HW115896   4.962   1.637   0.730
 5051SOL    HW215897   5.022   1.556   0.842
 5052SOL     OW15898   4.193   1.151   0.733
 5052SOL    HW115899   4.124   1.131   0.797
 5052SOL    HW215900   4.151   1.135   0.648
 5053SOL     OW15901   4.991   1.794   0.606
 5053SOL    HW115902   5.036   1.857   0.550
 5053SOL    HW215903   4.925   1.846   0.652
 5054SOL     OW15904   4.764   0.530   0.024
 5054SOL    HW115905   4.709   0.607   0.005
 5054SOL    HW215906   4.813   0.555   0.103
 5055SOL     OW15907   3.803   0.553   1.393
 5055SOL    HW115908   3.895   0.553   1.365
 5055SOL    HW215909   3.798   0.624   1.457
 5056SOL     OW15910   4.279   0.238   1.158
 5056SOL    HW115911   4.312   0.153   1.188
 5056SOL    HW215912   4.187   0.239   1.185
 5057SOL     OW15913   4.592   0.461   0.639
 5057SOL    HW115914   4.548   0.514   0.573
 5057SOL    HW215915   4.612   0.379   0.594
 5058SOL     OW15916   4.695   0.064   0.765
 5058SOL    HW115917   4.633   0.055   0.692
 5058SOL    HW215918   4.716   5.274   0.790
 5059SOL     OW15919   5.157   1.176   0.849
 5059SOL    HW115920   5.103   1.098   0.864
 5059SOL    HW215921   5.165   1.181   0.754
 5060SOL     OW15922   4.207   1.440   0.172
 5060SOL    HW115923   4.134   1.398   0.219
 5060SOL    HW215924   4.214   1.390   0.091
 5061SOL     OW15925   5.125   0.574   0.085
 5061SOL    HW115926   5.049   0.556   0.140
 5061SOL    HW215927   5.200   0.550   0.140
 5062SOL     OW15928   4.246   0.269   0.329
 5062SOL    HW115929   4.288   0.213   0.262
 5062SOL    HW215930   4.229   0.352   0.284
 5063SOL     OW15931   4.779   1.355   1.334
 5063SOL    HW115932   4.704   1.323   1.384
 5063SOL    HW215933   4.855   1.312   1.374
 5064SOL     OW15934   0.007   1.605   1.615
 5064SOL    HW115935   0.041   1.609   1.526
 5064SOL    HW215936   0.083   1.584   1.669
 5065SOL     OW15937   4.855   1.205   1.106
 5065SOL    HW115938   4.791   1.239   1.169
 5065SOL    HW215939   4.821   1.233   1.021
 5066SOL     OW15940   4.623   0.105   1.385
 5066SOL    HW115941   4.657   0.070   1.303
 5066SOL    HW215942   4.699   0.148   1.425
 5067SOL     OW15943   4.709   1.113   1.725
 5067SOL    HW115944   4.617   1.131   1.746
 5067SOL    HW215945   4.706   1.036   1.668
 5068SOL     OW15946   4.440   1.064   0.381
 5068SOL    HW115947   4.421   1.045   0.473
 5068SOL    HW215948   4.517   1.011   0.361
 5069SOL     OW15949   4.143   0.816   1.251
 5069SOL    HW115950   4.211   0.825   1.318
 5069SOL    HW215951   4.108   0.728   1.265
 5070SOL     OW15952   4.991   0.380   1.270
 5070SOL    HW115953   5.024   0.459   1.314
 5070SOL    HW215954   4.900   0.402   1.248
 5071SOL     OW15955   3.795   1.573   1.354
 5071SOL    HW115956   3.766   1.647   1.299
 5071SOL    HW215957   3.891   1.575   1.348
 5072SOL     OW15958   4.067   1.111   0.491
 5072SOL    HW115959   4.073   1.183   0.429
 5072SOL    HW215960   4.075   1.032   0.437
 5073SOL     OW15961   4.276   0.537   0.860
 5073SOL    HW115962   4.292   0.596   0.786
 5073SOL    HW215963   4.343   0.562   0.925
 5074SOL     OW15964   4.971   1.347   0.392
 5074SOL    HW115965   5.026   1.420   0.419
 5074SOL    HW215966   4.883   1.370   0.424
 5075SOL     OW15967   4.996   1.457   1.140
 5075SOL    HW115968   5.050   1.458   1.219
 5075SOL    HW215969   4.942   1.378   1.149
 5076SOL     OW15970   4.070   1.528   1.314
 5076SOL    HW115971   4.058   1.485   1.230
 5076SOL    HW215972   4.165   1.540   1.322
 5077SOL     OW15973   4.139   0.744   1.602
 5077SOL    HW115974   4.201   0.789   1.544
 5077SOL    HW215975   4.179   0.659   1.620
 5078SOL     OW15976   4.755   0.120   1.754
 5078SOL    HW115977   4.798   0.201   1.730
 5078SOL    HW215978   4.797   0.053   1.700
 5079SOL     OW15979   4.203   0.058   1.736
 5079SOL    HW115980   4.142   5.294   1.699
 5079SOL    HW215981   4.148   0.133   1.759
 5080SOL     OW15982   4.307   0.873   1.031
 5080SOL    HW115983   4.339   0.964   1.032
 5080SOL    HW215984   4.251   0.867   1.108
 5081SOL     OW15985   5.085   0.856   1.038
 5081SOL    HW115986   5.010   0.837   0.982
 5081SOL    HW215987   5.142   0.779   1.029
 5082SOL     OW15988   4.927   0.531   0.266
 5082SOL    HW115989   4.931   0.448   0.314
 5082SOL    HW215990   4.883   0.591   0.326
 5083SOL     OW15991   4.019   0.203   1.248
 5083SOL    HW115992   3.980   0.242   1.326
 5083SOL    HW215993   4.021   0.109   1.267
 5084SOL     OW15994   3.770   1.311   1.276
 5084SOL    HW115995   3.803   1.256   1.347
 5084SOL    HW215996   3.777   1.400   1.309
 5085SOL     OW15997   4.449   0.632   1.059
 5085SOL    HW115998   4.523   0.615   1.001
 5085SOL    HW215999   4.421   0.720   1.036
 5086SOL     OW16000   4.028   0.070   0.654
 5086SOL    HW116001   4.008   0.164   0.659
 5086SOL    HW216002   4.076   0.052   0.735
 5087SOL     OW16003   0.040   0.410   0.360
 5087SOL    HW116004   0.060   0.349   0.430
 5087SOL    HW216005   0.006   0.487   0.404
 5088SOL     OW16006   4.751   0.759   0.960
 5088SOL    HW116007   4.749   0.776   1.054
 5088SOL    HW216008   4.725   0.667   0.951
 5089SOL     OW16009   4.697   1.562   1.714
 5089SOL    HW116010   4.686   1.609   1.632
 5089SOL    HW216011   4.745   1.482   1.690
 5090SOL     OW16012   4.077   0.917   1.808
 5090SOL    HW116013   4.159   0.935   1.855
 5090SOL    HW216014   4.101   0.853   1.741
 5091SOL     OW16015   5.032   0.831   0.027
 5091SOL    HW116016   5.060   0.741   0.042
 5091SOL    HW216017   5.057   0.849   8.016
 5092SOL     OW16018   4.789   1.334   0.856
 5092SOL    HW116019   4.793   1.263   0.793
 5092SOL    HW216020   4.847   1.402   0.820
 5093SOL     OW16021   4.033   0.808   0.947
 5093SOL    HW116022   4.126   0.830   0.941
 5093SOL    HW216023   4.031   0.718   0.978
 5094SOL     OW16024   4.055   0.527   1.012
 5094SOL    HW116025   4.019   0.440   0.998
 5094SOL    HW216026   4.132   0.531   0.955
 5095SOL     OW16027   4.862   0.377   1.691
 5095SOL    HW116028   4.811   0.431   1.752
 5095SOL    HW216029   4.946   0.422   1.683
 5096SOL     OW16030   4.845   0.234   1.458
 5096SOL    HW116031   4.857   0.284   1.540
 5096SOL    HW216032   4.910   0.271   1.398
 5097SOL     OW16033   3.736   1.323   0.189
 5097SOL    HW116034   3.650   1.337   0.151
 5097SOL    HW216035   3.734   1.233   0.222
 5098SOL     OW16036   3.814   1.786   0.938
 5098SOL    HW116037   3.784   1.707   0.894
 5098SOL    HW216038   3.904   1.799   0.907
 5099SOL     OW16039   4.220   1.574   0.905
 5099SOL    HW116040   4.288   1.636   0.930
 5099SOL    HW216041   4.264   1.511   0.848
 5100SOL     OW16042   4.705   0.793   1.227
 5100SOL    HW116043   4.761   0.769   1.300
 5100SOL    HW216044   4.621   0.752   1.246
 5101SOL     OW16045   3.759   0.545   1.117
 5101SOL    HW116046   3.839   0.530   1.066
 5101SOL    HW216047   3.790   0.548   1.208
 5102SOL     OW16048   3.910   0.523   1.728
 5102SOL    HW116049   3.974   0.486   1.666
 5102SOL    HW216050   3.872   0.597   1.681
 5103SOL     OW16051   5.114   0.937   1.666
 5103SOL    HW116052   5.121   1.031   1.654
 5103SOL    HW216053   5.117   0.900   1.578
 5104SOL     OW16054   4.543   0.571   0.367
 5104SOL    HW116055   4.550   0.499   0.305
 5104SOL    HW216056   4.466   0.620   0.339
 5105SOL     OW16057   3.966   1.551   1.727
 5105SOL    HW116058   3.944   1.615   1.794
 5105SOL    HW216059   3.969   1.467   1.773
 5106SOL     OW16060   4.424   0.451   1.260
 5106SOL    HW116061   4.373   0.378   1.227
 5106SOL    HW216062   4.423   0.515   1.188
 5107SOL     OW16063   4.644   1.680   1.469
 5107SOL    HW116064   4.622   1.646   1.382
 5107SOL    HW216065   4.644   1.775   1.458
 5108SOL     OW16066   4.191   0.493   0.176
 5108SOL    HW116067   4.259   0.557   0.196
 5108SOL    HW216068   4.109   0.539   0.193
 5109SOL     OW16069   3.869   1.141   1.472
 5109SOL    HW116070   3.871   1.090   1.554
 5109SOL    HW216071   3.886   1.077   1.404
 5110SOL     OW16072   5.053   1.049   1.224
 5110SOL    HW116073   5.073   0.983   1.158
 5110SOL    HW216074   4.982   1.101   1.185
 5111SOL     OW16075   5.025   0.869   0.319
 5111SOL    HW116076   4.947   0.826   0.354
 5111SOL    HW216077   5.022   0.851   0.225
 5112SOL     OW16078   4.959   1.731   1.121
 5112SOL    HW116079   5.045   1.753   1.083
 5112SOL    HW216080   4.960   1.636   1.131
 5113SOL     OW16081   3.808   1.267   1.011
 5113SOL    HW116082   3.793   1.280   1.105
 5113SOL    HW216083   3.736   1.212   0.983
 5114SOL     OW16084   4.401   1.666   1.730
 5114SOL    HW116085   4.348   1.745   1.723
 5114SOL    HW216086   4.471   1.677   1.666
 5115SOL     OW16087   4.614   0.084   0.142
 5115SOL    HW116088   4.662   0.072   0.060
 5115SOL    HW216089   4.627   0.002   0.189
 5116SOL     OW16090   5.108   1.572   0.478
 5116SOL    HW116091   5.163   1.615   0.412
 5116SOL    HW216092   5.059   1.643   0.520
 5117SOL     OW16093   3.861   1.797   1.843
 5117SOL    HW116094   3.810   1.731   1.891
 5117SOL    HW216095   3.908   1.844   1.911
 5118SOL     OW16096   5.017   0.920   0.672
 5118SOL    HW116097   5.095   0.865   0.658
 5118SOL    HW216098   5.036   1.001   0.624
 5119SOL     OW16099   4.536   1.274   1.429
 5119SOL    HW116100   4.508   1.313   1.512
 5119SOL    HW216101   4.467   1.296   1.367
 5120SOL     OW16102   4.400   1.622   0.157
 5120SOL    HW116103   4.408   1.628   0.062
 5120SOL    HW216104   4.339   1.549   0.171
 5121SOL     OW16105   3.985   0.329   0.719
 5121SOL    HW116106   3.897   0.360   0.698
 5121SOL    HW216107   3.984   0.317   0.814
 5122SOL     OW16108   4.860   1.579   0.044
 5122SOL    HW116109   4.898   1.493   0.061
 5122SOL    HW216110   4.901   1.609   8.043
 5123SOL     OW16111   4.547   1.006   1.373
 5123SOL    HW116112   4.592   1.000   1.289
 5123SOL    HW216113   4.547   1.100   1.393
 5124SOL     OW16114   4.644   0.914   0.300
 5124SOL    HW116115   4.697   0.938   0.224
 5124SOL    HW216116   4.691   0.842   0.341
 5125SOL     OW16117   4.093   1.303   1.492
 5125SOL    HW116118   4.079   1.380   1.436
 5125SOL    HW216119   4.016   1.248   1.476
 5126SOL     OW16120   4.777   1.108   0.708
 5126SOL    HW116121   4.706   1.057   0.748
 5126SOL    HW216122   4.835   1.042   0.669
 5127SOL     OW16123   4.736   0.243   0.972
 5127SOL    HW116124   4.718   0.197   0.890
 5127SOL    HW216125   4.732   0.174   1.039
 5128SOL     OW16126   4.327   1.486   0.479
 5128SOL    HW116127   4.372   1.437   0.411
 5128SOL    HW216128   4.258   1.533   0.433
 5129SOL     OW16129   3.991   1.319   0.293
 5129SOL    HW116130   3.905   1.329   0.252
 5129SOL    HW216131   3.984   1.364   0.377
 5130SOL     OW16132   3.837   1.023   1.720
 5130SOL    HW116133   3.760   1.000   1.772
 5130SOL    HW216134   3.911   0.985   1.766
 5131SOL     OW16135   4.396   0.214   1.491
 5131SOL    HW116136   4.478   0.193   1.446
 5131SOL    HW216137   4.423   0.262   1.569
 5132SOL     OW16138   3.793   0.361   0.033
 5132SOL    HW116139   3.721   0.299   0.025
 5132SOL    HW216140   3.805   0.396   8.024
 5133SOL     OW16141   5.164   0.860   1.403
 5133SOL    HW116142   5.110   0.916   1.347
 5133SOL    HW216143   5.252   0.868   1.368
 5134SOL     OW16144   3.791   0.165   0.313
 5134SOL    HW116145   3.799   0.253   0.277
 5134SOL    HW216146   3.876   0.124   0.296
 5135SOL     OW16147   4.913   1.314   0.119
 5135SOL    HW116148   4.817   1.313   0.113
 5135SOL    HW216149   4.931   1.320   0.213
 5136SOL     OW16150   4.343   0.831   1.434
 5136SOL    HW116151   4.399   0.907   1.418
 5136SOL    HW216152   4.404   0.757   1.441
 5137SOL     OW16153   4.440   0.571   1.702
 5137SOL    HW116154   4.481   0.633   1.762
 5137SOL    HW216155   4.468   0.485   1.733
 5138SOL     OW16156   5.181   1.203   1.632
 5138SOL    HW116157   5.172   1.216   1.726
 5138SOL    HW216158   5.275   1.212   1.615
 5139SOL     OW16159   4.102   1.739   1.565
 5139SOL    HW116160   4.017   1.781   1.551
 5139SOL    HW216161   4.080   1.656   1.607
 5140SOL     OW16162   4.934   0.333   0.472
 5140SOL    HW116163   4.988   0.255   0.458
 5140SOL    HW216164   4.972   0.374   0.549
 5141SOL     OW16165   4.312   0.737   0.670
 5141SOL    HW116166   4.352   0.823   0.655
 5141SOL    HW216167   4.244   0.730   0.603
 5142SOL     OW16168   4.623   1.368   0.036
 5142SOL    HW116169   4.558   1.361   0.106
 5142SOL    HW216170   4.617   1.459   0.006
 5143SOL     OW16171   4.384   1.790   0.943
 5143SOL    HW116172   4.366   1.881   0.921
 5143SOL    HW216173   4.480   1.783   0.937
 5144SOL     OW16174   4.592   0.968   0.855
 5144SOL    HW116175   4.642   0.896   0.894
 5144SOL    HW216176   4.557   1.015   0.930
 5145SOL     OW16177   4.801   0.973   0.086
 5145SOL    HW116178   4.789   1.036   0.016
 5145SOL    HW216179   4.883   0.928   0.064
 5146SOL     OW16180   3.949   1.303   1.856
 5146SOL    HW116181   3.882   1.241   1.826
 5146SOL    HW216182   3.931   1.315   1.949
 5147SOL     OW16183   3.810   1.232   0.665
 5147SOL    HW116184   3.814   1.184   0.748
 5147SOL    HW216185   3.881   1.195   0.613
 5148SOL     OW16186   4.406   1.403   1.629
 5148SOL    HW116187   4.325   1.361   1.660
 5148SOL    HW216188   4.402   1.491   1.665
 5149SOL     OW16189   4.149   0.439   0.523
 5149SOL    HW116190   4.186   0.366   0.472
 5149SOL    HW216191   4.105   0.396   0.597
 5150SOL     OW16192   0.093   1.522   1.100
 5150SOL    HW116193   0.026   1.498   1.035
 5150SOL    HW216194   0.098   1.445   1.157
 5151SOL     OW16195   4.053   0.557   1.291
 5151SOL    HW116196   4.109   0.502   1.346
 5151SOL    HW216197   4.073   0.529   1.201
 5152SOL     OW16198   4.552   1.578   0.677
 5152SOL    HW116199   4.539   1.633   0.600
 5152SOL    HW216200   4.476   1.520   0.679
 5153SOL     OW16201   5.149   0.215   1.121
 5153SOL    HW116202   5.156   0.132   1.169
 5153SOL    HW216203   5.103   0.274   1.182
 5154SOL     OW16204   4.724   0.019   1.139
 5154SOL    HW116205   4.673   5.251   1.094
 5154SOL    HW216206   4.811   5.281   1.149
 5155SOL     OW16207   4.494   1.327   0.309
 5155SOL    HW116208   4.464   1.238   0.324
 5155SOL    HW216209   4.576   1.333   0.358
 5156SOL     OW16210   4.344   1.556   1.285
 5156SOL    HW116211   4.345   1.638   1.334
 5156SOL    HW216212   4.431   1.548   1.248
 5157SOL     OW16213   5.074   5.294   0.204
 5157SOL    HW116214   5.139   0.007   0.135
 5157SOL    HW216215   5.005   0.056   0.184
 5158SOL     OW16216   5.033   0.466   0.691
 5158SOL    HW116217   4.975   0.541   0.693
 5158SOL    HW216218   5.018   0.421   0.774
 5159SOL     OW16219   5.295   0.215   0.884
 5159SOL    HW116220   5.237   0.214   0.960
 5159SOL    HW216221   5.272   0.295   0.837
 5160SOL     OW16222   3.768   1.066   0.305
 5160SOL    HW116223   3.863   1.065   0.308
 5160SOL    HW216224   3.741   0.983   0.344
 5161SOL     OW16225   4.604   1.653   0.350
 5161SOL    HW116226   4.537   1.637   0.284
 5161SOL    HW216227   4.573   1.730   0.398
 5162SOL     OW16228   3.951   0.626   1.986
 5162SOL    HW116229   3.863   0.621   2.022
 5162SOL    HW216230   3.941   0.599   1.894
 5163SOL     OW16231   3.942   0.285   2.855
 5163SOL    HW116232   3.970   0.249   2.939
 5163SOL    HW216233   3.857   0.243   2.839
 5164SOL     OW16234   3.727   0.387   2.500
 5164SOL    HW116235   3.643   0.408   2.540
 5164SOL    HW216236   3.709   0.310   2.446
 5165SOL     OW16237   4.291   1.289   3.038
 5165SOL    HW116238   4.204   1.293   3.000
 5165SOL    HW216239   4.306   1.378   3.071
 5166SOL     OW16240   5.287   1.536   2.568
 5166SOL    HW116241   5.247   1.493   2.644
 5166SOL    HW216242   5.221   1.528   2.499
 5167SOL     OW16243   4.861   0.698   2.562
 5167SOL    HW116244   4.910   0.780   2.552
 5167SOL    HW216245   4.810   0.710   2.642
 5168SOL     OW16246   4.478   1.142   2.904
 5168SOL    HW116247   4.409   1.177   2.961
 5168SOL    HW216248   4.513   1.219   2.859
 5169SOL     OW16249   4.594   0.775   3.686
 5169SOL    HW116250   4.575   0.847   3.746
 5169SOL    HW216251   4.616   0.818   3.603
 5170SOL     OW16252   4.411   1.002   2.508
 5170SOL    HW116253   4.475   0.991   2.578
 5170SOL    HW216254   4.341   1.054   2.548
 5171SOL     OW16255   4.436   1.151   3.676
 5171SOL    HW116256   4.483   1.229   3.703
 5171SOL    HW216257   4.354   1.184   3.639
 5172SOL     OW16258   4.055   1.424   2.930
 5172SOL    HW116259   3.982   1.386   2.881
 5172SOL    HW216260   4.103   1.475   2.865
 5173SOL     OW16261   5.161   1.480   3.216
 5173SOL    HW116262   5.208   1.559   3.240
 5173SOL    HW216263   5.101   1.464   3.289
 5174SOL     OW16264   4.169   0.398   3.346
 5174SOL    HW116265   4.244   0.339   3.346
 5174SOL    HW216266   4.094   0.341   3.363
 5175SOL     OW16267   3.943   1.715   2.333
 5175SOL    HW116268   3.964   1.791   2.387
 5175SOL    HW216269   4.017   1.707   2.273
 5176SOL     OW16270   4.859   1.340   3.556
 5176SOL    HW116271   4.898   1.336   3.644
 5176SOL    HW216272   4.807   1.260   3.549
 5177SOL     OW16273   3.955   1.442   2.397
 5177SOL    HW116274   3.937   1.536   2.400
 5177SOL    HW216275   3.895   1.404   2.462
 5178SOL     OW16276   3.983   1.090   2.753
 5178SOL    HW116277   3.979   1.003   2.793
 5178SOL    HW216278   3.925   1.144   2.807
 5179SOL     OW16279   4.332   1.792   3.289
 5179SOL    HW116280   4.251   1.774   3.337
 5179SOL    HW216281   4.356   1.881   3.315
 5180SOL     OW16282   4.309   0.982   1.997
 5180SOL    HW116283   4.355   1.031   1.929
 5180SOL    HW216284   4.348   1.013   2.079
 5181SOL     OW16285   5.251   0.143   3.341
 5181SOL    HW116286   5.299   0.223   3.323
 5181SOL    HW216287   5.272   0.121   3.432
 5182SOL     OW16288   3.839   0.654   2.422
 5182SOL    HW116289   3.811   0.565   2.443
 5182SOL    HW216290   3.831   0.702   2.504
 5183SOL     OW16291   3.757   1.594   1.985
 5183SOL    HW116292   3.739   1.502   2.005
 5183SOL    HW216293   3.733   1.641   2.065
 5184SOL     OW16294   0.113   0.940   2.438
 5184SOL    HW116295   0.201   0.904   2.450
 5184SOL    HW216296   0.127   1.027   2.401
 5185SOL     OW16297   3.847   0.744   3.446
 5185SOL    HW116298   3.938   0.771   3.453
 5185SOL    HW216299   3.797   0.826   3.454
 5186SOL     OW16300   4.338   1.386   2.598
 5186SOL    HW116301   4.292   1.303   2.607
 5186SOL    HW216302   4.321   1.413   2.507
 5187SOL     OW16303   5.005   1.235   3.286
 5187SOL    HW116304   5.039   1.169   3.226
 5187SOL    HW216305   5.061   1.228   3.364
 5188SOL     OW16306   4.536   0.028   2.392
 5188SOL    HW116307   4.564   0.116   2.366
 5188SOL    HW216308   4.440   0.031   2.385
 5189SOL     OW16309   3.914   0.965   3.135
 5189SOL    HW116310   3.999   0.924   3.119
 5189SOL    HW216311   3.852   0.912   3.085
 5190SOL     OW16312   4.896   1.808   3.486
 5190SOL    HW116313   4.916   1.868   3.414
 5190SOL    HW216314   4.919   1.721   3.453
 5191SOL     OW16315   4.051   0.267   3.674
 5191SOL    HW116316   4.103   0.342   3.705
 5191SOL    HW216317   3.965   0.281   3.714
 5192SOL     OW16318   5.168   1.436   2.797
 5192SOL    HW116319   5.106   1.442   2.870
 5192SOL    HW216320   5.161   1.344   2.768
 5193SOL     OW16321   4.318   0.721   2.129
 5193SOL    HW116322   4.322   0.803   2.080
 5193SOL    HW216323   4.253   0.737   2.197
 5194SOL     OW16324   4.996   0.328   2.779
 5194SOL    HW116325   4.906   0.305   2.803
 5194SOL    HW216326   5.049   0.300   2.854
 5195SOL     OW16327   4.518   0.618   3.311
 5195SOL    HW116328   4.490   0.596   3.400
 5195SOL    HW216329   4.477   0.552   3.256
 5196SOL     OW16330   5.116   0.488   3.542
 5196SOL    HW116331   5.119   0.522   3.631
 5196SOL    HW216332   5.183   0.419   3.540
 5197SOL     OW16333   4.678   0.888   3.445
 5197SOL    HW116334   4.730   0.816   3.409
 5197SOL    HW216335   4.629   0.922   3.370
 5198SOL     OW16336   4.718   0.422   3.092
 5198SOL    HW116337   4.633   0.436   3.133
 5198SOL    HW216338   4.700   0.368   3.016
 5199SOL     OW16339   4.775   0.698   2.287
 5199SOL    HW116340   4.791   0.691   2.381
 5199SOL    HW216341   4.692   0.652   2.274
 5200SOL     OW16342   3.812   0.821   2.639
 5200SOL    HW116343   3.893   0.814   2.690
 5200SOL    HW216344   3.769   0.899   2.674
 5201SOL     OW16345   3.850   1.851   3.441
 5201SOL    HW116346   3.851   1.830   3.534
 5201SOL    HW216347   3.759   1.839   3.414
 5202SOL     OW16348   4.601   0.363   2.052
 5202SOL    HW116349   4.635   0.419   1.983
 5202SOL    HW216350   4.655   0.284   2.048
 5203SOL     OW16351   5.093   1.148   2.411
 5203SOL    HW116352   5.181   1.151   2.373
 5203SOL    HW216353   5.042   1.206   2.355
 5204SOL     OW16354   4.248   0.202   2.744
 5204SOL    HW116355   4.271   0.217   2.836
 5204SOL    HW216356   4.270   0.284   2.700
 5205SOL     OW16357   4.729   1.443   2.334
 5205SOL    HW116358   4.692   1.516   2.284
 5205SOL    HW216359   4.710   1.464   2.425
 5206SOL     OW16360   4.078   1.810   2.725
 5206SOL    HW116361   4.122   1.725   2.733
 5206SOL    HW216362   4.147   1.874   2.744
 5207SOL     OW16363   4.940   1.541   3.380
 5207SOL    HW116364   4.927   1.468   3.441
 5207SOL    HW216365   4.879   1.523   3.309
 5208SOL     OW16366   4.043   0.958   2.113
 5208SOL    HW116367   4.125   0.976   2.067
 5208SOL    HW216368   4.012   0.876   2.075
 5209SOL     OW16369   4.190   1.265   3.600
 5209SOL    HW116370   4.164   1.269   3.508
 5209SOL    HW216371   4.108   1.263   3.649
 5210SOL     OW16372   4.832   1.774   2.099
 5210SOL    HW116373   4.759   1.730   2.143
 5210SOL    HW216374   4.857   1.715   2.028
 5211SOL     OW16375   3.921   0.278   3.365
 5211SOL    HW116376   3.842   0.331   3.363
 5211SOL    HW216377   3.914   0.229   3.447
 5212SOL     OW16378   4.189   1.737   2.182
 5212SOL    HW116379   4.232   1.794   2.246
 5212SOL    HW216380   4.261   1.705   2.127
 5213SOL     OW16381   5.096   0.098   2.281
 5213SOL    HW116382   5.083   0.081   2.188
 5213SOL    HW216383   5.190   0.118   2.289
 5214SOL     OW16384   3.979   1.791   3.093
 5214SOL    HW116385   4.031   1.724   3.139
 5214SOL    HW216386   3.970   1.758   3.004
 5215SOL     OW16387   4.662   1.698   2.760
 5215SOL    HW116388   4.742   1.648   2.778
 5215SOL    HW216389   4.618   1.649   2.691
 5216SOL     OW16390   4.117   0.696   2.337
 5216SOL    HW116391   4.138   0.603   2.349
 5216SOL    HW216392   4.024   0.703   2.355
 5217SOL     OW16393   4.346   0.133   1.969
 5217SOL    HW116394   4.417   0.072   1.989
 5217SOL    HW216395   4.297   0.091   1.899
 5218SOL     OW16396   4.508   0.310   3.629
 5218SOL    HW116397   4.572   0.240   3.628
 5218SOL    HW216398   4.459   0.297   3.710
 5219SOL     OW16399   4.599   1.522   3.055
 5219SOL    HW116400   4.584   1.486   2.968
 5219SOL    HW216401   4.670   1.468   3.092
 5220SOL     OW16402   5.060   0.592   3.293
 5220SOL    HW116403   5.089   0.562   3.379
 5220SOL    HW216404   5.099   0.679   3.283
 5221SOL     OW16405   4.539   1.394   2.803
 5221SOL    HW116406   4.623   1.382   2.759
 5221SOL    HW216407   4.475   1.396   2.731
 5222SOL     OW16408   4.652   0.511   2.764
 5222SOL    HW116409   4.628   0.502   2.672
 5222SOL    HW216410   4.681   0.424   2.791
 5223SOL     OW16411   4.267   0.062   2.370
 5223SOL    HW116412   4.181   0.060   2.413
 5223SOL    HW216413   4.259   0.131   2.304
 5224SOL     OW16414   5.135   1.181   1.906
 5224SOL    HW116415   5.142   1.102   1.960
 5224SOL    HW216416   5.048   1.216   1.926
 5225SOL     OW16417   4.026   0.063   2.054
 5225SOL    HW116418   4.084   0.133   2.024
 5225SOL    HW216419   4.082   5.286   2.061
 5226SOL     OW16420   4.661   0.264   2.324
 5226SOL    HW116421   4.633   0.297   2.239
 5226SOL    HW216422   4.756   0.278   2.325
 5227SOL     OW16423   4.802   0.682   3.322
 5227SOL    HW116424   4.733   0.615   3.324
 5227SOL    HW216425   4.883   0.632   3.312
 5228SOL     OW16426   4.940   1.571   2.656
 5228SOL    HW116427   4.961   1.638   2.591
 5228SOL    HW216428   5.021   1.558   2.705
 5229SOL     OW16429   4.194   1.150   2.594
 5229SOL    HW116430   4.125   1.130   2.658
 5229SOL    HW216431   4.153   1.134   2.509
 5230SOL     OW16432   4.995   1.794   2.468
 5230SOL    HW116433   5.037   1.855   2.407
 5230SOL    HW216434   4.927   1.846   2.512
 5231SOL     OW16435   4.752   0.549   1.882
 5231SOL    HW116436   4.705   0.631   1.865
 5231SOL    HW216437   4.806   0.569   1.959
 5232SOL     OW16438   3.803   0.553   3.255
 5232SOL    HW116439   3.895   0.553   3.227
 5232SOL    HW216440   3.798   0.624   3.319
 5233SOL     OW16441   4.279   0.238   3.020
 5233SOL    HW116442   4.311   0.153   3.050
 5233SOL    HW216443   4.187   0.239   3.047
 5234SOL     OW16444   4.592   0.465   2.503
 5234SOL    HW116445   4.543   0.517   2.439
 5234SOL    HW216446   4.613   0.384   2.456
 5235SOL     OW16447   4.699   0.063   2.626
 5235SOL    HW116448   4.635   0.056   2.555
 5235SOL    HW216449   4.713   5.272   2.654
 5236SOL     OW16450   5.156   1.176   2.712
 5236SOL    HW116451   5.101   1.100   2.727
 5236SOL    HW216452   5.167   1.181   2.617
 5237SOL     OW16453   4.214   1.419   2.017
 5237SOL    HW116454   4.139   1.390   2.070
 5237SOL    HW216455   4.201   1.377   1.932
 5238SOL     OW16456   5.128   0.558   1.945
 5238SOL    HW116457   5.051   0.550   2.001
 5238SOL    HW216458   5.202   0.531   2.000
 5239SOL     OW16459   4.247   0.265   2.183
 5239SOL    HW116460   4.292   0.216   2.114
 5239SOL    HW216461   4.226   0.349   2.142
 5240SOL     OW16462   4.779   1.355   3.195
 5240SOL    HW116463   4.704   1.323   3.246
 5240SOL    HW216464   4.855   1.311   3.236
 5241SOL     OW16465   0.007   1.605   3.478
 5241SOL    HW116466   0.041   1.609   3.388
 5241SOL    HW216467   0.083   1.584   3.531
 5242SOL     OW16468   4.855   1.205   2.968
 5242SOL    HW116469   4.792   1.239   3.032
 5242SOL    HW216470   4.821   1.233   2.883
 5243SOL     OW16471   4.624   0.105   3.247
 5243SOL    HW116472   4.657   0.070   3.164
 5243SOL    HW216473   4.699   0.149   3.287
 5244SOL     OW16474   4.709   1.113   3.588
 5244SOL    HW116475   4.617   1.131   3.608
 5244SOL    HW216476   4.706   1.036   3.530
 5245SOL     OW16477   4.433   1.062   2.233
 5245SOL    HW116478   4.418   1.044   2.326
 5245SOL    HW216479   4.508   1.008   2.210
 5246SOL     OW16480   4.143   0.816   3.113
 5246SOL    HW116481   4.211   0.825   3.180
 5246SOL    HW216482   4.108   0.728   3.127
 5247SOL     OW16483   4.991   0.380   3.132
 5247SOL    HW116484   5.024   0.459   3.176
 5247SOL    HW216485   4.900   0.402   3.110
 5248SOL     OW16486   3.795   1.573   3.215
 5248SOL    HW116487   3.766   1.647   3.163
 5248SOL    HW216488   3.891   1.576   3.210
 5249SOL     OW16489   4.071   1.111   2.352
 5249SOL    HW116490   4.076   1.184   2.291
 5249SOL    HW216491   4.069   1.033   2.296
 5250SOL     OW16492   4.277   0.537   2.722
 5250SOL    HW116493   4.292   0.595   2.648
 5250SOL    HW216494   4.343   0.563   2.787
 5251SOL     OW16495   4.972   1.349   2.249
 5251SOL    HW116496   5.026   1.422   2.279
 5251SOL    HW216497   4.884   1.369   2.283
 5252SOL     OW16498   4.996   1.457   3.002
 5252SOL    HW116499   5.050   1.458   3.081
 5252SOL    HW216500   4.941   1.379   3.012
 5253SOL     OW16501   4.071   1.528   3.176
 5253SOL    HW116502   4.058   1.485   3.092
 5253SOL    HW216503   4.165   1.540   3.183
 5254SOL     OW16504   4.139   0.745   3.464
 5254SOL    HW116505   4.201   0.789   3.406
 5254SOL    HW216506   4.179   0.660   3.482
 5255SOL     OW16507   4.755   0.120   3.616
 5255SOL    HW116508   4.798   0.201   3.592
 5255SOL    HW216509   4.796   0.053   3.562
 5256SOL     OW16510   4.203   0.058   3.598
 5256SOL    HW116511   4.142   5.294   3.561
 5256SOL    HW216512   4.148   0.133   3.621
 5257SOL     OW16513   4.308   0.873   2.894
 5257SOL    HW116514   4.338   0.964   2.893
 5257SOL    HW216515   4.251   0.866   2.970
 5258SOL     OW16516   5.086   0.857   2.898
 5258SOL    HW116517   5.008   0.837   2.846
 5258SOL    HW216518   5.140   0.778   2.892
 5259SOL     OW16519   4.928   0.531   2.127
 5259SOL    HW116520   4.932   0.451   2.179
 5259SOL    HW216521   4.884   0.594   2.184
 5260SOL     OW16522   4.019   0.203   3.110
 5260SOL    HW116523   3.980   0.242   3.188
 5260SOL    HW216524   4.021   0.109   3.129
 5261SOL     OW16525   3.771   1.311   3.138
 5261SOL    HW116526   3.803   1.256   3.209
 5261SOL    HW216527   3.776   1.400   3.171
 5262SOL     OW16528   4.449   0.632   2.921
 5262SOL    HW116529   4.523   0.615   2.863
 5262SOL    HW216530   4.420   0.720   2.898
 5263SOL     OW16531   4.029   0.071   2.517
 5263SOL    HW116532   4.009   0.165   2.521
 5263SOL    HW216533   4.076   0.053   2.598
 5264SOL     OW16534   0.029   0.410   2.226
 5264SOL    HW116535   0.057   0.347   2.293
 5264SOL    HW216536   0.008   0.489   2.275
 5265SOL     OW16537   4.752   0.759   2.822
 5265SOL    HW116538   4.749   0.776   2.916
 5265SOL    HW216539   4.725   0.667   2.813
 5266SOL     OW16540   4.697   1.562   3.576
 5266SOL    HW116541   4.686   1.609   3.494
 5266SOL    HW216542   4.745   1.482   3.552
 5267SOL     OW16543   4.077   0.916   3.671
 5267SOL    HW116544   4.159   0.935   3.717
 5267SOL    HW216545   4.101   0.853   3.603
 5268SOL     OW16546   5.028   0.829   1.899
 5268SOL    HW116547   5.063   0.740   1.899
 5268SOL    HW216548   5.055   0.865   1.814
 5269SOL     OW16549   4.790   1.334   2.718
 5269SOL    HW116550   4.794   1.263   2.655
 5269SOL    HW216551   4.847   1.402   2.681
 5270SOL     OW16552   4.032   0.809   2.809
 5270SOL    HW116553   4.126   0.830   2.802
 5270SOL    HW216554   4.031   0.718   2.841
 5271SOL     OW16555   4.056   0.527   2.875
 5271SOL    HW116556   4.019   0.439   2.860
 5271SOL    HW216557   4.132   0.531   2.817
 5272SOL     OW16558   4.862   0.377   3.553
 5272SOL    HW116559   4.811   0.431   3.614
 5272SOL    HW216560   4.946   0.422   3.545
 5273SOL     OW16561   4.846   0.234   3.321
 5273SOL    HW116562   4.857   0.284   3.401
 5273SOL    HW216563   4.910   0.271   3.260
 5274SOL     OW16564   3.729   1.321   2.057
 5274SOL    HW116565   3.642   1.335   2.019
 5274SOL    HW216566   3.726   1.231   2.091
 5275SOL     OW16567   3.814   1.786   2.800
 5275SOL    HW116568   3.785   1.706   2.756
 5275SOL    HW216569   3.904   1.799   2.769
 5276SOL     OW16570   4.220   1.574   2.767
 5276SOL    HW116571   4.288   1.636   2.791
 5276SOL    HW216572   4.264   1.511   2.711
 5277SOL     OW16573   4.705   0.793   3.088
 5277SOL    HW116574   4.761   0.769   3.162
 5277SOL    HW216575   4.621   0.753   3.108
 5278SOL     OW16576   3.759   0.544   2.979
 5278SOL    HW116577   3.839   0.531   2.928
 5278SOL    HW216578   3.790   0.548   3.070
 5279SOL     OW16579   3.910   0.523   3.590
 5279SOL    HW116580   3.974   0.487   3.528
 5279SOL    HW216581   3.872   0.598   3.544
 5280SOL     OW16582   5.114   0.936   3.528
 5280SOL    HW116583   5.122   1.031   3.516
 5280SOL    HW216584   5.117   0.900   3.439
 5281SOL     OW16585   4.539   0.574   2.223
 5281SOL    HW116586   4.542   0.498   2.165
 5281SOL    HW216587   4.464   0.625   2.193
 5282SOL     OW16588   3.967   1.551   3.588
 5282SOL    HW116589   3.944   1.616   3.654
 5282SOL    HW216590   3.969   1.468   3.636
 5283SOL     OW16591   4.424   0.451   3.122
 5283SOL    HW116592   4.373   0.378   3.089
 5283SOL    HW216593   4.423   0.515   3.050
 5284SOL     OW16594   4.645   1.680   3.330
 5284SOL    HW116595   4.622   1.646   3.244
 5284SOL    HW216596   4.644   1.775   3.320
 5285SOL     OW16597   4.186   0.493   2.044
 5285SOL    HW116598   4.246   0.563   2.068
 5285SOL    HW216599   4.101   0.536   2.035
 5286SOL     OW16600   3.869   1.141   3.335
 5286SOL    HW116601   3.871   1.090   3.416
 5286SOL    HW216602   3.886   1.077   3.266
 5287SOL     OW16603   5.053   1.049   3.086
 5287SOL    HW116604   5.074   0.983   3.019
 5287SOL    HW216605   4.982   1.100   3.048
 5288SOL     OW16606   5.037   0.859   2.178
 5288SOL    HW116607   4.955   0.827   2.216
 5288SOL    HW216608   5.024   0.852   2.084
 5289SOL     OW16609   4.959   1.731   2.983
 5289SOL    HW116610   5.045   1.753   2.946
 5289SOL    HW216611   4.961   1.636   2.993
 5290SOL     OW16612   3.809   1.266   2.874
 5290SOL    HW116613   3.794   1.280   2.967
 5290SOL    HW216614   3.735   1.212   2.845
 5291SOL     OW16615   4.401   1.666   3.593
 5291SOL    HW116616   4.347   1.745   3.585
 5291SOL    HW216617   4.470   1.678   3.527
 5292SOL     OW16618   5.111   1.570   2.344
 5292SOL    HW116619   5.181   1.612   2.293
 5292SOL    HW216620   5.060   1.643   2.379
 5293SOL     OW16621   3.863   1.795   3.705
 5293SOL    HW116622   3.811   1.730   3.753
 5293SOL    HW216623   3.908   1.844   3.773
 5294SOL     OW16624   5.017   0.920   2.533
 5294SOL    HW116625   5.095   0.866   2.521
 5294SOL    HW216626   5.035   1.000   2.485
 5295SOL     OW16627   4.536   1.274   3.291
 5295SOL    HW116628   4.508   1.313   3.374
 5295SOL    HW216629   4.467   1.296   3.229
 5296SOL     OW16630   4.394   1.621   2.017
 5296SOL    HW116631   4.406   1.634   1.923
 5296SOL    HW216632   4.339   1.543   2.025
 5297SOL     OW16633   3.985   0.329   2.580
 5297SOL    HW116634   3.897   0.360   2.559
 5297SOL    HW216635   3.984   0.318   2.675
 5298SOL     OW16636   4.908   1.609   1.904
 5298SOL    HW116637   4.919   1.514   1.915
 5298SOL    HW216638   4.853   1.617   1.826
 5299SOL     OW16639   4.548   1.006   3.235
 5299SOL    HW116640   4.591   1.001   3.150
 5299SOL    HW216641   4.546   1.100   3.256
 5300SOL     OW16642   4.641   0.912   2.153
 5300SOL    HW116643   4.703   0.943   2.086
 5300SOL    HW216644   4.687   0.841   2.197
 5301SOL     OW16645   4.093   1.303   3.354
 5301SOL    HW116646   4.079   1.380   3.298
 5301SOL    HW216647   4.016   1.248   3.338
 5302SOL     OW16648   4.777   1.107   2.569
 5302SOL    HW116649   4.706   1.058   2.610
 5302SOL    HW216650   4.835   1.041   2.532
 5303SOL     OW16651   4.737   0.243   2.834
 5303SOL    HW116652   4.718   0.197   2.751
 5303SOL    HW216653   4.732   0.174   2.900
 5304SOL     OW16654   4.327   1.488   2.343
 5304SOL    HW116655   4.373   1.438   2.275
 5304SOL    HW216656   4.257   1.533   2.297
 5305SOL     OW16657   3.984   1.345   2.151
 5305SOL    HW116658   3.891   1.342   2.128
 5305SOL    HW216659   3.986   1.382   2.239
 5306SOL     OW16660   3.837   1.023   3.582
 5306SOL    HW116661   3.761   1.000   3.635
 5306SOL    HW216662   3.911   0.985   3.629
 5307SOL     OW16663   4.396   0.214   3.353
 5307SOL    HW116664   4.478   0.193   3.308
 5307SOL    HW216665   4.423   0.262   3.431
 5308SOL     OW16666   3.801   0.339   1.904
 5308SOL    HW116667   3.718   0.305   1.871
 5308SOL    HW216668   3.822   0.412   1.846
 5309SOL     OW16669   5.163   0.860   3.265
 5309SOL    HW116670   5.110   0.916   3.209
 5309SOL    HW216671   5.252   0.869   3.231
 5310SOL     OW16672   3.796   0.167   2.176
 5310SOL    HW116673   3.798   0.250   2.128
 5310SOL    HW216674   3.880   0.126   2.157
 5311SOL     OW16675   4.906   1.328   1.976
 5311SOL    HW116676   4.812   1.310   1.977
 5311SOL    HW216677   4.930   1.335   2.068
 5312SOL     OW16678   4.343   0.831   3.296
 5312SOL    HW116679   4.399   0.907   3.280
 5312SOL    HW216680   4.404   0.757   3.303
 5313SOL     OW16681   4.440   0.571   3.564
 5313SOL    HW116682   4.481   0.633   3.624
 5313SOL    HW216683   4.468   0.485   3.595
 5314SOL     OW16684   5.181   1.203   3.494
 5314SOL    HW116685   5.172   1.216   3.588
 5314SOL    HW216686   5.275   1.213   3.477
 5315SOL     OW16687   4.102   1.740   3.427
 5315SOL    HW116688   4.017   1.782   3.412
 5315SOL    HW216689   4.080   1.656   3.469
 5316SOL     OW16690   4.940   0.323   2.323
 5316SOL    HW116691   4.995   0.246   2.316
 5316SOL    HW216692   4.971   0.369   2.401
 5317SOL     OW16693   4.314   0.737   2.532
 5317SOL    HW116694   4.352   0.824   2.516
 5317SOL    HW216695   4.246   0.729   2.465
 5318SOL     OW16696   4.591   1.366   1.899
 5318SOL    HW116697   4.550   1.396   1.979
 5318SOL    HW216698   4.606   1.446   1.848
 5319SOL     OW16699   4.385   1.790   2.805
 5319SOL    HW116700   4.365   1.881   2.783
 5319SOL    HW216701   4.480   1.784   2.799
 5320SOL     OW16702   4.592   0.968   2.717
 5320SOL    HW116703   4.642   0.896   2.756
 5320SOL    HW216704   4.556   1.015   2.792
 5321SOL     OW16705   4.807   0.988   1.953
 5321SOL    HW116706   4.782   1.037   1.874
 5321SOL    HW216707   4.881   0.934   1.924
 5322SOL     OW16708   3.949   1.303   3.718
 5322SOL    HW116709   3.882   1.241   3.687
 5322SOL    HW216710   3.930   1.315   3.811
 5323SOL     OW16711   3.808   1.233   2.527
 5323SOL    HW116712   3.814   1.185   2.610
 5323SOL    HW216713   3.876   1.194   2.472
 5324SOL     OW16714   4.406   1.403   3.492
 5324SOL    HW116715   4.325   1.361   3.522
 5324SOL    HW216716   4.402   1.491   3.527
 5325SOL     OW16717   4.154   0.436   2.387
 5325SOL    HW116718   4.186   0.363   2.333
 5325SOL    HW216719   4.107   0.394   2.458
 5326SOL     OW16720   0.094   1.520   2.962
 5326SOL    HW116721   0.027   1.498   2.898
 5326SOL    HW216722   0.098   1.444   3.020
 5327SOL     OW16723   4.053   0.557   3.153
 5327SOL    HW116724   4.109   0.502   3.208
 5327SOL    HW216725   4.073   0.529   3.063
 5328SOL     OW16726   4.553   1.577   2.539
 5328SOL    HW116727   4.539   1.634   2.462
 5328SOL    HW216728   4.476   1.520   2.541
 5329SOL     OW16729   5.148   0.215   2.982
 5329SOL    HW116730   5.158   0.133   3.031
 5329SOL    HW216731   5.103   0.274   3.043
 5330SOL     OW16732   4.724   0.020   3.000
 5330SOL    HW116733   4.673   5.251   2.957
 5330SOL    HW216734   4.811   5.281   3.011
 5331SOL     OW16735   4.495   1.333   2.178
 5331SOL    HW116736   4.465   1.242   2.185
 5331SOL    HW216737   4.577   1.334   2.227
 5332SOL     OW16738   4.344   1.556   3.148
 5332SOL    HW116739   4.346   1.638   3.196
 5332SOL    HW216740   4.432   1.549   3.110
 5333SOL     OW16741   5.035   0.032   2.020
 5333SOL    HW116742   5.117   0.026   1.972
 5333SOL    HW216743   4.985   5.256   1.992
 5334SOL     OW16744   5.028   0.461   2.547
 5334SOL    HW116745   4.972   0.539   2.551
 5334SOL    HW216746   5.015   0.418   2.631
 5335SOL     OW16747   5.295   0.214   2.747
 5335SOL    HW116748   5.237   0.214   2.823
 5335SOL    HW216749   5.273   0.294   2.700
 5336SOL     OW16750   3.767   1.070   2.168
 5336SOL    HW116751   3.861   1.062   2.151
 5336SOL    HW216752   3.739   0.981   2.191
 5337SOL     OW16753   4.605   1.651   2.207
 5337SOL    HW116754   4.533   1.636   2.145
 5337SOL    HW216755   4.577   1.727   2.258
 5338SOL     OW16756   3.951   0.625   3.848
 5338SOL    HW116757   3.863   0.621   3.884
 5338SOL    HW216758   3.941   0.599   3.756
 5339SOL     OW16759   3.942   0.285   4.717
 5339SOL    HW116760   3.970   0.249   4.801
 5339SOL    HW216761   3.857   0.243   4.701
 5340SOL     OW16762   3.727   0.387   4.362
 5340SOL    HW116763   3.643   0.408   4.402
 5340SOL    HW216764   3.709   0.310   4.308
 5341SOL     OW16765   4.291   1.289   4.900
 5341SOL    HW116766   4.204   1.293   4.862
 5341SOL    HW216767   4.306   1.378   4.933
 5342SOL     OW16768   5.287   1.535   4.430
 5342SOL    HW116769   5.247   1.493   4.506
 5342SOL    HW216770   5.221   1.528   4.361
 5343SOL     OW16771   4.861   0.698   4.424
 5343SOL    HW116772   4.910   0.780   4.414
 5343SOL    HW216773   4.810   0.710   4.504
 5344SOL     OW16774   4.478   1.142   4.766
 5344SOL    HW116775   4.409   1.177   4.823
 5344SOL    HW216776   4.513   1.219   4.721
 5345SOL     OW16777   4.594   0.775   5.548
 5345SOL    HW116778   4.575   0.846   5.608
 5345SOL    HW216779   4.616   0.818   5.465
 5346SOL     OW16780   4.411   1.002   4.370
 5346SOL    HW116781   4.475   0.991   4.440
 5346SOL    HW216782   4.341   1.054   4.410
 5347SOL     OW16783   4.436   1.151   5.538
 5347SOL    HW116784   4.483   1.229   5.565
 5347SOL    HW216785   4.354   1.184   5.501
 5348SOL     OW16786   4.054   1.424   4.792
 5348SOL    HW116787   3.982   1.386   4.743
 5348SOL    HW216788   4.103   1.474   4.727
 5349SOL     OW16789   5.161   1.480   5.077
 5349SOL    HW116790   5.209   1.559   5.102
 5349SOL    HW216791   5.101   1.465   5.151
 5350SOL     OW16792   4.169   0.398   5.208
 5350SOL    HW116793   4.244   0.339   5.208
 5350SOL    HW216794   4.094   0.341   5.225
 5351SOL     OW16795   3.943   1.715   4.195
 5351SOL    HW116796   3.965   1.791   4.249
 5351SOL    HW216797   4.016   1.706   4.134
 5352SOL     OW16798   4.859   1.340   5.418
 5352SOL    HW116799   4.898   1.336   5.506
 5352SOL    HW216800   4.807   1.260   5.411
 5353SOL     OW16801   3.955   1.442   4.259
 5353SOL    HW116802   3.937   1.536   4.262
 5353SOL    HW216803   3.895   1.404   4.323
 5354SOL     OW16804   3.984   1.090   4.616
 5354SOL    HW116805   3.979   1.003   4.655
 5354SOL    HW216806   3.925   1.144   4.669
 5355SOL     OW16807   4.332   1.793   5.150
 5355SOL    HW116808   4.251   1.774   5.199
 5355SOL    HW216809   4.356   1.881   5.177
 5356SOL     OW16810   4.309   0.982   3.859
 5356SOL    HW116811   4.355   1.031   3.791
 5356SOL    HW216812   4.348   1.013   3.941
 5357SOL     OW16813   5.251   0.143   5.203
 5357SOL    HW116814   5.299   0.223   5.185
 5357SOL    HW216815   5.272   0.121   5.294
 5358SOL     OW16816   3.839   0.654   4.284
 5358SOL    HW116817   3.811   0.565   4.305
 5358SOL    HW216818   3.831   0.702   4.366
 5359SOL     OW16819   3.757   1.595   3.848
 5359SOL    HW116820   3.739   1.503   3.868
 5359SOL    HW216821   3.732   1.641   3.928
 5360SOL     OW16822   0.113   0.939   4.299
 5360SOL    HW116823   0.200   0.904   4.312
 5360SOL    HW216824   0.127   1.027   4.264
 5361SOL     OW16825   3.847   0.744   5.308
 5361SOL    HW116826   3.938   0.771   5.315
 5361SOL    HW216827   3.797   0.826   5.316
 5362SOL     OW16828   4.338   1.387   4.459
 5362SOL    HW116829   4.292   1.303   4.468
 5362SOL    HW216830   4.321   1.413   4.369
 5363SOL     OW16831   5.005   1.235   5.149
 5363SOL    HW116832   5.039   1.169   5.088
 5363SOL    HW216833   5.061   1.228   5.226
 5364SOL     OW16834   4.536   0.028   4.254
 5364SOL    HW116835   4.564   0.116   4.228
 5364SOL    HW216836   4.440   0.031   4.247
 5365SOL     OW16837   3.914   0.965   4.996
 5365SOL    HW116838   3.999   0.924   4.981
 5365SOL    HW216839   3.852   0.912   4.947
 5366SOL     OW16840   4.896   1.808   5.348
 5366SOL    HW116841   4.916   1.867   5.276
 5366SOL    HW216842   4.919   1.721   5.315
 5367SOL     OW16843   4.051   0.268   5.536
 5367SOL    HW116844   4.103   0.342   5.567
 5367SOL    HW216845   3.965   0.281   5.576
 5368SOL     OW16846   5.168   1.436   4.659
 5368SOL    HW116847   5.106   1.443   4.732
 5368SOL    HW216848   5.161   1.344   4.630
 5369SOL     OW16849   4.318   0.721   3.991
 5369SOL    HW116850   4.322   0.803   3.942
 5369SOL    HW216851   4.253   0.737   4.059
 5370SOL     OW16852   4.996   0.328   4.641
 5370SOL    HW116853   4.906   0.305   4.665
 5370SOL    HW216854   5.049   0.300   4.716
 5371SOL     OW16855   4.518   0.618   5.173
 5371SOL    HW116856   4.490   0.596   5.262
 5371SOL    HW216857   4.477   0.552   5.118
 5372SOL     OW16858   5.116   0.488   5.404
 5372SOL    HW116859   5.119   0.522   5.493
 5372SOL    HW216860   5.183   0.419   5.402
 5373SOL     OW16861   4.678   0.888   5.307
 5373SOL    HW116862   4.730   0.816   5.271
 5373SOL    HW216863   4.629   0.922   5.232
 5374SOL     OW16864   4.718   0.422   4.954
 5374SOL    HW116865   4.633   0.436   4.995
 5374SOL    HW216866   4.700   0.368   4.878
 5375SOL     OW16867   4.775   0.698   4.149
 5375SOL    HW116868   4.791   0.691   4.243
 5375SOL    HW216869   4.692   0.652   4.136
 5376SOL     OW16870   3.812   0.821   4.501
 5376SOL    HW116871   3.893   0.814   4.552
 5376SOL    HW216872   3.769   0.899   4.536
 5377SOL     OW16873   3.850   1.852   5.303
 5377SOL    HW116874   3.851   1.830   5.396
 5377SOL    HW216875   3.759   1.838   5.276
 5378SOL     OW16876   4.601   0.363   3.914
 5378SOL    HW116877   4.635   0.419   3.845
 5378SOL    HW216878   4.655   0.284   3.910
 5379SOL     OW16879   5.093   1.148   4.273
 5379SOL    HW116880   5.181   1.151   4.235
 5379SOL    HW216881   5.042   1.206   4.217
 5380SOL     OW16882   4.248   0.202   4.606
 5380SOL    HW116883   4.271   0.217   4.698
 5380SOL    HW216884   4.270   0.284   4.562
 5381SOL     OW16885   4.729   1.443   4.196
 5381SOL    HW116886   4.692   1.516   4.146
 5381SOL    HW216887   4.710   1.464   4.287
 5382SOL     OW16888   4.078   1.810   4.588
 5382SOL    HW116889   4.122   1.725   4.595
 5382SOL    HW216890   4.147   1.874   4.606
 5383SOL     OW16891   4.940   1.541   5.242
 5383SOL    HW116892   4.927   1.468   5.304
 5383SOL    HW216893   4.880   1.523   5.170
 5384SOL     OW16894   4.043   0.958   3.975
 5384SOL    HW116895   4.125   0.977   3.929
 5384SOL    HW216896   4.012   0.876   3.936
 5385SOL     OW16897   4.191   1.265   5.462
 5385SOL    HW116898   4.164   1.269   5.370
 5385SOL    HW216899   4.108   1.263   5.511
 5386SOL     OW16900   4.832   1.774   3.961
 5386SOL    HW116901   4.759   1.730   4.005
 5386SOL    HW216902   4.857   1.715   3.890
 5387SOL     OW16903   3.921   0.278   5.228
 5387SOL    HW116904   3.842   0.331   5.225
 5387SOL    HW216905   3.914   0.229   5.309
 5388SOL     OW16906   4.189   1.736   4.045
 5388SOL    HW116907   4.232   1.794   4.108
 5388SOL    HW216908   4.261   1.705   3.989
 5389SOL     OW16909   5.096   0.098   4.143
 5389SOL    HW116910   5.083   0.081   4.050
 5389SOL    HW216911   5.190   0.118   4.151
 5390SOL     OW16912   3.980   1.791   4.955
 5390SOL    HW116913   4.031   1.725   5.002
 5390SOL    HW216914   3.972   1.756   4.866
 5391SOL     OW16915   4.662   1.698   4.622
 5391SOL    HW116916   4.742   1.649   4.640
 5391SOL    HW216917   4.618   1.649   4.553
 5392SOL     OW16918   4.118   0.696   4.199
 5392SOL    HW116919   4.138   0.603   4.211
 5392SOL    HW216920   4.024   0.703   4.217
 5393SOL     OW16921   4.346   0.133   3.831
 5393SOL    HW116922   4.417   0.071   3.851
 5393SOL    HW216923   4.297   0.091   3.761
 5394SOL     OW16924   4.507   0.310   5.491
 5394SOL    HW116925   4.572   0.240   5.490
 5394SOL    HW216926   4.459   0.297   5.572
 5395SOL     OW16927   4.599   1.522   4.918
 5395SOL    HW116928   4.584   1.486   4.830
 5395SOL    HW216929   4.669   1.468   4.954
 5396SOL     OW16930   5.060   0.592   5.155
 5396SOL    HW116931   5.089   0.562   5.241
 5396SOL    HW216932   5.099   0.679   5.145
 5397SOL     OW16933   4.539   1.394   4.665
 5397SOL    HW116934   4.623   1.382   4.621
 5397SOL    HW216935   4.475   1.396   4.593
 5398SOL     OW16936   4.652   0.511   4.626
 5398SOL    HW116937   4.628   0.502   4.534
 5398SOL    HW216938   4.681   0.424   4.653
 5399SOL     OW16939   4.267   0.062   4.232
 5399SOL    HW116940   4.181   0.060   4.275
 5399SOL    HW216941   4.259   0.131   4.166
 5400SOL     OW16942   5.135   1.181   3.768
 5400SOL    HW116943   5.142   1.102   3.822
 5400SOL    HW216944   5.048   1.215   3.787
 5401SOL     OW16945   4.026   0.063   3.916
 5401SOL    HW116946   4.084   0.133   3.886
 5401SOL    HW216947   4.082   5.286   3.923
 5402SOL     OW16948   4.661   0.264   4.186
 5402SOL    HW116949   4.633   0.297   4.101
 5402SOL    HW216950   4.756   0.278   4.187
 5403SOL     OW16951   4.802   0.682   5.184
 5403SOL    HW116952   4.733   0.615   5.186
 5403SOL    HW216953   4.883   0.632   5.174
 5404SOL     OW16954   4.940   1.571   4.518
 5404SOL    HW116955   4.961   1.638   4.453
 5404SOL    HW216956   5.021   1.558   4.567
 5405SOL     OW16957   4.194   1.150   4.456
 5405SOL    HW116958   4.125   1.130   4.520
 5405SOL    HW216959   4.153   1.134   4.371
 5406SOL     OW16960   4.995   1.794   4.330
 5406SOL    HW116961   5.037   1.855   4.269
 5406SOL    HW216962   4.928   1.846   4.374
 5407SOL     OW16963   4.752   0.549   3.744
 5407SOL    HW116964   4.705   0.631   3.727
 5407SOL    HW216965   4.806   0.569   3.821
 5408SOL     OW16966   3.804   0.553   5.117
 5408SOL    HW116967   3.895   0.553   5.089
 5408SOL    HW216968   3.798   0.624   5.181
 5409SOL     OW16969   4.279   0.238   4.882
 5409SOL    HW116970   4.311   0.153   4.912
 5409SOL    HW216971   4.187   0.239   4.909
 5410SOL     OW16972   4.592   0.465   4.365
 5410SOL    HW116973   4.543   0.517   4.301
 5410SOL    HW216974   4.613   0.384   4.318
 5411SOL     OW16975   4.699   0.063   4.488
 5411SOL    HW116976   4.635   0.056   4.417
 5411SOL    HW216977   4.713   5.272   4.516
 5412SOL     OW16978   5.156   1.176   4.574
 5412SOL    HW116979   5.101   1.100   4.589
 5412SOL    HW216980   5.167   1.180   4.480
 5413SOL     OW16981   4.214   1.419   3.879
 5413SOL    HW116982   4.139   1.390   3.932
 5413SOL    HW216983   4.201   1.378   3.794
 5414SOL     OW16984   5.128   0.558   3.807
 5414SOL    HW116985   5.051   0.550   3.863
 5414SOL    HW216986   5.201   0.532   3.863
 5415SOL     OW16987   4.247   0.265   4.045
 5415SOL    HW116988   4.292   0.216   3.976
 5415SOL    HW216989   4.226   0.349   4.005
 5416SOL     OW16990   4.779   1.355   5.057
 5416SOL    HW116991   4.704   1.323   5.108
 5416SOL    HW216992   4.855   1.311   5.098
 5417SOL     OW16993   0.007   1.605   5.340
 5417SOL    HW116994   0.041   1.608   5.250
 5417SOL    HW216995   0.083   1.584   5.393
 5418SOL     OW16996   4.855   1.205   4.830
 5418SOL    HW116997   4.792   1.239   4.894
 5418SOL    HW216998   4.821   1.233   4.745
 5419SOL     OW16999   4.624   0.105   5.109
 5419SOL    HW117000   4.657   0.071   5.026
 5419SOL    HW217001   4.699   0.149   5.149
 5420SOL     OW17002   4.709   1.113   5.450
 5420SOL    HW117003   4.617   1.131   5.470
 5420SOL    HW217004   4.706   1.036   5.392
 5421SOL     OW17005   4.433   1.062   4.095
 5421SOL    HW117006   4.418   1.044   4.188
 5421SOL    HW217007   4.509   1.008   4.072
 5422SOL     OW17008   4.143   0.816   4.975
 5422SOL    HW117009   4.211   0.825   5.042
 5422SOL    HW217010   4.108   0.728   4.989
 5423SOL     OW17011   4.991   0.380   4.994
 5423SOL    HW117012   5.024   0.459   5.038
 5423SOL    HW217013   4.900   0.402   4.972
 5424SOL     OW17014   3.795   1.573   5.078
 5424SOL    HW117015   3.766   1.646   5.024
 5424SOL    HW217016   3.891   1.576   5.072
 5425SOL     OW17017   4.071   1.111   4.214
 5425SOL    HW117018   4.076   1.184   4.153
 5425SOL    HW217019   4.069   1.033   4.158
 5426SOL     OW17020   4.277   0.537   4.584
 5426SOL    HW117021   4.292   0.595   4.510
 5426SOL    HW217022   4.343   0.563   4.649
 5427SOL     OW17023   4.972   1.349   4.111
 5427SOL    HW117024   5.026   1.422   4.141
 5427SOL    HW217025   4.884   1.369   4.144
 5428SOL     OW17026   4.996   1.457   4.864
 5428SOL    HW117027   5.050   1.458   4.943
 5428SOL    HW217028   4.941   1.379   4.874
 5429SOL     OW17029   4.070   1.528   5.038
 5429SOL    HW117030   4.058   1.485   4.954
 5429SOL    HW217031   4.165   1.540   5.046
 5430SOL     OW17032   4.139   0.745   5.326
 5430SOL    HW117033   4.201   0.789   5.268
 5430SOL    HW217034   4.179   0.660   5.344
 5431SOL     OW17035   4.755   0.120   5.478
 5431SOL    HW117036   4.798   0.201   5.454
 5431SOL    HW217037   4.796   0.053   5.424
 5432SOL     OW17038   4.203   0.058   5.460
 5432SOL    HW117039   4.142   5.294   5.424
 5432SOL    HW217040   4.148   0.133   5.483
 5433SOL     OW17041   4.308   0.873   4.756
 5433SOL    HW117042   4.338   0.964   4.755
 5433SOL    HW217043   4.251   0.866   4.832
 5434SOL     OW17044   5.086   0.857   4.760
 5434SOL    HW117045   5.008   0.837   4.708
 5434SOL    HW217046   5.139   0.778   4.754
 5435SOL     OW17047   4.928   0.531   3.989
 5435SOL    HW117048   4.932   0.451   4.041
 5435SOL    HW217049   4.884   0.594   4.046
 5436SOL     OW17050   4.019   0.203   4.972
 5436SOL    HW117051   3.980   0.242   5.050
 5436SOL    HW217052   4.021   0.109   4.991
 5437SOL     OW17053   3.771   1.311   5.000
 5437SOL    HW117054   3.803   1.256   5.071
 5437SOL    HW217055   3.777   1.400   5.034
 5438SOL     OW17056   4.449   0.632   4.783
 5438SOL    HW117057   4.523   0.615   4.725
 5438SOL    HW217058   4.420   0.720   4.760
 5439SOL     OW17059   4.029   0.071   4.379
 5439SOL    HW117060   4.009   0.165   4.383
 5439SOL    HW217061   4.076   0.053   4.460
 5440SOL     OW17062   0.029   0.410   4.088
 5440SOL    HW117063   0.057   0.347   4.155
 5440SOL    HW217064   0.009   0.489   4.137
 5441SOL     OW17065   4.752   0.759   4.684
 5441SOL    HW117066   4.749   0.776   4.778
 5441SOL    HW217067   4.725   0.667   4.675
 5442SOL     OW17068   4.697   1.562   5.438
 5442SOL    HW117069   4.686   1.609   5.356
 5442SOL    HW217070   4.745   1.482   5.414
 5443SOL     OW17071   4.077   0.916   5.533
 5443SOL    HW117072   4.159   0.935   5.579
 5443SOL    HW217073   4.101   0.853   5.465
 5444SOL     OW17074   5.028   0.829   3.761
 5444SOL    HW117075   5.063   0.740   3.761
 5444SOL    HW217076   5.055   0.865   3.676
 5445SOL     OW17077   4.790   1.334   4.580
 5445SOL    HW117078   4.794   1.263   4.517
 5445SOL    HW217079   4.847   1.402   4.543
 5446SOL     OW17080   4.032   0.809   4.671
 5446SOL    HW117081   4.126   0.830   4.664
 5446SOL    HW217082   4.031   0.718   4.703
 5447SOL     OW17083   4.056   0.527   4.737
 5447SOL    HW117084   4.019   0.440   4.722
 5447SOL    HW217085   4.132   0.531   4.679
 5448SOL     OW17086   4.862   0.377   5.415
 5448SOL    HW117087   4.811   0.431   5.476
 5448SOL    HW217088   4.946   0.422   5.407
 5449SOL     OW17089   4.846   0.234   5.183
 5449SOL    HW117090   4.857   0.284   5.263
 5449SOL    HW217091   4.910   0.271   5.122
 5450SOL     OW17092   3.729   1.321   3.919
 5450SOL    HW117093   3.642   1.335   3.882
 5450SOL    HW217094   3.726   1.231   3.953
 5451SOL     OW17095   3.814   1.787   4.661
 5451SOL    HW117096   3.784   1.707   4.618
 5451SOL    HW217097   3.904   1.799   4.631
 5452SOL     OW17098   4.220   1.574   4.629
 5452SOL    HW117099   4.288   1.636   4.653
 5452SOL    HW217100   4.263   1.511   4.572
 5453SOL     OW17101   4.705   0.793   4.950
 5453SOL    HW117102   4.761   0.769   5.024
 5453SOL    HW217103   4.621   0.752   4.970
 5454SOL     OW17104   3.759   0.544   4.841
 5454SOL    HW117105   3.839   0.531   4.790
 5454SOL    HW217106   3.790   0.548   4.932
 5455SOL     OW17107   3.910   0.523   5.452
 5455SOL    HW117108   3.974   0.487   5.390
 5455SOL    HW217109   3.872   0.598   5.405
 5456SOL     OW17110   5.114   0.936   5.390
 5456SOL    HW117111   5.122   1.031   5.378
 5456SOL    HW217112   5.117   0.900   5.301
 5457SOL     OW17113   4.539   0.574   4.085
 5457SOL    HW117114   4.542   0.498   4.027
 5457SOL    HW217115   4.464   0.625   4.055
 5458SOL     OW17116   3.967   1.551   5.451
 5458SOL    HW117117   3.944   1.615   5.518
 5458SOL    HW217118   3.969   1.467   5.497
 5459SOL     OW17119   4.424   0.451   4.983
 5459SOL    HW117120   4.373   0.378   4.951
 5459SOL    HW217121   4.423   0.515   4.912
 5460SOL     OW17122   4.644   1.680   5.193
 5460SOL    HW117123   4.622   1.646   5.106
 5460SOL    HW217124   4.644   1.775   5.182
 5461SOL     OW17125   4.186   0.493   3.906
 5461SOL    HW117126   4.246   0.563   3.930
 5461SOL    HW217127   4.101   0.536   3.897
 5462SOL     OW17128   3.869   1.141   5.197
 5462SOL    HW117129   3.871   1.090   5.278
 5462SOL    HW217130   3.886   1.077   5.128
 5463SOL     OW17131   5.053   1.049   4.948
 5463SOL    HW117132   5.074   0.983   4.881
 5463SOL    HW217133   4.982   1.100   4.910
 5464SOL     OW17134   5.037   0.858   4.040
 5464SOL    HW117135   4.955   0.827   4.078
 5464SOL    HW217136   5.023   0.852   3.946
 5465SOL     OW17137   4.959   1.731   4.844
 5465SOL    HW117138   5.045   1.753   4.809
 5465SOL    HW217139   4.961   1.636   4.854
 5466SOL     OW17140   3.808   1.267   4.735
 5466SOL    HW117141   3.794   1.280   4.829
 5466SOL    HW217142   3.735   1.212   4.707
 5467SOL     OW17143   4.401   1.666   5.454
 5467SOL    HW117144   4.348   1.745   5.447
 5467SOL    HW217145   4.470   1.677   5.389
 5468SOL     OW17146   5.111   1.570   4.206
 5468SOL    HW117147   5.181   1.612   4.155
 5468SOL    HW217148   5.060   1.643   4.241
 5469SOL     OW17149   3.861   1.796   5.567
 5469SOL    HW117150   3.810   1.731   5.615
 5469SOL    HW217151   3.909   1.844   5.635
 5470SOL     OW17152   5.017   0.920   4.395
 5470SOL    HW117153   5.095   0.866   4.382
 5470SOL    HW217154   5.035   1.000   4.347
 5471SOL     OW17155   4.536   1.274   5.153
 5471SOL    HW117156   4.508   1.313   5.236
 5471SOL    HW217157   4.467   1.296   5.091
 5472SOL     OW17158   4.395   1.621   3.879
 5472SOL    HW117159   4.406   1.634   3.785
 5472SOL    HW217160   4.339   1.543   3.886
 5473SOL     OW17161   3.985   0.329   4.442
 5473SOL    HW117162   3.897   0.360   4.421
 5473SOL    HW217163   3.984   0.318   4.537
 5474SOL     OW17164   4.908   1.609   3.766
 5474SOL    HW117165   4.919   1.514   3.777
 5474SOL    HW217166   4.852   1.618   3.689
 5475SOL     OW17167   4.548   1.006   5.097
 5475SOL    HW117168   4.591   1.001   5.012
 5475SOL    HW217169   4.547   1.100   5.118
 5476SOL     OW17170   4.641   0.912   4.015
 5476SOL    HW117171   4.703   0.943   3.948
 5476SOL    HW217172   4.687   0.841   4.059
 5477SOL     OW17173   4.093   1.303   5.216
 5477SOL    HW117174   4.079   1.380   5.160
 5477SOL    HW217175   4.016   1.248   5.200
 5478SOL     OW17176   4.777   1.108   4.431
 5478SOL    HW117177   4.706   1.058   4.472
 5478SOL    HW217178   4.835   1.041   4.394
 5479SOL     OW17179   4.737   0.243   4.696
 5479SOL    HW117180   4.718   0.197   4.613
 5479SOL    HW217181   4.732   0.174   4.762
 5480SOL     OW17182   4.327   1.488   4.205
 5480SOL    HW117183   4.373   1.438   4.138
 5480SOL    HW217184   4.257   1.533   4.159
 5481SOL     OW17185   3.984   1.344   4.013
 5481SOL    HW117186   3.891   1.342   3.990
 5481SOL    HW217187   3.986   1.382   4.101
 5482SOL     OW17188   3.837   1.023   5.444
 5482SOL    HW117189   3.760   1.000   5.496
 5482SOL    HW217190   3.911   0.985   5.491
 5483SOL     OW17191   4.396   0.214   5.215
 5483SOL    HW117192   4.479   0.193   5.170
 5483SOL    HW217193   4.423   0.262   5.293
 5484SOL     OW17194   3.801   0.338   3.766
 5484SOL    HW117195   3.718   0.305   3.733
 5484SOL    HW217196   3.822   0.412   3.708
 5485SOL     OW17197   5.163   0.860   5.127
 5485SOL    HW117198   5.110   0.916   5.071
 5485SOL    HW217199   5.252   0.869   5.093
 5486SOL     OW17200   3.796   0.167   4.038
 5486SOL    HW117201   3.798   0.250   3.990
 5486SOL    HW217202   3.880   0.126   4.019
 5487SOL     OW17203   4.906   1.328   3.838
 5487SOL    HW117204   4.812   1.310   3.838
 5487SOL    HW217205   4.930   1.335   3.930
 5488SOL     OW17206   4.343   0.831   5.158
 5488SOL    HW117207   4.399   0.907   5.142
 5488SOL    HW217208   4.404   0.757   5.165
 5489SOL     OW17209   4.440   0.571   5.426
 5489SOL    HW117210   4.481   0.633   5.486
 5489SOL    HW217211   4.468   0.485   5.457
 5490SOL     OW17212   5.181   1.203   5.356
 5490SOL    HW117213   5.172   1.216   5.450
 5490SOL    HW217214   5.275   1.213   5.339
 5491SOL     OW17215   4.102   1.740   5.289
 5491SOL    HW117216   4.017   1.782   5.275
 5491SOL    HW217217   4.080   1.656   5.331
 5492SOL     OW17218   4.940   0.323   4.185
 5492SOL    HW117219   4.995   0.246   4.178
 5492SOL    HW217220   4.971   0.369   4.263
 5493SOL     OW17221   4.314   0.737   4.394
 5493SOL    HW117222   4.352   0.824   4.378
 5493SOL    HW217223   4.246   0.728   4.327
 5494SOL     OW17224   4.592   1.366   3.761
 5494SOL    HW117225   4.550   1.396   3.841
 5494SOL    HW217226   4.606   1.446   3.710
 5495SOL     OW17227   4.385   1.790   4.667
 5495SOL    HW117228   4.365   1.881   4.645
 5495SOL    HW217229   4.480   1.783   4.661
 5496SOL     OW17230   4.592   0.968   4.579
 5496SOL    HW117231   4.642   0.896   4.618
 5496SOL    HW217232   4.556   1.015   4.654
 5497SOL     OW17233   4.807   0.988   3.815
 5497SOL    HW117234   4.782   1.037   3.736
 5497SOL    HW217235   4.881   0.934   3.786
 5498SOL     OW17236   3.949   1.303   5.580
 5498SOL    HW117237   3.882   1.241   5.549
 5498SOL    HW217238   3.930   1.315   5.673
 5499SOL     OW17239   3.809   1.233   4.389
 5499SOL    HW117240   3.814   1.185   4.472
 5499SOL    HW217241   3.876   1.194   4.334
 5500SOL     OW17242   4.406   1.403   5.353
 5500SOL    HW117243   4.325   1.361   5.384
 5500SOL    HW217244   4.402   1.491   5.389
 5501SOL     OW17245   4.154   0.436   4.249
 5501SOL    HW117246   4.186   0.363   4.195
 5501SOL    HW217247   4.107   0.394   4.320
 5502SOL     OW17248   0.095   1.520   4.823
 5502SOL    HW117249   0.027   1.498   4.760
 5502SOL    HW217250   0.098   1.444   4.882
 5503SOL     OW17251   4.053   0.557   5.015
 5503SOL    HW117252   4.109   0.502   5.070
 5503SOL    HW217253   4.073   0.529   4.925
 5504SOL     OW17254   4.552   1.577   4.401
 5504SOL    HW117255   4.539   1.633   4.324
 5504SOL    HW217256   4.476   1.520   4.402
 5505SOL     OW17257   5.148   0.215   4.844
 5505SOL    HW117258   5.158   0.133   4.893
 5505SOL    HW217259   5.103   0.274   4.905
 5506SOL     OW17260   4.724   0.020   4.862
 5506SOL    HW117261   4.673   5.251   4.819
 5506SOL    HW217262   4.811   5.281   4.873
 5507SOL     OW17263   4.495   1.333   4.040
 5507SOL    HW117264   4.465   1.242   4.047
 5507SOL    HW217265   4.577   1.334   4.089
 5508SOL     OW17266   4.344   1.556   5.009
 5508SOL    HW117267   4.346   1.638   5.058
 5508SOL    HW217268   4.431   1.548   4.972
 5509SOL     OW17269   5.035   0.033   3.882
 5509SOL    HW117270   5.117   0.026   3.834
 5509SOL    HW217271   4.985   5.256   3.854
 5510SOL     OW17272   5.028   0.461   4.409
 5510SOL    HW117273   4.972   0.539   4.413
 5510SOL    HW217274   5.015   0.418   4.493
 5511SOL     OW17275   5.295   0.214   4.609
 5511SOL    HW117276   5.237   0.214   4.685
 5511SOL    HW217277   5.273   0.295   4.562
 5512SOL     OW17278   3.768   1.070   4.031
 5512SOL    HW117279   3.861   1.062   4.013
 5512SOL    HW217280   3.739   0.981   4.053
 5513SOL     OW17281   4.605   1.651   4.070
 5513SOL    HW117282   4.533   1.636   4.007
 5513SOL    HW217283   4.577   1.728   4.120
 5514SOL     OW17284   3.951   0.625   5.710
 5514SOL    HW117285   3.863   0.622   5.746
 5514SOL    HW217286   3.941   0.599   5.618
 5515SOL     OW17287   3.941   0.285   6.579
 5515SOL    HW117288   3.970   0.249   6.663
 5515SOL    HW217289   3.857   0.243   6.563
 5516SOL     OW17290   3.727   0.387   6.224
 5516SOL    HW117291   3.643   0.408   6.264
 5516SOL    HW217292   3.709   0.310   6.170
 5517SOL     OW17293   4.291   1.289   6.762
 5517SOL    HW117294   4.204   1.293   6.723
 5517SOL    HW217295   4.306   1.378   6.795
 5518SOL     OW17296   5.287   1.535   6.292
 5518SOL    HW117297   5.247   1.493   6.368
 5518SOL    HW217298   5.221   1.528   6.223
 5519SOL     OW17299   4.861   0.698   6.286
 5519SOL    HW117300   4.910   0.780   6.276
 5519SOL    HW217301   4.810   0.710   6.366
 5520SOL     OW17302   4.478   1.142   6.628
 5520SOL    HW117303   4.409   1.177   6.685
 5520SOL    HW217304   4.513   1.219   6.583
 5521SOL     OW17305   4.593   0.777   7.408
 5521SOL    HW117306   4.569   0.851   7.463
 5521SOL    HW217307   4.617   0.816   7.324
 5522SOL     OW17308   4.411   1.002   6.232
 5522SOL    HW117309   4.475   0.991   6.302
 5522SOL    HW217310   4.341   1.054   6.272
 5523SOL     OW17311   4.435   1.151   7.399
 5523SOL    HW117312   4.483   1.230   7.427
 5523SOL    HW217313   4.354   1.185   7.363
 5524SOL     OW17314   4.055   1.424   6.654
 5524SOL    HW117315   3.982   1.386   6.604
 5524SOL    HW217316   4.104   1.475   6.589
 5525SOL     OW17317   5.161   1.480   6.940
 5525SOL    HW117318   5.208   1.559   6.964
 5525SOL    HW217319   5.100   1.465   7.012
 5526SOL     OW17320   4.169   0.398   7.072
 5526SOL    HW117321   4.244   0.339   7.071
 5526SOL    HW217322   4.094   0.341   7.086
 5527SOL     OW17323   3.943   1.714   6.058
 5527SOL    HW117324   3.964   1.791   6.111
 5527SOL    HW217325   4.017   1.707   5.997
 5528SOL     OW17326   4.859   1.340   7.278
 5528SOL    HW117327   4.898   1.337   7.365
 5528SOL    HW217328   4.807   1.259   7.272
 5529SOL     OW17329   3.955   1.442   6.122
 5529SOL    HW117330   3.937   1.536   6.124
 5529SOL    HW217331   3.895   1.404   6.186
 5530SOL     OW17332   3.983   1.090   6.478
 5530SOL    HW117333   3.979   1.003   6.517
 5530SOL    HW217334   3.925   1.144   6.531
 5531SOL     OW17335   4.332   1.793   7.012
 5531SOL    HW117336   4.251   1.774   7.060
 5531SOL    HW217337   4.356   1.881   7.039
 5532SOL     OW17338   4.309   0.982   5.721
 5532SOL    HW117339   4.355   1.031   5.653
 5532SOL    HW217340   4.348   1.013   5.803
 5533SOL     OW17341   5.250   0.143   7.064
 5533SOL    HW117342   5.297   0.224   7.046
 5533SOL    HW217343   5.273   0.122   7.155
 5534SOL     OW17344   3.839   0.654   6.146
 5534SOL    HW117345   3.811   0.565   6.167
 5534SOL    HW217346   3.831   0.702   6.228
 5535SOL     OW17347   3.758   1.594   5.709
 5535SOL    HW117348   3.739   1.502   5.729
 5535SOL    HW217349   3.733   1.642   5.789
 5536SOL     OW17350   0.113   0.939   6.161
 5536SOL    HW117351   0.201   0.904   6.174
 5536SOL    HW217352   0.126   1.027   6.127
 5537SOL     OW17353   3.847   0.744   7.171
 5537SOL    HW117354   3.938   0.771   7.177
 5537SOL    HW217355   3.797   0.825   7.178
 5538SOL     OW17356   4.338   1.386   6.322
 5538SOL    HW117357   4.292   1.303   6.331
 5538SOL    HW217358   4.321   1.413   6.231
 5539SOL     OW17359   5.005   1.235   7.010
 5539SOL    HW117360   5.039   1.169   6.950
 5539SOL    HW217361   5.061   1.228   7.087
 5540SOL     OW17362   4.536   0.028   6.116
 5540SOL    HW117363   4.564   0.116   6.090
 5540SOL    HW217364   4.440   0.031   6.109
 5541SOL     OW17365   3.914   0.965   6.859
 5541SOL    HW117366   3.999   0.924   6.843
 5541SOL    HW217367   3.852   0.913   6.808
 5542SOL     OW17368   4.897   1.808   7.209
 5542SOL    HW117369   4.916   1.867   7.137
 5542SOL    HW217370   4.920   1.721   7.177
 5543SOL     OW17371   4.050   0.264   7.405
 5543SOL    HW117372   4.102   0.341   7.429
 5543SOL    HW217373   3.963   0.282   7.440
 5544SOL     OW17374   5.168   1.436   6.521
 5544SOL    HW117375   5.106   1.443   6.594
 5544SOL    HW217376   5.161   1.345   6.493
 5545SOL     OW17377   4.318   0.721   5.853
 5545SOL    HW117378   4.322   0.803   5.804
 5545SOL    HW217379   4.253   0.737   5.921
 5546SOL     OW17380   4.996   0.328   6.503
 5546SOL    HW117381   4.906   0.305   6.527
 5546SOL    HW217382   5.049   0.300   6.578
 5547SOL     OW17383   4.518   0.618   7.035
 5547SOL    HW117384   4.490   0.596   7.124
 5547SOL    HW217385   4.477   0.552   6.980
 5548SOL     OW17386   5.117   0.489   7.266
 5548SOL    HW117387   5.118   0.523   7.355
 5548SOL    HW217388   5.181   0.418   7.265
 5549SOL     OW17389   4.678   0.888   7.169
 5549SOL    HW117390   4.731   0.816   7.132
 5549SOL    HW217391   4.629   0.922   7.094
 5550SOL     OW17392   4.718   0.422   6.816
 5550SOL    HW117393   4.633   0.436   6.857
 5550SOL    HW217394   4.699   0.368   6.740
 5551SOL     OW17395   4.775   0.698   6.011
 5551SOL    HW117396   4.791   0.691   6.105
 5551SOL    HW217397   4.692   0.652   5.998
 5552SOL     OW17398   3.812   0.821   6.363
 5552SOL    HW117399   3.893   0.814   6.414
 5552SOL    HW217400   3.769   0.899   6.397
 5553SOL     OW17401   3.850   1.853   7.165
 5553SOL    HW117402   3.851   1.830   7.259
 5553SOL    HW217403   3.760   1.838   7.138
 5554SOL     OW17404   4.601   0.363   5.776
 5554SOL    HW117405   4.635   0.419   5.707
 5554SOL    HW217406   4.655   0.284   5.772
 5555SOL     OW17407   5.093   1.148   6.134
 5555SOL    HW117408   5.181   1.151   6.097
 5555SOL    HW217409   5.042   1.206   6.079
 5556SOL     OW17410   4.248   0.202   6.468
 5556SOL    HW117411   4.271   0.217   6.559
 5556SOL    HW217412   4.270   0.284   6.424
 5557SOL     OW17413   4.729   1.443   6.058
 5557SOL    HW117414   4.692   1.516   6.008
 5557SOL    HW217415   4.710   1.464   6.149
 5558SOL     OW17416   4.078   1.810   6.450
 5558SOL    HW117417   4.122   1.725   6.457
 5558SOL    HW217418   4.147   1.874   6.468
 5559SOL     OW17419   4.940   1.541   7.104
 5559SOL    HW117420   4.927   1.469   7.165
 5559SOL    HW217421   4.878   1.523   7.033
 5560SOL     OW17422   4.043   0.958   5.837
 5560SOL    HW117423   4.125   0.977   5.791
 5560SOL    HW217424   4.012   0.876   5.799
 5561SOL     OW17425   4.190   1.263   7.323
 5561SOL    HW117426   4.163   1.269   7.232
 5561SOL    HW217427   4.108   1.262   7.372
 5562SOL     OW17428   4.832   1.774   5.823
 5562SOL    HW117429   4.759   1.730   5.867
 5562SOL    HW217430   4.857   1.715   5.752
 5563SOL     OW17431   3.921   0.278   7.089
 5563SOL    HW117432   3.842   0.332   7.085
 5563SOL    HW217433   3.912   0.228   7.170
 5564SOL     OW17434   4.189   1.737   5.906
 5564SOL    HW117435   4.232   1.794   5.970
 5564SOL    HW217436   4.261   1.705   5.851
 5565SOL     OW17437   5.096   0.098   6.005
 5565SOL    HW117438   5.083   0.081   5.912
 5565SOL    HW217439   5.190   0.118   6.013
 5566SOL     OW17440   3.979   1.791   6.817
 5566SOL    HW117441   4.031   1.725   6.863
 5566SOL    HW217442   3.970   1.758   6.728
 5567SOL     OW17443   4.662   1.698   6.484
 5567SOL    HW117444   4.742   1.648   6.502
 5567SOL    HW217445   4.618   1.649   6.415
 5568SOL     OW17446   4.118   0.696   6.061
 5568SOL    HW117447   4.138   0.603   6.073
 5568SOL    HW217448   4.024   0.703   6.079
 5569SOL     OW17449   4.346   0.133   5.693
 5569SOL    HW117450   4.417   0.071   5.713
 5569SOL    HW217451   4.297   0.091   5.623
 5570SOL     OW17452   4.507   0.310   7.350
 5570SOL    HW117453   4.574   0.241   7.350
 5570SOL    HW217454   4.464   0.302   7.435
 5571SOL     OW17455   4.599   1.522   6.779
 5571SOL    HW117456   4.584   1.486   6.692
 5571SOL    HW217457   4.669   1.468   6.816
 5572SOL     OW17458   5.061   0.592   7.016
 5572SOL    HW117459   5.090   0.563   7.103
 5572SOL    HW217460   5.099   0.679   7.007
 5573SOL     OW17461   4.539   1.394   6.527
 5573SOL    HW117462   4.623   1.382   6.483
 5573SOL    HW217463   4.475   1.396   6.455
 5574SOL     OW17464   4.652   0.511   6.488
 5574SOL    HW117465   4.628   0.502   6.396
 5574SOL    HW217466   4.681   0.424   6.515
 5575SOL     OW17467   4.267   0.062   6.094
 5575SOL    HW117468   4.181   0.060   6.137
 5575SOL    HW217469   4.259   0.131   6.028
 5576SOL     OW17470   5.135   1.181   5.630
 5576SOL    HW117471   5.142   1.102   5.684
 5576SOL    HW217472   5.048   1.215   5.650
 5577SOL     OW17473   4.026   0.063   5.778
 5577SOL    HW117474   4.084   0.133   5.748
 5577SOL    HW217475   4.082   5.286   5.785
 5578SOL     OW17476   4.661   0.264   6.048
 5578SOL    HW117477   4.633   0.297   5.963
 5578SOL    HW217478   4.756   0.278   6.049
 5579SOL     OW17479   4.802   0.682   7.046
 5579SOL    HW117480   4.733   0.615   7.048
 5579SOL    HW217481   4.883   0.632   7.036
 5580SOL     OW17482   4.940   1.570   6.380
 5580SOL    HW117483   4.961   1.638   6.315
 5580SOL    HW217484   5.021   1.558   6.429
 5581SOL     OW17485   4.194   1.150   6.318
 5581SOL    HW117486   4.125   1.130   6.382
 5581SOL    HW217487   4.153   1.134   6.233
 5582SOL     OW17488   4.995   1.794   6.192
 5582SOL    HW117489   5.037   1.855   6.131
 5582SOL    HW217490   4.928   1.846   6.236
 5583SOL     OW17491   4.752   0.549   5.606
 5583SOL    HW117492   4.705   0.631   5.589
 5583SOL    HW217493   4.806   0.569   5.683
 5584SOL     OW17494   3.804   0.553   6.980
 5584SOL    HW117495   3.895   0.553   6.952
 5584SOL    HW217496   3.798   0.623   7.044
 5585SOL     OW17497   4.279   0.238   6.744
 5585SOL    HW117498   4.312   0.153   6.774
 5585SOL    HW217499   4.187   0.239   6.771
 5586SOL     OW17500   4.592   0.465   6.227
 5586SOL    HW117501   4.543   0.517   6.163
 5586SOL    HW217502   4.613   0.384   6.180
 5587SOL     OW17503   4.699   0.063   6.350
 5587SOL    HW117504   4.635   0.056   6.279
 5587SOL    HW217505   4.713   5.272   6.378
 5588SOL     OW17506   5.156   1.176   6.436
 5588SOL    HW117507   5.101   1.100   6.451
 5588SOL    HW217508   5.168   1.180   6.342
 5589SOL     OW17509   4.214   1.419   5.742
 5589SOL    HW117510   4.139   1.390   5.794
 5589SOL    HW217511   4.201   1.377   5.656
 5590SOL     OW17512   5.128   0.558   5.669
 5590SOL    HW117513   5.051   0.550   5.725
 5590SOL    HW217514   5.201   0.532   5.725
 5591SOL     OW17515   4.247   0.265   5.907
 5591SOL    HW117516   4.292   0.216   5.838
 5591SOL    HW217517   4.226   0.349   5.867
 5592SOL     OW17518   4.779   1.354   6.919
 5592SOL    HW117519   4.704   1.323   6.970
 5592SOL    HW217520   4.855   1.312   6.960
 5593SOL     OW17521   0.007   1.605   7.201
 5593SOL    HW117522   0.041   1.609   7.112
 5593SOL    HW217523   0.083   1.585   7.255
 5594SOL     OW17524   4.855   1.204   6.692
 5594SOL    HW117525   4.792   1.239   6.756
 5594SOL    HW217526   4.821   1.233   6.607
 5595SOL     OW17527   4.623   0.105   6.971
 5595SOL    HW117528   4.657   0.071   6.888
 5595SOL    HW217529   4.699   0.148   7.011
 5596SOL     OW17530   4.709   1.111   7.314
 5596SOL    HW117531   4.617   1.131   7.332
 5596SOL    HW217532   4.706   1.035   7.256
 5597SOL     OW17533   4.433   1.062   5.957
 5597SOL    HW117534   4.418   1.044   6.050
 5597SOL    HW217535   4.509   1.008   5.934
 5598SOL     OW17536   4.143   0.816   6.837
 5598SOL    HW117537   4.212   0.825   6.904
 5598SOL    HW217538   4.108   0.728   6.851
 5599SOL     OW17539   4.991   0.380   6.856
 5599SOL    HW117540   5.024   0.459   6.900
 5599SOL    HW217541   4.900   0.402   6.834
 5600SOL     OW17542   3.795   1.573   6.940
 5600SOL    HW117543   3.766   1.646   6.885
 5600SOL    HW217544   3.891   1.576   6.933
 5601SOL     OW17545   4.072   1.111   6.076
 5601SOL    HW117546   4.076   1.184   6.015
 5601SOL    HW217547   4.069   1.033   6.020
 5602SOL     OW17548   4.277   0.537   6.446
 5602SOL    HW117549   4.292   0.595   6.372
 5602SOL    HW217550   4.343   0.563   6.511
 5603SOL     OW17551   4.972   1.349   5.973
 5603SOL    HW117552   5.026   1.422   6.003
 5603SOL    HW217553   4.884   1.369   6.007
 5604SOL     OW17554   4.996   1.457   6.726
 5604SOL    HW117555   5.050   1.458   6.805
 5604SOL    HW217556   4.941   1.379   6.736
 5605SOL     OW17557   4.070   1.528   6.900
 5605SOL    HW117558   4.058   1.485   6.816
 5605SOL    HW217559   4.165   1.540   6.908
 5606SOL     OW17560   4.139   0.745   7.188
 5606SOL    HW117561   4.200   0.790   7.130
 5606SOL    HW217562   4.180   0.660   7.205
 5607SOL     OW17563   4.750   0.119   7.334
 5607SOL    HW117564   4.798   0.200   7.317
 5607SOL    HW217565   4.797   0.053   7.284
 5608SOL     OW17566   4.203   0.059   7.321
 5608SOL    HW117567   4.141   5.294   7.286
 5608SOL    HW217568   4.147   0.133   7.346
 5609SOL     OW17569   4.308   0.873   6.618
 5609SOL    HW117570   4.338   0.964   6.617
 5609SOL    HW217571   4.251   0.867   6.694
 5610SOL     OW17572   5.086   0.857   6.622
 5610SOL    HW117573   5.008   0.837   6.569
 5610SOL    HW217574   5.139   0.778   6.616
 5611SOL     OW17575   4.928   0.531   5.851
 5611SOL    HW117576   4.932   0.451   5.903
 5611SOL    HW217577   4.884   0.594   5.908
 5612SOL     OW17578   4.020   0.203   6.834
 5612SOL    HW117579   3.980   0.242   6.912
 5612SOL    HW217580   4.021   0.109   6.853
 5613SOL     OW17581   3.770   1.311   6.862
 5613SOL    HW117582   3.803   1.256   6.933
 5613SOL    HW217583   3.776   1.400   6.895
 5614SOL     OW17584   4.449   0.632   6.645
 5614SOL    HW117585   4.523   0.615   6.587
 5614SOL    HW217586   4.420   0.720   6.622
 5615SOL     OW17587   4.029   0.071   6.241
 5615SOL    HW117588   4.009   0.165   6.245
 5615SOL    HW217589   4.076   0.053   6.322
 5616SOL     OW17590   0.029   0.410   5.950
 5616SOL    HW117591   0.057   0.347   6.017
 5616SOL    HW217592   0.009   0.489   5.999
 5617SOL     OW17593   4.752   0.759   6.546
 5617SOL    HW117594   4.749   0.776   6.640
 5617SOL    HW217595   4.725   0.667   6.537
 5618SOL     OW17596   4.698   1.562   7.300
 5618SOL    HW117597   4.687   1.609   7.218
 5618SOL    HW217598   4.745   1.482   7.276
 5619SOL     OW17599   4.077   0.914   7.396
 5619SOL    HW117600   4.161   0.935   7.439
 5619SOL    HW217601   4.101   0.852   7.327
 5620SOL     OW17602   5.028   0.829   5.623
 5620SOL    HW117603   5.063   0.740   5.623
 5620SOL    HW217604   5.055   0.865   5.538
 5621SOL     OW17605   4.790   1.334   6.442
 5621SOL    HW117606   4.794   1.263   6.379
 5621SOL    HW217607   4.847   1.402   6.405
 5622SOL     OW17608   4.032   0.809   6.533
 5622SOL    HW117609   4.126   0.830   6.526
 5622SOL    HW217610   4.031   0.718   6.565
 5623SOL     OW17611   4.056   0.527   6.599
 5623SOL    HW117612   4.019   0.440   6.584
 5623SOL    HW217613   4.132   0.531   6.542
 5624SOL     OW17614   4.862   0.377   7.276
 5624SOL    HW117615   4.812   0.431   7.337
 5624SOL    HW217616   4.946   0.423   7.267
 5625SOL     OW17617   4.847   0.233   7.044
 5625SOL    HW117618   4.856   0.283   7.125
 5625SOL    HW217619   4.910   0.271   6.984
 5626SOL     OW17620   3.729   1.320   5.781
 5626SOL    HW117621   3.643   1.335   5.743
 5626SOL    HW217622   3.726   1.231   5.815
 5627SOL     OW17623   3.814   1.786   6.525
 5627SOL    HW117624   3.784   1.707   6.480
 5627SOL    HW217625   3.904   1.799   6.494
 5628SOL     OW17626   4.220   1.574   6.491
 5628SOL    HW117627   4.288   1.636   6.515
 5628SOL    HW217628   4.264   1.511   6.435
 5629SOL     OW17629   4.705   0.793   6.812
 5629SOL    HW117630   4.761   0.769   6.886
 5629SOL    HW217631   4.621   0.753   6.832
 5630SOL     OW17632   3.759   0.544   6.703
 5630SOL    HW117633   3.839   0.531   6.651
 5630SOL    HW217634   3.790   0.548   6.794
 5631SOL     OW17635   3.912   0.522   7.314
 5631SOL    HW117636   3.974   0.486   7.251
 5631SOL    HW217637   3.872   0.596   7.269
 5632SOL     OW17638   5.112   0.936   7.253
 5632SOL    HW117639   5.120   1.031   7.241
 5632SOL    HW217640   5.116   0.900   7.164
 5633SOL     OW17641   4.539   0.574   5.947
 5633SOL    HW117642   4.542   0.498   5.889
 5633SOL    HW217643   4.464   0.625   5.917
 5634SOL     OW17644   3.966   1.551   7.313
 5634SOL    HW117645   3.944   1.616   7.380
 5634SOL    HW217646   3.969   1.468   7.360
 5635SOL     OW17647   4.424   0.451   6.846
 5635SOL    HW117648   4.373   0.378   6.813
 5635SOL    HW217649   4.423   0.515   6.774
 5636SOL     OW17650   4.645   1.680   7.054
 5636SOL    HW117651   4.622   1.647   6.967
 5636SOL    HW217652   4.644   1.775   7.045
 5637SOL     OW17653   4.186   0.493   5.768
 5637SOL    HW117654   4.246   0.563   5.792
 5637SOL    HW217655   4.101   0.536   5.759
 5638SOL     OW17656   3.869   1.141   7.059
 5638SOL    HW117657   3.871   1.090   7.140
 5638SOL    HW217658   3.886   1.077   6.990
 5639SOL     OW17659   5.053   1.048   6.810
 5639SOL    HW117660   5.074   0.983   6.743
 5639SOL    HW217661   4.982   1.100   6.772
 5640SOL     OW17662   5.037   0.858   5.902
 5640SOL    HW117663   4.955   0.827   5.940
 5640SOL    HW217664   5.023   0.852   5.808
 5641SOL     OW17665   4.959   1.731   6.706
 5641SOL    HW117666   5.045   1.753   6.670
 5641SOL    HW217667   4.961   1.636   6.717
 5642SOL     OW17668   3.809   1.266   6.598
 5642SOL    HW117669   3.794   1.280   6.691
 5642SOL    HW217670   3.735   1.212   6.569
 5643SOL     OW17671   4.400   1.665   7.315
 5643SOL    HW117672   4.349   1.745   7.310
 5643SOL    HW217673   4.471   1.678   7.251
 5644SOL     OW17674   5.111   1.570   6.068
 5644SOL    HW117675   5.181   1.612   6.017
 5644SOL    HW217676   5.060   1.643   6.103
 5645SOL     OW17677   3.861   1.795   7.430
 5645SOL    HW117678   3.810   1.731   7.479
 5645SOL    HW217679   3.908   1.844   7.497
 5646SOL     OW17680   5.017   0.920   6.257
 5646SOL    HW117681   5.095   0.866   6.244
 5646SOL    HW217682   5.035   1.000   6.209
 5647SOL     OW17683   4.536   1.274   7.015
 5647SOL    HW117684   4.508   1.313   7.098
 5647SOL    HW217685   4.467   1.296   6.953
 5648SOL     OW17686   4.394   1.621   5.741
 5648SOL    HW117687   4.406   1.634   5.647
 5648SOL    HW217688   4.339   1.543   5.749
 5649SOL     OW17689   3.985   0.329   6.304
 5649SOL    HW117690   3.897   0.360   6.283
 5649SOL    HW217691   3.984   0.318   6.399
 5650SOL     OW17692   4.908   1.609   5.628
 5650SOL    HW117693   4.919   1.514   5.639
 5650SOL    HW217694   4.852   1.617   5.550
 5651SOL     OW17695   4.548   1.006   6.959
 5651SOL    HW117696   4.591   1.001   6.874
 5651SOL    HW217697   4.546   1.100   6.980
 5652SOL     OW17698   4.641   0.912   5.877
 5652SOL    HW117699   4.703   0.943   5.810
 5652SOL    HW217700   4.687   0.841   5.921
 5653SOL     OW17701   4.092   1.303   7.078
 5653SOL    HW117702   4.079   1.380   7.022
 5653SOL    HW217703   4.016   1.248   7.062
 5654SOL     OW17704   4.777   1.107   6.293
 5654SOL    HW117705   4.706   1.058   6.334
 5654SOL    HW217706   4.835   1.041   6.256
 5655SOL     OW17707   4.737   0.243   6.558
 5655SOL    HW117708   4.718   0.197   6.475
 5655SOL    HW217709   4.732   0.174   6.624
 5656SOL     OW17710   4.327   1.488   6.067
 5656SOL    HW117711   4.373   1.438   5.999
 5656SOL    HW217712   4.257   1.533   6.021
 5657SOL     OW17713   3.984   1.344   5.875
 5657SOL    HW117714   3.891   1.342   5.852
 5657SOL    HW217715   3.986   1.382   5.963
 5658SOL     OW17716   3.837   1.023   7.306
 5658SOL    HW117717   3.760   1.000   7.358
 5658SOL    HW217718   3.911   0.984   7.353
 5659SOL     OW17719   4.396   0.214   7.078
 5659SOL    HW117720   4.479   0.193   7.033
 5659SOL    HW217721   4.423   0.261   7.157
 5660SOL     OW17722   3.801   0.338   5.628
 5660SOL    HW117723   3.718   0.305   5.595
 5660SOL    HW217724   3.822   0.412   5.570
 5661SOL     OW17725   5.163   0.860   6.989
 5661SOL    HW117726   5.110   0.916   6.933
 5661SOL    HW217727   5.253   0.870   6.956
 5662SOL     OW17728   3.796   0.167   5.900
 5662SOL    HW117729   3.798   0.250   5.852
 5662SOL    HW217730   3.880   0.126   5.881
 5663SOL     OW17731   4.906   1.328   5.700
 5663SOL    HW117732   4.812   1.310   5.701
 5663SOL    HW217733   4.930   1.335   5.792
 5664SOL     OW17734   4.343   0.831   7.020
 5664SOL    HW117735   4.399   0.907   7.004
 5664SOL    HW217736   4.404   0.757   7.027
 5665SOL     OW17737   4.439   0.571   7.288
 5665SOL    HW117738   4.481   0.632   7.349
 5665SOL    HW217739   4.467   0.485   7.317
 5666SOL     OW17740   5.181   1.202   7.217
 5666SOL    HW117741   5.171   1.215   7.311
 5666SOL    HW217742   5.275   1.214   7.201
 5667SOL     OW17743   4.102   1.740   7.151
 5667SOL    HW117744   4.017   1.782   7.136
 5667SOL    HW217745   4.080   1.656   7.192
 5668SOL     OW17746   4.940   0.323   6.047
 5668SOL    HW117747   4.995   0.246   6.040
 5668SOL    HW217748   4.971   0.369   6.125
 5669SOL     OW17749   4.314   0.737   6.256
 5669SOL    HW117750   4.352   0.824   6.240
 5669SOL    HW217751   4.246   0.728   6.189
 5670SOL     OW17752   4.592   1.366   5.623
 5670SOL    HW117753   4.550   1.396   5.703
 5670SOL    HW217754   4.606   1.446   5.572
 5671SOL     OW17755   4.385   1.790   6.529
 5671SOL    HW117756   4.365   1.881   6.507
 5671SOL    HW217757   4.480   1.784   6.523
 5672SOL     OW17758   4.592   0.968   6.441
 5672SOL    HW117759   4.642   0.896   6.480
 5672SOL    HW217760   4.556   1.016   6.516
 5673SOL     OW17761   4.807   0.988   5.677
 5673SOL    HW117762   4.782   1.037   5.598
 5673SOL    HW217763   4.881   0.934   5.648
 5674SOL     OW17764   3.949   1.302   7.443
 5674SOL    HW117765   3.882   1.242   7.411
 5674SOL    HW217766   3.927   1.316   7.535
 5675SOL     OW17767   3.808   1.233   6.251
 5675SOL    HW117768   3.814   1.185   6.334
 5675SOL    HW217769   3.876   1.194   6.196
 5676SOL     OW17770   4.405   1.402   7.215
 5676SOL    HW117771   4.325   1.361   7.246
 5676SOL    HW217772   4.402   1.491   7.250
 5677SOL     OW17773   4.155   0.436   6.111
 5677SOL    HW117774   4.186   0.363   6.057
 5677SOL    HW217775   4.107   0.394   6.182
 5678SOL     OW17776   0.095   1.520   6.686
 5678SOL    HW117777   0.027   1.498   6.622
 5678SOL    HW217778   0.098   1.444   6.744
 5679SOL     OW17779   4.053   0.557   6.877
 5679SOL    HW117780   4.110   0.502   6.931
 5679SOL    HW217781   4.073   0.529   6.787
 5680SOL     OW17782   4.553   1.577   6.263
 5680SOL    HW117783   4.539   1.634   6.186
 5680SOL    HW217784   4.476   1.520   6.265
 5681SOL     OW17785   5.149   0.215   6.707
 5681SOL    HW117786   5.157   0.133   6.755
 5681SOL    HW217787   5.103   0.274   6.767
 5682SOL     OW17788   4.724   0.020   6.724
 5682SOL    HW117789   4.673   5.251   6.681
 5682SOL    HW217790   4.811   5.281   6.736
 5683SOL     OW17791   4.495   1.333   5.902
 5683SOL    HW117792   4.465   1.242   5.909
 5683SOL    HW217793   4.577   1.334   5.951
 5684SOL     OW17794   4.344   1.556   6.871
 5684SOL    HW117795   4.345   1.638   6.920
 5684SOL    HW217796   4.431   1.548   6.834
 5685SOL     OW17797   5.035   0.033   5.744
 5685SOL    HW117798   5.117   0.026   5.696
 5685SOL    HW217799   4.985   5.256   5.716
 5686SOL     OW17800   5.028   0.461   6.271
 5686SOL    HW117801   4.972   0.539   6.275
 5686SOL    HW217802   5.015   0.418   6.355
 5687SOL     OW17803   5.295   0.214   6.471
 5687SOL    HW117804   5.237   0.214   6.547
 5687SOL    HW217805   5.273   0.294   6.424
 5688SOL     OW17806   3.767   1.070   5.893
 5688SOL    HW117807   3.861   1.062   5.875
 5688SOL    HW217808   3.739   0.981   5.915
 5689SOL     OW17809   4.605   1.651   5.931
 5689SOL    HW117810   4.533   1.636   5.869
 5689SOL    HW217811   4.577   1.727   5.982
 5690SOL     OW17812   3.950   0.621   7.572
 5690SOL    HW117813   3.861   0.628   7.605
 5690SOL    HW217814   3.940   0.598   7.480
 5691SOL     OW17815   3.945   1.717   7.919
 5691SOL    HW117816   3.973   1.757   8.001
 5691SOL    HW217817   4.024   1.716   7.864
 5692SOL     OW17818   3.940   1.438   7.992
 5692SOL    HW117819   3.926   1.533   7.989
 5692SOL    HW217820   3.881   1.407   8.060
 5693SOL     OW17821   4.310   0.982   7.579
 5693SOL    HW117822   4.354   1.032   7.511
 5693SOL    HW217823   4.348   1.014   7.661
 5694SOL     OW17824   3.755   1.599   7.578
 5694SOL    HW117825   3.739   1.506   7.593
 5694SOL    HW217826   3.727   1.641   7.659
 5695SOL     OW17827   0.117   0.925   8.014
 5695SOL    HW117828   0.211   0.919   8.032
 5695SOL    HW217829   0.102   1.019   8.001
 5696SOL     OW17830   4.534   5.287   7.945
 5696SOL    HW117831   4.577   0.071   7.930
 5696SOL    HW217832   4.441   0.007   7.942
 5697SOL     OW17833   4.314   0.725   7.709
 5697SOL    HW117834   4.315   0.808   7.660
 5697SOL    HW217835   4.254   0.741   7.781
 5698SOL     OW17836   3.783   0.864   0.087
 5698SOL    HW117837   3.846   0.797   0.113
 5698SOL    HW217838   3.782   0.925   0.161
 5699SOL     OW17839   4.592   0.359   7.634
 5699SOL    HW117840   4.631   0.418   7.569
 5699SOL    HW217841   4.652   0.284   7.637
 5700SOL     OW17842   4.046   0.957   7.698
 5700SOL    HW117843   4.126   0.973   7.647
 5700SOL    HW217844   4.009   0.878   7.658
 5701SOL     OW17845   4.837   1.776   7.685
 5701SOL    HW117846   4.762   1.733   7.727
 5701SOL    HW217847   4.861   1.716   7.614
 5702SOL     OW17848   4.190   1.738   7.770
 5702SOL    HW117849   4.240   1.791   7.833
 5702SOL    HW217850   4.257   1.701   7.712
 5703SOL     OW17851   5.113   0.113   7.871
 5703SOL    HW117852   5.085   0.089   7.783
 5703SOL    HW217853   5.208   0.100   7.870
 5704SOL     OW17854   4.116   0.695   7.918
 5704SOL    HW117855   4.118   0.600   7.928
 5704SOL    HW217856   4.025   0.719   7.937
 5705SOL     OW17857   4.341   0.132   7.560
 5705SOL    HW117858   4.420   0.079   7.574
 5705SOL    HW217859   4.296   0.088   7.488
 5706SOL     OW17860   4.272   0.064   7.951
 5706SOL    HW117861   4.180   0.047   7.972
 5706SOL    HW217862   4.269   0.137   7.889
 5707SOL     OW17863   5.135   1.180   7.489
 5707SOL    HW117864   5.150   1.109   7.551
 5707SOL    HW217865   5.049   1.214   7.510
 5708SOL     OW17866   4.029   0.074   7.662
 5708SOL    HW117867   4.079   0.132   7.604
 5708SOL    HW217868   4.078   5.291   7.660
 5709SOL     OW17869   4.673   0.229   7.911
 5709SOL    HW117870   4.620   0.292   7.862
 5709SOL    HW217871   4.758   0.271   7.920
 5710SOL     OW17872   4.162   1.148   0.100
 5710SOL    HW117873   4.089   1.190   0.144
 5710SOL    HW217874   4.132   1.136   0.009
 5711SOL     OW17875   5.009   1.805   8.012
 5711SOL    HW117876   5.049   1.871   7.955
 5711SOL    HW217877   4.935   1.850   8.053
 5712SOL     OW17878   4.754   0.551   7.465
 5712SOL    HW117879   4.705   0.632   7.450
 5712SOL    HW217880   4.801   0.566   7.547
 5713SOL     OW17881   4.211   1.417   7.603
 5713SOL    HW117882   4.137   1.388   7.657
 5713SOL    HW217883   4.196   1.376   7.518
 5714SOL     OW17884   5.128   0.558   7.531
 5714SOL    HW117885   5.050   0.550   7.587
 5714SOL    HW217886   5.199   0.522   7.584
 5715SOL     OW17887   4.249   0.272   7.774
 5715SOL    HW117888   4.289   0.219   7.705
 5715SOL    HW217889   4.227   0.355   7.730
 5716SOL     OW17890   4.438   1.063   7.811
 5716SOL    HW117891   4.409   1.048   7.901
 5716SOL    HW217892   4.516   1.009   7.801
 5717SOL     OW17893   4.089   1.105   7.926
 5717SOL    HW117894   4.069   1.183   7.875
 5717SOL    HW217895   4.075   1.033   7.864
 5718SOL     OW17896   4.958   1.359   7.818
 5718SOL    HW117897   5.015   1.430   7.846
 5718SOL    HW217898   4.905   1.339   7.895
 5719SOL     OW17899   0.028   0.639   7.937
 5719SOL    HW117900   5.274   0.673   8.008
 5719SOL    HW217901   0.048   0.715   7.883
 5720SOL     OW17902   4.927   0.529   7.714
 5720SOL    HW117903   4.930   0.444   7.757
 5720SOL    HW217904   4.893   0.589   7.781
 5721SOL     OW17905   0.027   0.406   7.801
 5721SOL    HW117906   0.032   0.342   7.871
 5721SOL    HW217907   0.023   0.491   7.845
 5722SOL     OW17908   5.036   0.832   7.491
 5722SOL    HW117909   5.064   0.741   7.487
 5722SOL    HW217910   5.058   0.868   7.405
 5723SOL     OW17911   3.730   1.324   7.639
 5723SOL    HW117912   3.643   1.337   7.603
 5723SOL    HW217913   3.729   1.234   7.673
 5724SOL     OW17914   4.565   0.607   7.759
 5724SOL    HW117915   4.556   0.516   7.733
 5724SOL    HW217916   4.475   0.640   7.762
 5725SOL     OW17917   4.184   0.495   7.636
 5725SOL    HW117918   4.244   0.567   7.654
 5725SOL    HW217919   4.099   0.537   7.621
 5726SOL     OW17920   5.032   0.847   7.775
 5726SOL    HW117921   4.939   0.864   7.791
 5726SOL    HW217922   5.040   0.845   7.679
 5727SOL     OW17923   5.104   1.573   7.907
 5727SOL    HW117924   5.199   1.581   7.913
 5727SOL    HW217925   5.070   1.655   7.943
 5728SOL     OW17926   4.389   1.621   7.603
 5728SOL    HW117927   4.403   1.632   7.509
 5728SOL    HW217928   4.337   1.541   7.610
 5729SOL     OW17929   4.911   1.610   7.487
 5729SOL    HW117930   4.920   1.516   7.501
 5729SOL    HW217931   4.851   1.618   7.412
 5730SOL     OW17932   4.655   0.907   7.760
 5730SOL    HW117933   4.705   0.931   7.681
 5730SOL    HW217934   4.641   0.813   7.751
 5731SOL     OW17935   4.330   1.508   7.936
 5731SOL    HW117936   4.376   1.447   7.877
 5731SOL    HW217937   4.256   1.539   7.884
 5732SOL     OW17938   3.983   1.345   7.743
 5732SOL    HW117939   3.891   1.343   7.716
 5732SOL    HW217940   3.981   1.382   7.832
 5733SOL     OW17941   3.798   0.338   7.490
 5733SOL    HW117942   3.716   0.307   7.453
 5733SOL    HW217943   3.822   0.413   7.436
 5734SOL     OW17944   3.787   0.182   7.743
 5734SOL    HW117945   3.785   0.258   7.685
 5734SOL    HW217946   3.868   0.137   7.721
 5735SOL     OW17947   4.904   1.328   7.555
 5735SOL    HW117948   4.809   1.315   7.554
 5735SOL    HW217949   4.926   1.341   7.647
 5736SOL     OW17950   5.271   1.742   0.322
 5736SOL    HW117951   5.273   1.829   0.282
 5736SOL    HW217952   0.046   1.741   0.381
 5737SOL     OW17953   4.942   0.325   7.909
 5737SOL    HW117954   5.005   0.253   7.906
 5737SOL    HW217955   4.952   0.363   7.996
 5738SOL     OW17956   4.354   0.738   8.051
 5738SOL    HW117957   4.355   0.818   0.024
 5738SOL    HW217958   4.265   0.734   8.015
 5739SOL     OW17959   4.592   1.366   7.485
 5739SOL    HW117960   4.551   1.395   7.567
 5739SOL    HW217961   4.606   1.446   7.436
 5740SOL     OW17962   4.802   0.977   7.540
 5740SOL    HW117963   4.778   1.032   7.466
 5740SOL    HW217964   4.880   0.930   7.512
 5741SOL     OW17965   4.113   0.422   7.985
 5741SOL    HW117966   4.165   0.369   7.925
 5741SOL    HW217967   4.162   0.420   8.067
 5742SOL     OW17968   4.489   1.336   7.761
 5742SOL    HW117969   4.460   1.244   7.764
 5742SOL    HW217970   4.567   1.338   7.816
 5743SOL     OW17971   5.036   0.038   7.611
 5743SOL    HW117972   5.115   0.029   7.558
 5743SOL    HW217973   4.986   5.258   7.593
 5744SOL     OW17974   3.776   1.078   7.749
 5744SOL    HW117975   3.870   1.068   7.736
 5744SOL    HW217976   3.745   0.989   7.765
 5745SOL     OW17977   4.613   1.648   7.782
 5745SOL    HW117978   4.537   1.627   7.729
 5745SOL    HW217979   4.581   1.711   7.846
 5746SOL     OW17980   3.942   2.485   0.123
 5746SOL    HW117981   3.862   2.449   0.161
 5746SOL    HW217982   3.965   2.424   0.053
 5747SOL     OW17983   3.949   2.144   0.992
 5747SOL    HW117984   3.977   2.109   1.077
 5747SOL    HW217985   3.859   2.112   0.982
 5748SOL     OW17986   3.728   2.246   0.637
 5748SOL    HW117987   3.646   2.271   0.680
 5748SOL    HW217988   3.707   2.165   0.590
 5749SOL     OW17989   4.291   3.151   1.176
 5749SOL    HW117990   4.204   3.156   1.138
 5749SOL    HW217991   4.307   3.240   1.209
 5750SOL     OW17992   5.284   3.411   0.707
 5750SOL    HW117993   5.249   3.358   0.778
 5750SOL    HW217994   5.226   3.394   0.633
 5751SOL     OW17995   4.860   2.561   0.700
 5751SOL    HW117996   4.910   2.642   0.689
 5751SOL    HW217997   4.811   2.574   0.781
 5752SOL     OW17998   4.477   3.003   1.042
 5752SOL    HW117999   4.409   3.039   1.099
 5752SOL    HW218000   4.513   3.080   0.997
 5753SOL     OW18001   4.594   2.634   1.823
 5753SOL    HW118002   4.576   2.705   1.884
 5753SOL    HW218003   4.615   2.678   1.741
 5754SOL     OW18004   4.408   2.862   0.650
 5754SOL    HW118005   4.474   2.852   0.718
 5754SOL    HW218006   4.340   2.916   0.690
 5755SOL     OW18007   4.435   3.013   1.814
 5755SOL    HW118008   4.483   3.091   1.841
 5755SOL    HW218009   4.353   3.046   1.777
 5756SOL     OW18010   4.055   3.286   1.068
 5756SOL    HW118011   3.982   3.249   1.018
 5756SOL    HW218012   4.104   3.337   1.003
 5757SOL     OW18013   5.161   3.342   1.353
 5757SOL    HW118014   5.208   3.421   1.377
 5757SOL    HW218015   5.102   3.326   1.427
 5758SOL     OW18016   4.174   2.260   1.485
 5758SOL    HW118017   4.249   2.200   1.492
 5758SOL    HW218018   4.097   2.204   1.500
 5759SOL     OW18019   3.945   3.576   0.471
 5759SOL    HW118020   3.965   3.652   0.525
 5759SOL    HW218021   4.020   3.568   0.412
 5760SOL     OW18022   4.859   3.202   1.694
 5760SOL    HW118023   4.899   3.198   1.781
 5760SOL    HW218024   4.807   3.122   1.687
 5761SOL     OW18025   3.949   3.302   0.528
 5761SOL    HW118026   3.938   3.397   0.532
 5761SOL    HW218027   3.892   3.268   0.597
 5762SOL     OW18028   3.982   2.952   0.890
 5762SOL    HW118029   3.979   2.866   0.931
 5762SOL    HW218030   3.925   3.006   0.945
 5763SOL     OW18031   4.331   3.655   1.425
 5763SOL    HW118032   4.251   3.637   1.474
 5763SOL    HW218033   4.357   3.743   1.453
 5764SOL     OW18034   4.352   2.821   0.134
 5764SOL    HW118035   4.299   2.897   0.110
 5764SOL    HW218036   4.404   2.852   0.209
 5765SOL     OW18037   3.839   2.513   0.563
 5765SOL    HW118038   3.809   2.424   0.584
 5765SOL    HW218039   3.831   2.561   0.645
 5766SOL     OW18040   3.754   3.457   0.110
 5766SOL    HW118041   3.741   3.369   0.145
 5766SOL    HW218042   3.738   3.516   0.184
 5767SOL     OW18043   0.115   2.808   0.595
 5767SOL    HW118044   0.204   2.773   0.589
 5767SOL    HW218045   0.109   2.872   0.524
 5768SOL     OW18046   3.847   2.605   1.585
 5768SOL    HW118047   3.939   2.631   1.592
 5768SOL    HW218048   3.798   2.687   1.594
 5769SOL     OW18049   4.337   3.249   0.735
 5769SOL    HW118050   4.292   3.165   0.744
 5769SOL    HW218051   4.322   3.275   0.644
 5770SOL     OW18052   5.005   3.098   1.425
 5770SOL    HW118053   5.039   3.031   1.364
 5770SOL    HW218054   5.061   3.091   1.502
 5771SOL     OW18055   4.540   1.865   0.513
 5771SOL    HW118056   4.579   1.950   0.489
 5771SOL    HW218057   4.447   1.883   0.520
 5772SOL     OW18058   3.914   2.828   1.272
 5772SOL    HW118059   3.999   2.786   1.257
 5772SOL    HW218060   3.852   2.772   1.224
 5773SOL     OW18061   4.895   3.670   1.624
 5773SOL    HW118062   4.916   3.730   1.552
 5773SOL    HW218063   4.919   3.583   1.591
 5774SOL     OW18064   4.059   2.112   1.814
 5774SOL    HW118065   4.102   2.196   1.831
 5774SOL    HW218066   3.968   2.125   1.843
 5775SOL     OW18067   5.168   3.297   0.934
 5775SOL    HW118068   5.106   3.304   1.007
 5775SOL    HW218069   5.162   3.206   0.906
 5776SOL     OW18070   4.322   2.575   0.283
 5776SOL    HW118071   4.340   2.653   0.231
 5776SOL    HW218072   4.258   2.603   0.348
 5777SOL     OW18073   4.995   2.199   0.919
 5777SOL    HW118074   4.907   2.169   0.940
 5777SOL    HW218075   5.050   2.164   0.989
 5778SOL     OW18076   4.514   2.480   1.450
 5778SOL    HW118077   4.489   2.455   1.539
 5778SOL    HW218078   4.476   2.412   1.395
 5779SOL     OW18079   5.114   2.343   1.681
 5779SOL    HW118080   5.116   2.380   1.769
 5779SOL    HW218081   5.190   2.285   1.677
 5780SOL     OW18082   4.677   2.750   1.583
 5780SOL    HW118083   4.730   2.678   1.547
 5780SOL    HW218084   4.629   2.784   1.508
 5781SOL     OW18085   4.715   2.275   1.237
 5781SOL    HW118086   4.628   2.295   1.272
 5781SOL    HW218087   4.698   2.228   1.156
 5782SOL     OW18088   4.778   2.559   0.426
 5782SOL    HW118089   4.794   2.555   0.520
 5782SOL    HW218090   4.694   2.514   0.413
 5783SOL     OW18091   3.812   2.684   0.776
 5783SOL    HW118092   3.893   2.676   0.827
 5783SOL    HW218093   3.769   2.762   0.812
 5784SOL     OW18094   3.850   3.713   1.579
 5784SOL    HW118095   3.851   3.692   1.672
 5784SOL    HW218096   3.759   3.701   1.552
 5785SOL     OW18097   4.610   2.219   0.201
 5785SOL    HW118098   4.654   2.268   0.132
 5785SOL    HW218099   4.610   2.128   0.170
 5786SOL     OW18100   5.096   3.010   0.549
 5786SOL    HW118101   5.179   3.004   0.502
 5786SOL    HW218102   5.042   3.068   0.496
 5787SOL     OW18103   4.274   2.043   0.894
 5787SOL    HW118104   4.276   2.072   0.985
 5787SOL    HW218105   4.276   2.124   0.843
 5788SOL     OW18106   4.728   3.306   0.472
 5788SOL    HW118107   4.690   3.378   0.423
 5788SOL    HW218108   4.709   3.327   0.564
 5789SOL     OW18109   4.078   3.672   0.864
 5789SOL    HW118110   4.122   3.587   0.871
 5789SOL    HW218111   4.147   3.736   0.882
 5790SOL     OW18112   4.939   3.403   1.519
 5790SOL    HW118113   4.927   3.330   1.580
 5790SOL    HW218114   4.880   3.384   1.446
 5791SOL     OW18115   4.048   2.804   0.257
 5791SOL    HW118116   4.114   2.848   0.203
 5791SOL    HW218117   4.053   2.712   0.229
 5792SOL     OW18118   4.190   3.127   1.738
 5792SOL    HW118119   4.164   3.131   1.646
 5792SOL    HW218120   4.108   3.125   1.787
 5793SOL     OW18121   4.823   3.635   0.224
 5793SOL    HW118122   4.768   3.596   0.292
 5793SOL    HW218123   4.839   3.565   0.161
 5794SOL     OW18124   3.925   2.142   1.502
 5794SOL    HW118125   3.843   2.191   1.498
 5794SOL    HW218126   3.907   2.069   1.561
 5795SOL     OW18127   4.188   3.599   0.323
 5795SOL    HW118128   4.231   3.658   0.385
 5795SOL    HW218129   4.259   3.572   0.264
 5796SOL     OW18130   5.115   1.987   0.440
 5796SOL    HW118131   5.100   1.968   0.347
 5796SOL    HW218132   5.210   1.994   0.447
 5797SOL     OW18133   3.979   3.653   1.231
 5797SOL    HW118134   4.031   3.587   1.277
 5797SOL    HW218135   3.971   3.619   1.142
 5798SOL     OW18136   4.662   3.560   0.899
 5798SOL    HW118137   4.743   3.511   0.915
 5798SOL    HW218138   4.618   3.511   0.829
 5799SOL     OW18139   4.111   2.559   0.477
 5799SOL    HW118140   4.134   2.467   0.488
 5799SOL    HW218141   4.018   2.564   0.499
 5800SOL     OW18142   4.355   1.972   0.137
 5800SOL    HW118143   4.449   1.960   0.143
 5800SOL    HW218144   4.334   1.952   0.045
 5801SOL     OW18145   4.489   2.141   1.755
 5801SOL    HW118146   4.566   2.084   1.754
 5801SOL    HW218147   4.441   2.115   1.834
 5802SOL     OW18148   4.599   3.383   1.194
 5802SOL    HW118149   4.584   3.348   1.106
 5802SOL    HW218150   4.670   3.330   1.230
 5803SOL     OW18151   5.057   2.454   1.432
 5803SOL    HW118152   5.089   2.422   1.517
 5803SOL    HW218153   5.100   2.538   1.420
 5804SOL     OW18154   4.539   3.255   0.941
 5804SOL    HW118155   4.624   3.244   0.898
 5804SOL    HW218156   4.476   3.259   0.869
 5805SOL     OW18157   4.651   2.371   0.902
 5805SOL    HW118158   4.628   2.362   0.810
 5805SOL    HW218159   4.682   2.284   0.927
 5806SOL     OW18160   4.274   1.925   0.504
 5806SOL    HW118161   4.193   1.924   0.556
 5806SOL    HW218162   4.266   2.004   0.450
 5807SOL     OW18163   5.139   3.035   0.046
 5807SOL    HW118164   5.134   2.960   0.105
 5807SOL    HW218165   5.055   3.079   0.056
 5808SOL     OW18166   4.035   1.919   0.171
 5808SOL    HW118167   4.101   1.987   0.187
 5808SOL    HW218168   4.071   1.840   0.212
 5809SOL     OW18169   4.662   2.110   0.458
 5809SOL    HW118170   4.635   2.150   0.376
 5809SOL    HW218171   4.756   2.127   0.463
 5810SOL     OW18172   4.801   2.544   1.460
 5810SOL    HW118173   4.734   2.475   1.462
 5810SOL    HW218174   4.884   2.497   1.451
 5811SOL     OW18175   4.940   3.434   0.796
 5811SOL    HW118176   4.961   3.499   0.730
 5811SOL    HW218177   5.022   3.418   0.843
 5812SOL     OW18178   4.192   3.013   0.732
 5812SOL    HW118179   4.124   2.993   0.796
 5812SOL    HW218180   4.151   2.997   0.648
 5813SOL     OW18181   4.991   3.656   0.606
 5813SOL    HW118182   5.036   3.719   0.550
 5813SOL    HW218183   4.925   3.708   0.652
 5814SOL     OW18184   4.758   2.391   0.030
 5814SOL    HW118185   4.712   2.470   0.004
 5814SOL    HW218186   4.818   2.419   0.100
 5815SOL     OW18187   3.804   2.417   1.391
 5815SOL    HW118188   3.896   2.415   1.365
 5815SOL    HW218189   3.799   2.487   1.457
 5816SOL     OW18190   4.283   2.089   1.166
 5816SOL    HW118191   4.325   2.014   1.207
 5816SOL    HW218192   4.192   2.085   1.197
 5817SOL     OW18193   4.591   2.320   0.638
 5817SOL    HW118194   4.549   2.376   0.573
 5817SOL    HW218195   4.613   2.240   0.591
 5818SOL     OW18196   4.739   1.915   0.750
 5818SOL    HW118197   4.680   1.908   0.675
 5818SOL    HW218198   4.717   1.839   0.805
 5819SOL     OW18199   5.156   3.038   0.849
 5819SOL    HW118200   5.102   2.961   0.863
 5819SOL    HW218201   5.167   3.044   0.754
 5820SOL     OW18202   4.207   3.301   0.172
 5820SOL    HW118203   4.134   3.260   0.219
 5820SOL    HW218204   4.213   3.253   0.090
 5821SOL     OW18205   5.128   2.446   0.075
 5821SOL    HW118206   5.069   2.422   0.146
 5821SOL    HW218207   5.195   2.377   0.075
 5822SOL     OW18208   4.240   2.126   0.323
 5822SOL    HW118209   4.292   2.074   0.261
 5822SOL    HW218210   4.227   2.210   0.279
 5823SOL     OW18211   4.779   3.216   1.333
 5823SOL    HW118212   4.704   3.185   1.384
 5823SOL    HW218213   4.855   3.173   1.374
 5824SOL     OW18214   0.007   3.467   1.615
 5824SOL    HW118215   0.041   3.471   1.526
 5824SOL    HW218216   0.083   3.446   1.669
 5825SOL     OW18217   4.854   3.066   1.106
 5825SOL    HW118218   4.792   3.102   1.170
 5825SOL    HW218219   4.821   3.096   1.021
 5826SOL     OW18220   4.642   1.959   1.396
 5826SOL    HW118221   4.664   1.941   1.304
 5826SOL    HW218222   4.721   1.998   1.432
 5827SOL     OW18223   4.709   2.975   1.725
 5827SOL    HW118224   4.617   2.993   1.746
 5827SOL    HW218225   4.706   2.898   1.668
 5828SOL     OW18226   4.440   2.926   0.381
 5828SOL    HW118227   4.421   2.907   0.473
 5828SOL    HW218228   4.517   2.873   0.361
 5829SOL     OW18229   4.143   2.677   1.251
 5829SOL    HW118230   4.211   2.687   1.318
 5829SOL    HW218231   4.108   2.589   1.265
 5830SOL     OW18232   4.988   2.237   1.277
 5830SOL    HW118233   5.023   2.316   1.318
 5830SOL    HW218234   4.898   2.260   1.253
 5831SOL     OW18235   3.795   3.435   1.353
 5831SOL    HW118236   3.767   3.509   1.299
 5831SOL    HW218237   3.891   3.438   1.348
 5832SOL     OW18238   4.067   2.972   0.491
 5832SOL    HW118239   4.074   3.045   0.429
 5832SOL    HW218240   4.075   2.894   0.437
 5833SOL     OW18241   4.275   2.398   0.859
 5833SOL    HW118242   4.291   2.456   0.785
 5833SOL    HW218243   4.341   2.423   0.924
 5834SOL     OW18244   4.970   3.209   0.392
 5834SOL    HW118245   5.026   3.282   0.419
 5834SOL    HW218246   4.883   3.232   0.424
 5835SOL     OW18247   4.996   3.318   1.140
 5835SOL    HW118248   5.050   3.320   1.218
 5835SOL    HW218249   4.942   3.240   1.150
 5836SOL     OW18250   4.070   3.390   1.314
 5836SOL    HW118251   4.058   3.347   1.230
 5836SOL    HW218252   4.165   3.402   1.322
 5837SOL     OW18253   4.139   2.607   1.602
 5837SOL    HW118254   4.201   2.651   1.544
 5837SOL    HW218255   4.178   2.521   1.618
 5838SOL     OW18256   4.718   1.989   1.755
 5838SOL    HW118257   4.776   2.060   1.730
 5838SOL    HW218258   4.765   1.909   1.729
 5839SOL     OW18259   4.222   1.902   1.748
 5839SOL    HW118260   4.178   1.848   1.683
 5839SOL    HW218261   4.163   1.977   1.760
 5840SOL     OW18262   4.307   2.735   1.031
 5840SOL    HW118263   4.339   2.825   1.032
 5840SOL    HW218264   4.251   2.729   1.109
 5841SOL     OW18265   5.086   2.718   1.038
 5841SOL    HW118266   5.010   2.699   0.982
 5841SOL    HW218267   5.141   2.640   1.029
 5842SOL     OW18268   4.932   2.394   0.268
 5842SOL    HW118269   4.935   2.313   0.320
 5842SOL    HW218270   4.886   2.456   0.323
 5843SOL     OW18271   4.022   2.060   1.247
 5843SOL    HW118272   3.985   2.093   1.329
 5843SOL    HW218273   4.003   1.966   1.248
 5844SOL     OW18274   3.770   3.173   1.276
 5844SOL    HW118275   3.803   3.118   1.347
 5844SOL    HW218276   3.777   3.262   1.309
 5845SOL     OW18277   4.447   2.492   1.056
 5845SOL    HW118278   4.522   2.477   1.000
 5845SOL    HW218279   4.419   2.582   1.036
 5846SOL     OW18280   4.027   1.926   0.624
 5846SOL    HW118281   4.008   2.017   0.647
 5846SOL    HW218282   4.035   1.881   0.708
 5847SOL     OW18283   0.048   2.239   0.355
 5847SOL    HW118284   0.061   2.182   0.431
 5847SOL    HW218285   0.019   2.322   0.392
 5848SOL     OW18286   4.751   2.621   0.959
 5848SOL    HW118287   4.749   2.638   1.053
 5848SOL    HW218288   4.725   2.529   0.951
 5849SOL     OW18289   4.697   3.423   1.714
 5849SOL    HW118290   4.686   3.471   1.632
 5849SOL    HW218291   4.745   3.344   1.690
 5850SOL     OW18292   4.077   2.778   1.809
 5850SOL    HW118293   4.159   2.797   1.854
 5850SOL    HW218294   4.101   2.715   1.741
 5851SOL     OW18295   5.031   2.696   0.027
 5851SOL    HW118296   5.063   2.608   0.044
 5851SOL    HW218297   5.058   2.714   8.016
 5852SOL     OW18298   4.789   3.197   0.856
 5852SOL    HW118299   4.794   3.125   0.793
 5852SOL    HW218300   4.847   3.264   0.820
 5853SOL     OW18301   4.033   2.671   0.946
 5853SOL    HW118302   4.126   2.692   0.941
 5853SOL    HW218303   4.030   2.581   0.979
 5854SOL     OW18304   4.054   2.389   1.012
 5854SOL    HW118305   4.020   2.301   0.998
 5854SOL    HW218306   4.131   2.394   0.955
 5855SOL     OW18307   4.856   2.238   1.681
 5855SOL    HW118308   4.808   2.292   1.744
 5855SOL    HW218309   4.943   2.277   1.677
 5856SOL     OW18310   4.885   2.064   1.469
 5856SOL    HW118311   4.873   2.126   1.541
 5856SOL    HW218312   4.924   2.115   1.399
 5857SOL     OW18313   3.737   3.185   0.189
 5857SOL    HW118314   3.650   3.199   0.152
 5857SOL    HW218315   3.734   3.095   0.222
 5858SOL     OW18316   3.814   3.648   0.938
 5858SOL    HW118317   3.785   3.569   0.894
 5858SOL    HW218318   3.904   3.661   0.908
 5859SOL     OW18319   4.220   3.436   0.905
 5859SOL    HW118320   4.288   3.498   0.930
 5859SOL    HW218321   4.264   3.373   0.848
 5860SOL     OW18322   4.705   2.653   1.226
 5860SOL    HW118323   4.762   2.631   1.300
 5860SOL    HW218324   4.620   2.616   1.249
 5861SOL     OW18325   3.760   2.407   1.117
 5861SOL    HW118326   3.841   2.394   1.067
 5861SOL    HW218327   3.788   2.410   1.208
 5862SOL     OW18328   3.915   2.382   1.728
 5862SOL    HW118329   3.971   2.342   1.661
 5862SOL    HW218330   3.874   2.456   1.684
 5863SOL     OW18331   5.113   2.799   1.666
 5863SOL    HW118332   5.121   2.893   1.654
 5863SOL    HW218333   5.117   2.762   1.578
 5864SOL     OW18334   4.543   2.431   0.369
 5864SOL    HW118335   4.552   2.360   0.305
 5864SOL    HW218336   4.467   2.481   0.339
 5865SOL     OW18337   3.966   3.413   1.727
 5865SOL    HW118338   3.944   3.477   1.794
 5865SOL    HW218339   3.969   3.329   1.773
 5866SOL     OW18340   4.427   2.311   1.258
 5866SOL    HW118341   4.373   2.238   1.229
 5866SOL    HW218342   4.422   2.375   1.186
 5867SOL     OW18343   4.643   3.542   1.469
 5867SOL    HW118344   4.622   3.509   1.382
 5867SOL    HW218345   4.644   3.637   1.459
 5868SOL     OW18346   4.192   2.353   0.178
 5868SOL    HW118347   4.259   2.419   0.198
 5868SOL    HW218348   4.109   2.399   0.190
 5869SOL     OW18349   3.869   3.003   1.472
 5869SOL    HW118350   3.871   2.952   1.553
 5869SOL    HW218351   3.886   2.939   1.403
 5870SOL     OW18352   5.053   2.911   1.224
 5870SOL    HW118353   5.074   2.845   1.157
 5870SOL    HW218354   4.982   2.963   1.185
 5871SOL     OW18355   5.023   2.733   0.319
 5871SOL    HW118356   4.946   2.687   0.353
 5871SOL    HW218357   5.024   2.712   0.226
 5872SOL     OW18358   4.959   3.593   1.121
 5872SOL    HW118359   5.045   3.615   1.084
 5872SOL    HW218360   4.961   3.498   1.130
 5873SOL     OW18361   3.808   3.129   1.012
 5873SOL    HW118362   3.794   3.142   1.105
 5873SOL    HW218363   3.735   3.074   0.984
 5874SOL     OW18364   4.401   3.528   1.730
 5874SOL    HW118365   4.348   3.607   1.723
 5874SOL    HW218366   4.471   3.539   1.666
 5875SOL     OW18367   4.630   1.953   0.132
 5875SOL    HW118368   4.645   1.935   0.040
 5875SOL    HW218369   4.694   1.899   0.178
 5876SOL     OW18370   0.079   2.012   0.523
 5876SOL    HW118371   0.171   2.004   0.496
 5876SOL    HW218372   0.068   1.944   0.590
 5877SOL     OW18373   5.108   3.434   0.478
 5877SOL    HW118374   5.163   3.477   0.412
 5877SOL    HW218375   5.059   3.505   0.520
 5878SOL     OW18376   3.860   3.659   1.843
 5878SOL    HW118377   3.810   3.593   1.891
 5878SOL    HW218378   3.908   3.706   1.911
 5879SOL     OW18379   5.017   2.782   0.671
 5879SOL    HW118380   5.095   2.728   0.658
 5879SOL    HW218381   5.035   2.863   0.623
 5880SOL     OW18382   4.536   3.135   1.430
 5880SOL    HW118383   4.508   3.175   1.512
 5880SOL    HW218384   4.467   3.158   1.367
 5881SOL     OW18385   4.400   3.484   0.157
 5881SOL    HW118386   4.408   3.490   0.062
 5881SOL    HW218387   4.339   3.411   0.171
 5882SOL     OW18388   3.985   2.177   0.717
 5882SOL    HW118389   3.900   2.213   0.694
 5882SOL    HW218390   3.983   2.170   0.813
 5883SOL     OW18391   4.859   3.441   0.044
 5883SOL    HW118392   4.899   3.355   0.060
 5883SOL    HW218393   4.901   3.472   8.044
 5884SOL     OW18394   4.548   2.868   1.373
 5884SOL    HW118395   4.592   2.863   1.288
 5884SOL    HW218396   4.547   2.961   1.394
 5885SOL     OW18397   4.644   2.776   0.300
 5885SOL    HW118398   4.696   2.800   0.223
 5885SOL    HW218399   4.692   2.704   0.341
 5886SOL     OW18400   4.093   3.165   1.492
 5886SOL    HW118401   4.080   3.242   1.436
 5886SOL    HW218402   4.016   3.110   1.476
 5887SOL     OW18403   4.777   2.970   0.708
 5887SOL    HW118404   4.706   2.919   0.748
 5887SOL    HW218405   4.835   2.904   0.668
 5888SOL     OW18406   4.739   2.101   0.968
 5888SOL    HW118407   4.737   2.054   0.885
 5888SOL    HW218408   4.736   2.032   1.035
 5889SOL     OW18409   4.326   3.348   0.479
 5889SOL    HW118410   4.372   3.299   0.411
 5889SOL    HW218411   4.258   3.396   0.433
 5890SOL     OW18412   3.992   3.180   0.292
 5890SOL    HW118413   3.906   3.191   0.252
 5890SOL    HW218414   3.985   3.226   0.376
 5891SOL     OW18415   3.837   2.885   1.720
 5891SOL    HW118416   3.761   2.862   1.772
 5891SOL    HW218417   3.911   2.847   1.766
 5892SOL     OW18418   4.399   2.058   1.500
 5892SOL    HW118419   4.483   2.038   1.459
 5892SOL    HW218420   4.422   2.090   1.587
 5893SOL     OW18421   3.780   2.224   0.039
 5893SOL    HW118422   3.705   2.171   0.014
 5893SOL    HW218423   3.831   2.233   8.038
 5894SOL     OW18424   5.163   2.722   1.403
 5894SOL    HW118425   5.111   2.779   1.347
 5894SOL    HW218426   5.252   2.728   1.369
 5895SOL     OW18427   3.795   2.015   0.303
 5895SOL    HW118428   3.780   2.100   0.262
 5895SOL    HW218429   3.879   1.986   0.268
 5896SOL     OW18430   4.912   3.176   0.119
 5896SOL    HW118431   4.817   3.175   0.114
 5896SOL    HW218432   4.931   3.182   0.213
 5897SOL     OW18433   4.343   2.693   1.433
 5897SOL    HW118434   4.400   2.769   1.418
 5897SOL    HW218435   4.403   2.619   1.442
 5898SOL     OW18436   4.442   2.425   1.703
 5898SOL    HW118437   4.483   2.486   1.764
 5898SOL    HW218438   4.466   2.338   1.736
 5899SOL     OW18439   5.181   3.065   1.632
 5899SOL    HW118440   5.172   3.078   1.726
 5899SOL    HW218441   5.275   3.073   1.615
 5900SOL     OW18442   4.102   3.601   1.565
 5900SOL    HW118443   4.017   3.643   1.551
 5900SOL    HW218444   4.081   3.518   1.607
 5901SOL     OW18445   4.932   2.188   0.461
 5901SOL    HW118446   4.994   2.115   0.450
 5901SOL    HW218447   4.962   2.234   0.539
 5902SOL     OW18448   4.312   2.598   0.670
 5902SOL    HW118449   4.352   2.684   0.656
 5902SOL    HW218450   4.244   2.593   0.603
 5903SOL     OW18451   4.622   3.230   0.035
 5903SOL    HW118452   4.557   3.224   0.106
 5903SOL    HW218453   4.618   3.321   0.006
 5904SOL     OW18454   4.384   3.652   0.943
 5904SOL    HW118455   4.365   3.743   0.921
 5904SOL    HW218456   4.480   3.645   0.937
 5905SOL     OW18457   4.592   2.829   0.855
 5905SOL    HW118458   4.642   2.758   0.894
 5905SOL    HW218459   4.557   2.877   0.930
 5906SOL     OW18460   4.800   2.834   0.085
 5906SOL    HW118461   4.790   2.900   0.016
 5906SOL    HW218462   4.882   2.790   0.065
 5907SOL     OW18463   3.949   3.164   1.856
 5907SOL    HW118464   3.882   3.103   1.826
 5907SOL    HW218465   3.931   3.177   1.949
 5908SOL     OW18466   3.809   3.092   0.665
 5908SOL    HW118467   3.815   3.045   0.748
 5908SOL    HW218468   3.881   3.058   0.612
 5909SOL     OW18469   4.405   3.265   1.629
 5909SOL    HW118470   4.325   3.223   1.661
 5909SOL    HW218471   4.402   3.353   1.665
 5910SOL     OW18472   4.148   2.298   0.523
 5910SOL    HW118473   4.182   2.227   0.469
 5910SOL    HW218474   4.104   2.254   0.596
 5911SOL     OW18475   0.093   3.384   1.100
 5911SOL    HW118476   0.027   3.360   1.035
 5911SOL    HW218477   0.098   3.307   1.157
 5912SOL     OW18478   4.055   2.418   1.292
 5912SOL    HW118479   4.110   2.363   1.347
 5912SOL    HW218480   4.074   2.389   1.203
 5913SOL     OW18481   4.552   3.440   0.677
 5913SOL    HW118482   4.539   3.495   0.600
 5913SOL    HW218483   4.475   3.382   0.678
 5914SOL     OW18484   5.148   2.081   1.115
 5914SOL    HW118485   5.191   2.015   1.169
 5914SOL    HW218486   5.101   2.136   1.177
 5915SOL     OW18487   4.730   1.880   1.141
 5915SOL    HW118488   4.677   1.812   1.100
 5915SOL    HW218489   4.817   1.842   1.146
 5916SOL     OW18490   4.494   3.189   0.309
 5916SOL    HW118491   4.464   3.100   0.324
 5916SOL    HW218492   4.576   3.196   0.358
 5917SOL     OW18493   4.344   3.418   1.285
 5917SOL    HW118494   4.345   3.500   1.334
 5917SOL    HW218495   4.431   3.410   1.248
 5918SOL     OW18496   5.050   1.922   0.188
 5918SOL    HW118497   5.091   1.874   0.116
 5918SOL    HW218498   4.971   1.872   0.208
 5919SOL     OW18499   5.028   2.323   0.683
 5919SOL    HW118500   4.973   2.402   0.687
 5919SOL    HW218501   5.015   2.281   0.768
 5920SOL     OW18502   5.300   2.088   0.878
 5920SOL    HW118503   5.238   2.072   0.949
 5920SOL    HW218504   5.272   2.172   0.841
 5921SOL     OW18505   3.767   2.928   0.304
 5921SOL    HW118506   3.863   2.928   0.308
 5921SOL    HW218507   3.742   2.844   0.344
 5922SOL     OW18508   4.604   3.515   0.350
 5922SOL    HW118509   4.537   3.500   0.284
 5922SOL    HW218510   4.573   3.592   0.398
 5923SOL     OW18511   3.952   2.485   1.986
 5923SOL    HW118512   3.863   2.483   2.021
 5923SOL    HW218513   3.943   2.460   1.894
 5924SOL     OW18514   3.951   2.141   2.853
 5924SOL    HW118515   3.977   2.108   2.939
 5924SOL    HW218516   3.860   2.112   2.843
 5925SOL     OW18517   3.728   2.245   2.499
 5925SOL    HW118518   3.646   2.272   2.542
 5925SOL    HW218519   3.705   2.166   2.451
 5926SOL     OW18520   4.291   3.151   3.039
 5926SOL    HW118521   4.204   3.153   3.001
 5926SOL    HW218522   4.306   3.240   3.071
 5927SOL     OW18523   5.286   3.398   2.568
 5927SOL    HW118524   5.247   3.355   2.644
 5927SOL    HW218525   5.221   3.390   2.499
 5928SOL     OW18526   4.859   2.561   2.561
 5928SOL    HW118527   4.910   2.642   2.551
 5928SOL    HW218528   4.810   2.572   2.642
 5929SOL     OW18529   4.478   3.004   2.904
 5929SOL    HW118530   4.410   3.039   2.961
 5929SOL    HW218531   4.514   3.081   2.859
 5930SOL     OW18532   4.594   2.634   3.685
 5930SOL    HW118533   4.576   2.705   3.746
 5930SOL    HW218534   4.615   2.677   3.603
 5931SOL     OW18535   4.410   2.863   2.508
 5931SOL    HW118536   4.475   2.853   2.578
 5931SOL    HW218537   4.341   2.916   2.548
 5932SOL     OW18538   4.435   3.013   3.676
 5932SOL    HW118539   4.483   3.091   3.703
 5932SOL    HW218540   4.354   3.046   3.639
 5933SOL     OW18541   4.054   3.287   2.930
 5933SOL    HW118542   3.982   3.248   2.881
 5933SOL    HW218543   4.103   3.337   2.864
 5934SOL     OW18544   5.161   3.342   3.215
 5934SOL    HW118545   5.209   3.421   3.240
 5934SOL    HW218546   5.102   3.326   3.289
 5935SOL     OW18547   4.174   2.259   3.348
 5935SOL    HW118548   4.248   2.199   3.354
 5935SOL    HW218549   4.097   2.204   3.362
 5936SOL     OW18550   3.943   3.577   2.333
 5936SOL    HW118551   3.964   3.653   2.387
 5936SOL    HW218552   4.017   3.568   2.273
 5937SOL     OW18553   4.859   3.202   3.556
 5937SOL    HW118554   4.899   3.198   3.643
 5937SOL    HW218555   4.807   3.122   3.549
 5938SOL     OW18556   3.955   3.304   2.397
 5938SOL    HW118557   3.937   3.398   2.401
 5938SOL    HW218558   3.895   3.266   2.462
 5939SOL     OW18559   3.984   2.953   2.754
 5939SOL    HW118560   3.979   2.866   2.794
 5939SOL    HW218561   3.925   3.007   2.806
 5940SOL     OW18562   4.332   3.655   3.288
 5940SOL    HW118563   4.251   3.637   3.336
 5940SOL    HW218564   4.357   3.743   3.315
 5941SOL     OW18565   4.309   2.844   1.997
 5941SOL    HW118566   4.355   2.893   1.929
 5941SOL    HW218567   4.348   2.875   2.079
 5942SOL     OW18568   3.839   2.515   2.421
 5942SOL    HW118569   3.810   2.427   2.443
 5942SOL    HW218570   3.832   2.564   2.504
 5943SOL     OW18571   3.757   3.456   1.985
 5943SOL    HW118572   3.739   3.364   2.006
 5943SOL    HW218573   3.733   3.503   2.065
 5944SOL     OW18574   0.112   2.802   2.438
 5944SOL    HW118575   0.199   2.764   2.450
 5944SOL    HW218576   0.128   2.888   2.399
 5945SOL     OW18577   3.842   2.603   3.453
 5945SOL    HW118578   3.931   2.638   3.457
 5945SOL    HW218579   3.786   2.680   3.444
 5946SOL     OW18580   4.338   3.248   2.597
 5946SOL    HW118581   4.292   3.165   2.607
 5946SOL    HW218582   4.321   3.275   2.507
 5947SOL     OW18583   5.005   3.098   3.287
 5947SOL    HW118584   5.039   3.031   3.226
 5947SOL    HW218585   5.061   3.090   3.364
 5948SOL     OW18586   4.539   1.863   2.372
 5948SOL    HW118587   4.580   1.947   2.351
 5948SOL    HW218588   4.446   1.882   2.380
 5949SOL     OW18589   3.912   2.829   3.136
 5949SOL    HW118590   3.993   2.781   3.115
 5949SOL    HW218591   3.843   2.779   3.093
 5950SOL     OW18592   4.896   3.670   3.486
 5950SOL    HW118593   4.916   3.730   3.414
 5950SOL    HW218594   4.919   3.583   3.453
 5951SOL     OW18595   4.059   2.111   3.678
 5951SOL    HW118596   4.100   2.196   3.692
 5951SOL    HW218597   3.968   2.124   3.706
 5952SOL     OW18598   5.168   3.298   2.797
 5952SOL    HW118599   5.106   3.305   2.870
 5952SOL    HW218600   5.161   3.207   2.768
 5953SOL     OW18601   4.320   2.583   2.129
 5953SOL    HW118602   4.324   2.664   2.080
 5953SOL    HW218603   4.254   2.599   2.197
 5954SOL     OW18604   4.995   2.199   2.781
 5954SOL    HW118605   4.907   2.170   2.802
 5954SOL    HW218606   5.050   2.164   2.851
 5955SOL     OW18607   4.515   2.480   3.312
 5955SOL    HW118608   4.489   2.456   3.401
 5955SOL    HW218609   4.476   2.412   3.256
 5956SOL     OW18610   5.114   2.343   3.543
 5956SOL    HW118611   5.116   2.380   3.631
 5956SOL    HW218612   5.190   2.285   3.539
 5957SOL     OW18613   4.677   2.750   3.445
 5957SOL    HW118614   4.730   2.678   3.409
 5957SOL    HW218615   4.629   2.784   3.370
 5958SOL     OW18616   4.715   2.275   3.100
 5958SOL    HW118617   4.628   2.295   3.134
 5958SOL    HW218618   4.698   2.228   3.017
 5959SOL     OW18619   4.775   2.560   2.287
 5959SOL    HW118620   4.791   2.554   2.381
 5959SOL    HW218621   4.692   2.514   2.274
 5960SOL     OW18622   3.813   2.684   2.638
 5960SOL    HW118623   3.893   2.676   2.689
 5960SOL    HW218624   3.768   2.761   2.675
 5961SOL     OW18625   3.851   3.716   3.441
 5961SOL    HW118626   3.852   3.693   3.534
 5961SOL    HW218627   3.761   3.699   3.414
 5962SOL     OW18628   4.619   2.210   2.056
 5962SOL    HW118629   4.658   2.271   1.994
 5962SOL    HW218630   4.632   2.124   2.017
 5963SOL     OW18631   5.093   3.010   2.411
 5963SOL    HW118632   5.181   3.012   2.373
 5963SOL    HW218633   5.042   3.068   2.355
 5964SOL     OW18634   4.275   2.043   2.756
 5964SOL    HW118635   4.276   2.072   2.847
 5964SOL    HW218636   4.274   2.123   2.704
 5965SOL     OW18637   4.729   3.305   2.334
 5965SOL    HW118638   4.692   3.378   2.284
 5965SOL    HW218639   4.710   3.326   2.425
 5966SOL     OW18640   4.078   3.672   2.726
 5966SOL    HW118641   4.122   3.587   2.733
 5966SOL    HW218642   4.147   3.736   2.744
 5967SOL     OW18643   4.940   3.403   3.381
 5967SOL    HW118644   4.927   3.330   3.442
 5967SOL    HW218645   4.880   3.384   3.308
 5968SOL     OW18646   4.043   2.820   2.113
 5968SOL    HW118647   4.125   2.839   2.067
 5968SOL    HW218648   4.013   2.738   2.074
 5969SOL     OW18649   4.190   3.127   3.600
 5969SOL    HW118650   4.164   3.132   3.508
 5969SOL    HW218651   4.108   3.125   3.649
 5970SOL     OW18652   4.831   3.637   2.099
 5970SOL    HW118653   4.759   3.592   2.143
 5970SOL    HW218654   4.857   3.577   2.028
 5971SOL     OW18655   3.925   2.143   3.364
 5971SOL    HW118656   3.843   2.193   3.359
 5971SOL    HW218657   3.905   2.070   3.422
 5972SOL     OW18658   4.189   3.598   2.183
 5972SOL    HW118659   4.232   3.656   2.246
 5972SOL    HW218660   4.261   3.567   2.127
 5973SOL     OW18661   5.119   1.969   2.286
 5973SOL    HW118662   5.100   1.951   2.194
 5973SOL    HW218663   5.214   1.985   2.288
 5974SOL     OW18664   3.978   3.653   3.093
 5974SOL    HW118665   4.030   3.587   3.139
 5974SOL    HW218666   3.972   3.620   3.003
 5975SOL     OW18667   4.662   3.560   2.760
 5975SOL    HW118668   4.742   3.511   2.778
 5975SOL    HW218669   4.618   3.511   2.691
 5976SOL     OW18670   4.118   2.557   2.337
 5976SOL    HW118671   4.137   2.464   2.350
 5976SOL    HW218672   4.024   2.564   2.355
 5977SOL     OW18673   4.361   1.984   1.966
 5977SOL    HW118674   4.429   1.917   1.980
 5977SOL    HW218675   4.311   1.953   1.891
 5978SOL     OW18676   4.489   2.141   3.617
 5978SOL    HW118677   4.566   2.084   3.617
 5978SOL    HW218678   4.441   2.115   3.696
 5979SOL     OW18679   4.599   3.384   3.056
 5979SOL    HW118680   4.584   3.348   2.968
 5979SOL    HW218681   4.669   3.330   3.092
 5980SOL     OW18682   5.057   2.454   3.294
 5980SOL    HW118683   5.089   2.422   3.379
 5980SOL    HW218684   5.100   2.538   3.283
 5981SOL     OW18685   4.539   3.256   2.803
 5981SOL    HW118686   4.623   3.244   2.759
 5981SOL    HW218687   4.475   3.258   2.731
 5982SOL     OW18688   4.652   2.371   2.764
 5982SOL    HW118689   4.628   2.362   2.672
 5982SOL    HW218690   4.682   2.284   2.790
 5983SOL     OW18691   4.273   1.925   2.363
 5983SOL    HW118692   4.193   1.925   2.415
 5983SOL    HW218693   4.267   2.003   2.308
 5984SOL     OW18694   5.135   3.043   1.906
 5984SOL    HW118695   5.142   2.964   1.959
 5984SOL    HW218696   5.048   3.077   1.926
 5985SOL     OW18697   4.015   1.910   2.047
 5985SOL    HW118698   4.074   1.974   2.007
 5985SOL    HW218699   4.074   1.847   2.089
 5986SOL     OW18700   4.662   2.109   2.321
 5986SOL    HW118701   4.636   2.149   2.238
 5986SOL    HW218702   4.757   2.122   2.325
 5987SOL     OW18703   4.801   2.544   3.322
 5987SOL    HW118704   4.734   2.476   3.324
 5987SOL    HW218705   4.883   2.496   3.313
 5988SOL     OW18706   4.940   3.433   2.656
 5988SOL    HW118707   4.961   3.500   2.591
 5988SOL    HW218708   5.021   3.420   2.705
 5989SOL     OW18709   4.194   3.012   2.594
 5989SOL    HW118710   4.125   2.992   2.658
 5989SOL    HW218711   4.152   2.996   2.509
 5990SOL     OW18712   4.995   3.656   2.468
 5990SOL    HW118713   5.037   3.717   2.407
 5990SOL    HW218714   4.928   3.708   2.512
 5991SOL     OW18715   4.748   2.404   1.885
 5991SOL    HW118716   4.703   2.486   1.865
 5991SOL    HW218717   4.808   2.426   1.955
 5992SOL     OW18718   3.806   2.420   3.253
 5992SOL    HW118719   3.898   2.419   3.227
 5992SOL    HW218720   3.800   2.488   3.320
 5993SOL     OW18721   4.283   2.089   3.029
 5993SOL    HW118722   4.324   2.013   3.070
 5993SOL    HW218723   4.192   2.086   3.058
 5994SOL     OW18724   4.592   2.321   2.501
 5994SOL    HW118725   4.545   2.376   2.438
 5994SOL    HW218726   4.613   2.241   2.453
 5995SOL     OW18727   4.739   1.915   2.613
 5995SOL    HW118728   4.681   1.909   2.537
 5995SOL    HW218729   4.717   1.840   2.667
 5996SOL     OW18730   5.156   3.038   2.713
 5996SOL    HW118731   5.101   2.961   2.727
 5996SOL    HW218732   5.168   3.043   2.618
 5997SOL     OW18733   4.214   3.281   2.017
 5997SOL    HW118734   4.139   3.252   2.070
 5997SOL    HW218735   4.202   3.239   1.932
 5998SOL     OW18736   5.128   2.423   1.943
 5998SOL    HW118737   5.054   2.414   2.003
 5998SOL    HW218738   5.202   2.386   1.990
 5999SOL     OW18739   4.250   2.125   2.179
 5999SOL    HW118740   4.295   2.078   2.109
 5999SOL    HW218741   4.226   2.209   2.140
 6000SOL     OW18742   4.779   3.216   3.195
 6000SOL    HW118743   4.704   3.185   3.246
 6000SOL    HW218744   4.855   3.173   3.236
 6001SOL     OW18745   0.007   3.467   3.478
 6001SOL    HW118746   0.041   3.471   3.388
 6001SOL    HW218747   0.083   3.446   3.532
 6002SOL     OW18748   4.854   3.067   2.968
 6002SOL    HW118749   4.792   3.101   3.032
 6002SOL    HW218750   4.821   3.096   2.883
 6003SOL     OW18751   4.642   1.959   3.258
 6003SOL    HW118752   4.664   1.941   3.167
 6003SOL    HW218753   4.721   1.998   3.294
 6004SOL     OW18754   4.709   2.975   3.587
 6004SOL    HW118755   4.617   2.993   3.608
 6004SOL    HW218756   4.706   2.898   3.530
 6005SOL     OW18757   4.433   2.924   2.233
 6005SOL    HW118758   4.418   2.906   2.326
 6005SOL    HW218759   4.509   2.870   2.210
 6006SOL     OW18760   4.142   2.676   3.112
 6006SOL    HW118761   4.210   2.687   3.179
 6006SOL    HW218762   4.108   2.588   3.127
 6007SOL     OW18763   4.988   2.237   3.139
 6007SOL    HW118764   5.023   2.316   3.180
 6007SOL    HW218765   4.898   2.260   3.115
 6008SOL     OW18766   3.795   3.437   3.218
 6008SOL    HW118767   3.768   3.508   3.159
 6008SOL    HW218768   3.890   3.436   3.211
 6009SOL     OW18769   4.071   2.972   2.352
 6009SOL    HW118770   4.076   3.046   2.291
 6009SOL    HW218771   4.069   2.895   2.296
 6010SOL     OW18772   4.276   2.398   2.722
 6010SOL    HW118773   4.291   2.456   2.647
 6010SOL    HW218774   4.341   2.424   2.787
 6011SOL     OW18775   4.972   3.211   2.249
 6011SOL    HW118776   5.026   3.284   2.279
 6011SOL    HW218777   4.884   3.231   2.283
 6012SOL     OW18778   4.996   3.319   3.002
 6012SOL    HW118779   5.050   3.320   3.081
 6012SOL    HW218780   4.941   3.241   3.012
 6013SOL     OW18781   4.069   3.391   3.176
 6013SOL    HW118782   4.057   3.347   3.092
 6013SOL    HW218783   4.164   3.402   3.183
 6014SOL     OW18784   4.139   2.608   3.464
 6014SOL    HW118785   4.201   2.651   3.406
 6014SOL    HW218786   4.176   2.521   3.479
 6015SOL     OW18787   4.718   1.988   3.617
 6015SOL    HW118788   4.776   2.060   3.592
 6015SOL    HW218789   4.765   1.909   3.592
 6016SOL     OW18790   4.221   1.902   3.610
 6016SOL    HW118791   4.177   1.848   3.545
 6016SOL    HW218792   4.163   1.976   3.623
 6017SOL     OW18793   4.308   2.735   2.894
 6017SOL    HW118794   4.337   2.826   2.893
 6017SOL    HW218795   4.250   2.728   2.970
 6018SOL     OW18796   5.086   2.718   2.898
 6018SOL    HW118797   5.009   2.699   2.845
 6018SOL    HW218798   5.140   2.639   2.892
 6019SOL     OW18799   4.927   2.393   2.126
 6019SOL    HW118800   4.934   2.313   2.178
 6019SOL    HW218801   4.883   2.456   2.183
 6020SOL     OW18802   4.023   2.060   3.109
 6020SOL    HW118803   3.984   2.093   3.191
 6020SOL    HW218804   4.003   1.966   3.110
 6021SOL     OW18805   3.790   3.174   3.134
 6021SOL    HW118806   3.812   3.117   3.207
 6021SOL    HW218807   3.784   3.262   3.172
 6022SOL     OW18808   4.447   2.493   2.919
 6022SOL    HW118809   4.522   2.478   2.862
 6022SOL    HW218810   4.419   2.582   2.899
 6023SOL     OW18811   4.028   1.926   2.485
 6023SOL    HW118812   4.007   2.017   2.508
 6023SOL    HW218813   4.035   1.881   2.570
 6024SOL     OW18814   0.034   2.258   2.220
 6024SOL    HW118815   0.053   2.182   2.276
 6024SOL    HW218816   0.020   2.330   2.282
 6025SOL     OW18817   4.751   2.620   2.821
 6025SOL    HW118818   4.749   2.638   2.915
 6025SOL    HW218819   4.725   2.529   2.813
 6026SOL     OW18820   4.697   3.423   3.576
 6026SOL    HW118821   4.686   3.471   3.494
 6026SOL    HW218822   4.745   3.344   3.552
 6027SOL     OW18823   4.078   2.776   3.673
 6027SOL    HW118824   4.161   2.795   3.716
 6027SOL    HW218825   4.101   2.714   3.603
 6028SOL     OW18826   5.028   2.691   1.899
 6028SOL    HW118827   5.065   2.602   1.901
 6028SOL    HW218828   5.055   2.726   1.814
 6029SOL     OW18829   4.790   3.196   2.718
 6029SOL    HW118830   4.794   3.125   2.654
 6029SOL    HW218831   4.847   3.264   2.681
 6030SOL     OW18832   4.033   2.671   2.807
 6030SOL    HW118833   4.126   2.692   2.802
 6030SOL    HW218834   4.030   2.581   2.842
 6031SOL     OW18835   4.054   2.387   2.874
 6031SOL    HW118836   4.020   2.299   2.859
 6031SOL    HW218837   4.131   2.394   2.817
 6032SOL     OW18838   4.856   2.238   3.544
 6032SOL    HW118839   4.808   2.292   3.606
 6032SOL    HW218840   4.943   2.277   3.539
 6033SOL     OW18841   4.886   2.063   3.331
 6033SOL    HW118842   4.873   2.126   3.403
 6033SOL    HW218843   4.924   2.115   3.261
 6034SOL     OW18844   3.729   3.182   2.057
 6034SOL    HW118845   3.642   3.197   2.020
 6034SOL    HW218846   3.726   3.093   2.091
 6035SOL     OW18847   3.814   3.649   2.801
 6035SOL    HW118848   3.784   3.569   2.756
 6035SOL    HW218849   3.904   3.661   2.770
 6036SOL     OW18850   4.220   3.436   2.767
 6036SOL    HW118851   4.288   3.498   2.791
 6036SOL    HW218852   4.264   3.373   2.710
 6037SOL     OW18853   4.705   2.653   3.088
 6037SOL    HW118854   4.761   2.631   3.162
 6037SOL    HW218855   4.620   2.616   3.110
 6038SOL     OW18856   3.772   2.392   2.978
 6038SOL    HW118857   3.854   2.391   2.930
 6038SOL    HW218858   3.797   2.406   3.069
 6039SOL     OW18859   3.919   2.381   3.591
 6039SOL    HW118860   3.971   2.339   3.523
 6039SOL    HW218861   3.878   2.456   3.548
 6040SOL     OW18862   5.113   2.799   3.528
 6040SOL    HW118863   5.121   2.893   3.516
 6040SOL    HW218864   5.117   2.762   3.440
 6041SOL     OW18865   4.541   2.432   2.222
 6041SOL    HW118866   4.544   2.357   2.163
 6041SOL    HW218867   4.466   2.484   2.191
 6042SOL     OW18868   3.966   3.413   3.589
 6042SOL    HW118869   3.944   3.476   3.657
 6042SOL    HW218870   3.969   3.329   3.634
 6043SOL     OW18871   4.427   2.311   3.120
 6043SOL    HW118872   4.373   2.238   3.091
 6043SOL    HW218873   4.423   2.375   3.049
 6044SOL     OW18874   4.644   3.542   3.331
 6044SOL    HW118875   4.622   3.508   3.244
 6044SOL    HW218876   4.644   3.637   3.320
 6045SOL     OW18877   4.187   2.354   2.048
 6045SOL    HW118878   4.246   2.427   2.070
 6045SOL    HW218879   4.102   2.395   2.036
 6046SOL     OW18880   3.871   3.003   3.336
 6046SOL    HW118881   3.874   2.953   3.417
 6046SOL    HW218882   3.888   2.939   3.267
 6047SOL     OW18883   5.053   2.911   3.086
 6047SOL    HW118884   5.074   2.845   3.019
 6047SOL    HW218885   4.982   2.962   3.047
 6048SOL     OW18886   5.035   2.722   2.178
 6048SOL    HW118887   4.954   2.689   2.216
 6048SOL    HW218888   5.024   2.713   2.084
 6049SOL     OW18889   4.959   3.593   2.982
 6049SOL    HW118890   5.045   3.615   2.947
 6049SOL    HW218891   4.961   3.498   2.992
 6050SOL     OW18892   3.807   3.132   2.869
 6050SOL    HW118893   3.799   3.144   2.964
 6050SOL    HW218894   3.735   3.073   2.846
 6051SOL     OW18895   4.401   3.528   3.593
 6051SOL    HW118896   4.348   3.607   3.585
 6051SOL    HW218897   4.471   3.539   3.528
 6052SOL     OW18898   0.079   2.023   2.394
 6052SOL    HW118899   0.161   2.008   2.348
 6052SOL    HW218900   0.065   1.945   2.446
 6053SOL     OW18901   5.111   3.432   2.344
 6053SOL    HW118902   5.181   3.474   2.293
 6053SOL    HW218903   5.060   3.505   2.379
 6054SOL     OW18904   3.859   3.659   3.705
 6054SOL    HW118905   3.809   3.593   3.754
 6054SOL    HW218906   3.908   3.706   3.773
 6055SOL     OW18907   5.017   2.782   2.533
 6055SOL    HW118908   5.095   2.728   2.521
 6055SOL    HW218909   5.035   2.862   2.485
 6056SOL     OW18910   4.536   3.136   3.291
 6056SOL    HW118911   4.508   3.175   3.374
 6056SOL    HW218912   4.467   3.158   3.229
 6057SOL     OW18913   4.394   3.483   2.017
 6057SOL    HW118914   4.406   3.496   1.923
 6057SOL    HW218915   4.339   3.405   2.025
 6058SOL     OW18916   3.985   2.177   2.578
 6058SOL    HW118917   3.899   2.213   2.555
 6058SOL    HW218918   3.983   2.169   2.673
 6059SOL     OW18919   4.908   3.471   1.904
 6059SOL    HW118920   4.920   3.376   1.914
 6059SOL    HW218921   4.853   3.480   1.826
 6060SOL     OW18922   4.548   2.868   3.235
 6060SOL    HW118923   4.591   2.863   3.149
 6060SOL    HW218924   4.546   2.961   3.256
 6061SOL     OW18925   4.640   2.773   2.152
 6061SOL    HW118926   4.702   2.805   2.086
 6061SOL    HW218927   4.688   2.703   2.197
 6062SOL     OW18928   4.094   3.166   3.354
 6062SOL    HW118929   4.080   3.242   3.297
 6062SOL    HW218930   4.018   3.110   3.338
 6063SOL     OW18931   4.777   2.969   2.569
 6063SOL    HW118932   4.706   2.920   2.609
 6063SOL    HW218933   4.836   2.903   2.532
 6064SOL     OW18934   4.739   2.101   2.830
 6064SOL    HW118935   4.737   2.054   2.747
 6064SOL    HW218936   4.735   2.032   2.897
 6065SOL     OW18937   4.327   3.350   2.343
 6065SOL    HW118938   4.373   3.300   2.276
 6065SOL    HW218939   4.257   3.396   2.297
 6066SOL     OW18940   3.984   3.206   2.151
 6066SOL    HW118941   3.891   3.204   2.128
 6066SOL    HW218942   3.986   3.243   2.239
 6067SOL     OW18943   3.844   2.897   3.589
 6067SOL    HW118944   3.766   2.868   3.636
 6067SOL    HW218945   3.916   2.851   3.631
 6068SOL     OW18946   4.399   2.058   3.362
 6068SOL    HW118947   4.483   2.038   3.321
 6068SOL    HW218948   4.422   2.090   3.449
 6069SOL     OW18949   3.803   2.194   1.896
 6069SOL    HW118950   3.715   2.176   1.863
 6069SOL    HW218951   3.833   2.270   1.845
 6070SOL     OW18952   5.163   2.722   3.266
 6070SOL    HW118953   5.111   2.779   3.209
 6070SOL    HW218954   5.252   2.728   3.231
 6071SOL     OW18955   3.791   2.017   2.171
 6071SOL    HW118956   3.777   2.098   2.120
 6071SOL    HW218957   3.876   1.985   2.141
 6072SOL     OW18958   4.906   3.190   1.976
 6072SOL    HW118959   4.812   3.172   1.977
 6072SOL    HW218960   4.930   3.197   2.068
 6073SOL     OW18961   4.343   2.693   3.295
 6073SOL    HW118962   4.399   2.768   3.280
 6073SOL    HW218963   4.403   2.619   3.303
 6074SOL     OW18964   4.442   2.424   3.565
 6074SOL    HW118965   4.483   2.485   3.627
 6074SOL    HW218966   4.466   2.338   3.598
 6075SOL     OW18967   5.181   3.065   3.494
 6075SOL    HW118968   5.172   3.078   3.588
 6075SOL    HW218969   5.275   3.073   3.477
 6076SOL     OW18970   4.102   3.601   3.427
 6076SOL    HW118971   4.018   3.644   3.413
 6076SOL    HW218972   4.081   3.518   3.468
 6077SOL     OW18973   4.939   2.182   2.317
 6077SOL    HW118974   5.001   2.110   2.305
 6077SOL    HW218975   4.969   2.226   2.397
 6078SOL     OW18976   4.314   2.599   2.532
 6078SOL    HW118977   4.353   2.685   2.517
 6078SOL    HW218978   4.246   2.591   2.465
 6079SOL     OW18979   4.591   3.228   1.898
 6079SOL    HW118980   4.550   3.258   1.979
 6079SOL    HW218981   4.606   3.308   1.848
 6080SOL     OW18982   4.385   3.652   2.805
 6080SOL    HW118983   4.366   3.743   2.783
 6080SOL    HW218984   4.480   3.646   2.799
 6081SOL     OW18985   4.592   2.830   2.717
 6081SOL    HW118986   4.642   2.758   2.756
 6081SOL    HW218987   4.556   2.878   2.792
 6082SOL     OW18988   4.806   2.849   1.952
 6082SOL    HW118989   4.782   2.899   1.874
 6082SOL    HW218990   4.881   2.796   1.925
 6083SOL     OW18991   3.948   3.164   3.716
 6083SOL    HW118992   3.887   3.098   3.685
 6083SOL    HW218993   3.928   3.174   3.809
 6084SOL     OW18994   3.807   3.095   2.527
 6084SOL    HW118995   3.812   3.048   2.610
 6084SOL    HW218996   3.876   3.055   2.473
 6085SOL     OW18997   4.406   3.264   3.492
 6085SOL    HW118998   4.325   3.223   3.522
 6085SOL    HW218999   4.402   3.353   3.527
 6086SOL     OW19000   4.154   2.296   2.388
 6086SOL    HW119001   4.183   2.225   2.331
 6086SOL    HW219002   4.105   2.252   2.457
 6087SOL     OW19003   0.094   3.382   2.962
 6087SOL    HW119004   0.027   3.360   2.898
 6087SOL    HW219005   0.098   3.306   3.020
 6088SOL     OW19006   4.057   2.418   3.154
 6088SOL    HW119007   4.111   2.362   3.209
 6088SOL    HW219008   4.075   2.388   3.065
 6089SOL     OW19009   4.552   3.439   2.539
 6089SOL    HW119010   4.539   3.495   2.462
 6089SOL    HW219011   4.476   3.382   2.541
 6090SOL     OW19012   5.146   2.081   2.977
 6090SOL    HW119013   5.191   2.016   3.031
 6090SOL    HW219014   5.100   2.136   3.040
 6091SOL     OW19015   4.729   1.880   3.003
 6091SOL    HW119016   4.676   1.812   2.962
 6091SOL    HW219017   4.817   1.842   3.008
 6092SOL     OW19018   4.495   3.195   2.178
 6092SOL    HW119019   4.465   3.104   2.185
 6092SOL    HW219020   4.577   3.196   2.227
 6093SOL     OW19021   4.343   3.418   3.148
 6093SOL    HW119022   4.345   3.500   3.196
 6093SOL    HW219023   4.431   3.410   3.110
 6094SOL     OW19024   5.057   1.907   2.029
 6094SOL    HW119025   5.079   1.867   1.945
 6094SOL    HW219026   4.972   1.870   2.052
 6095SOL     OW19027   5.027   2.320   2.543
 6095SOL    HW119028   4.973   2.399   2.547
 6095SOL    HW219029   5.016   2.279   2.629
 6096SOL     OW19030   0.002   2.088   2.743
 6096SOL    HW119031   5.237   2.075   2.812
 6096SOL    HW219032   5.273   2.167   2.698
 6097SOL     OW19033   3.767   2.932   2.169
 6097SOL    HW119034   3.861   2.924   2.151
 6097SOL    HW219035   3.739   2.843   2.191
 6098SOL     OW19036   4.604   3.513   2.208
 6098SOL    HW119037   4.533   3.498   2.145
 6098SOL    HW219038   4.577   3.590   2.258
 6099SOL     OW19039   3.950   2.485   3.850
 6099SOL    HW119040   3.860   2.478   3.883
 6099SOL    HW219041   3.943   2.459   3.758
 6100SOL     OW19042   3.949   2.143   4.716
 6100SOL    HW119043   3.977   2.109   4.800
 6100SOL    HW219044   3.859   2.111   4.705
 6101SOL     OW19045   3.739   2.245   4.358
 6101SOL    HW119046   3.662   2.273   4.408
 6101SOL    HW219047   3.710   2.167   4.312
 6102SOL     OW19048   4.291   3.152   4.900
 6102SOL    HW119049   4.204   3.156   4.861
 6102SOL    HW219050   4.307   3.240   4.934
 6103SOL     OW19051   5.286   3.398   4.430
 6103SOL    HW119052   5.247   3.355   4.506
 6103SOL    HW219053   5.221   3.390   4.361
 6104SOL     OW19054   4.859   2.561   4.423
 6104SOL    HW119055   4.910   2.642   4.413
 6104SOL    HW219056   4.810   2.573   4.504
 6105SOL     OW19057   4.477   3.003   4.766
 6105SOL    HW119058   4.409   3.039   4.823
 6105SOL    HW219059   4.513   3.080   4.721
 6106SOL     OW19060   4.594   2.634   5.547
 6106SOL    HW119061   4.577   2.705   5.608
 6106SOL    HW219062   4.615   2.678   5.465
 6107SOL     OW19063   4.410   2.864   4.370
 6107SOL    HW119064   4.475   2.853   4.440
 6107SOL    HW219065   4.341   2.916   4.411
 6108SOL     OW19066   4.435   3.013   5.538
 6108SOL    HW119067   4.483   3.091   5.566
 6108SOL    HW219068   4.353   3.046   5.501
 6109SOL     OW19069   4.055   3.286   4.792
 6109SOL    HW119070   3.982   3.249   4.741
 6109SOL    HW219071   4.105   3.337   4.728
 6110SOL     OW19072   5.161   3.342   5.077
 6110SOL    HW119073   5.209   3.421   5.101
 6110SOL    HW219074   5.102   3.326   5.151
 6111SOL     OW19075   4.174   2.260   5.209
 6111SOL    HW119076   4.249   2.201   5.216
 6111SOL    HW219077   4.097   2.204   5.224
 6112SOL     OW19078   3.943   3.577   4.195
 6112SOL    HW119079   3.964   3.653   4.249
 6112SOL    HW219080   4.017   3.569   4.135
 6113SOL     OW19081   4.859   3.202   5.418
 6113SOL    HW119082   4.899   3.198   5.505
 6113SOL    HW219083   4.807   3.122   5.411
 6114SOL     OW19084   3.957   3.305   4.258
 6114SOL    HW119085   3.938   3.399   4.262
 6114SOL    HW219086   3.898   3.266   4.323
 6115SOL     OW19087   3.976   2.950   4.611
 6115SOL    HW119088   3.981   2.865   4.655
 6115SOL    HW219089   3.925   3.005   4.670
 6116SOL     OW19090   4.331   3.655   5.149
 6116SOL    HW119091   4.251   3.637   5.199
 6116SOL    HW219092   4.357   3.743   5.177
 6117SOL     OW19093   4.309   2.844   3.859
 6117SOL    HW119094   4.355   2.893   3.790
 6117SOL    HW219095   4.348   2.875   3.941
 6118SOL     OW19096   3.841   2.518   4.280
 6118SOL    HW119097   3.816   2.427   4.298
 6118SOL    HW219098   3.838   2.561   4.366
 6119SOL     OW19099   3.755   3.457   3.847
 6119SOL    HW119100   3.740   3.364   3.868
 6119SOL    HW219101   3.732   3.503   3.928
 6120SOL     OW19102   0.112   2.802   4.300
 6120SOL    HW119103   0.199   2.764   4.312
 6120SOL    HW219104   0.129   2.888   4.261
 6121SOL     OW19105   3.847   2.605   5.308
 6121SOL    HW119106   3.939   2.631   5.316
 6121SOL    HW219107   3.798   2.687   5.321
 6122SOL     OW19108   4.337   3.248   4.460
 6122SOL    HW119109   4.291   3.165   4.468
 6122SOL    HW219110   4.321   3.275   4.369
 6123SOL     OW19111   5.005   3.098   5.149
 6123SOL    HW119112   5.039   3.031   5.088
 6123SOL    HW219113   5.061   3.091   5.226
 6124SOL     OW19114   4.539   1.863   4.234
 6124SOL    HW119115   4.580   1.947   4.213
 6124SOL    HW219116   4.446   1.883   4.242
 6125SOL     OW19117   3.913   2.829   4.993
 6125SOL    HW119118   3.998   2.786   4.979
 6125SOL    HW219119   3.849   2.769   4.956
 6126SOL     OW19120   4.895   3.670   5.348
 6126SOL    HW119121   4.916   3.730   5.276
 6126SOL    HW219122   4.919   3.583   5.315
 6127SOL     OW19123   4.059   2.112   5.538
 6127SOL    HW119124   4.102   2.196   5.555
 6127SOL    HW219125   3.969   2.125   5.568
 6128SOL     OW19126   5.167   3.298   4.658
 6128SOL    HW119127   5.106   3.305   4.732
 6128SOL    HW219128   5.161   3.207   4.630
 6129SOL     OW19129   4.320   2.583   3.991
 6129SOL    HW119130   4.324   2.664   3.941
 6129SOL    HW219131   4.254   2.600   4.059
 6130SOL     OW19132   4.995   2.199   4.643
 6130SOL    HW119133   4.907   2.169   4.664
 6130SOL    HW219134   5.050   2.164   4.713
 6131SOL     OW19135   4.514   2.480   5.174
 6131SOL    HW119136   4.489   2.455   5.263
 6131SOL    HW219137   4.476   2.412   5.119
 6132SOL     OW19138   5.114   2.343   5.405
 6132SOL    HW119139   5.116   2.380   5.493
 6132SOL    HW219140   5.191   2.285   5.401
 6133SOL     OW19141   4.677   2.750   5.307
 6133SOL    HW119142   4.730   2.678   5.271
 6133SOL    HW219143   4.629   2.784   5.232
 6134SOL     OW19144   4.715   2.275   4.961
 6134SOL    HW119145   4.628   2.294   4.996
 6134SOL    HW219146   4.698   2.228   4.880
 6135SOL     OW19147   4.775   2.560   4.149
 6135SOL    HW119148   4.791   2.554   4.243
 6135SOL    HW219149   4.692   2.514   4.136
 6136SOL     OW19150   3.824   2.667   4.505
 6136SOL    HW119151   3.903   2.671   4.559
 6136SOL    HW219152   3.776   2.747   4.528
 6137SOL     OW19153   3.849   3.711   5.302
 6137SOL    HW119154   3.851   3.691   5.396
 6137SOL    HW219155   3.757   3.701   5.278
 6138SOL     OW19156   4.619   2.210   3.919
 6138SOL    HW119157   4.658   2.271   3.856
 6138SOL    HW219158   4.632   2.124   3.879
 6139SOL     OW19159   5.093   3.010   4.273
 6139SOL    HW119160   5.181   3.012   4.235
 6139SOL    HW219161   5.042   3.068   4.216
 6140SOL     OW19162   4.274   2.042   4.618
 6140SOL    HW119163   4.276   2.072   4.709
 6140SOL    HW219164   4.275   2.123   4.566
 6141SOL     OW19165   4.729   3.305   4.196
 6141SOL    HW119166   4.692   3.377   4.146
 6141SOL    HW219167   4.711   3.326   4.287
 6142SOL     OW19168   4.079   3.672   4.588
 6142SOL    HW119169   4.123   3.588   4.595
 6142SOL    HW219170   4.147   3.737   4.606
 6143SOL     OW19171   4.939   3.403   5.243
 6143SOL    HW119172   4.927   3.331   5.304
 6143SOL    HW219173   4.881   3.384   5.170
 6144SOL     OW19174   4.044   2.820   3.975
 6144SOL    HW119175   4.125   2.839   3.929
 6144SOL    HW219176   4.012   2.738   3.936
 6145SOL     OW19177   4.190   3.127   5.462
 6145SOL    HW119178   4.164   3.131   5.370
 6145SOL    HW219179   4.108   3.125   5.511
 6146SOL     OW19180   4.831   3.637   3.961
 6146SOL    HW119181   4.759   3.592   4.005
 6146SOL    HW219182   4.857   3.577   3.890
 6147SOL     OW19183   3.925   2.143   5.226
 6147SOL    HW119184   3.843   2.192   5.221
 6147SOL    HW219185   3.906   2.069   5.284
 6148SOL     OW19186   4.189   3.598   4.045
 6148SOL    HW119187   4.232   3.656   4.108
 6148SOL    HW219188   4.260   3.567   3.989
 6149SOL     OW19189   5.119   1.969   4.148
 6149SOL    HW119190   5.100   1.951   4.056
 6149SOL    HW219191   5.214   1.985   4.150
 6150SOL     OW19192   3.976   3.652   4.956
 6150SOL    HW119193   4.031   3.588   5.002
 6150SOL    HW219194   3.972   3.620   4.866
 6151SOL     OW19195   4.662   3.560   4.623
 6151SOL    HW119196   4.742   3.511   4.640
 6151SOL    HW219197   4.618   3.511   4.553
 6152SOL     OW19198   4.119   2.558   4.200
 6152SOL    HW119199   4.138   2.465   4.211
 6152SOL    HW219200   4.025   2.565   4.215
 6153SOL     OW19201   4.362   1.984   3.828
 6153SOL    HW119202   4.429   1.917   3.841
 6153SOL    HW219203   4.311   1.953   3.754
 6154SOL     OW19204   4.489   2.141   5.479
 6154SOL    HW119205   4.566   2.084   5.478
 6154SOL    HW219206   4.441   2.115   5.558
 6155SOL     OW19207   4.599   3.383   4.918
 6155SOL    HW119208   4.584   3.348   4.830
 6155SOL    HW219209   4.670   3.330   4.954
 6156SOL     OW19210   5.057   2.454   5.156
 6156SOL    HW119211   5.089   2.422   5.241
 6156SOL    HW219212   5.100   2.538   5.145
 6157SOL     OW19213   4.539   3.255   4.665
 6157SOL    HW119214   4.623   3.244   4.621
 6157SOL    HW219215   4.475   3.258   4.593
 6158SOL     OW19216   4.651   2.371   4.626
 6158SOL    HW119217   4.628   2.362   4.534
 6158SOL    HW219218   4.683   2.284   4.652
 6159SOL     OW19219   4.273   1.925   4.225
 6159SOL    HW119220   4.193   1.925   4.276
 6159SOL    HW219221   4.267   2.003   4.170
 6160SOL     OW19222   5.135   3.043   3.768
 6160SOL    HW119223   5.142   2.964   3.821
 6160SOL    HW219224   5.048   3.077   3.788
 6161SOL     OW19225   4.014   1.910   3.911
 6161SOL    HW119226   4.071   1.974   3.868
 6161SOL    HW219227   4.074   1.847   3.951
 6162SOL     OW19228   4.662   2.109   4.183
 6162SOL    HW119229   4.636   2.149   4.100
 6162SOL    HW219230   4.757   2.122   4.187
 6163SOL     OW19231   4.801   2.544   5.184
 6163SOL    HW119232   4.734   2.475   5.186
 6163SOL    HW219233   4.884   2.497   5.175
 6164SOL     OW19234   4.939   3.433   4.518
 6164SOL    HW119235   4.961   3.500   4.453
 6164SOL    HW219236   5.021   3.420   4.567
 6165SOL     OW19237   4.192   3.011   4.457
 6165SOL    HW119238   4.122   2.991   4.519
 6165SOL    HW219239   4.153   2.996   4.371
 6166SOL     OW19240   4.995   3.656   4.330
 6166SOL    HW119241   5.037   3.717   4.269
 6166SOL    HW219242   4.928   3.708   4.374
 6167SOL     OW19243   4.748   2.404   3.747
 6167SOL    HW119244   4.703   2.486   3.726
 6167SOL    HW219245   4.809   2.426   3.817
 6168SOL     OW19246   3.803   2.415   5.115
 6168SOL    HW119247   3.895   2.414   5.089
 6168SOL    HW219248   3.798   2.486   5.180
 6169SOL     OW19249   4.283   2.089   4.891
 6169SOL    HW119250   4.325   2.014   4.931
 6169SOL    HW219251   4.192   2.085   4.921
 6170SOL     OW19252   4.592   2.321   4.363
 6170SOL    HW119253   4.546   2.376   4.299
 6170SOL    HW219254   4.613   2.241   4.315
 6171SOL     OW19255   4.739   1.915   4.475
 6171SOL    HW119256   4.681   1.908   4.399
 6171SOL    HW219257   4.717   1.840   4.529
 6172SOL     OW19258   5.156   3.038   4.575
 6172SOL    HW119259   5.101   2.961   4.588
 6172SOL    HW219260   5.168   3.043   4.480
 6173SOL     OW19261   4.214   3.281   3.879
 6173SOL    HW119262   4.139   3.252   3.931
 6173SOL    HW219263   4.202   3.239   3.794
 6174SOL     OW19264   5.128   2.423   3.805
 6174SOL    HW119265   5.054   2.414   3.865
 6174SOL    HW219266   5.202   2.386   3.852
 6175SOL     OW19267   4.250   2.125   4.041
 6175SOL    HW119268   4.295   2.078   3.971
 6175SOL    HW219269   4.226   2.209   4.002
 6176SOL     OW19270   4.780   3.216   5.057
 6176SOL    HW119271   4.704   3.185   5.108
 6176SOL    HW219272   4.855   3.173   5.098
 6177SOL     OW19273   0.006   3.467   5.339
 6177SOL    HW119274   0.041   3.471   5.250
 6177SOL    HW219275   0.082   3.446   5.394
 6178SOL     OW19276   4.854   3.066   4.830
 6178SOL    HW119277   4.792   3.102   4.894
 6178SOL    HW219278   4.821   3.096   4.745
 6179SOL     OW19279   4.642   1.959   5.120
 6179SOL    HW119280   4.664   1.941   5.028
 6179SOL    HW219281   4.721   1.998   5.156
 6180SOL     OW19282   4.709   2.975   5.449
 6180SOL    HW119283   4.617   2.993   5.470
 6180SOL    HW219284   4.706   2.898   5.392
 6181SOL     OW19285   4.433   2.924   4.095
 6181SOL    HW119286   4.419   2.906   4.188
 6181SOL    HW219287   4.509   2.870   4.072
 6182SOL     OW19288   4.143   2.678   4.976
 6182SOL    HW119289   4.211   2.687   5.042
 6182SOL    HW219290   4.108   2.590   4.990
 6183SOL     OW19291   4.988   2.237   5.001
 6183SOL    HW119292   5.023   2.316   5.042
 6183SOL    HW219293   4.898   2.260   4.977
 6184SOL     OW19294   3.796   3.435   5.076
 6184SOL    HW119295   3.769   3.512   5.026
 6184SOL    HW219296   3.892   3.437   5.072
 6185SOL     OW19297   4.071   2.973   4.214
 6185SOL    HW119298   4.076   3.046   4.153
 6185SOL    HW219299   4.069   2.895   4.159
 6186SOL     OW19300   4.275   2.398   4.584
 6186SOL    HW119301   4.290   2.456   4.509
 6186SOL    HW219302   4.341   2.424   4.648
 6187SOL     OW19303   4.972   3.211   4.111
 6187SOL    HW119304   5.026   3.284   4.141
 6187SOL    HW219305   4.884   3.231   4.144
 6188SOL     OW19306   4.996   3.319   4.864
 6188SOL    HW119307   5.050   3.320   4.943
 6188SOL    HW219308   4.942   3.240   4.874
 6189SOL     OW19309   4.071   3.389   5.039
 6189SOL    HW119310   4.059   3.347   4.953
 6189SOL    HW219311   4.165   3.401   5.047
 6190SOL     OW19312   4.138   2.607   5.326
 6190SOL    HW119313   4.201   2.651   5.268
 6190SOL    HW219314   4.177   2.521   5.342
 6191SOL     OW19315   4.718   1.989   5.479
 6191SOL    HW119316   4.776   2.060   5.454
 6191SOL    HW219317   4.765   1.909   5.453
 6192SOL     OW19318   4.221   1.902   5.472
 6192SOL    HW119319   4.177   1.848   5.407
 6192SOL    HW219320   4.163   1.977   5.485
 6193SOL     OW19321   4.308   2.736   4.756
 6193SOL    HW119322   4.340   2.826   4.756
 6193SOL    HW219323   4.252   2.730   4.833
 6194SOL     OW19324   5.086   2.718   4.760
 6194SOL    HW119325   5.009   2.699   4.707
 6194SOL    HW219326   5.140   2.640   4.754
 6195SOL     OW19327   4.927   2.393   3.988
 6195SOL    HW119328   4.934   2.313   4.040
 6195SOL    HW219329   4.883   2.456   4.045
 6196SOL     OW19330   4.022   2.060   4.971
 6196SOL    HW119331   3.985   2.092   5.053
 6196SOL    HW219332   4.003   1.966   4.971
 6197SOL     OW19333   3.759   3.175   4.999
 6197SOL    HW119334   3.795   3.117   5.066
 6197SOL    HW219335   3.775   3.263   5.033
 6198SOL     OW19336   4.447   2.492   4.781
 6198SOL    HW119337   4.523   2.477   4.724
 6198SOL    HW219338   4.420   2.582   4.760
 6199SOL     OW19339   4.028   1.925   4.347
 6199SOL    HW119340   4.010   2.016   4.370
 6199SOL    HW219341   4.036   1.880   4.432
 6200SOL     OW19342   0.034   2.258   4.082
 6200SOL    HW119343   0.052   2.182   4.138
 6200SOL    HW219344   0.020   2.330   4.144
 6201SOL     OW19345   4.751   2.621   4.683
 6201SOL    HW119346   4.748   2.638   4.777
 6201SOL    HW219347   4.725   2.529   4.675
 6202SOL     OW19348   4.697   3.423   5.438
 6202SOL    HW119349   4.686   3.471   5.356
 6202SOL    HW219350   4.745   3.344   5.414
 6203SOL     OW19351   4.077   2.778   5.533
 6203SOL    HW119352   4.159   2.797   5.579
 6203SOL    HW219353   4.102   2.715   5.465
 6204SOL     OW19354   5.028   2.691   3.761
 6204SOL    HW119355   5.065   2.602   3.763
 6204SOL    HW219356   5.055   2.726   3.676
 6205SOL     OW19357   4.789   3.197   4.580
 6205SOL    HW119358   4.794   3.125   4.517
 6205SOL    HW219359   4.847   3.264   4.544
 6206SOL     OW19360   4.037   2.673   4.675
 6206SOL    HW119361   4.131   2.692   4.668
 6206SOL    HW219362   4.033   2.582   4.706
 6207SOL     OW19363   4.054   2.389   4.736
 6207SOL    HW119364   4.019   2.301   4.722
 6207SOL    HW219365   4.131   2.394   4.679
 6208SOL     OW19366   4.856   2.238   5.405
 6208SOL    HW119367   4.808   2.292   5.468
 6208SOL    HW219368   4.943   2.277   5.401
 6209SOL     OW19369   4.885   2.063   5.193
 6209SOL    HW119370   4.873   2.126   5.265
 6209SOL    HW219371   4.924   2.115   5.123
 6210SOL     OW19372   3.727   3.184   3.919
 6210SOL    HW119373   3.641   3.195   3.880
 6210SOL    HW219374   3.728   3.094   3.950
 6211SOL     OW19375   3.814   3.649   4.663
 6211SOL    HW119376   3.785   3.569   4.619
 6211SOL    HW219377   3.904   3.662   4.632
 6212SOL     OW19378   4.220   3.436   4.630
 6212SOL    HW119379   4.288   3.498   4.654
 6212SOL    HW219380   4.264   3.373   4.572
 6213SOL     OW19381   4.705   2.654   4.950
 6213SOL    HW119382   4.761   2.631   5.024
 6213SOL    HW219383   4.620   2.615   4.972
 6214SOL     OW19384   3.762   2.399   4.839
 6214SOL    HW119385   3.845   2.395   4.791
 6214SOL    HW219386   3.787   2.407   4.931
 6215SOL     OW19387   3.916   2.382   5.452
 6215SOL    HW119388   3.970   2.342   5.385
 6215SOL    HW219389   3.874   2.456   5.407
 6216SOL     OW19390   5.113   2.799   5.390
 6216SOL    HW119391   5.121   2.893   5.378
 6216SOL    HW219392   5.117   2.763   5.302
 6217SOL     OW19393   4.540   2.432   4.085
 6217SOL    HW119394   4.544   2.357   4.025
 6217SOL    HW219395   4.466   2.484   4.053
 6218SOL     OW19396   3.966   3.413   5.451
 6218SOL    HW119397   3.944   3.477   5.518
 6218SOL    HW219398   3.969   3.329   5.497
 6219SOL     OW19399   4.427   2.311   4.982
 6219SOL    HW119400   4.373   2.238   4.953
 6219SOL    HW219401   4.423   2.374   4.910
 6220SOL     OW19402   4.643   3.542   5.193
 6220SOL    HW119403   4.622   3.509   5.106
 6220SOL    HW219404   4.644   3.637   5.183
 6221SOL     OW19405   4.187   2.355   3.911
 6221SOL    HW119406   4.245   2.428   3.932
 6221SOL    HW219407   4.101   2.395   3.898
 6222SOL     OW19408   3.868   3.003   5.194
 6222SOL    HW119409   3.871   2.953   5.276
 6222SOL    HW219410   3.887   2.939   5.126
 6223SOL     OW19411   5.053   2.911   4.948
 6223SOL    HW119412   5.074   2.845   4.881
 6223SOL    HW219413   4.982   2.962   4.909
 6224SOL     OW19414   5.035   2.722   4.040
 6224SOL    HW119415   4.954   2.689   4.078
 6224SOL    HW219416   5.024   2.713   3.946
 6225SOL     OW19417   4.959   3.593   4.844
 6225SOL    HW119418   5.045   3.615   4.809
 6225SOL    HW219419   4.961   3.498   4.854
 6226SOL     OW19420   3.808   3.130   4.734
 6226SOL    HW119421   3.791   3.140   4.828
 6226SOL    HW219422   3.738   3.072   4.703
 6227SOL     OW19423   4.401   3.528   5.454
 6227SOL    HW119424   4.349   3.608   5.447
 6227SOL    HW219425   4.471   3.539   5.390
 6228SOL     OW19426   0.078   2.024   4.256
 6228SOL    HW119427   0.161   2.008   4.211
 6228SOL    HW219428   0.065   1.945   4.308
 6229SOL     OW19429   5.111   3.432   4.206
 6229SOL    HW119430   5.181   3.474   4.155
 6229SOL    HW219431   5.060   3.505   4.240
 6230SOL     OW19432   3.861   3.659   5.567
 6230SOL    HW119433   3.810   3.593   5.615
 6230SOL    HW219434   3.909   3.706   5.635
 6231SOL     OW19435   5.017   2.781   4.395
 6231SOL    HW119436   5.095   2.728   4.383
 6231SOL    HW219437   5.035   2.862   4.347
 6232SOL     OW19438   4.536   3.136   5.154
 6232SOL    HW119439   4.508   3.175   5.236
 6232SOL    HW219440   4.467   3.158   5.091
 6233SOL     OW19441   4.394   3.483   3.879
 6233SOL    HW119442   4.406   3.496   3.785
 6233SOL    HW219443   4.339   3.405   3.886
 6234SOL     OW19444   3.992   2.176   4.442
 6234SOL    HW119445   3.907   2.212   4.415
 6234SOL    HW219446   3.986   2.169   4.537
 6235SOL     OW19447   4.908   3.471   3.766
 6235SOL    HW119448   4.920   3.376   3.776
 6235SOL    HW219449   4.853   3.480   3.688
 6236SOL     OW19450   4.547   2.868   5.097
 6236SOL    HW119451   4.592   2.863   5.012
 6236SOL    HW219452   4.547   2.961   5.118
 6237SOL     OW19453   4.641   2.773   4.015
 6237SOL    HW119454   4.702   2.805   3.948
 6237SOL    HW219455   4.688   2.703   4.059
 6238SOL     OW19456   4.092   3.165   5.216
 6238SOL    HW119457   4.080   3.242   5.161
 6238SOL    HW219458   4.015   3.111   5.199
 6239SOL     OW19459   4.777   2.969   4.431
 6239SOL    HW119460   4.706   2.919   4.471
 6239SOL    HW219461   4.835   2.903   4.394
 6240SOL     OW19462   4.739   2.101   4.692
 6240SOL    HW119463   4.737   2.054   4.609
 6240SOL    HW219464   4.735   2.032   4.759
 6241SOL     OW19465   4.327   3.350   4.206
 6241SOL    HW119466   4.373   3.300   4.138
 6241SOL    HW219467   4.257   3.396   4.158
 6242SOL     OW19468   3.983   3.206   4.012
 6242SOL    HW119469   3.890   3.204   3.990
 6242SOL    HW219470   3.986   3.244   4.100
 6243SOL     OW19471   3.838   2.887   5.444
 6243SOL    HW119472   3.762   2.863   5.496
 6243SOL    HW219473   3.912   2.848   5.491
 6244SOL     OW19474   4.399   2.058   5.224
 6244SOL    HW119475   4.483   2.038   5.183
 6244SOL    HW219476   4.422   2.090   5.311
 6245SOL     OW19477   3.803   2.191   3.760
 6245SOL    HW119478   3.711   2.176   3.738
 6245SOL    HW219479   3.829   2.267   3.707
 6246SOL     OW19480   5.163   2.722   5.128
 6246SOL    HW119481   5.111   2.779   5.071
 6246SOL    HW219482   5.252   2.728   5.093
 6247SOL     OW19483   3.790   2.020   4.034
 6247SOL    HW119484   3.774   2.096   3.977
 6247SOL    HW219485   3.875   1.986   4.006
 6248SOL     OW19486   4.906   3.190   3.838
 6248SOL    HW119487   4.812   3.172   3.839
 6248SOL    HW219488   4.930   3.197   3.930
 6249SOL     OW19489   4.343   2.693   5.158
 6249SOL    HW119490   4.400   2.768   5.143
 6249SOL    HW219491   4.403   2.619   5.166
 6250SOL     OW19492   4.442   2.424   5.427
 6250SOL    HW119493   4.483   2.486   5.488
 6250SOL    HW219494   4.466   2.338   5.460
 6251SOL     OW19495   5.181   3.065   5.356
 6251SOL    HW119496   5.172   3.078   5.450
 6251SOL    HW219497   5.275   3.073   5.339
 6252SOL     OW19498   4.102   3.601   5.289
 6252SOL    HW119499   4.017   3.643   5.275
 6252SOL    HW219500   4.081   3.518   5.331
 6253SOL     OW19501   4.939   2.182   4.179
 6253SOL    HW119502   5.001   2.110   4.167
 6253SOL    HW219503   4.970   2.226   4.259
 6254SOL     OW19504   4.314   2.599   4.395
 6254SOL    HW119505   4.353   2.685   4.379
 6254SOL    HW219506   4.247   2.591   4.327
 6255SOL     OW19507   4.591   3.228   3.761
 6255SOL    HW119508   4.550   3.259   3.841
 6255SOL    HW219509   4.607   3.307   3.710
 6256SOL     OW19510   4.384   3.652   4.667
 6256SOL    HW119511   4.365   3.743   4.645
 6256SOL    HW219512   4.480   3.645   4.661
 6257SOL     OW19513   4.592   2.830   4.579
 6257SOL    HW119514   4.642   2.758   4.618
 6257SOL    HW219515   4.557   2.877   4.654
 6258SOL     OW19516   4.807   2.849   3.814
 6258SOL    HW119517   4.782   2.899   3.736
 6258SOL    HW219518   4.881   2.796   3.787
 6259SOL     OW19519   3.949   3.164   5.579
 6259SOL    HW119520   3.882   3.102   5.550
 6259SOL    HW219521   3.931   3.177   5.673
 6260SOL     OW19522   3.814   3.097   4.390
 6260SOL    HW119523   3.828   3.052   4.473
 6260SOL    HW219524   3.876   3.057   4.329
 6261SOL     OW19525   4.405   3.265   5.353
 6261SOL    HW119526   4.325   3.223   5.385
 6261SOL    HW219527   4.402   3.353   5.389
 6262SOL     OW19528   4.154   2.296   4.249
 6262SOL    HW119529   4.184   2.226   4.191
 6262SOL    HW219530   4.108   2.251   4.320
 6263SOL     OW19531   0.094   3.382   4.824
 6263SOL    HW119532   0.027   3.360   4.759
 6263SOL    HW219533   0.098   3.306   4.882
 6264SOL     OW19534   4.055   2.418   5.016
 6264SOL    HW119535   4.110   2.363   5.072
 6264SOL    HW219536   4.074   2.389   4.927
 6265SOL     OW19537   4.552   3.440   4.401
 6265SOL    HW119538   4.540   3.496   4.324
 6265SOL    HW219539   4.475   3.383   4.402
 6266SOL     OW19540   5.146   2.081   4.839
 6266SOL    HW119541   5.192   2.016   4.893
 6266SOL    HW219542   5.100   2.136   4.902
 6267SOL     OW19543   4.729   1.880   4.865
 6267SOL    HW119544   4.676   1.812   4.824
 6267SOL    HW219545   4.817   1.842   4.870
 6268SOL     OW19546   4.494   3.195   4.041
 6268SOL    HW119547   4.465   3.104   4.047
 6268SOL    HW219548   4.577   3.196   4.089
 6269SOL     OW19549   4.344   3.418   5.009
 6269SOL    HW119550   4.345   3.500   5.058
 6269SOL    HW219551   4.431   3.410   4.972
 6270SOL     OW19552   5.057   1.907   3.891
 6270SOL    HW119553   5.079   1.867   3.807
 6270SOL    HW219554   4.972   1.870   3.914
 6271SOL     OW19555   5.027   2.320   4.405
 6271SOL    HW119556   4.973   2.399   4.409
 6271SOL    HW219557   5.016   2.279   4.491
 6272SOL     OW19558   0.002   2.088   4.605
 6272SOL    HW119559   5.237   2.075   4.674
 6272SOL    HW219560   5.274   2.168   4.560
 6273SOL     OW19561   3.778   2.936   4.028
 6273SOL    HW119562   3.871   2.923   4.010
 6273SOL    HW219563   3.745   2.848   4.048
 6274SOL     OW19564   4.604   3.513   4.070
 6274SOL    HW119565   4.533   3.498   4.007
 6274SOL    HW219566   4.577   3.590   4.120
 6275SOL     OW19567   3.952   2.486   5.710
 6275SOL    HW119568   3.863   2.483   5.745
 6275SOL    HW219569   3.943   2.460   5.618
 6276SOL     OW19570   3.949   2.144   6.578
 6276SOL    HW119571   3.977   2.109   6.663
 6276SOL    HW219572   3.859   2.112   6.568
 6277SOL     OW19573   3.727   2.245   6.224
 6277SOL    HW119574   3.645   2.271   6.266
 6277SOL    HW219575   3.705   2.166   6.175
 6278SOL     OW19576   4.291   3.151   6.762
 6278SOL    HW119577   4.204   3.155   6.724
 6278SOL    HW219578   4.307   3.240   6.795
 6279SOL     OW19579   5.286   3.398   6.292
 6279SOL    HW119580   5.247   3.356   6.368
 6279SOL    HW219581   5.221   3.390   6.223
 6280SOL     OW19582   4.859   2.561   6.285
 6280SOL    HW119583   4.910   2.642   6.275
 6280SOL    HW219584   4.810   2.572   6.366
 6281SOL     OW19585   4.478   3.004   6.628
 6281SOL    HW119586   4.409   3.039   6.685
 6281SOL    HW219587   4.513   3.080   6.583
 6282SOL     OW19588   4.593   2.636   7.407
 6282SOL    HW119589   4.571   2.710   7.463
 6282SOL    HW219590   4.617   2.675   7.323
 6283SOL     OW19591   4.410   2.863   6.232
 6283SOL    HW119592   4.475   2.853   6.302
 6283SOL    HW219593   4.341   2.916   6.272
 6284SOL     OW19594   4.435   3.013   7.399
 6284SOL    HW119595   4.483   3.092   7.427
 6284SOL    HW219596   4.354   3.047   7.363
 6285SOL     OW19597   4.054   3.286   6.654
 6285SOL    HW119598   3.982   3.248   6.604
 6285SOL    HW219599   4.104   3.337   6.589
 6286SOL     OW19600   5.161   3.342   6.939
 6286SOL    HW119601   5.208   3.421   6.964
 6286SOL    HW219602   5.101   3.326   7.013
 6287SOL     OW19603   4.174   2.260   7.073
 6287SOL    HW119604   4.249   2.200   7.078
 6287SOL    HW219605   4.097   2.204   7.086
 6288SOL     OW19606   3.943   3.576   6.057
 6288SOL    HW119607   3.964   3.653   6.111
 6288SOL    HW219608   4.017   3.569   5.997
 6289SOL     OW19609   4.859   3.202   7.278
 6289SOL    HW119610   4.899   3.199   7.365
 6289SOL    HW219611   4.807   3.121   7.272
 6290SOL     OW19612   3.954   3.304   6.121
 6290SOL    HW119613   3.937   3.398   6.124
 6290SOL    HW219614   3.894   3.266   6.186
 6291SOL     OW19615   3.983   2.952   6.477
 6291SOL    HW119616   3.979   2.866   6.517
 6291SOL    HW219617   3.925   3.006   6.531
 6292SOL     OW19618   4.331   3.655   7.011
 6292SOL    HW119619   4.251   3.636   7.060
 6292SOL    HW219620   4.357   3.743   7.039
 6293SOL     OW19621   4.309   2.844   5.721
 6293SOL    HW119622   4.355   2.893   5.653
 6293SOL    HW219623   4.348   2.875   5.803
 6294SOL     OW19624   3.839   2.515   6.146
 6294SOL    HW119625   3.810   2.427   6.166
 6294SOL    HW219626   3.831   2.563   6.228
 6295SOL     OW19627   3.757   3.456   5.709
 6295SOL    HW119628   3.739   3.364   5.729
 6295SOL    HW219629   3.733   3.504   5.789
 6296SOL     OW19630   0.112   2.802   6.162
 6296SOL    HW119631   0.199   2.764   6.174
 6296SOL    HW219632   0.129   2.888   6.123
 6297SOL     OW19633   3.847   2.604   7.172
 6297SOL    HW119634   3.938   2.632   7.178
 6297SOL    HW219635   3.797   2.686   7.179
 6298SOL     OW19636   4.338   3.248   6.321
 6298SOL    HW119637   4.292   3.165   6.331
 6298SOL    HW219638   4.321   3.275   6.231
 6299SOL     OW19639   5.005   3.098   7.010
 6299SOL    HW119640   5.039   3.031   6.950
 6299SOL    HW219641   5.061   3.091   7.087
 6300SOL     OW19642   4.539   1.863   6.096
 6300SOL    HW119643   4.580   1.947   6.075
 6300SOL    HW219644   4.446   1.882   6.104
 6301SOL     OW19645   3.914   2.827   6.858
 6301SOL    HW119646   3.999   2.785   6.843
 6301SOL    HW219647   3.851   2.773   6.810
 6302SOL     OW19648   4.896   3.670   7.209
 6302SOL    HW119649   4.916   3.729   7.137
 6302SOL    HW219650   4.920   3.583   7.177
 6303SOL     OW19651   4.058   2.110   7.402
 6303SOL    HW119652   4.101   2.195   7.414
 6303SOL    HW219653   3.968   2.125   7.430
 6304SOL     OW19654   5.167   3.298   6.521
 6304SOL    HW119655   5.106   3.305   6.594
 6304SOL    HW219656   5.161   3.207   6.492
 6305SOL     OW19657   4.319   2.583   5.853
 6305SOL    HW119658   4.324   2.664   5.804
 6305SOL    HW219659   4.254   2.599   5.921
 6306SOL     OW19660   4.995   2.199   6.505
 6306SOL    HW119661   4.907   2.170   6.526
 6306SOL    HW219662   5.050   2.164   6.575
 6307SOL     OW19663   4.514   2.480   7.037
 6307SOL    HW119664   4.489   2.455   7.125
 6307SOL    HW219665   4.476   2.412   6.981
 6308SOL     OW19666   5.115   2.344   7.267
 6308SOL    HW119667   5.117   2.380   7.355
 6308SOL    HW219668   5.191   2.286   7.262
 6309SOL     OW19669   4.677   2.750   7.169
 6309SOL    HW119670   4.730   2.679   7.132
 6309SOL    HW219671   4.629   2.785   7.094
 6310SOL     OW19672   4.715   2.275   6.823
 6310SOL    HW119673   4.628   2.294   6.858
 6310SOL    HW219674   4.698   2.228   6.742
 6311SOL     OW19675   4.775   2.560   6.011
 6311SOL    HW119676   4.791   2.554   6.105
 6311SOL    HW219677   4.692   2.514   5.998
 6312SOL     OW19678   3.813   2.683   6.362
 6312SOL    HW119679   3.893   2.676   6.413
 6312SOL    HW219680   3.769   2.761   6.397
 6313SOL     OW19681   3.850   3.715   7.166
 6313SOL    HW119682   3.851   3.693   7.259
 6313SOL    HW219683   3.760   3.698   7.138
 6314SOL     OW19684   4.619   2.210   5.780
 6314SOL    HW119685   4.658   2.271   5.718
 6314SOL    HW219686   4.632   2.124   5.741
 6315SOL     OW19687   5.093   3.010   6.135
 6315SOL    HW119688   5.181   3.012   6.097
 6315SOL    HW219689   5.042   3.068   6.078
 6316SOL     OW19690   4.275   2.043   6.480
 6316SOL    HW119691   4.276   2.072   6.571
 6316SOL    HW219692   4.275   2.123   6.428
 6317SOL     OW19693   4.729   3.305   6.058
 6317SOL    HW119694   4.692   3.378   6.008
 6317SOL    HW219695   4.710   3.326   6.149
 6318SOL     OW19696   4.078   3.672   6.450
 6318SOL    HW119697   4.122   3.587   6.457
 6318SOL    HW219698   4.147   3.736   6.468
 6319SOL     OW19699   4.940   3.403   7.104
 6319SOL    HW119700   4.927   3.331   7.165
 6319SOL    HW219701   4.879   3.385   7.032
 6320SOL     OW19702   4.043   2.820   5.837
 6320SOL    HW119703   4.125   2.839   5.791
 6320SOL    HW219704   4.012   2.738   5.799
 6321SOL     OW19705   4.190   3.125   7.323
 6321SOL    HW119706   4.163   3.131   7.232
 6321SOL    HW219707   4.108   3.124   7.372
 6322SOL     OW19708   4.831   3.637   5.823
 6322SOL    HW119709   4.759   3.592   5.867
 6322SOL    HW219710   4.857   3.577   5.752
 6323SOL     OW19711   3.925   2.143   7.088
 6323SOL    HW119712   3.843   2.191   7.082
 6323SOL    HW219713   3.905   2.068   7.145
 6324SOL     OW19714   4.189   3.598   5.907
 6324SOL    HW119715   4.232   3.656   5.970
 6324SOL    HW219716   4.261   3.567   5.851
 6325SOL     OW19717   5.119   1.969   6.010
 6325SOL    HW119718   5.100   1.951   5.918
 6325SOL    HW219719   5.214   1.985   6.012
 6326SOL     OW19720   3.979   3.653   6.818
 6326SOL    HW119721   4.031   3.587   6.863
 6326SOL    HW219722   3.971   3.620   6.728
 6327SOL     OW19723   4.662   3.560   6.484
 6327SOL    HW119724   4.742   3.511   6.502
 6327SOL    HW219725   4.618   3.511   6.415
 6328SOL     OW19726   4.118   2.557   6.061
 6328SOL    HW119727   4.138   2.464   6.074
 6328SOL    HW219728   4.024   2.564   6.079
 6329SOL     OW19729   4.361   1.984   5.690
 6329SOL    HW119730   4.428   1.917   5.704
 6329SOL    HW219731   4.311   1.953   5.615
 6330SOL     OW19732   4.488   2.140   7.341
 6330SOL    HW119733   4.566   2.084   7.341
 6330SOL    HW219734   4.445   2.120   7.424
 6331SOL     OW19735   4.599   3.384   6.780
 6331SOL    HW119736   4.584   3.348   6.692
 6331SOL    HW219737   4.670   3.330   6.816
 6332SOL     OW19738   5.057   2.454   7.018
 6332SOL    HW119739   5.089   2.422   7.103
 6332SOL    HW219740   5.100   2.539   7.006
 6333SOL     OW19741   4.539   3.256   6.527
 6333SOL    HW119742   4.624   3.244   6.483
 6333SOL    HW219743   4.475   3.258   6.455
 6334SOL     OW19744   4.652   2.371   6.488
 6334SOL    HW119745   4.628   2.362   6.396
 6334SOL    HW219746   4.682   2.284   6.514
 6335SOL     OW19747   4.273   1.925   6.087
 6335SOL    HW119748   4.193   1.925   6.139
 6335SOL    HW219749   4.267   2.003   6.032
 6336SOL     OW19750   5.135   3.043   5.630
 6336SOL    HW119751   5.143   2.964   5.683
 6336SOL    HW219752   5.048   3.077   5.650
 6337SOL     OW19753   4.015   1.910   5.771
 6337SOL    HW119754   4.074   1.974   5.731
 6337SOL    HW219755   4.074   1.847   5.813
 6338SOL     OW19756   4.662   2.109   6.045
 6338SOL    HW119757   4.636   2.149   5.962
 6338SOL    HW219758   4.757   2.122   6.049
 6339SOL     OW19759   4.801   2.544   7.046
 6339SOL    HW119760   4.734   2.475   7.048
 6339SOL    HW219761   4.884   2.496   7.037
 6340SOL     OW19762   4.940   3.433   6.380
 6340SOL    HW119763   4.961   3.500   6.315
 6340SOL    HW219764   5.021   3.420   6.429
 6341SOL     OW19765   4.194   3.012   6.318
 6341SOL    HW119766   4.125   2.992   6.382
 6341SOL    HW219767   4.153   2.996   6.233
 6342SOL     OW19768   4.995   3.656   6.192
 6342SOL    HW119769   5.037   3.717   6.131
 6342SOL    HW219770   4.928   3.708   6.236
 6343SOL     OW19771   4.748   2.404   5.609
 6343SOL    HW119772   4.703   2.486   5.589
 6343SOL    HW219773   4.809   2.426   5.679
 6344SOL     OW19774   3.804   2.417   6.978
 6344SOL    HW119775   3.896   2.416   6.951
 6344SOL    HW219776   3.799   2.486   7.043
 6345SOL     OW19777   4.283   2.089   6.753
 6345SOL    HW119778   4.325   2.013   6.794
 6345SOL    HW219779   4.192   2.085   6.782
 6346SOL     OW19780   4.592   2.321   6.225
 6346SOL    HW119781   4.545   2.376   6.162
 6346SOL    HW219782   4.613   2.241   6.177
 6347SOL     OW19783   4.739   1.915   6.337
 6347SOL    HW119784   4.681   1.909   6.261
 6347SOL    HW219785   4.717   1.840   6.391
 6348SOL     OW19786   5.156   3.038   6.437
 6348SOL    HW119787   5.101   2.961   6.451
 6348SOL    HW219788   5.168   3.043   6.342
 6349SOL     OW19789   4.214   3.281   5.741
 6349SOL    HW119790   4.139   3.252   5.794
 6349SOL    HW219791   4.202   3.239   5.656
 6350SOL     OW19792   5.128   2.423   5.667
 6350SOL    HW119793   5.054   2.414   5.728
 6350SOL    HW219794   5.202   2.386   5.713
 6351SOL     OW19795   4.250   2.125   5.903
 6351SOL    HW119796   4.295   2.078   5.833
 6351SOL    HW219797   4.226   2.209   5.864
 6352SOL     OW19798   4.779   3.216   6.919
 6352SOL    HW119799   4.704   3.185   6.970
 6352SOL    HW219800   4.855   3.174   6.960
 6353SOL     OW19801   0.007   3.468   7.201
 6353SOL    HW119802   0.041   3.471   7.112
 6353SOL    HW219803   0.083   3.447   7.255
 6354SOL     OW19804   4.854   3.066   6.692
 6354SOL    HW119805   4.792   3.101   6.756
 6354SOL    HW219806   4.821   3.096   6.607
 6355SOL     OW19807   4.642   1.959   6.982
 6355SOL    HW119808   4.664   1.941   6.890
 6355SOL    HW219809   4.721   1.998   7.018
 6356SOL     OW19810   4.709   2.973   7.314
 6356SOL    HW119811   4.617   2.993   7.332
 6356SOL    HW219812   4.706   2.897   7.256
 6357SOL     OW19813   4.433   2.924   5.957
 6357SOL    HW119814   4.419   2.906   6.050
 6357SOL    HW219815   4.509   2.870   5.934
 6358SOL     OW19816   4.143   2.677   6.837
 6358SOL    HW119817   4.211   2.687   6.904
 6358SOL    HW219818   4.108   2.589   6.851
 6359SOL     OW19819   4.988   2.237   6.863
 6359SOL    HW119820   5.023   2.316   6.904
 6359SOL    HW219821   4.898   2.260   6.839
 6360SOL     OW19822   3.795   3.435   6.940
 6360SOL    HW119823   3.766   3.508   6.885
 6360SOL    HW219824   3.891   3.438   6.934
 6361SOL     OW19825   4.071   2.972   6.076
 6361SOL    HW119826   4.076   3.046   6.015
 6361SOL    HW219827   4.069   2.895   6.020
 6362SOL     OW19828   4.276   2.398   6.446
 6362SOL    HW119829   4.291   2.456   6.371
 6362SOL    HW219830   4.341   2.424   6.510
 6363SOL     OW19831   4.972   3.211   5.973
 6363SOL    HW119832   5.026   3.284   6.003
 6363SOL    HW219833   4.884   3.231   6.007
 6364SOL     OW19834   4.996   3.319   6.726
 6364SOL    HW119835   5.050   3.320   6.805
 6364SOL    HW219836   4.941   3.241   6.736
 6365SOL     OW19837   4.070   3.390   6.900
 6365SOL    HW119838   4.058   3.347   6.816
 6365SOL    HW219839   4.165   3.402   6.908
 6366SOL     OW19840   4.139   2.607   7.188
 6366SOL    HW119841   4.201   2.651   7.130
 6366SOL    HW219842   4.176   2.521   7.203
 6367SOL     OW19843   4.718   1.989   7.340
 6367SOL    HW119844   4.776   2.060   7.314
 6367SOL    HW219845   4.765   1.909   7.316
 6368SOL     OW19846   4.222   1.901   7.334
 6368SOL    HW119847   4.179   1.847   7.268
 6368SOL    HW219848   4.164   1.976   7.346
 6369SOL     OW19849   4.308   2.735   6.618
 6369SOL    HW119850   4.338   2.826   6.617
 6369SOL    HW219851   4.251   2.729   6.694
 6370SOL     OW19852   5.086   2.718   6.622
 6370SOL    HW119853   5.009   2.699   6.569
 6370SOL    HW219854   5.140   2.639   6.616
 6371SOL     OW19855   4.927   2.393   5.850
 6371SOL    HW119856   4.934   2.313   5.902
 6371SOL    HW219857   4.883   2.456   5.907
 6372SOL     OW19858   4.022   2.060   6.833
 6372SOL    HW119859   3.985   2.093   6.915
 6372SOL    HW219860   4.003   1.966   6.833
 6373SOL     OW19861   3.771   3.173   6.862
 6373SOL    HW119862   3.803   3.118   6.933
 6373SOL    HW219863   3.777   3.262   6.896
 6374SOL     OW19864   4.447   2.493   6.643
 6374SOL    HW119865   4.523   2.477   6.586
 6374SOL    HW219866   4.419   2.582   6.622
 6375SOL     OW19867   4.028   1.926   6.209
 6375SOL    HW119868   4.007   2.017   6.232
 6375SOL    HW219869   4.035   1.881   6.294
 6376SOL     OW19870   0.034   2.258   5.944
 6376SOL    HW119871   0.052   2.182   6.000
 6376SOL    HW219872   0.020   2.330   6.006
 6377SOL     OW19873   4.751   2.621   6.545
 6377SOL    HW119874   4.749   2.638   6.639
 6377SOL    HW219875   4.725   2.529   6.537
 6378SOL     OW19876   4.698   3.423   7.300
 6378SOL    HW119877   4.687   3.471   7.218
 6378SOL    HW219878   4.745   3.344   7.276
 6379SOL     OW19879   4.077   2.776   7.397
 6379SOL    HW119880   4.161   2.797   7.439
 6379SOL    HW219881   4.100   2.714   7.327
 6380SOL     OW19882   5.027   2.691   5.623
 6380SOL    HW119883   5.065   2.602   5.625
 6380SOL    HW219884   5.055   2.726   5.538
 6381SOL     OW19885   4.789   3.196   6.442
 6381SOL    HW119886   4.794   3.125   6.379
 6381SOL    HW219887   4.847   3.264   6.405
 6382SOL     OW19888   4.032   2.671   6.533
 6382SOL    HW119889   4.126   2.692   6.527
 6382SOL    HW219890   4.030   2.581   6.565
 6383SOL     OW19891   4.055   2.389   6.599
 6383SOL    HW119892   4.019   2.301   6.584
 6383SOL    HW219893   4.131   2.394   6.541
 6384SOL     OW19894   4.857   2.238   7.266
 6384SOL    HW119895   4.809   2.293   7.328
 6384SOL    HW219896   4.944   2.277   7.261
 6385SOL     OW19897   4.885   2.063   7.055
 6385SOL    HW119898   4.873   2.125   7.126
 6385SOL    HW219899   4.924   2.115   6.984
 6386SOL     OW19900   3.729   3.182   5.781
 6386SOL    HW119901   3.642   3.197   5.743
 6386SOL    HW219902   3.726   3.093   5.815
 6387SOL     OW19903   3.814   3.648   6.524
 6387SOL    HW119904   3.784   3.569   6.480
 6387SOL    HW219905   3.904   3.661   6.494
 6388SOL     OW19906   4.220   3.436   6.491
 6388SOL    HW119907   4.288   3.498   6.515
 6388SOL    HW219908   4.264   3.373   6.435
 6389SOL     OW19909   4.705   2.654   6.812
 6389SOL    HW119910   4.761   2.631   6.886
 6389SOL    HW219911   4.620   2.616   6.834
 6390SOL     OW19912   3.759   2.406   6.703
 6390SOL    HW119913   3.840   2.394   6.653
 6390SOL    HW219914   3.788   2.410   6.794
 6391SOL     OW19915   3.917   2.382   7.314
 6391SOL    HW119916   3.970   2.340   7.246
 6391SOL    HW219917   3.875   2.456   7.270
 6392SOL     OW19918   5.112   2.798   7.253
 6392SOL    HW119919   5.120   2.893   7.241
 6392SOL    HW219920   5.116   2.762   7.164
 6393SOL     OW19921   4.541   2.432   5.946
 6393SOL    HW119922   4.544   2.357   5.887
 6393SOL    HW219923   4.466   2.483   5.915
 6394SOL     OW19924   3.965   3.413   7.313
 6394SOL    HW119925   3.944   3.477   7.380
 6394SOL    HW219926   3.969   3.330   7.360
 6395SOL     OW19927   4.427   2.311   6.844
 6395SOL    HW119928   4.373   2.238   6.815
 6395SOL    HW219929   4.422   2.375   6.772
 6396SOL     OW19930   4.644   3.542   7.055
 6396SOL    HW119931   4.622   3.509   6.967
 6396SOL    HW219932   4.644   3.637   7.045
 6397SOL     OW19933   4.187   2.354   5.772
 6397SOL    HW119934   4.246   2.427   5.794
 6397SOL    HW219935   4.102   2.395   5.760
 6398SOL     OW19936   3.869   3.003   7.059
 6398SOL    HW119937   3.871   2.952   7.140
 6398SOL    HW219938   3.886   2.939   6.990
 6399SOL     OW19939   5.053   2.910   6.810
 6399SOL    HW119940   5.074   2.845   6.743
 6399SOL    HW219941   4.982   2.962   6.771
 6400SOL     OW19942   5.035   2.723   5.902
 6400SOL    HW119943   4.954   2.689   5.940
 6400SOL    HW219944   5.024   2.713   5.808
 6401SOL     OW19945   4.959   3.593   6.706
 6401SOL    HW119946   5.045   3.615   6.670
 6401SOL    HW219947   4.961   3.498   6.717
 6402SOL     OW19948   3.808   3.129   6.597
 6402SOL    HW119949   3.794   3.142   6.691
 6402SOL    HW219950   3.736   3.074   6.569
 6403SOL     OW19951   4.400   3.527   7.315
 6403SOL    HW119952   4.349   3.607   7.310
 6403SOL    HW219953   4.471   3.539   7.251
 6404SOL     OW19954   0.078   2.024   6.118
 6404SOL    HW119955   0.161   2.008   6.072
 6404SOL    HW219956   0.065   1.945   6.170
 6405SOL     OW19957   5.111   3.432   6.067
 6405SOL    HW119958   5.181   3.474   6.018
 6405SOL    HW219959   5.060   3.505   6.102
 6406SOL     OW19960   3.861   3.658   7.430
 6406SOL    HW119961   3.810   3.593   7.479
 6406SOL    HW219962   3.909   3.706   7.497
 6407SOL     OW19963   5.017   2.782   6.257
 6407SOL    HW119964   5.095   2.728   6.245
 6407SOL    HW219965   5.035   2.862   6.209
 6408SOL     OW19966   4.536   3.136   7.015
 6408SOL    HW119967   4.508   3.175   7.098
 6408SOL    HW219968   4.467   3.158   6.953
 6409SOL     OW19969   4.394   3.483   5.741
 6409SOL    HW119970   4.406   3.496   5.647
 6409SOL    HW219971   4.339   3.405   5.749
 6410SOL     OW19972   3.985   2.177   6.302
 6410SOL    HW119973   3.899   2.213   6.279
 6410SOL    HW219974   3.982   2.170   6.398
 6411SOL     OW19975   4.908   3.471   5.628
 6411SOL    HW119976   4.920   3.376   5.638
 6411SOL    HW219977   4.853   3.479   5.550
 6412SOL     OW19978   4.548   2.868   6.959
 6412SOL    HW119979   4.591   2.863   6.874
 6412SOL    HW219980   4.546   2.961   6.980
 6413SOL     OW19981   4.640   2.773   5.876
 6413SOL    HW119982   4.702   2.805   5.810
 6413SOL    HW219983   4.688   2.703   5.921
 6414SOL     OW19984   4.092   3.165   7.078
 6414SOL    HW119985   4.079   3.242   7.022
 6414SOL    HW219986   4.016   3.110   7.062
 6415SOL     OW19987   4.777   2.969   6.293
 6415SOL    HW119988   4.706   2.919   6.333
 6415SOL    HW219989   4.836   2.903   6.256
 6416SOL     OW19990   4.739   2.101   6.554
 6416SOL    HW119991   4.737   2.054   6.471
 6416SOL    HW219992   4.735   2.032   6.621
 6417SOL     OW19993   4.327   3.350   6.067
 6417SOL    HW119994   4.373   3.300   6.000
 6417SOL    HW219995   4.257   3.396   6.021
 6418SOL     OW19996   3.984   3.206   5.875
 6418SOL    HW119997   3.891   3.204   5.852
 6418SOL    HW219998   3.986   3.244   5.963
 6419SOL     OW19999   3.838   2.886   7.306
 6419SOL    HW120000   3.761   2.862   7.358
 6419SOL    HW220001   3.911   2.846   7.353
 6420SOL     OW20002   4.398   2.058   7.086
 6420SOL    HW120003   4.483   2.038   7.045
 6420SOL    HW220004   4.421   2.089   7.173
 6421SOL     OW20005   3.803   2.194   5.621
 6421SOL    HW120006   3.716   2.175   5.587
 6421SOL    HW220007   3.833   2.270   5.570
 6422SOL     OW20008   5.163   2.722   6.990
 6422SOL    HW120009   5.111   2.779   6.933
 6422SOL    HW220010   5.252   2.729   6.956
 6423SOL     OW20011   3.791   2.018   5.895
 6423SOL    HW120012   3.777   2.098   5.844
 6423SOL    HW220013   3.876   1.985   5.865
 6424SOL     OW20014   4.906   3.190   5.700
 6424SOL    HW120015   4.812   3.172   5.701
 6424SOL    HW220016   4.930   3.197   5.792
 6425SOL     OW20017   4.343   2.693   7.020
 6425SOL    HW120018   4.400   2.769   7.004
 6425SOL    HW220019   4.403   2.619   7.028
 6426SOL     OW20020   4.442   2.424   7.290
 6426SOL    HW120021   4.483   2.485   7.351
 6426SOL    HW220022   4.466   2.337   7.322
 6427SOL     OW20023   5.181   3.065   7.217
 6427SOL    HW120024   5.171   3.077   7.311
 6427SOL    HW220025   5.275   3.074   7.201
 6428SOL     OW20026   4.102   3.602   7.151
 6428SOL    HW120027   4.017   3.644   7.137
 6428SOL    HW220028   4.080   3.518   7.192
 6429SOL     OW20029   4.939   2.182   6.041
 6429SOL    HW120030   5.001   2.110   6.029
 6429SOL    HW220031   4.969   2.226   6.121
 6430SOL     OW20032   4.314   2.599   6.256
 6430SOL    HW120033   4.353   2.685   6.241
 6430SOL    HW220034   4.246   2.591   6.189
 6431SOL     OW20035   4.590   3.228   5.622
 6431SOL    HW120036   4.550   3.258   5.703
 6431SOL    HW220037   4.606   3.308   5.572
 6432SOL     OW20038   4.384   3.652   6.529
 6432SOL    HW120039   4.365   3.743   6.507
 6432SOL    HW220040   4.480   3.645   6.523
 6433SOL     OW20041   4.592   2.830   6.441
 6433SOL    HW120042   4.642   2.758   6.480
 6433SOL    HW220043   4.556   2.878   6.516
 6434SOL     OW20044   4.806   2.849   5.676
 6434SOL    HW120045   4.782   2.899   5.598
 6434SOL    HW220046   4.881   2.796   5.649
 6435SOL     OW20047   3.949   3.164   7.442
 6435SOL    HW120048   3.883   3.103   7.410
 6435SOL    HW220049   3.927   3.178   7.534
 6436SOL     OW20050   3.807   3.095   6.251
 6436SOL    HW120051   3.813   3.047   6.334
 6436SOL    HW220052   3.876   3.056   6.196
 6437SOL     OW20053   4.405   3.264   7.215
 6437SOL    HW120054   4.325   3.223   7.246
 6437SOL    HW220055   4.402   3.353   7.250
 6438SOL     OW20056   4.154   2.296   6.112
 6438SOL    HW120057   4.183   2.225   6.055
 6438SOL    HW220058   4.105   2.252   6.181
 6439SOL     OW20059   0.094   3.382   6.686
 6439SOL    HW120060   0.027   3.360   6.622
 6439SOL    HW220061   0.098   3.306   6.744
 6440SOL     OW20062   4.056   2.418   6.878
 6440SOL    HW120063   4.111   2.362   6.933
 6440SOL    HW220064   4.074   2.390   6.789
 6441SOL     OW20065   4.552   3.439   6.263
 6441SOL    HW120066   4.539   3.495   6.186
 6441SOL    HW220067   4.476   3.382   6.265
 6442SOL     OW20068   5.146   2.081   6.701
 6442SOL    HW120069   5.191   2.016   6.755
 6442SOL    HW220070   5.100   2.136   6.764
 6443SOL     OW20071   4.729   1.880   6.727
 6443SOL    HW120072   4.676   1.812   6.686
 6443SOL    HW220073   4.817   1.842   6.732
 6444SOL     OW20074   4.495   3.195   5.902
 6444SOL    HW120075   4.465   3.104   5.909
 6444SOL    HW220076   4.577   3.196   5.951
 6445SOL     OW20077   4.344   3.418   6.871
 6445SOL    HW120078   4.345   3.500   6.920
 6445SOL    HW220079   4.431   3.410   6.834
 6446SOL     OW20080   5.056   1.907   5.753
 6446SOL    HW120081   5.079   1.867   5.670
 6446SOL    HW220082   4.972   1.870   5.776
 6447SOL     OW20083   5.027   2.320   6.267
 6447SOL    HW120084   4.973   2.399   6.271
 6447SOL    HW220085   5.016   2.279   6.353
 6448SOL     OW20086   0.002   2.088   6.467
 6448SOL    HW120087   5.237   2.075   6.536
 6448SOL    HW220088   5.274   2.167   6.422
 6449SOL     OW20089   3.767   2.932   5.893
 6449SOL    HW120090   3.861   2.924   5.875
 6449SOL    HW220091   3.739   2.843   5.915
 6450SOL     OW20092   4.604   3.513   5.932
 6450SOL    HW120093   4.533   3.498   5.869
 6450SOL    HW220094   4.577   3.590   5.982
 6451SOL     OW20095   3.952   2.481   7.573
 6451SOL    HW120096   3.862   2.489   7.603
 6451SOL    HW220097   3.944   2.459   7.480
 6452SOL     OW20098   3.945   3.578   7.919
 6452SOL    HW120099   3.973   3.620   8.001
 6452SOL    HW220100   4.024   3.578   7.864
 6453SOL     OW20101   3.940   3.300   7.992
 6453SOL    HW120102   3.927   3.395   7.989
 6453SOL    HW220103   3.880   3.270   8.060
 6454SOL     OW20104   4.310   2.844   7.579
 6454SOL    HW120105   4.354   2.894   7.511
 6454SOL    HW220106   4.348   2.876   7.661
 6455SOL     OW20107   3.755   3.461   7.578
 6455SOL    HW120108   3.739   3.368   7.593
 6455SOL    HW220109   3.728   3.503   7.659
 6456SOL     OW20110   0.116   2.790   8.015
 6456SOL    HW120111   0.210   2.780   8.033
 6456SOL    HW220112   0.104   2.884   8.001
 6457SOL     OW20113   4.525   1.857   7.938
 6457SOL    HW120114   4.575   1.937   7.921
 6457SOL    HW220115   4.434   1.886   7.946
 6458SOL     OW20116   4.315   2.587   7.709
 6458SOL    HW120117   4.316   2.669   7.660
 6458SOL    HW220118   4.254   2.603   7.781
 6459SOL     OW20119   3.783   2.725   0.088
 6459SOL    HW120120   3.848   2.660   0.115
 6459SOL    HW220121   3.782   2.788   0.160
 6460SOL     OW20122   4.609   2.208   7.640
 6460SOL    HW120123   4.651   2.267   7.576
 6460SOL    HW220124   4.639   2.121   7.615
 6461SOL     OW20125   4.047   2.818   7.698
 6461SOL    HW120126   4.126   2.836   7.647
 6461SOL    HW220127   4.009   2.740   7.657
 6462SOL     OW20128   4.836   3.638   7.685
 6462SOL    HW120129   4.762   3.595   7.728
 6462SOL    HW220130   4.861   3.578   7.614
 6463SOL     OW20131   4.190   3.600   7.770
 6463SOL    HW120132   4.240   3.653   7.833
 6463SOL    HW220133   4.257   3.564   7.712
 6464SOL     OW20134   5.132   1.988   7.855
 6464SOL    HW120135   5.096   1.964   7.770
 6464SOL    HW220136   5.227   1.989   7.841
 6465SOL     OW20137   4.116   2.560   7.917
 6465SOL    HW120138   4.117   2.465   7.927
 6465SOL    HW220139   4.025   2.585   7.930
 6466SOL     OW20140   4.355   1.982   7.558
 6466SOL    HW120141   4.428   1.920   7.570
 6466SOL    HW220142   4.310   1.951   7.480
 6467SOL     OW20143   4.256   1.937   7.959
 6467SOL    HW120144   4.171   1.941   8.002
 6467SOL    HW220145   4.254   2.008   7.895
 6468SOL     OW20146   5.135   3.042   7.489
 6468SOL    HW120147   5.150   2.971   7.551
 6468SOL    HW220148   5.049   3.076   7.511
 6469SOL     OW20149   4.016   1.911   7.633
 6469SOL    HW120150   4.074   1.972   7.587
 6469SOL    HW220151   4.075   1.847   7.672
 6470SOL     OW20152   4.667   2.089   7.909
 6470SOL    HW120153   4.624   2.151   7.851
 6470SOL    HW220154   4.758   2.116   7.913
 6471SOL     OW20155   4.161   3.008   0.100
 6471SOL    HW120156   4.089   3.054   0.144
 6471SOL    HW220157   4.132   2.998   0.010
 6472SOL     OW20158   5.009   3.667   8.012
 6472SOL    HW120159   5.049   3.732   7.955
 6472SOL    HW220160   4.936   3.712   8.054
 6473SOL     OW20161   4.750   2.405   7.466
 6473SOL    HW120162   4.703   2.486   7.450
 6473SOL    HW220163   4.804   2.424   7.544
 6474SOL     OW20164   4.211   3.279   7.603
 6474SOL    HW120165   4.137   3.250   7.657
 6474SOL    HW220166   4.197   3.237   7.518
 6475SOL     OW20167   5.128   2.422   7.531
 6475SOL    HW120168   5.053   2.413   7.588
 6475SOL    HW220169   5.201   2.383   7.580
 6476SOL     OW20170   4.249   2.128   7.770
 6476SOL    HW120171   4.294   2.078   7.701
 6476SOL    HW220172   4.226   2.211   7.728
 6477SOL     OW20173   4.437   2.924   7.811
 6477SOL    HW120174   4.410   2.911   7.901
 6477SOL    HW220175   4.516   2.871   7.801
 6478SOL     OW20176   4.088   2.967   7.926
 6478SOL    HW120177   4.069   3.046   7.875
 6478SOL    HW220178   4.075   2.895   7.864
 6479SOL     OW20179   4.957   3.221   7.818
 6479SOL    HW120180   5.015   3.292   7.845
 6479SOL    HW220181   4.906   3.201   7.896
 6480SOL     OW20182   0.039   2.512   7.924
 6480SOL    HW120183   5.280   2.524   7.999
 6480SOL    HW220184   0.037   2.596   7.879
 6481SOL     OW20185   4.925   2.391   7.712
 6481SOL    HW120186   4.929   2.307   7.758
 6481SOL    HW220187   4.896   2.454   7.778
 6482SOL     OW20188   0.023   2.267   7.804
 6482SOL    HW120189   0.035   2.199   7.870
 6482SOL    HW220190   0.024   2.349   7.854
 6483SOL     OW20191   5.035   2.694   7.491
 6483SOL    HW120192   5.066   2.603   7.488
 6483SOL    HW220193   5.058   2.730   7.405
 6484SOL     OW20194   3.730   3.186   7.639
 6484SOL    HW120195   3.642   3.199   7.602
 6484SOL    HW220196   3.729   3.096   7.673
 6485SOL     OW20197   4.566   2.467   7.756
 6485SOL    HW120198   4.559   2.374   7.734
 6485SOL    HW220199   4.476   2.499   7.759
 6486SOL     OW20200   4.185   2.355   7.642
 6486SOL    HW120201   4.244   2.429   7.657
 6486SOL    HW220202   4.100   2.396   7.623
 6487SOL     OW20203   5.031   2.710   7.774
 6487SOL    HW120204   4.939   2.728   7.790
 6487SOL    HW220205   5.039   2.707   7.679
 6488SOL     OW20206   0.183   2.004   7.991
 6488SOL    HW120207   0.156   1.989   7.900
 6488SOL    HW220208   0.138   1.937   8.041
 6489SOL     OW20209   5.104   3.435   7.906
 6489SOL    HW120210   5.199   3.443   7.913
 6489SOL    HW220211   5.070   3.517   7.943
 6490SOL     OW20212   4.389   3.483   7.603
 6490SOL    HW120213   4.403   3.494   7.509
 6490SOL    HW220214   4.337   3.403   7.610
 6491SOL     OW20215   4.911   3.472   7.487
 6491SOL    HW120216   4.920   3.378   7.501
 6491SOL    HW220217   4.851   3.480   7.412
 6492SOL     OW20218   4.654   2.769   7.759
 6492SOL    HW120219   4.705   2.793   7.681
 6492SOL    HW220220   4.642   2.674   7.750
 6493SOL     OW20221   4.329   3.369   7.936
 6493SOL    HW120222   4.376   3.309   7.877
 6493SOL    HW220223   4.256   3.401   7.884
 6494SOL     OW20224   3.982   3.207   7.743
 6494SOL    HW120225   3.890   3.206   7.716
 6494SOL    HW220226   3.981   3.243   7.832
 6495SOL     OW20227   3.802   2.194   7.483
 6495SOL    HW120228   3.716   2.175   7.446
 6495SOL    HW220229   3.833   2.270   7.434
 6496SOL     OW20230   3.793   2.019   7.757
 6496SOL    HW120231   3.776   2.095   7.701
 6496SOL    HW220232   3.876   1.983   7.726
 6497SOL     OW20233   4.904   3.190   7.555
 6497SOL    HW120234   4.809   3.177   7.554
 6497SOL    HW220235   4.926   3.203   7.647
 6498SOL     OW20236   5.271   3.605   0.322
 6498SOL    HW120237   5.273   3.691   0.282
 6498SOL    HW220238   0.046   3.603   0.381
 6499SOL     OW20239   4.938   2.182   7.900
 6499SOL    HW120240   5.009   2.120   7.890
 6499SOL    HW220241   4.955   2.224   7.985
 6500SOL     OW20242   4.352   2.596   8.055
 6500SOL    HW120243   4.356   2.679   0.024
 6500SOL    HW220244   4.265   2.596   8.015
 6501SOL     OW20245   4.591   3.228   7.485
 6501SOL    HW120246   4.551   3.257   7.567
 6501SOL    HW220247   4.606   3.308   7.435
 6502SOL     OW20248   4.801   2.839   7.540
 6502SOL    HW120249   4.778   2.894   7.466
 6502SOL    HW220250   4.880   2.792   7.512
 6503SOL     OW20251   4.111   2.290   7.984
 6503SOL    HW120252   4.161   2.238   7.921
 6503SOL    HW220253   4.162   2.285   8.064
 6504SOL     OW20254   4.489   3.198   7.761
 6504SOL    HW120255   4.460   3.107   7.764
 6504SOL    HW220256   4.567   3.200   7.816
 6505SOL     OW20257   5.060   1.906   7.609
 6505SOL    HW120258   5.079   1.861   7.527
 6505SOL    HW220259   4.977   1.869   7.638
 6506SOL     OW20260   3.776   2.940   7.749
 6506SOL    HW120261   3.870   2.931   7.736
 6506SOL    HW220262   3.745   2.851   7.765
 6507SOL     OW20263   4.613   3.509   7.782
 6507SOL    HW120264   4.537   3.489   7.728
 6507SOL    HW220265   4.582   3.573   7.846
 6508SOL     OW20266   3.941   4.347   0.123
 6508SOL    HW120267   3.861   4.312   0.162
 6508SOL    HW220268   3.963   4.284   0.053
 6509SOL     OW20269   3.949   4.005   0.992
 6509SOL    HW120270   3.977   3.971   1.077
 6509SOL    HW220271   3.859   3.974   0.982
 6510SOL     OW20272   3.727   4.107   0.638
 6510SOL    HW120273   3.645   4.133   0.680
 6510SOL    HW220274   3.706   4.027   0.590
 6511SOL     OW20275   4.290   5.007   1.180
 6511SOL    HW120276   4.205   5.006   1.136
 6511SOL    HW220277   4.304   5.098   1.205
 6512SOL     OW20278   5.276   5.233   0.691
 6512SOL    HW120279   5.267   5.216   0.785
 6512SOL    HW220280   5.186   5.229   0.657
 6513SOL     OW20281   4.859   4.423   0.700
 6513SOL    HW120282   4.910   4.503   0.689
 6513SOL    HW220283   4.811   4.436   0.781
 6514SOL     OW20284   4.477   4.866   1.039
 6514SOL    HW120285   4.411   4.899   1.099
 6514SOL    HW220286   4.509   4.945   0.993
 6515SOL     OW20287   4.594   4.496   1.823
 6515SOL    HW120288   4.576   4.568   1.884
 6515SOL    HW220289   4.615   4.540   1.740
 6516SOL     OW20290   4.408   4.723   0.651
 6516SOL    HW120291   4.474   4.714   0.719
 6516SOL    HW220292   4.340   4.779   0.690
 6517SOL     OW20293   4.433   4.873   1.814
 6517SOL    HW120294   4.482   4.952   1.837
 6517SOL    HW220295   4.351   4.905   1.777
 6518SOL     OW20296   4.061   5.149   1.059
 6518SOL    HW120297   3.983   5.104   1.025
 6518SOL    HW220298   4.100   5.192   0.983
 6519SOL     OW20299   5.125   5.240   1.341
 6519SOL    HW120300   5.146   0.009   1.403
 6519SOL    HW220301   5.107   5.163   1.395
 6520SOL     OW20302   4.174   4.122   1.486
 6520SOL    HW120303   4.249   4.063   1.492
 6520SOL    HW220304   4.097   4.066   1.500
 6521SOL     OW20305   4.866   5.049   1.701
 6521SOL    HW120306   4.886   5.065   1.794
 6521SOL    HW220307   4.804   4.976   1.702
 6522SOL     OW20308   3.931   5.156   0.515
 6522SOL    HW120309   3.960   5.237   0.557
 6522SOL    HW220310   3.880   5.111   0.583
 6523SOL     OW20311   3.982   4.811   0.891
 6523SOL    HW120312   3.981   4.724   0.931
 6523SOL    HW220313   3.926   4.864   0.947
 6524SOL     OW20314   4.352   4.684   0.134
 6524SOL    HW120315   4.299   4.760   0.109
 6524SOL    HW220316   4.403   4.713   0.209
 6525SOL     OW20317   3.839   4.375   0.563
 6525SOL    HW120318   3.809   4.286   0.584
 6525SOL    HW220319   3.831   4.423   0.645
 6526SOL     OW20320   3.700   0.021   0.094
 6526SOL    HW120321   3.715   5.230   0.121
 6526SOL    HW220322   3.730   0.073   0.168
 6527SOL     OW20323   0.116   4.654   0.584
 6527SOL    HW120324   0.210   4.636   0.586
 6527SOL    HW220325   0.109   4.744   0.552
 6528SOL     OW20326   3.848   4.467   1.586
 6528SOL    HW120327   3.939   4.493   1.592
 6528SOL    HW220328   3.798   4.549   1.593
 6529SOL     OW20329   4.346   5.099   0.738
 6529SOL    HW120330   4.292   5.020   0.735
 6529SOL    HW220331   4.329   5.144   0.655
 6530SOL     OW20332   5.021   4.973   1.420
 6530SOL    HW120333   5.048   4.901   1.363
 6530SOL    HW220334   5.068   4.956   1.502
 6531SOL     OW20335   4.540   3.727   0.512
 6531SOL    HW120336   4.580   3.811   0.489
 6531SOL    HW220337   4.447   3.746   0.519
 6532SOL     OW20338   3.914   4.689   1.271
 6532SOL    HW120339   3.999   4.647   1.257
 6532SOL    HW220340   3.852   4.635   1.222
 6533SOL     OW20341   4.058   3.974   1.814
 6533SOL    HW120342   4.102   4.057   1.831
 6533SOL    HW220343   3.968   3.987   1.844
 6534SOL     OW20344   5.178   5.154   0.950
 6534SOL    HW120345   5.110   5.163   1.016
 6534SOL    HW220346   5.164   5.067   0.913
 6535SOL     OW20347   0.049   0.164   0.562
 6535SOL    HW120348   0.091   0.123   0.486
 6535SOL    HW220349   0.037   0.092   0.625
 6536SOL     OW20350   4.322   4.437   0.282
 6536SOL    HW120351   4.341   4.516   0.232
 6536SOL    HW220352   4.258   4.465   0.348
 6537SOL     OW20353   4.995   4.060   0.918
 6537SOL    HW120354   4.907   4.031   0.941
 6537SOL    HW220355   5.050   4.026   0.989
 6538SOL     OW20356   4.514   4.342   1.450
 6538SOL    HW120357   4.488   4.317   1.539
 6538SOL    HW220358   4.475   4.274   1.395
 6539SOL     OW20359   5.114   4.205   1.681
 6539SOL    HW120360   5.116   4.242   1.769
 6539SOL    HW220361   5.191   4.148   1.677
 6540SOL     OW20362   4.676   4.611   1.582
 6540SOL    HW120363   4.730   4.540   1.547
 6540SOL    HW220364   4.629   4.646   1.507
 6541SOL     OW20365   4.715   4.136   1.238
 6541SOL    HW120366   4.628   4.157   1.272
 6541SOL    HW220367   4.698   4.091   1.155
 6542SOL     OW20368   4.777   4.422   0.426
 6542SOL    HW120369   4.794   4.417   0.520
 6542SOL    HW220370   4.694   4.376   0.414
 6543SOL     OW20371   3.812   4.546   0.776
 6543SOL    HW120372   3.893   4.539   0.827
 6543SOL    HW220373   3.768   4.623   0.811
 6544SOL     OW20374   4.609   4.081   0.201
 6544SOL    HW120375   4.654   4.130   0.132
 6544SOL    HW220376   4.610   3.990   0.170
 6545SOL     OW20377   5.093   4.870   0.548
 6545SOL    HW120378   5.181   4.867   0.511
 6545SOL    HW220379   5.044   4.928   0.489
 6546SOL     OW20380   4.273   3.905   0.894
 6546SOL    HW120381   4.276   3.934   0.985
 6546SOL    HW220382   4.276   3.986   0.843
 6547SOL     OW20383   4.740   5.164   0.469
 6547SOL    HW120384   4.665   5.223   0.471
 6547SOL    HW220385   4.767   5.154   0.560
 6548SOL     OW20386   4.936   5.263   1.560
 6548SOL    HW120387   4.914   5.179   1.600
 6548SOL    HW220388   4.901   5.256   1.471
 6549SOL     OW20389   4.049   4.665   0.256
 6549SOL    HW120390   4.116   4.708   0.203
 6549SOL    HW220391   4.053   4.573   0.229
 6550SOL     OW20392   4.188   4.987   1.741
 6550SOL    HW120393   4.162   4.990   1.649
 6550SOL    HW220394   4.105   4.987   1.790
 6551SOL     OW20395   4.877   0.190   0.215
 6551SOL    HW120396   4.802   0.183   0.274
 6551SOL    HW220397   4.846   0.148   0.134
 6552SOL     OW20398   3.925   4.004   1.501
 6552SOL    HW120399   3.843   4.054   1.498
 6552SOL    HW220400   3.907   3.931   1.561
 6553SOL     OW20401   5.115   3.849   0.440
 6553SOL    HW120402   5.100   3.831   0.347
 6553SOL    HW220403   5.210   3.857   0.447
 6554SOL     OW20404   4.111   4.421   0.476
 6554SOL    HW120405   4.134   4.329   0.488
 6554SOL    HW220406   4.018   4.426   0.499
 6555SOL     OW20407   4.354   3.834   0.137
 6555SOL    HW120408   4.449   3.822   0.143
 6555SOL    HW220409   4.334   3.814   0.045
 6556SOL     OW20410   4.489   4.003   1.755
 6556SOL    HW120411   4.566   3.946   1.754
 6556SOL    HW220412   4.442   3.978   1.834
 6557SOL     OW20413   5.057   4.316   1.432
 6557SOL    HW120414   5.090   4.285   1.517
 6557SOL    HW220415   5.100   4.400   1.420
 6558SOL     OW20416   4.536   5.117   0.938
 6558SOL    HW120417   4.618   5.107   0.888
 6558SOL    HW220418   4.468   5.125   0.871
 6559SOL     OW20419   4.651   4.233   0.902
 6559SOL    HW120420   4.627   4.224   0.810
 6559SOL    HW220421   4.683   4.146   0.927
 6560SOL     OW20422   4.274   3.787   0.504
 6560SOL    HW120423   4.193   3.786   0.556
 6560SOL    HW220424   4.266   3.866   0.450
 6561SOL     OW20425   5.127   4.895   0.032
 6561SOL    HW120426   5.142   4.830   0.101
 6561SOL    HW220427   5.045   4.938   0.057
 6562SOL     OW20428   4.036   3.781   0.170
 6562SOL    HW120429   4.101   3.849   0.187
 6562SOL    HW220430   4.072   3.702   0.212
 6563SOL     OW20431   4.662   3.971   0.458
 6563SOL    HW120432   4.635   4.012   0.376
 6563SOL    HW220433   4.756   3.989   0.463
 6564SOL     OW20434   4.801   4.406   1.461
 6564SOL    HW120435   4.735   4.337   1.462
 6564SOL    HW220436   4.884   4.359   1.451
 6565SOL     OW20437   4.981   5.264   0.772
 6565SOL    HW120438   4.952   0.052   0.746
 6565SOL    HW220439   5.038   5.279   0.847
 6566SOL     OW20440   4.189   4.873   0.729
 6566SOL    HW120441   4.122   4.853   0.794
 6566SOL    HW220442   4.147   4.856   0.645
 6567SOL     OW20443   4.758   4.252   0.031
 6567SOL    HW120444   4.712   4.332   0.005
 6567SOL    HW220445   4.818   4.280   0.099
 6568SOL     OW20446   3.804   4.278   1.392
 6568SOL    HW120447   3.895   4.277   1.365
 6568SOL    HW220448   3.799   4.348   1.457
 6569SOL     OW20449   4.283   3.951   1.166
 6569SOL    HW120450   4.325   3.876   1.208
 6569SOL    HW220451   4.192   3.947   1.196
 6570SOL     OW20452   4.591   4.182   0.639
 6570SOL    HW120453   4.550   4.238   0.573
 6570SOL    HW220454   4.613   4.102   0.591
 6571SOL     OW20455   4.739   3.777   0.750
 6571SOL    HW120456   4.680   3.770   0.675
 6571SOL    HW220457   4.717   3.701   0.805
 6572SOL     OW20458   5.152   4.903   0.849
 6572SOL    HW120459   5.100   4.822   0.859
 6572SOL    HW220460   5.171   4.907   0.755
 6573SOL     OW20461   4.188   5.161   0.153
 6573SOL    HW120462   4.142   5.105   0.216
 6573SOL    HW220463   4.231   5.099   0.093
 6574SOL     OW20464   5.127   4.307   0.074
 6574SOL    HW120465   5.068   4.284   0.146
 6574SOL    HW220466   5.195   4.239   0.076
 6575SOL     OW20467   4.240   3.988   0.323
 6575SOL    HW120468   4.292   3.936   0.261
 6575SOL    HW220469   4.227   4.072   0.279
 6576SOL     OW20470   4.786   5.073   1.329
 6576SOL    HW120471   4.708   5.049   1.379
 6576SOL    HW220472   4.859   5.036   1.379
 6577SOL     OW20473   4.848   4.923   1.108
 6577SOL    HW120474   4.798   4.966   1.177
 6577SOL    HW220475   4.806   4.950   1.027
 6578SOL     OW20476   4.642   3.821   1.396
 6578SOL    HW120477   4.664   3.803   1.304
 6578SOL    HW220478   4.721   3.860   1.432
 6579SOL     OW20479   4.705   4.832   1.731
 6579SOL    HW120480   4.613   4.852   1.748
 6579SOL    HW220481   4.703   4.758   1.670
 6580SOL     OW20482   4.435   4.784   0.381
 6580SOL    HW120483   4.418   4.767   0.474
 6580SOL    HW220484   4.514   4.735   0.361
 6581SOL     OW20485   4.143   4.539   1.252
 6581SOL    HW120486   4.211   4.549   1.318
 6581SOL    HW220487   4.108   4.451   1.266
 6582SOL     OW20488   4.988   4.099   1.277
 6582SOL    HW120489   5.023   4.178   1.318
 6582SOL    HW220490   4.898   4.122   1.253
 6583SOL     OW20491   4.065   4.832   0.490
 6583SOL    HW120492   4.067   4.904   0.427
 6583SOL    HW220493   4.074   4.753   0.436
 6584SOL     OW20494   4.275   4.260   0.859
 6584SOL    HW120495   4.290   4.318   0.785
 6584SOL    HW220496   4.341   4.285   0.924
 6585SOL     OW20497   4.981   5.069   0.384
 6585SOL    HW120498   5.031   5.150   0.382
 6585SOL    HW220499   4.893   5.096   0.412
 6586SOL     OW20500   4.977   5.182   1.129
 6586SOL    HW120501   5.031   5.206   1.205
 6586SOL    HW220502   4.940   5.097   1.152
 6587SOL     OW20503   4.073   5.236   1.313
 6587SOL    HW120504   4.062   5.200   1.225
 6587SOL    HW220505   4.166   5.256   1.320
 6588SOL     OW20506   4.139   4.469   1.602
 6588SOL    HW120507   4.201   4.513   1.544
 6588SOL    HW220508   4.178   4.383   1.618
 6589SOL     OW20509   4.718   3.851   1.755
 6589SOL    HW120510   4.776   3.923   1.730
 6589SOL    HW220511   4.765   3.772   1.729
 6590SOL     OW20512   4.221   3.764   1.748
 6590SOL    HW120513   4.178   3.710   1.683
 6590SOL    HW220514   4.163   3.839   1.760
 6591SOL     OW20515   4.306   4.597   1.031
 6591SOL    HW120516   4.339   4.687   1.030
 6591SOL    HW220517   4.251   4.592   1.109
 6592SOL     OW20518   5.085   4.579   1.038
 6592SOL    HW120519   5.010   4.561   0.981
 6592SOL    HW220520   5.142   4.502   1.028
 6593SOL     OW20521   4.932   4.255   0.268
 6593SOL    HW120522   4.934   4.175   0.320
 6593SOL    HW220523   4.886   4.318   0.323
 6594SOL     OW20524   4.022   3.922   1.247
 6594SOL    HW120525   3.985   3.955   1.329
 6594SOL    HW220526   4.003   3.828   1.248
 6595SOL     OW20527   3.778   5.047   1.285
 6595SOL    HW120528   3.801   4.982   1.351
 6595SOL    HW220529   3.813   5.129   1.319
 6596SOL     OW20530   4.446   4.354   1.056
 6596SOL    HW120531   4.523   4.339   1.000
 6596SOL    HW220532   4.419   4.444   1.036
 6597SOL     OW20533   4.026   3.788   0.624
 6597SOL    HW120534   4.007   3.879   0.646
 6597SOL    HW220535   4.035   3.743   0.708
 6598SOL     OW20536   0.047   4.100   0.355
 6598SOL    HW120537   0.061   4.045   0.432
 6598SOL    HW220538   0.021   4.185   0.392
 6599SOL     OW20539   4.750   4.482   0.959
 6599SOL    HW120540   4.749   4.500   1.053
 6599SOL    HW220541   4.725   4.390   0.952
 6600SOL     OW20542   4.077   4.640   1.809
 6600SOL    HW120543   4.159   4.660   1.854
 6600SOL    HW220544   4.102   4.577   1.741
 6601SOL     OW20545   5.028   4.557   0.026
 6601SOL    HW120546   5.061   4.469   0.044
 6601SOL    HW220547   5.059   4.576   8.017
 6602SOL     OW20548   4.780   5.080   0.826
 6602SOL    HW120549   4.787   4.995   0.783
 6602SOL    HW220550   4.865   5.121   0.812
 6603SOL     OW20551   4.033   4.532   0.946
 6603SOL    HW120552   4.126   4.554   0.941
 6603SOL    HW220553   4.031   4.442   0.979
 6604SOL     OW20554   4.054   4.251   1.012
 6604SOL    HW120555   4.020   4.163   0.998
 6604SOL    HW220556   4.131   4.256   0.955
 6605SOL     OW20557   4.856   4.099   1.682
 6605SOL    HW120558   4.808   4.154   1.744
 6605SOL    HW220559   4.943   4.139   1.677
 6606SOL     OW20560   4.885   3.926   1.469
 6606SOL    HW120561   4.873   3.988   1.541
 6606SOL    HW220562   4.924   3.977   1.399
 6607SOL     OW20563   3.736   5.043   0.176
 6607SOL    HW120564   3.648   5.056   0.142
 6607SOL    HW220565   3.734   4.957   0.218
 6608SOL     OW20566   4.704   4.515   1.226
 6608SOL    HW120567   4.762   4.494   1.299
 6608SOL    HW220568   4.620   4.477   1.250
 6609SOL     OW20569   3.760   4.269   1.117
 6609SOL    HW120570   3.841   4.257   1.067
 6609SOL    HW220571   3.788   4.272   1.208
 6610SOL     OW20572   3.915   4.244   1.728
 6610SOL    HW120573   3.972   4.205   1.661
 6610SOL    HW220574   3.874   4.318   1.684
 6611SOL     OW20575   5.114   4.661   1.666
 6611SOL    HW120576   5.120   4.755   1.653
 6611SOL    HW220577   5.117   4.624   1.577
 6612SOL     OW20578   4.543   4.293   0.369
 6612SOL    HW120579   4.552   4.222   0.305
 6612SOL    HW220580   4.467   4.343   0.338
 6613SOL     OW20581   3.928   5.276   1.745
 6613SOL    HW120582   3.913   0.028   1.824
 6613SOL    HW220583   3.941   5.187   1.778
 6614SOL     OW20584   4.426   4.173   1.258
 6614SOL    HW120585   4.373   4.100   1.228
 6614SOL    HW220586   4.422   4.237   1.186
 6615SOL     OW20587   4.192   4.215   0.177
 6615SOL    HW120588   4.259   4.281   0.198
 6615SOL    HW220589   4.109   4.261   0.190
 6616SOL     OW20590   3.868   4.863   1.471
 6616SOL    HW120591   3.870   4.812   1.552
 6616SOL    HW220592   3.886   4.799   1.402
 6617SOL     OW20593   5.049   4.769   1.227
 6617SOL    HW120594   5.073   4.707   1.159
 6617SOL    HW220595   4.979   4.822   1.188
 6618SOL     OW20596   5.022   4.595   0.319
 6618SOL    HW120597   4.945   4.549   0.353
 6618SOL    HW220598   5.024   4.574   0.226
 6619SOL     OW20599   3.818   4.987   1.022
 6619SOL    HW120600   3.797   5.005   1.113
 6619SOL    HW220601   3.738   4.949   0.986
 6620SOL     OW20602   4.470   0.030   1.714
 6620SOL    HW120603   4.378   0.058   1.715
 6620SOL    HW220604   4.504   0.065   1.632
 6621SOL     OW20605   4.630   3.815   0.132
 6621SOL    HW120606   4.646   3.797   0.040
 6621SOL    HW220607   4.694   3.761   0.179
 6622SOL     OW20608   0.079   3.874   0.523
 6622SOL    HW120609   0.171   3.866   0.496
 6622SOL    HW220610   0.068   3.806   0.590
 6623SOL     OW20611   5.018   4.643   0.672
 6623SOL    HW120612   5.096   4.589   0.658
 6623SOL    HW220613   5.035   4.723   0.623
 6624SOL     OW20614   4.541   4.992   1.419
 6624SOL    HW120615   4.510   5.028   1.502
 6624SOL    HW220616   4.468   5.003   1.359
 6625SOL     OW20617   3.985   4.039   0.717
 6625SOL    HW120618   3.899   4.075   0.694
 6625SOL    HW220619   3.983   4.032   0.812
 6626SOL     OW20620   4.855   0.018   0.004
 6626SOL    HW120621   4.881   5.231   0.033
 6626SOL    HW220622   4.869   0.017   7.990
 6627SOL     OW20623   4.549   4.727   1.370
 6627SOL    HW120624   4.596   4.720   1.287
 6627SOL    HW220625   4.551   4.820   1.391
 6628SOL     OW20626   4.643   4.638   0.300
 6628SOL    HW120627   4.696   4.664   0.225
 6628SOL    HW220628   4.692   4.567   0.341
 6629SOL     OW20629   4.088   5.026   1.497
 6629SOL    HW120630   4.078   5.100   1.437
 6629SOL    HW220631   4.012   4.970   1.480
 6630SOL     OW20632   4.778   4.834   0.713
 6630SOL    HW120633   4.707   4.782   0.750
 6630SOL    HW220634   4.836   4.770   0.672
 6631SOL     OW20635   4.739   3.963   0.968
 6631SOL    HW120636   4.738   3.916   0.885
 6631SOL    HW220637   4.736   3.894   1.035
 6632SOL     OW20638   3.989   5.026   0.289
 6632SOL    HW120639   3.908   5.042   0.240
 6632SOL    HW220640   3.979   5.078   0.369
 6633SOL     OW20641   3.836   4.747   1.719
 6633SOL    HW120642   3.760   4.723   1.772
 6633SOL    HW220643   3.911   4.709   1.765
 6634SOL     OW20644   4.399   3.920   1.500
 6634SOL    HW120645   4.483   3.900   1.459
 6634SOL    HW220646   4.422   3.952   1.587
 6635SOL     OW20647   3.781   4.086   0.039
 6635SOL    HW120648   3.705   4.034   0.015
 6635SOL    HW220649   3.830   4.095   8.037
 6636SOL     OW20650   5.164   4.584   1.403
 6636SOL    HW120651   5.111   4.641   1.348
 6636SOL    HW220652   5.253   4.591   1.368
 6637SOL     OW20653   3.795   3.877   0.303
 6637SOL    HW120654   3.780   3.963   0.262
 6637SOL    HW220655   3.879   3.848   0.268
 6638SOL     OW20656   4.906   5.051   0.106
 6638SOL    HW120657   4.811   5.047   0.103
 6638SOL    HW220658   4.927   5.059   0.199
 6639SOL     OW20659   4.343   4.555   1.434
 6639SOL    HW120660   4.400   4.630   1.418
 6639SOL    HW220661   4.403   4.481   1.442
 6640SOL     OW20662   4.441   4.287   1.703
 6640SOL    HW120663   4.483   4.348   1.764
 6640SOL    HW220664   4.466   4.200   1.736
 6641SOL     OW20665   5.184   4.927   1.633
 6641SOL    HW120666   5.173   4.939   1.727
 6641SOL    HW220667   5.278   4.931   1.619
 6642SOL     OW20668   4.932   4.049   0.461
 6642SOL    HW120669   4.995   3.977   0.450
 6642SOL    HW220670   4.962   4.096   0.539
 6643SOL     OW20671   4.312   4.460   0.670
 6643SOL    HW120672   4.352   4.546   0.658
 6643SOL    HW220673   4.244   4.455   0.603
 6644SOL     OW20674   4.637   5.095   0.039
 6644SOL    HW120675   4.576   5.076   0.110
 6644SOL    HW220676   4.589   5.157   8.063
 6645SOL     OW20677   4.592   4.691   0.855
 6645SOL    HW120678   4.642   4.620   0.895
 6645SOL    HW220679   4.557   4.740   0.930
 6646SOL     OW20680   4.801   4.699   0.087
 6646SOL    HW120681   4.787   4.757   0.012
 6646SOL    HW220682   4.883   4.654   0.067
 6647SOL     OW20683   3.946   5.023   1.852
 6647SOL    HW120684   3.878   4.960   1.827
 6647SOL    HW220685   3.935   5.033   1.947
 6648SOL     OW20686   3.812   4.953   0.669
 6648SOL    HW120687   3.810   4.902   0.750
 6648SOL    HW220688   3.880   4.912   0.617
 6649SOL     OW20689   4.395   5.102   1.609
 6649SOL    HW120690   4.318   5.072   1.657
 6649SOL    HW220691   4.427   5.178   1.658
 6650SOL     OW20692   4.148   4.160   0.523
 6650SOL    HW120693   4.182   4.089   0.470
 6650SOL    HW220694   4.104   4.116   0.596
 6651SOL     OW20695   0.123   5.229   1.051
 6651SOL    HW120696   0.039   5.205   1.012
 6651SOL    HW220697   0.105   5.238   1.144
 6652SOL     OW20698   4.055   4.280   1.292
 6652SOL    HW120699   4.110   4.225   1.347
 6652SOL    HW220700   4.074   4.252   1.203
 6653SOL     OW20701   5.147   3.942   1.115
 6653SOL    HW120702   5.192   3.878   1.169
 6653SOL    HW220703   5.101   3.998   1.177
 6654SOL     OW20704   4.729   3.742   1.141
 6654SOL    HW120705   4.677   3.674   1.099
 6654SOL    HW220706   4.817   3.704   1.146
 6655SOL     OW20707   4.519   5.039   0.282
 6655SOL    HW120708   4.468   4.963   0.308
 6655SOL    HW220709   4.578   5.055   0.355
 6656SOL     OW20710   4.346   5.299   1.293
 6656SOL    HW120711   4.353   0.053   1.371
 6656SOL    HW220712   4.437   5.280   1.269
 6657SOL     OW20713   5.050   3.784   0.188
 6657SOL    HW120714   5.091   3.736   0.116
 6657SOL    HW220715   4.971   3.734   0.208
 6658SOL     OW20716   5.027   4.185   0.683
 6658SOL    HW120717   4.973   4.264   0.687
 6658SOL    HW220718   5.015   4.143   0.768
 6659SOL     OW20719   5.300   3.950   0.878
 6659SOL    HW120720   5.238   3.935   0.950
 6659SOL    HW220721   5.273   4.034   0.841
 6660SOL     OW20722   3.765   4.791   0.304
 6660SOL    HW120723   3.861   4.793   0.309
 6660SOL    HW220724   3.742   4.706   0.343
 6661SOL     OW20725   3.953   4.347   1.986
 6661SOL    HW120726   3.863   4.346   2.020
 6661SOL    HW220727   3.943   4.322   1.894
 6662SOL     OW20728   3.949   4.006   2.854
 6662SOL    HW120729   3.977   3.971   2.938
 6662SOL    HW220730   3.859   3.974   2.844
 6663SOL     OW20731   3.727   4.107   2.500
 6663SOL    HW120732   3.645   4.132   2.542
 6663SOL    HW220733   3.706   4.028   2.451
 6664SOL     OW20734   4.290   5.007   3.042
 6664SOL    HW120735   4.206   5.005   2.998
 6664SOL    HW220736   4.303   5.098   3.068
 6665SOL     OW20737   5.275   5.231   2.554
 6665SOL    HW120738   5.268   5.216   2.648
 6665SOL    HW220739   5.184   5.231   2.524
 6666SOL     OW20740   4.859   4.423   2.561
 6666SOL    HW120741   4.909   4.503   2.551
 6666SOL    HW220742   4.810   4.435   2.642
 6667SOL     OW20743   4.478   4.867   2.901
 6667SOL    HW120744   4.411   4.899   2.962
 6667SOL    HW220745   4.509   4.945   2.855
 6668SOL     OW20746   4.594   4.496   3.685
 6668SOL    HW120747   4.576   4.568   3.746
 6668SOL    HW220748   4.615   4.540   3.602
 6669SOL     OW20749   4.410   4.725   2.509
 6669SOL    HW120750   4.475   4.715   2.579
 6669SOL    HW220751   4.341   4.779   2.548
 6670SOL     OW20752   4.434   4.873   3.676
 6670SOL    HW120753   4.482   4.952   3.699
 6670SOL    HW220754   4.351   4.905   3.639
 6671SOL     OW20755   4.061   5.149   2.921
 6671SOL    HW120756   3.983   5.104   2.887
 6671SOL    HW220757   4.099   5.192   2.845
 6672SOL     OW20758   5.127   5.238   3.203
 6672SOL    HW120759   5.146   0.008   3.265
 6672SOL    HW220760   5.105   5.162   3.257
 6673SOL     OW20761   4.174   4.122   3.348
 6673SOL    HW120762   4.249   4.063   3.354
 6673SOL    HW220763   4.097   4.066   3.362
 6674SOL     OW20764   4.865   5.050   3.563
 6674SOL    HW120765   4.886   5.065   3.655
 6674SOL    HW220766   4.804   4.977   3.564
 6675SOL     OW20767   3.933   5.157   2.383
 6675SOL    HW120768   3.961   5.237   2.426
 6675SOL    HW220769   3.883   5.110   2.449
 6676SOL     OW20770   3.983   4.811   2.754
 6676SOL    HW120771   3.981   4.724   2.793
 6676SOL    HW220772   3.926   4.864   2.810
 6677SOL     OW20773   4.308   4.706   1.997
 6677SOL    HW120774   4.355   4.754   1.929
 6677SOL    HW220775   4.347   4.736   2.079
 6678SOL     OW20776   3.839   4.377   2.422
 6678SOL    HW120777   3.810   4.288   2.443
 6678SOL    HW220778   3.831   4.425   2.504
 6679SOL     OW20779   3.710   0.013   1.960
 6679SOL    HW120780   3.726   5.224   1.991
 6679SOL    HW220781   3.732   0.069   2.034
 6680SOL     OW20782   0.112   4.657   2.427
 6680SOL    HW120783   0.200   4.626   2.448
 6680SOL    HW220784   0.124   4.750   2.408
 6681SOL     OW20785   3.847   4.467   3.448
 6681SOL    HW120786   3.939   4.493   3.454
 6681SOL    HW220787   3.799   4.549   3.455
 6682SOL     OW20788   4.346   5.098   2.600
 6682SOL    HW120789   4.292   5.019   2.597
 6682SOL    HW220790   4.328   5.143   2.517
 6683SOL     OW20791   5.021   4.973   3.281
 6683SOL    HW120792   5.048   4.900   3.225
 6683SOL    HW220793   5.068   4.957   3.364
 6684SOL     OW20794   4.539   3.725   2.371
 6684SOL    HW120795   4.580   3.809   2.351
 6684SOL    HW220796   4.446   3.745   2.380
 6685SOL     OW20797   3.914   4.689   3.133
 6685SOL    HW120798   3.999   4.647   3.119
 6685SOL    HW220799   3.852   4.636   3.083
 6686SOL     OW20800   4.058   3.974   3.676
 6686SOL    HW120801   4.102   4.057   3.692
 6686SOL    HW220802   3.968   3.988   3.706
 6687SOL     OW20803   5.178   5.154   2.813
 6687SOL    HW120804   5.110   5.163   2.879
 6687SOL    HW220805   5.164   5.066   2.776
 6688SOL     OW20806   0.043   0.164   2.426
 6688SOL    HW120807   0.086   0.125   2.350
 6688SOL    HW220808   0.033   0.091   2.487
 6689SOL     OW20809   4.320   4.445   2.129
 6689SOL    HW120810   4.325   4.526   2.079
 6689SOL    HW220811   4.255   4.462   2.197
 6690SOL     OW20812   4.995   4.061   2.781
 6690SOL    HW120813   4.907   4.031   2.802
 6690SOL    HW220814   5.050   4.026   2.851
 6691SOL     OW20815   4.514   4.342   3.312
 6691SOL    HW120816   4.488   4.317   3.401
 6691SOL    HW220817   4.475   4.274   3.257
 6692SOL     OW20818   5.114   4.205   3.543
 6692SOL    HW120819   5.116   4.242   3.631
 6692SOL    HW220820   5.191   4.148   3.539
 6693SOL     OW20821   4.676   4.611   3.445
 6693SOL    HW120822   4.730   4.540   3.409
 6693SOL    HW220823   4.629   4.646   3.369
 6694SOL     OW20824   4.715   4.137   3.100
 6694SOL    HW120825   4.628   4.157   3.134
 6694SOL    HW220826   4.698   4.091   3.017
 6695SOL     OW20827   4.775   4.422   2.287
 6695SOL    HW120828   4.792   4.416   2.381
 6695SOL    HW220829   4.692   4.376   2.274
 6696SOL     OW20830   3.812   4.545   2.639
 6696SOL    HW120831   3.893   4.538   2.689
 6696SOL    HW220832   3.768   4.623   2.674
 6697SOL     OW20833   4.619   4.072   2.056
 6697SOL    HW120834   4.658   4.134   1.994
 6697SOL    HW220835   4.634   3.986   2.017
 6698SOL     OW20836   5.093   4.869   2.409
 6698SOL    HW120837   5.183   4.870   2.378
 6698SOL    HW220838   5.047   4.929   2.350
 6699SOL     OW20839   4.274   3.905   2.756
 6699SOL    HW120840   4.276   3.934   2.847
 6699SOL    HW220841   4.275   3.985   2.704
 6700SOL     OW20842   4.744   5.167   2.333
 6700SOL    HW120843   4.668   5.224   2.328
 6700SOL    HW220844   4.761   5.157   2.427
 6701SOL     OW20845   4.938   5.262   3.421
 6701SOL    HW120846   4.915   5.179   3.462
 6701SOL    HW220847   4.900   5.256   3.333
 6702SOL     OW20848   4.044   4.680   2.113
 6702SOL    HW120849   4.126   4.700   2.068
 6702SOL    HW220850   4.013   4.599   2.073
 6703SOL     OW20851   4.188   4.987   3.603
 6703SOL    HW120852   4.162   4.990   3.511
 6703SOL    HW220853   4.105   4.987   3.652
 6704SOL     OW20854   4.790   0.172   2.073
 6704SOL    HW120855   4.803   0.117   2.150
 6704SOL    HW220856   4.865   0.154   2.017
 6705SOL     OW20857   3.925   4.004   3.363
 6705SOL    HW120858   3.844   4.054   3.361
 6705SOL    HW220859   3.907   3.931   3.422
 6706SOL     OW20860   5.119   3.831   2.286
 6706SOL    HW120861   5.100   3.813   2.194
 6706SOL    HW220862   5.214   3.847   2.288
 6707SOL     OW20863   4.118   4.419   2.338
 6707SOL    HW120864   4.137   4.326   2.350
 6707SOL    HW220865   4.024   4.426   2.355
 6708SOL     OW20866   4.361   3.846   1.967
 6708SOL    HW120867   4.429   3.780   1.979
 6708SOL    HW220868   4.311   3.814   1.891
 6709SOL     OW20869   4.489   4.003   3.617
 6709SOL    HW120870   4.566   3.946   3.616
 6709SOL    HW220871   4.442   3.978   3.696
 6710SOL     OW20872   5.057   4.316   3.294
 6710SOL    HW120873   5.090   4.284   3.379
 6710SOL    HW220874   5.100   4.401   3.282
 6711SOL     OW20875   4.537   5.118   2.799
 6711SOL    HW120876   4.617   5.106   2.749
 6711SOL    HW220877   4.468   5.125   2.732
 6712SOL     OW20878   4.651   4.233   2.765
 6712SOL    HW120879   4.628   4.224   2.672
 6712SOL    HW220880   4.683   4.146   2.790
 6713SOL     OW20881   4.273   3.787   2.363
 6713SOL    HW120882   4.193   3.787   2.415
 6713SOL    HW220883   4.267   3.865   2.308
 6714SOL     OW20884   5.135   4.905   1.905
 6714SOL    HW120885   5.140   4.825   1.958
 6714SOL    HW220886   5.046   4.938   1.921
 6715SOL     OW20887   4.015   3.772   2.047
 6715SOL    HW120888   4.074   3.836   2.007
 6715SOL    HW220889   4.074   3.709   2.089
 6716SOL     OW20890   4.662   3.971   2.321
 6716SOL    HW120891   4.636   4.011   2.238
 6716SOL    HW220892   4.757   3.984   2.325
 6717SOL     OW20893   4.801   4.406   3.322
 6717SOL    HW120894   4.735   4.337   3.324
 6717SOL    HW220895   4.884   4.359   3.313
 6718SOL     OW20896   4.985   5.265   2.631
 6718SOL    HW120897   4.946   0.051   2.613
 6718SOL    HW220898   5.038   5.278   2.709
 6719SOL     OW20899   4.190   4.872   2.591
 6719SOL    HW120900   4.122   4.852   2.655
 6719SOL    HW220901   4.149   4.855   2.506
 6720SOL     OW20902   4.747   4.266   1.885
 6720SOL    HW120903   4.703   4.349   1.865
 6720SOL    HW220904   4.809   4.288   1.955
 6721SOL     OW20905   3.804   4.278   3.255
 6721SOL    HW120906   3.895   4.277   3.228
 6721SOL    HW220907   3.799   4.348   3.320
 6722SOL     OW20908   4.283   3.951   3.029
 6722SOL    HW120909   4.325   3.875   3.069
 6722SOL    HW220910   4.192   3.947   3.058
 6723SOL     OW20911   4.592   4.183   2.501
 6723SOL    HW120912   4.546   4.238   2.437
 6723SOL    HW220913   4.613   4.103   2.453
 6724SOL     OW20914   4.739   3.777   2.613
 6724SOL    HW120915   4.681   3.770   2.537
 6724SOL    HW220916   4.717   3.702   2.667
 6725SOL     OW20917   5.152   4.902   2.711
 6725SOL    HW120918   5.100   4.822   2.723
 6725SOL    HW220919   5.169   4.906   2.617
 6726SOL     OW20920   4.202   5.148   2.013
 6726SOL    HW120921   4.142   5.095   2.066
 6726SOL    HW220922   4.209   5.101   1.930
 6727SOL     OW20923   5.128   4.285   1.943
 6727SOL    HW120924   5.054   4.276   2.003
 6727SOL    HW220925   5.203   4.248   1.990
 6728SOL     OW20926   4.249   3.987   2.179
 6728SOL    HW120927   4.295   3.940   2.109
 6728SOL    HW220928   4.226   4.071   2.140
 6729SOL     OW20929   4.786   5.073   3.191
 6729SOL    HW120930   4.708   5.049   3.241
 6729SOL    HW220931   4.859   5.036   3.241
 6730SOL     OW20932   4.849   4.923   2.970
 6730SOL    HW120933   4.799   4.966   3.040
 6730SOL    HW220934   4.805   4.949   2.889
 6731SOL     OW20935   4.642   3.821   3.258
 6731SOL    HW120936   4.664   3.803   3.166
 6731SOL    HW220937   4.721   3.860   3.294
 6732SOL     OW20938   4.705   4.832   3.593
 6732SOL    HW120939   4.613   4.852   3.610
 6732SOL    HW220940   4.703   4.758   3.532
 6733SOL     OW20941   4.428   4.782   2.234
 6733SOL    HW120942   4.416   4.766   2.327
 6733SOL    HW220943   4.506   4.732   2.210
 6734SOL     OW20944   4.143   4.539   3.114
 6734SOL    HW120945   4.211   4.549   3.180
 6734SOL    HW220946   4.108   4.451   3.127
 6735SOL     OW20947   4.988   4.099   3.139
 6735SOL    HW120948   5.023   4.178   3.180
 6735SOL    HW220949   4.898   4.122   3.115
 6736SOL     OW20950   4.069   4.833   2.350
 6736SOL    HW120951   4.071   4.907   2.289
 6736SOL    HW220952   4.068   4.755   2.295
 6737SOL     OW20953   4.275   4.260   2.722
 6737SOL    HW120954   4.290   4.318   2.647
 6737SOL    HW220955   4.341   4.286   2.786
 6738SOL     OW20956   4.985   5.078   2.249
 6738SOL    HW120957   5.037   5.154   2.275
 6738SOL    HW220958   4.896   5.100   2.277
 6739SOL     OW20959   4.977   5.182   2.992
 6739SOL    HW120960   5.032   5.205   3.067
 6739SOL    HW220961   4.940   5.097   3.014
 6740SOL     OW20962   4.073   5.236   3.175
 6740SOL    HW120963   4.062   5.201   3.087
 6740SOL    HW220964   4.166   5.256   3.182
 6741SOL     OW20965   4.139   4.468   3.464
 6741SOL    HW120966   4.201   4.513   3.406
 6741SOL    HW220967   4.178   4.383   3.480
 6742SOL     OW20968   4.718   3.851   3.617
 6742SOL    HW120969   4.776   3.922   3.592
 6742SOL    HW220970   4.765   3.771   3.591
 6743SOL     OW20971   4.221   3.764   3.610
 6743SOL    HW120972   4.178   3.710   3.545
 6743SOL    HW220973   4.163   3.839   3.622
 6744SOL     OW20974   4.307   4.597   2.893
 6744SOL    HW120975   4.338   4.687   2.892
 6744SOL    HW220976   4.251   4.591   2.971
 6745SOL     OW20977   5.086   4.580   2.897
 6745SOL    HW120978   5.009   4.560   2.844
 6745SOL    HW220979   5.140   4.501   2.892
 6746SOL     OW20980   4.927   4.255   2.125
 6746SOL    HW120981   4.934   4.175   2.178
 6746SOL    HW220982   4.884   4.318   2.183
 6747SOL     OW20983   4.022   3.922   3.109
 6747SOL    HW120984   3.985   3.954   3.191
 6747SOL    HW220985   4.003   3.828   3.109
 6748SOL     OW20986   3.777   5.047   3.147
 6748SOL    HW120987   3.801   4.982   3.213
 6748SOL    HW220988   3.813   5.129   3.181
 6749SOL     OW20989   4.447   4.354   2.919
 6749SOL    HW120990   4.523   4.339   2.862
 6749SOL    HW220991   4.419   4.443   2.898
 6750SOL     OW20992   4.028   3.788   2.485
 6750SOL    HW120993   4.008   3.878   2.508
 6750SOL    HW220994   4.035   3.743   2.570
 6751SOL     OW20995   0.034   4.120   2.220
 6751SOL    HW120996   0.052   4.044   2.276
 6751SOL    HW220997   0.022   4.193   2.281
 6752SOL     OW20998   4.751   4.483   2.821
 6752SOL    HW120999   4.749   4.500   2.915
 6752SOL    HW221000   4.725   4.391   2.813
 6753SOL     OW21001   4.077   4.640   3.671
 6753SOL    HW121002   4.159   4.660   3.716
 6753SOL    HW221003   4.102   4.577   3.603
 6754SOL     OW21004   5.028   4.552   1.898
 6754SOL    HW121005   5.065   4.464   1.901
 6754SOL    HW221006   5.055   4.588   1.814
 6755SOL     OW21007   4.780   5.081   2.686
 6755SOL    HW121008   4.787   4.995   2.644
 6755SOL    HW221009   4.866   5.121   2.673
 6756SOL     OW21010   4.033   4.533   2.809
 6756SOL    HW121011   4.126   4.554   2.802
 6756SOL    HW221012   4.031   4.442   2.841
 6757SOL     OW21013   4.054   4.251   2.874
 6757SOL    HW121014   4.019   4.163   2.860
 6757SOL    HW221015   4.131   4.256   2.817
 6758SOL     OW21016   4.856   4.100   3.544
 6758SOL    HW121017   4.808   4.155   3.606
 6758SOL    HW221018   4.943   4.139   3.539
 6759SOL     OW21019   4.885   3.925   3.331
 6759SOL    HW121020   4.873   3.988   3.403
 6759SOL    HW221021   4.924   3.977   3.261
 6760SOL     OW21022   3.730   5.040   2.053
 6760SOL    HW121023   3.639   5.057   2.027
 6760SOL    HW221024   3.728   4.952   2.090
 6761SOL     OW21025   4.704   4.515   3.088
 6761SOL    HW121026   4.762   4.494   3.161
 6761SOL    HW221027   4.620   4.477   3.111
 6762SOL     OW21028   3.760   4.268   2.979
 6762SOL    HW121029   3.840   4.257   2.928
 6762SOL    HW221030   3.789   4.272   3.070
 6763SOL     OW21031   3.915   4.244   3.590
 6763SOL    HW121032   3.972   4.205   3.524
 6763SOL    HW221033   3.875   4.318   3.546
 6764SOL     OW21034   5.114   4.661   3.528
 6764SOL    HW121035   5.120   4.755   3.515
 6764SOL    HW221036   5.117   4.624   3.439
 6765SOL     OW21037   4.540   4.293   2.223
 6765SOL    HW121038   4.544   4.219   2.163
 6765SOL    HW221039   4.466   4.346   2.192
 6766SOL     OW21040   3.928   5.276   3.607
 6766SOL    HW121041   3.913   0.028   3.686
 6766SOL    HW221042   3.941   5.187   3.640
 6767SOL     OW21043   4.426   4.173   3.120
 6767SOL    HW121044   4.373   4.100   3.090
 6767SOL    HW221045   4.422   4.237   3.048
 6768SOL     OW21046   4.187   4.216   2.048
 6768SOL    HW121047   4.246   4.289   2.070
 6768SOL    HW221048   4.102   4.257   2.036
 6769SOL     OW21049   3.868   4.863   3.333
 6769SOL    HW121050   3.870   4.812   3.414
 6769SOL    HW221051   3.886   4.799   3.264
 6770SOL     OW21052   5.049   4.769   3.089
 6770SOL    HW121053   5.073   4.707   3.020
 6770SOL    HW221054   4.979   4.822   3.050
 6771SOL     OW21055   5.034   4.585   2.178
 6771SOL    HW121056   4.953   4.550   2.215
 6771SOL    HW221057   5.023   4.575   2.084
 6772SOL     OW21058   3.819   4.987   2.884
 6772SOL    HW121059   3.797   5.005   2.975
 6772SOL    HW221060   3.739   4.948   2.848
 6773SOL     OW21061   4.470   0.030   3.576
 6773SOL    HW121062   4.378   0.058   3.578
 6773SOL    HW221063   4.503   0.065   3.493
 6774SOL     OW21064   0.078   3.885   2.394
 6774SOL    HW121065   0.161   3.870   2.348
 6774SOL    HW221066   0.065   3.807   2.446
 6775SOL     OW21067   5.017   4.643   2.534
 6775SOL    HW121068   5.095   4.589   2.521
 6775SOL    HW221069   5.035   4.723   2.485
 6776SOL     OW21070   4.541   4.992   3.281
 6776SOL    HW121071   4.510   5.028   3.364
 6776SOL    HW221072   4.467   5.003   3.221
 6777SOL     OW21073   3.985   4.039   2.578
 6777SOL    HW121074   3.900   4.075   2.555
 6777SOL    HW221075   3.983   4.032   2.674
 6778SOL     OW21076   4.549   4.727   3.232
 6778SOL    HW121077   4.595   4.720   3.149
 6778SOL    HW221078   4.551   4.820   3.253
 6779SOL     OW21079   4.640   4.636   2.153
 6779SOL    HW121080   4.702   4.668   2.087
 6779SOL    HW221081   4.688   4.565   2.197
 6780SOL     OW21082   4.088   5.026   3.359
 6780SOL    HW121083   4.078   5.100   3.299
 6780SOL    HW221084   4.012   4.970   3.342
 6781SOL     OW21085   4.779   4.834   2.575
 6781SOL    HW121086   4.707   4.783   2.612
 6781SOL    HW221087   4.837   4.768   2.536
 6782SOL     OW21088   4.739   3.963   2.831
 6782SOL    HW121089   4.737   3.916   2.747
 6782SOL    HW221090   4.735   3.894   2.897
 6783SOL     OW21091   3.982   5.050   2.146
 6783SOL    HW121092   3.890   5.052   2.118
 6783SOL    HW221093   3.983   5.095   2.230
 6784SOL     OW21094   3.836   4.746   3.581
 6784SOL    HW121095   3.760   4.723   3.634
 6784SOL    HW221096   3.911   4.709   3.627
 6785SOL     OW21097   4.399   3.920   3.362
 6785SOL    HW121098   4.483   3.900   3.321
 6785SOL    HW221099   4.422   3.952   3.449
 6786SOL     OW21100   3.803   4.057   1.897
 6786SOL    HW121101   3.715   4.038   1.862
 6786SOL    HW221102   3.833   4.132   1.846
 6787SOL     OW21103   5.164   4.584   3.265
 6787SOL    HW121104   5.111   4.641   3.210
 6787SOL    HW221105   5.253   4.591   3.230
 6788SOL     OW21106   3.791   3.880   2.171
 6788SOL    HW121107   3.778   3.960   2.120
 6788SOL    HW221108   3.876   3.847   2.141
 6789SOL     OW21109   4.908   5.058   1.983
 6789SOL    HW121110   4.814   5.041   1.982
 6789SOL    HW221111   4.933   5.055   2.075
 6790SOL     OW21112   4.343   4.555   3.296
 6790SOL    HW121113   4.400   4.630   3.280
 6790SOL    HW221114   4.403   4.481   3.304
 6791SOL     OW21115   4.441   4.287   3.565
 6791SOL    HW121116   4.483   4.348   3.626
 6791SOL    HW221117   4.466   4.200   3.598
 6792SOL     OW21118   5.184   4.927   3.495
 6792SOL    HW121119   5.172   4.939   3.589
 6792SOL    HW221120   5.278   4.931   3.481
 6793SOL     OW21121   4.939   4.044   2.318
 6793SOL    HW121122   5.001   3.972   2.305
 6793SOL    HW221123   4.969   4.088   2.397
 6794SOL     OW21124   4.314   4.461   2.532
 6794SOL    HW121125   4.352   4.547   2.518
 6794SOL    HW221126   4.246   4.453   2.464
 6795SOL     OW21127   4.581   5.094   1.882
 6795SOL    HW121128   4.558   5.097   1.975
 6795SOL    HW221129   4.586   5.186   1.856
 6796SOL     OW21130   4.593   4.692   2.717
 6796SOL    HW121131   4.642   4.620   2.757
 6796SOL    HW221132   4.557   4.741   2.791
 6797SOL     OW21133   4.809   4.712   1.955
 6797SOL    HW121134   4.781   4.760   1.876
 6797SOL    HW221135   4.882   4.658   1.925
 6798SOL     OW21136   3.946   5.023   3.714
 6798SOL    HW121137   3.878   4.960   3.689
 6798SOL    HW221138   3.935   5.033   3.809
 6799SOL     OW21139   3.810   4.954   2.532
 6799SOL    HW121140   3.811   4.903   2.612
 6799SOL    HW221141   3.874   4.911   2.475
 6800SOL     OW21142   4.396   5.102   3.471
 6800SOL    HW121143   4.318   5.072   3.519
 6800SOL    HW221144   4.427   5.178   3.520
 6801SOL     OW21145   4.153   4.158   2.388
 6801SOL    HW121146   4.183   4.087   2.331
 6801SOL    HW221147   4.105   4.113   2.457
 6802SOL     OW21148   0.123   5.230   2.911
 6802SOL    HW121149   0.039   5.205   2.874
 6802SOL    HW221150   0.106   5.241   3.005
 6803SOL     OW21151   4.054   4.280   3.154
 6803SOL    HW121152   4.110   4.225   3.209
 6803SOL    HW221153   4.074   4.252   3.065
 6804SOL     OW21154   5.146   3.942   2.977
 6804SOL    HW121155   5.192   3.879   3.031
 6804SOL    HW221156   5.100   3.998   3.040
 6805SOL     OW21157   4.729   3.742   3.003
 6805SOL    HW121158   4.676   3.674   2.962
 6805SOL    HW221159   4.817   3.704   3.008
 6806SOL     OW21160   4.527   5.046   2.146
 6806SOL    HW121161   4.468   4.973   2.166
 6806SOL    HW221162   4.582   5.055   2.224
 6807SOL     OW21163   4.346   5.299   3.155
 6807SOL    HW121164   4.352   0.053   3.234
 6807SOL    HW221165   4.437   5.280   3.132
 6808SOL     OW21166   5.056   3.769   2.029
 6808SOL    HW121167   5.079   3.729   1.946
 6808SOL    HW221168   4.972   3.732   2.052
 6809SOL     OW21169   5.027   4.182   2.543
 6809SOL    HW121170   4.973   4.261   2.547
 6809SOL    HW221171   5.016   4.141   2.629
 6810SOL     OW21172   0.002   3.950   2.744
 6810SOL    HW121173   5.236   3.938   2.812
 6810SOL    HW221174   5.274   4.029   2.698
 6811SOL     OW21175   3.766   4.793   2.170
 6811SOL    HW121176   3.860   4.787   2.153
 6811SOL    HW221177   3.740   4.704   2.192
 6812SOL     OW21178   3.953   4.347   3.848
 6812SOL    HW121179   3.863   4.346   3.882
 6812SOL    HW221180   3.943   4.322   3.756
 6813SOL     OW21181   3.949   4.006   4.716
 6813SOL    HW121182   3.977   3.971   4.800
 6813SOL    HW221183   3.859   3.974   4.706
 6814SOL     OW21184   3.727   4.107   4.362
 6814SOL    HW121185   3.645   4.132   4.404
 6814SOL    HW221186   3.706   4.028   4.313
 6815SOL     OW21187   4.290   5.007   4.904
 6815SOL    HW121188   4.205   5.006   4.860
 6815SOL    HW221189   4.303   5.098   4.930
 6816SOL     OW21190   5.275   5.231   4.416
 6816SOL    HW121191   5.268   5.216   4.510
 6816SOL    HW221192   5.184   5.231   4.386
 6817SOL     OW21193   4.859   4.423   4.423
 6817SOL    HW121194   4.909   4.503   4.413
 6817SOL    HW221195   4.810   4.435   4.504
 6818SOL     OW21196   4.478   4.867   4.763
 6818SOL    HW121197   4.411   4.899   4.824
 6818SOL    HW221198   4.509   4.945   4.717
 6819SOL     OW21199   4.594   4.496   5.547
 6819SOL    HW121200   4.576   4.567   5.608
 6819SOL    HW221201   4.615   4.540   5.464
 6820SOL     OW21202   4.410   4.725   4.371
 6820SOL    HW121203   4.475   4.715   4.441
 6820SOL    HW221204   4.341   4.779   4.410
 6821SOL     OW21205   4.434   4.873   5.538
 6821SOL    HW121206   4.482   4.952   5.561
 6821SOL    HW221207   4.351   4.905   5.501
 6822SOL     OW21208   4.061   5.149   4.783
 6822SOL    HW121209   3.983   5.104   4.749
 6822SOL    HW221210   4.099   5.192   4.707
 6823SOL     OW21211   5.127   5.238   5.065
 6823SOL    HW121212   5.146   0.008   5.127
 6823SOL    HW221213   5.105   5.162   5.119
 6824SOL     OW21214   4.173   4.122   5.210
 6824SOL    HW121215   4.249   4.063   5.216
 6824SOL    HW221216   4.098   4.065   5.224
 6825SOL     OW21217   4.865   5.050   5.425
 6825SOL    HW121218   4.886   5.065   5.517
 6825SOL    HW221219   4.804   4.977   5.426
 6826SOL     OW21220   3.934   5.157   4.245
 6826SOL    HW121221   3.961   5.237   4.288
 6826SOL    HW221222   3.882   5.110   4.311
 6827SOL     OW21223   3.983   4.811   4.616
 6827SOL    HW121224   3.981   4.724   4.655
 6827SOL    HW221225   3.926   4.864   4.671
 6828SOL     OW21226   4.308   4.706   3.859
 6828SOL    HW121227   4.355   4.754   3.791
 6828SOL    HW221228   4.347   4.736   3.941
 6829SOL     OW21229   3.839   4.377   4.284
 6829SOL    HW121230   3.810   4.289   4.305
 6829SOL    HW221231   3.831   4.426   4.366
 6830SOL     OW21232   3.710   0.013   3.822
 6830SOL    HW121233   3.726   5.224   3.853
 6830SOL    HW221234   3.732   0.069   3.896
 6831SOL     OW21235   0.112   4.657   4.289
 6831SOL    HW121236   0.199   4.625   4.310
 6831SOL    HW221237   0.124   4.750   4.270
 6832SOL     OW21238   3.848   4.467   5.310
 6832SOL    HW121239   3.939   4.493   5.316
 6832SOL    HW221240   3.798   4.549   5.318
 6833SOL     OW21241   4.346   5.098   4.462
 6833SOL    HW121242   4.292   5.019   4.459
 6833SOL    HW221243   4.328   5.143   4.379
 6834SOL     OW21244   5.021   4.973   5.144
 6834SOL    HW121245   5.048   4.900   5.087
 6834SOL    HW221246   5.068   4.957   5.226
 6835SOL     OW21247   4.539   3.725   4.234
 6835SOL    HW121248   4.580   3.809   4.213
 6835SOL    HW221249   4.446   3.745   4.242
 6836SOL     OW21250   3.914   4.689   4.995
 6836SOL    HW121251   3.999   4.647   4.981
 6836SOL    HW221252   3.852   4.636   4.945
 6837SOL     OW21253   4.058   3.974   5.537
 6837SOL    HW121254   4.102   4.057   5.555
 6837SOL    HW221255   3.968   3.987   5.567
 6838SOL     OW21256   5.178   5.153   4.675
 6838SOL    HW121257   5.110   5.163   4.741
 6838SOL    HW221258   5.164   5.066   4.638
 6839SOL     OW21259   0.043   0.164   4.288
 6839SOL    HW121260   0.086   0.125   4.212
 6839SOL    HW221261   0.033   0.091   4.349
 6840SOL     OW21262   4.320   4.445   3.991
 6840SOL    HW121263   4.325   4.526   3.941
 6840SOL    HW221264   4.255   4.462   4.059
 6841SOL     OW21265   4.995   4.061   4.643
 6841SOL    HW121266   4.907   4.032   4.665
 6841SOL    HW221267   5.050   4.026   4.713
 6842SOL     OW21268   4.514   4.342   5.174
 6842SOL    HW121269   4.488   4.317   5.263
 6842SOL    HW221270   4.475   4.274   5.119
 6843SOL     OW21271   5.114   4.205   5.405
 6843SOL    HW121272   5.116   4.242   5.493
 6843SOL    HW221273   5.191   4.148   5.401
 6844SOL     OW21274   4.676   4.611   5.307
 6844SOL    HW121275   4.730   4.540   5.271
 6844SOL    HW221276   4.629   4.646   5.231
 6845SOL     OW21277   4.715   4.137   4.962
 6845SOL    HW121278   4.628   4.157   4.996
 6845SOL    HW221279   4.698   4.091   4.879
 6846SOL     OW21280   4.775   4.422   4.149
 6846SOL    HW121281   4.792   4.416   4.243
 6846SOL    HW221282   4.692   4.376   4.136
 6847SOL     OW21283   3.812   4.545   4.501
 6847SOL    HW121284   3.893   4.538   4.551
 6847SOL    HW221285   3.768   4.623   4.535
 6848SOL     OW21286   4.619   4.072   3.918
 6848SOL    HW121287   4.658   4.134   3.856
 6848SOL    HW221288   4.634   3.986   3.879
 6849SOL     OW21289   5.093   4.869   4.271
 6849SOL    HW121290   5.183   4.870   4.240
 6849SOL    HW221291   5.047   4.929   4.212
 6850SOL     OW21292   4.273   3.904   4.618
 6850SOL    HW121293   4.276   3.934   4.709
 6850SOL    HW221294   4.275   3.985   4.566
 6851SOL     OW21295   4.744   5.167   4.195
 6851SOL    HW121296   4.668   5.224   4.190
 6851SOL    HW221297   4.761   5.157   4.289
 6852SOL     OW21298   4.938   5.262   5.283
 6852SOL    HW121299   4.915   5.179   5.324
 6852SOL    HW221300   4.900   5.256   5.195
 6853SOL     OW21301   4.044   4.680   3.975
 6853SOL    HW121302   4.126   4.700   3.930
 6853SOL    HW221303   4.013   4.599   3.935
 6854SOL     OW21304   4.188   4.987   5.465
 6854SOL    HW121305   4.162   4.990   5.373
 6854SOL    HW221306   4.105   4.987   5.514
 6855SOL     OW21307   4.790   0.172   3.935
 6855SOL    HW121308   4.803   0.117   4.012
 6855SOL    HW221309   4.865   0.154   3.879
 6856SOL     OW21310   3.925   4.004   5.225
 6856SOL    HW121311   3.844   4.055   5.223
 6856SOL    HW221312   3.907   3.933   5.286
 6857SOL     OW21313   5.119   3.831   4.148
 6857SOL    HW121314   5.100   3.813   4.056
 6857SOL    HW221315   5.214   3.847   4.150
 6858SOL     OW21316   4.118   4.419   4.200
 6858SOL    HW121317   4.137   4.326   4.212
 6858SOL    HW221318   4.024   4.426   4.217
 6859SOL     OW21319   4.361   3.845   3.829
 6859SOL    HW121320   4.429   3.780   3.841
 6859SOL    HW221321   4.311   3.814   3.753
 6860SOL     OW21322   4.489   4.003   5.479
 6860SOL    HW121323   4.566   3.946   5.478
 6860SOL    HW221324   4.442   3.978   5.558
 6861SOL     OW21325   5.057   4.316   5.156
 6861SOL    HW121326   5.090   4.284   5.241
 6861SOL    HW221327   5.100   4.401   5.144
 6862SOL     OW21328   4.537   5.118   4.661
 6862SOL    HW121329   4.618   5.106   4.611
 6862SOL    HW221330   4.468   5.125   4.594
 6863SOL     OW21331   4.651   4.233   4.627
 6863SOL    HW121332   4.628   4.224   4.534
 6863SOL    HW221333   4.683   4.146   4.652
 6864SOL     OW21334   4.273   3.787   4.225
 6864SOL    HW121335   4.193   3.788   4.277
 6864SOL    HW221336   4.267   3.865   4.170
 6865SOL     OW21337   5.134   4.904   3.767
 6865SOL    HW121338   5.140   4.825   3.820
 6865SOL    HW221339   5.046   4.937   3.783
 6866SOL     OW21340   4.015   3.771   3.909
 6866SOL    HW121341   4.074   3.835   3.868
 6866SOL    HW221342   4.074   3.709   3.951
 6867SOL     OW21343   4.662   3.971   4.183
 6867SOL    HW121344   4.636   4.011   4.100
 6867SOL    HW221345   4.757   3.984   4.187
 6868SOL     OW21346   4.801   4.406   5.184
 6868SOL    HW121347   4.735   4.337   5.186
 6868SOL    HW221348   4.884   4.359   5.175
 6869SOL     OW21349   4.985   5.265   4.493
 6869SOL    HW121350   4.946   0.051   4.475
 6869SOL    HW221351   5.038   5.278   4.571
 6870SOL     OW21352   4.190   4.872   4.453
 6870SOL    HW121353   4.122   4.852   4.517
 6870SOL    HW221354   4.149   4.855   4.368
 6871SOL     OW21355   4.747   4.266   3.747
 6871SOL    HW121356   4.703   4.349   3.727
 6871SOL    HW221357   4.809   4.288   3.817
 6872SOL     OW21358   3.804   4.278   5.117
 6872SOL    HW121359   3.895   4.277   5.090
 6872SOL    HW221360   3.799   4.348   5.182
 6873SOL     OW21361   4.283   3.951   4.890
 6873SOL    HW121362   4.325   3.876   4.932
 6873SOL    HW221363   4.192   3.947   4.920
 6874SOL     OW21364   4.592   4.183   4.363
 6874SOL    HW121365   4.546   4.238   4.299
 6874SOL    HW221366   4.613   4.103   4.315
 6875SOL     OW21367   4.739   3.777   4.475
 6875SOL    HW121368   4.681   3.770   4.399
 6875SOL    HW221369   4.717   3.702   4.529
 6876SOL     OW21370   5.152   4.902   4.573
 6876SOL    HW121371   5.100   4.822   4.585
 6876SOL    HW221372   5.168   4.906   4.479
 6877SOL     OW21373   4.202   5.148   3.876
 6877SOL    HW121374   4.142   5.095   3.928
 6877SOL    HW221375   4.209   5.102   3.792
 6878SOL     OW21376   5.128   4.285   3.805
 6878SOL    HW121377   5.054   4.276   3.865
 6878SOL    HW221378   5.203   4.248   3.852
 6879SOL     OW21379   4.249   3.987   4.041
 6879SOL    HW121380   4.295   3.940   3.971
 6879SOL    HW221381   4.226   4.071   4.002
 6880SOL     OW21382   4.786   5.073   5.053
 6880SOL    HW121383   4.708   5.049   5.103
 6880SOL    HW221384   4.859   5.036   5.103
 6881SOL     OW21385   4.849   4.923   4.832
 6881SOL    HW121386   4.799   4.966   4.902
 6881SOL    HW221387   4.805   4.949   4.751
 6882SOL     OW21388   4.642   3.821   5.120
 6882SOL    HW121389   4.664   3.803   5.028
 6882SOL    HW221390   4.721   3.860   5.156
 6883SOL     OW21391   4.705   4.832   5.455
 6883SOL    HW121392   4.613   4.852   5.472
 6883SOL    HW221393   4.703   4.758   5.394
 6884SOL     OW21394   4.428   4.782   4.096
 6884SOL    HW121395   4.416   4.766   4.189
 6884SOL    HW221396   4.506   4.732   4.072
 6885SOL     OW21397   4.143   4.539   4.975
 6885SOL    HW121398   4.211   4.549   5.042
 6885SOL    HW221399   4.108   4.451   4.990
 6886SOL     OW21400   4.988   4.099   5.001
 6886SOL    HW121401   5.023   4.178   5.042
 6886SOL    HW221402   4.898   4.122   4.977
 6887SOL     OW21403   4.068   4.833   4.212
 6887SOL    HW121404   4.071   4.907   4.151
 6887SOL    HW221405   4.068   4.755   4.157
 6888SOL     OW21406   4.275   4.260   4.584
 6888SOL    HW121407   4.290   4.318   4.509
 6888SOL    HW221408   4.341   4.286   4.648
 6889SOL     OW21409   4.985   5.078   4.111
 6889SOL    HW121410   5.037   5.154   4.137
 6889SOL    HW221411   4.896   5.100   4.139
 6890SOL     OW21412   4.977   5.182   4.854
 6890SOL    HW121413   5.032   5.205   4.929
 6890SOL    HW221414   4.940   5.097   4.877
 6891SOL     OW21415   4.073   5.236   5.037
 6891SOL    HW121416   4.062   5.201   4.949
 6891SOL    HW221417   4.166   5.256   5.044
 6892SOL     OW21418   4.139   4.468   5.326
 6892SOL    HW121419   4.201   4.513   5.268
 6892SOL    HW221420   4.179   4.383   5.342
 6893SOL     OW21421   4.718   3.851   5.479
 6893SOL    HW121422   4.776   3.923   5.454
 6893SOL    HW221423   4.765   3.772   5.453
 6894SOL     OW21424   4.222   3.764   5.472
 6894SOL    HW121425   4.178   3.710   5.406
 6894SOL    HW221426   4.163   3.839   5.484
 6895SOL     OW21427   4.307   4.597   4.755
 6895SOL    HW121428   4.338   4.687   4.754
 6895SOL    HW221429   4.251   4.591   4.833
 6896SOL     OW21430   5.086   4.580   4.759
 6896SOL    HW121431   5.009   4.560   4.706
 6896SOL    HW221432   5.140   4.501   4.754
 6897SOL     OW21433   4.927   4.255   3.987
 6897SOL    HW121434   4.934   4.175   4.040
 6897SOL    HW221435   4.884   4.318   4.045
 6898SOL     OW21436   4.022   3.921   4.971
 6898SOL    HW121437   3.985   3.955   5.053
 6898SOL    HW221438   4.002   3.828   4.972
 6899SOL     OW21439   3.778   5.047   5.009
 6899SOL    HW121440   3.801   4.982   5.075
 6899SOL    HW221441   3.813   5.130   5.043
 6900SOL     OW21442   4.447   4.354   4.781
 6900SOL    HW121443   4.523   4.339   4.724
 6900SOL    HW221444   4.419   4.443   4.760
 6901SOL     OW21445   4.027   3.787   4.348
 6901SOL    HW121446   4.008   3.878   4.370
 6901SOL    HW221447   4.036   3.743   4.432
 6902SOL     OW21448   0.034   4.120   4.082
 6902SOL    HW121449   0.052   4.044   4.138
 6902SOL    HW221450   0.022   4.193   4.143
 6903SOL     OW21451   4.751   4.482   4.683
 6903SOL    HW121452   4.749   4.500   4.777
 6903SOL    HW221453   4.725   4.391   4.675
 6904SOL     OW21454   4.077   4.640   5.533
 6904SOL    HW121455   4.159   4.660   5.579
 6904SOL    HW221456   4.102   4.577   5.465
 6905SOL     OW21457   5.028   4.552   3.760
 6905SOL    HW121458   5.065   4.464   3.763
 6905SOL    HW221459   5.055   4.588   3.676
 6906SOL     OW21460   4.780   5.081   4.548
 6906SOL    HW121461   4.787   4.995   4.506
 6906SOL    HW221462   4.866   5.121   4.535
 6907SOL     OW21463   4.033   4.533   4.671
 6907SOL    HW121464   4.126   4.554   4.664
 6907SOL    HW221465   4.031   4.442   4.703
 6908SOL     OW21466   4.054   4.251   4.736
 6908SOL    HW121467   4.020   4.163   4.722
 6908SOL    HW221468   4.131   4.256   4.679
 6909SOL     OW21469   4.856   4.100   5.406
 6909SOL    HW121470   4.808   4.155   5.468
 6909SOL    HW221471   4.943   4.139   5.401
 6910SOL     OW21472   4.885   3.926   5.193
 6910SOL    HW121473   4.873   3.988   5.265
 6910SOL    HW221474   4.924   3.977   5.123
 6911SOL     OW21475   3.730   5.040   3.914
 6911SOL    HW121476   3.640   5.057   3.889
 6911SOL    HW221477   3.728   4.952   3.952
 6912SOL     OW21478   4.704   4.515   4.950
 6912SOL    HW121479   4.762   4.494   5.023
 6912SOL    HW221480   4.620   4.477   4.973
 6913SOL     OW21481   3.760   4.268   4.841
 6913SOL    HW121482   3.840   4.257   4.790
 6913SOL    HW221483   3.789   4.272   4.932
 6914SOL     OW21484   3.915   4.244   5.452
 6914SOL    HW121485   3.973   4.206   5.386
 6914SOL    HW221486   3.874   4.318   5.408
 6915SOL     OW21487   5.114   4.661   5.390
 6915SOL    HW121488   5.120   4.755   5.377
 6915SOL    HW221489   5.117   4.625   5.301
 6916SOL     OW21490   4.540   4.293   4.085
 6916SOL    HW121491   4.544   4.219   4.025
 6916SOL    HW221492   4.466   4.346   4.054
 6917SOL     OW21493   3.928   5.276   5.469
 6917SOL    HW121494   3.913   0.028   5.548
 6917SOL    HW221495   3.941   5.187   5.502
 6918SOL     OW21496   4.426   4.173   4.982
 6918SOL    HW121497   4.373   4.100   4.952
 6918SOL    HW221498   4.422   4.237   4.910
 6919SOL     OW21499   4.187   4.216   3.911
 6919SOL    HW121500   4.246   4.289   3.933
 6919SOL    HW221501   4.102   4.257   3.898
 6920SOL     OW21502   3.868   4.863   5.195
 6920SOL    HW121503   3.870   4.812   5.276
 6920SOL    HW221504   3.886   4.799   5.126
 6921SOL     OW21505   5.049   4.769   4.951
 6921SOL    HW121506   5.073   4.707   4.882
 6921SOL    HW221507   4.979   4.822   4.912
 6922SOL     OW21508   5.034   4.585   4.040
 6922SOL    HW121509   4.953   4.550   4.077
 6922SOL    HW221510   5.023   4.575   3.946
 6923SOL     OW21511   3.819   4.987   4.746
 6923SOL    HW121512   3.797   5.005   4.837
 6923SOL    HW221513   3.739   4.948   4.710
 6924SOL     OW21514   4.470   0.030   5.438
 6924SOL    HW121515   4.378   0.058   5.440
 6924SOL    HW221516   4.503   0.065   5.355
 6925SOL     OW21517   0.078   3.885   4.256
 6925SOL    HW121518   0.161   3.870   4.210
 6925SOL    HW221519   0.065   3.807   4.308
 6926SOL     OW21520   5.017   4.643   4.396
 6926SOL    HW121521   5.095   4.589   4.383
 6926SOL    HW221522   5.035   4.723   4.347
 6927SOL     OW21523   4.541   4.992   5.143
 6927SOL    HW121524   4.510   5.028   5.226
 6927SOL    HW221525   4.467   5.003   5.083
 6928SOL     OW21526   3.985   4.039   4.440
 6928SOL    HW121527   3.900   4.075   4.417
 6928SOL    HW221528   3.983   4.032   4.536
 6929SOL     OW21529   4.549   4.727   5.094
 6929SOL    HW121530   4.596   4.720   5.011
 6929SOL    HW221531   4.551   4.820   5.115
 6930SOL     OW21532   4.640   4.636   4.015
 6930SOL    HW121533   4.702   4.668   3.949
 6930SOL    HW221534   4.688   4.566   4.059
 6931SOL     OW21535   4.088   5.026   5.221
 6931SOL    HW121536   4.078   5.100   5.161
 6931SOL    HW221537   4.012   4.970   5.204
 6932SOL     OW21538   4.779   4.834   4.437
 6932SOL    HW121539   4.707   4.783   4.474
 6932SOL    HW221540   4.837   4.768   4.398
 6933SOL     OW21541   4.739   3.963   4.693
 6933SOL    HW121542   4.737   3.916   4.609
 6933SOL    HW221543   4.736   3.894   4.759
 6934SOL     OW21544   3.982   5.050   4.008
 6934SOL    HW121545   3.890   5.052   3.980
 6934SOL    HW221546   3.983   5.095   4.092
 6935SOL     OW21547   3.836   4.746   5.443
 6935SOL    HW121548   3.760   4.723   5.496
 6935SOL    HW221549   3.911   4.709   5.489
 6936SOL     OW21550   4.399   3.920   5.224
 6936SOL    HW121551   4.483   3.900   5.183
 6936SOL    HW221552   4.422   3.952   5.311
 6937SOL     OW21553   3.803   4.057   3.759
 6937SOL    HW121554   3.716   4.038   3.724
 6937SOL    HW221555   3.833   4.132   3.708
 6938SOL     OW21556   5.164   4.583   5.127
 6938SOL    HW121557   5.111   4.641   5.072
 6938SOL    HW221558   5.253   4.591   5.092
 6939SOL     OW21559   3.791   3.880   4.033
 6939SOL    HW121560   3.778   3.960   3.982
 6939SOL    HW221561   3.876   3.847   4.003
 6940SOL     OW21562   4.908   5.058   3.845
 6940SOL    HW121563   4.814   5.041   3.844
 6940SOL    HW221564   4.933   5.055   3.937
 6941SOL     OW21565   4.343   4.555   5.158
 6941SOL    HW121566   4.400   4.630   5.142
 6941SOL    HW221567   4.403   4.481   5.166
 6942SOL     OW21568   4.441   4.287   5.427
 6942SOL    HW121569   4.483   4.348   5.488
 6942SOL    HW221570   4.466   4.200   5.460
 6943SOL     OW21571   5.184   4.927   5.357
 6943SOL    HW121572   5.172   4.939   5.451
 6943SOL    HW221573   5.278   4.931   5.343
 6944SOL     OW21574   4.939   4.044   4.180
 6944SOL    HW121575   5.001   3.972   4.167
 6944SOL    HW221576   4.969   4.088   4.259
 6945SOL     OW21577   4.314   4.461   4.394
 6945SOL    HW121578   4.352   4.547   4.380
 6945SOL    HW221579   4.246   4.453   4.326
 6946SOL     OW21580   4.581   5.094   3.744
 6946SOL    HW121581   4.558   5.097   3.837
 6946SOL    HW221582   4.586   5.186   3.718
 6947SOL     OW21583   4.593   4.692   4.579
 6947SOL    HW121584   4.642   4.620   4.619
 6947SOL    HW221585   4.557   4.741   4.653
 6948SOL     OW21586   4.809   4.712   3.817
 6948SOL    HW121587   4.781   4.760   3.738
 6948SOL    HW221588   4.882   4.658   3.787
 6949SOL     OW21589   3.946   5.023   5.576
 6949SOL    HW121590   3.878   4.960   5.551
 6949SOL    HW221591   3.935   5.033   5.671
 6950SOL     OW21592   3.810   4.954   4.394
 6950SOL    HW121593   3.811   4.903   4.474
 6950SOL    HW221594   3.874   4.911   4.337
 6951SOL     OW21595   4.396   5.102   5.333
 6951SOL    HW121596   4.318   5.072   5.381
 6951SOL    HW221597   4.427   5.178   5.382
 6952SOL     OW21598   4.153   4.158   4.250
 6952SOL    HW121599   4.183   4.087   4.193
 6952SOL    HW221600   4.105   4.113   4.319
 6953SOL     OW21601   0.123   5.230   4.773
 6953SOL    HW121602   0.039   5.205   4.736
 6953SOL    HW221603   0.106   5.241   4.867
 6954SOL     OW21604   4.054   4.280   5.016
 6954SOL    HW121605   4.110   4.225   5.071
 6954SOL    HW221606   4.074   4.252   4.926
 6955SOL     OW21607   5.146   3.942   4.839
 6955SOL    HW121608   5.193   3.879   4.893
 6955SOL    HW221609   5.100   3.998   4.902
 6956SOL     OW21610   4.729   3.742   4.865
 6956SOL    HW121611   4.677   3.674   4.823
 6956SOL    HW221612   4.817   3.704   4.870
 6957SOL     OW21613   4.527   5.046   4.008
 6957SOL    HW121614   4.468   4.973   4.028
 6957SOL    HW221615   4.582   5.055   4.086
 6958SOL     OW21616   4.346   5.299   5.017
 6958SOL    HW121617   4.352   0.053   5.096
 6958SOL    HW221618   4.437   5.280   4.994
 6959SOL     OW21619   5.056   3.770   3.891
 6959SOL    HW121620   5.079   3.729   3.808
 6959SOL    HW221621   4.971   3.732   3.914
 6960SOL     OW21622   5.027   4.182   4.405
 6960SOL    HW121623   4.973   4.261   4.409
 6960SOL    HW221624   5.016   4.141   4.491
 6961SOL     OW21625   0.002   3.950   4.606
 6961SOL    HW121626   5.236   3.937   4.674
 6961SOL    HW221627   5.274   4.029   4.560
 6962SOL     OW21628   3.766   4.793   4.032
 6962SOL    HW121629   3.860   4.787   4.015
 6962SOL    HW221630   3.740   4.704   4.054
 6963SOL     OW21631   3.953   4.347   5.710
 6963SOL    HW121632   3.863   4.346   5.745
 6963SOL    HW221633   3.943   4.322   5.618
 6964SOL     OW21634   3.949   4.006   6.578
 6964SOL    HW121635   3.977   3.971   6.662
 6964SOL    HW221636   3.859   3.974   6.568
 6965SOL     OW21637   3.727   4.107   6.224
 6965SOL    HW121638   3.645   4.132   6.266
 6965SOL    HW221639   3.706   4.028   6.175
 6966SOL     OW21640   4.290   5.007   6.766
 6966SOL    HW121641   4.206   5.005   6.722
 6966SOL    HW221642   4.303   5.098   6.791
 6967SOL     OW21643   5.275   5.231   6.278
 6967SOL    HW121644   5.268   5.216   6.372
 6967SOL    HW221645   5.184   5.231   6.247
 6968SOL     OW21646   4.859   4.423   6.285
 6968SOL    HW121647   4.909   4.504   6.275
 6968SOL    HW221648   4.810   4.435   6.366
 6969SOL     OW21649   4.478   4.867   6.625
 6969SOL    HW121650   4.411   4.899   6.686
 6969SOL    HW221651   4.509   4.945   6.579
 6970SOL     OW21652   4.593   4.498   7.407
 6970SOL    HW121653   4.570   4.572   7.463
 6970SOL    HW221654   4.617   4.537   7.323
 6971SOL     OW21655   4.410   4.725   6.233
 6971SOL    HW121656   4.475   4.715   6.303
 6971SOL    HW221657   4.341   4.779   6.272
 6972SOL     OW21658   4.433   4.874   7.400
 6972SOL    HW121659   4.482   4.953   7.422
 6972SOL    HW221660   4.351   4.906   7.362
 6973SOL     OW21661   4.061   5.149   6.645
 6973SOL    HW121662   3.983   5.104   6.612
 6973SOL    HW221663   4.099   5.192   6.569
 6974SOL     OW21664   5.127   5.237   6.926
 6974SOL    HW121665   5.146   0.008   6.989
 6974SOL    HW221666   5.105   5.162   6.981
 6975SOL     OW21667   4.174   4.122   7.073
 6975SOL    HW121668   4.249   4.063   7.078
 6975SOL    HW221669   4.098   4.066   7.086
 6976SOL     OW21670   4.865   5.049   7.285
 6976SOL    HW121671   4.887   5.064   7.377
 6976SOL    HW221672   4.803   4.976   7.287
 6977SOL     OW21673   3.934   5.157   6.107
 6977SOL    HW121674   3.961   5.237   6.150
 6977SOL    HW221675   3.883   5.110   6.173
 6978SOL     OW21676   3.983   4.811   6.478
 6978SOL    HW121677   3.981   4.724   6.517
 6978SOL    HW221678   3.926   4.864   6.534
 6979SOL     OW21679   4.308   4.706   5.721
 6979SOL    HW121680   4.355   4.754   5.653
 6979SOL    HW221681   4.347   4.736   5.803
 6980SOL     OW21682   3.839   4.377   6.146
 6980SOL    HW121683   3.810   4.288   6.167
 6980SOL    HW221684   3.831   4.425   6.228
 6981SOL     OW21685   3.710   0.013   5.683
 6981SOL    HW121686   3.726   5.224   5.715
 6981SOL    HW221687   3.732   0.069   5.758
 6982SOL     OW21688   0.112   4.657   6.152
 6982SOL    HW121689   0.200   4.625   6.172
 6982SOL    HW221690   0.124   4.750   6.132
 6983SOL     OW21691   3.847   4.466   7.172
 6983SOL    HW121692   3.939   4.493   7.178
 6983SOL    HW221693   3.798   4.548   7.179
 6984SOL     OW21694   4.346   5.098   6.324
 6984SOL    HW121695   4.292   5.019   6.321
 6984SOL    HW221696   4.328   5.143   6.241
 6985SOL     OW21697   5.021   4.973   7.005
 6985SOL    HW121698   5.048   4.900   6.948
 6985SOL    HW221699   5.067   4.956   7.087
 6986SOL     OW21700   4.539   3.725   6.095
 6986SOL    HW121701   4.580   3.809   6.075
 6986SOL    HW221702   4.446   3.745   6.104
 6987SOL     OW21703   3.914   4.689   6.857
 6987SOL    HW121704   3.999   4.647   6.843
 6987SOL    HW221705   3.852   4.636   6.808
 6988SOL     OW21706   4.058   3.972   7.401
 6988SOL    HW121707   4.102   4.057   7.415
 6988SOL    HW221708   3.968   3.987   7.430
 6989SOL     OW21709   5.178   5.153   6.537
 6989SOL    HW121710   5.110   5.163   6.603
 6989SOL    HW221711   5.164   5.066   6.500
 6990SOL     OW21712   0.043   0.164   6.150
 6990SOL    HW121713   0.086   0.125   6.074
 6990SOL    HW221714   0.033   0.091   6.211
 6991SOL     OW21715   4.320   4.444   5.853
 6991SOL    HW121716   4.325   4.526   5.804
 6991SOL    HW221717   4.255   4.462   5.921
 6992SOL     OW21718   4.995   4.061   6.505
 6992SOL    HW121719   4.907   4.031   6.526
 6992SOL    HW221720   5.050   4.026   6.575
 6993SOL     OW21721   4.514   4.342   7.036
 6993SOL    HW121722   4.489   4.317   7.125
 6993SOL    HW221723   4.475   4.274   6.981
 6994SOL     OW21724   5.115   4.206   7.267
 6994SOL    HW121725   5.117   4.242   7.355
 6994SOL    HW221726   5.191   4.148   7.262
 6995SOL     OW21727   4.677   4.611   7.168
 6995SOL    HW121728   4.730   4.540   7.132
 6995SOL    HW221729   4.629   4.646   7.093
 6996SOL     OW21730   4.715   4.137   6.823
 6996SOL    HW121731   4.628   4.156   6.858
 6996SOL    HW221732   4.698   4.090   6.742
 6997SOL     OW21733   4.775   4.422   6.011
 6997SOL    HW121734   4.792   4.416   6.105
 6997SOL    HW221735   4.692   4.376   5.998
 6998SOL     OW21736   3.812   4.545   6.362
 6998SOL    HW121737   3.893   4.538   6.413
 6998SOL    HW221738   3.768   4.623   6.398
 6999SOL     OW21739   4.618   4.072   5.780
 6999SOL    HW121740   4.658   4.134   5.718
 6999SOL    HW221741   4.634   3.986   5.741
 7000SOL     OW21742   5.093   4.869   6.133
 7000SOL    HW121743   5.183   4.870   6.102
 7000SOL    HW221744   5.047   4.929   6.074
 7001SOL     OW21745   4.274   3.905   6.480
 7001SOL    HW121746   4.276   3.934   6.571
 7001SOL    HW221747   4.275   3.985   6.428
 7002SOL     OW21748   4.744   5.167   6.057
 7002SOL    HW121749   4.668   5.224   6.052
 7002SOL    HW221750   4.761   5.157   6.151
 7003SOL     OW21751   4.939   5.262   7.145
 7003SOL    HW121752   4.915   5.178   7.186
 7003SOL    HW221753   4.900   5.257   7.058
 7004SOL     OW21754   4.044   4.680   5.837
 7004SOL    HW121755   4.126   4.700   5.792
 7004SOL    HW221756   4.013   4.599   5.797
 7005SOL     OW21757   4.187   4.987   7.329
 7005SOL    HW121758   4.160   4.990   7.237
 7005SOL    HW221759   4.104   4.987   7.377
 7006SOL     OW21760   4.790   0.172   5.797
 7006SOL    HW121761   4.803   0.117   5.874
 7006SOL    HW221762   4.865   0.154   5.741
 7007SOL     OW21763   3.925   4.004   7.088
 7007SOL    HW121764   3.843   4.053   7.084
 7007SOL    HW221765   3.906   3.929   7.145
 7008SOL     OW21766   5.119   3.831   6.010
 7008SOL    HW121767   5.100   3.813   5.918
 7008SOL    HW221768   5.214   3.847   6.012
 7009SOL     OW21769   4.118   4.419   6.062
 7009SOL    HW121770   4.137   4.326   6.074
 7009SOL    HW221771   4.024   4.426   6.079
 7010SOL     OW21772   4.361   3.846   5.691
 7010SOL    HW121773   4.429   3.780   5.704
 7010SOL    HW221774   4.311   3.814   5.615
 7011SOL     OW21775   4.488   4.002   7.341
 7011SOL    HW121776   4.566   3.946   7.340
 7011SOL    HW221777   4.445   3.983   7.424
 7012SOL     OW21778   5.057   4.316   7.018
 7012SOL    HW121779   5.090   4.285   7.102
 7012SOL    HW221780   5.100   4.401   7.006
 7013SOL     OW21781   4.537   5.118   6.523
 7013SOL    HW121782   4.617   5.106   6.473
 7013SOL    HW221783   4.468   5.125   6.456
 7014SOL     OW21784   4.652   4.233   6.488
 7014SOL    HW121785   4.628   4.224   6.396
 7014SOL    HW221786   4.683   4.146   6.514
 7015SOL     OW21787   4.273   3.787   6.087
 7015SOL    HW121788   4.193   3.788   6.139
 7015SOL    HW221789   4.267   3.865   6.032
 7016SOL     OW21790   5.134   4.904   5.629
 7016SOL    HW121791   5.140   4.825   5.682
 7016SOL    HW221792   5.046   4.938   5.645
 7017SOL     OW21793   4.016   3.772   5.771
 7017SOL    HW121794   4.075   3.836   5.731
 7017SOL    HW221795   4.074   3.708   5.813
 7018SOL     OW21796   4.662   3.971   6.045
 7018SOL    HW121797   4.636   4.011   5.962
 7018SOL    HW221798   4.757   3.984   6.049
 7019SOL     OW21799   4.801   4.406   7.046
 7019SOL    HW121800   4.735   4.337   7.048
 7019SOL    HW221801   4.884   4.359   7.037
 7020SOL     OW21802   4.985   5.265   6.355
 7020SOL    HW121803   4.946   0.051   6.337
 7020SOL    HW221804   5.038   5.279   6.433
 7021SOL     OW21805   4.190   4.872   6.315
 7021SOL    HW121806   4.122   4.852   6.379
 7021SOL    HW221807   4.149   4.855   6.230
 7022SOL     OW21808   4.747   4.266   5.609
 7022SOL    HW121809   4.703   4.349   5.589
 7022SOL    HW221810   4.809   4.288   5.679
 7023SOL     OW21811   3.804   4.278   6.978
 7023SOL    HW121812   3.896   4.277   6.951
 7023SOL    HW221813   3.799   4.348   7.043
 7024SOL     OW21814   4.283   3.951   6.753
 7024SOL    HW121815   4.325   3.876   6.794
 7024SOL    HW221816   4.192   3.947   6.782
 7025SOL     OW21817   4.592   4.183   6.225
 7025SOL    HW121818   4.546   4.238   6.161
 7025SOL    HW221819   4.613   4.103   6.177
 7026SOL     OW21820   4.739   3.777   6.337
 7026SOL    HW121821   4.681   3.770   6.261
 7026SOL    HW221822   4.717   3.702   6.391
 7027SOL     OW21823   5.152   4.902   6.435
 7027SOL    HW121824   5.100   4.822   6.447
 7027SOL    HW221825   5.169   4.906   6.341
 7028SOL     OW21826   4.202   5.148   5.738
 7028SOL    HW121827   4.142   5.095   5.790
 7028SOL    HW221828   4.209   5.102   5.654
 7029SOL     OW21829   5.128   4.285   5.667
 7029SOL    HW121830   5.054   4.276   5.728
 7029SOL    HW221831   5.203   4.248   5.713
 7030SOL     OW21832   4.249   3.987   5.903
 7030SOL    HW121833   4.295   3.940   5.833
 7030SOL    HW221834   4.226   4.071   5.864
 7031SOL     OW21835   4.786   5.073   6.915
 7031SOL    HW121836   4.708   5.049   6.965
 7031SOL    HW221837   4.859   5.036   6.965
 7032SOL     OW21838   4.849   4.923   6.694
 7032SOL    HW121839   4.799   4.966   6.764
 7032SOL    HW221840   4.805   4.949   6.613
 7033SOL     OW21841   4.641   3.821   6.981
 7033SOL    HW121842   4.664   3.803   6.890
 7033SOL    HW221843   4.721   3.860   7.018
 7034SOL     OW21844   4.706   4.831   7.319
 7034SOL    HW121845   4.614   4.852   7.334
 7034SOL    HW221846   4.704   4.757   7.258
 7035SOL     OW21847   4.428   4.782   5.957
 7035SOL    HW121848   4.416   4.766   6.051
 7035SOL    HW221849   4.506   4.732   5.934
 7036SOL     OW21850   4.143   4.539   6.837
 7036SOL    HW121851   4.211   4.549   6.904
 7036SOL    HW221852   4.108   4.451   6.851
 7037SOL     OW21853   4.988   4.099   6.863
 7037SOL    HW121854   5.023   4.179   6.904
 7037SOL    HW221855   4.898   4.122   6.839
 7038SOL     OW21856   4.069   4.833   6.074
 7038SOL    HW121857   4.071   4.907   6.013
 7038SOL    HW221858   4.068   4.755   6.019
 7039SOL     OW21859   4.276   4.260   6.446
 7039SOL    HW121860   4.291   4.318   6.371
 7039SOL    HW221861   4.341   4.286   6.510
 7040SOL     OW21862   4.985   5.078   5.973
 7040SOL    HW121863   5.037   5.154   5.999
 7040SOL    HW221864   4.896   5.100   6.001
 7041SOL     OW21865   4.977   5.182   6.716
 7041SOL    HW121866   5.032   5.205   6.791
 7041SOL    HW221867   4.940   5.097   6.738
 7042SOL     OW21868   4.073   5.236   6.900
 7042SOL    HW121869   4.062   5.200   6.811
 7042SOL    HW221870   4.166   5.256   6.905
 7043SOL     OW21871   4.139   4.469   7.188
 7043SOL    HW121872   4.201   4.513   7.130
 7043SOL    HW221873   4.177   4.383   7.203
 7044SOL     OW21874   4.718   3.851   7.340
 7044SOL    HW121875   4.776   3.922   7.314
 7044SOL    HW221876   4.765   3.771   7.316
 7045SOL     OW21877   4.222   3.763   7.334
 7045SOL    HW121878   4.179   3.709   7.268
 7045SOL    HW221879   4.164   3.838   7.346
 7046SOL     OW21880   4.308   4.596   6.617
 7046SOL    HW121881   4.338   4.687   6.616
 7046SOL    HW221882   4.251   4.591   6.694
 7047SOL     OW21883   5.086   4.580   6.621
 7047SOL    HW121884   5.009   4.560   6.568
 7047SOL    HW221885   5.140   4.501   6.616
 7048SOL     OW21886   4.927   4.255   5.849
 7048SOL    HW121887   4.934   4.175   5.902
 7048SOL    HW221888   4.883   4.318   5.907
 7049SOL     OW21889   4.022   3.922   6.833
 7049SOL    HW121890   3.985   3.954   6.915
 7049SOL    HW221891   4.003   3.828   6.833
 7050SOL     OW21892   3.778   5.047   6.871
 7050SOL    HW121893   3.801   4.982   6.937
 7050SOL    HW221894   3.813   5.129   6.905
 7051SOL     OW21895   4.447   4.354   6.643
 7051SOL    HW121896   4.523   4.339   6.586
 7051SOL    HW221897   4.419   4.443   6.622
 7052SOL     OW21898   4.027   3.788   6.209
 7052SOL    HW121899   4.007   3.878   6.232
 7052SOL    HW221900   4.035   3.743   6.294
 7053SOL     OW21901   0.034   4.120   5.944
 7053SOL    HW121902   0.052   4.044   6.000
 7053SOL    HW221903   0.022   4.192   6.005
 7054SOL     OW21904   4.751   4.483   6.545
 7054SOL    HW121905   4.749   4.500   6.639
 7054SOL    HW221906   4.725   4.391   6.538
 7055SOL     OW21907   4.077   4.639   7.396
 7055SOL    HW121908   4.160   4.659   7.439
 7055SOL    HW221909   4.101   4.577   7.327
 7056SOL     OW21910   5.028   4.552   5.622
 7056SOL    HW121911   5.065   4.464   5.625
 7056SOL    HW221912   5.055   4.588   5.538
 7057SOL     OW21913   4.780   5.081   6.410
 7057SOL    HW121914   4.787   4.995   6.368
 7057SOL    HW221915   4.866   5.121   6.397
 7058SOL     OW21916   4.033   4.532   6.533
 7058SOL    HW121917   4.126   4.553   6.526
 7058SOL    HW221918   4.030   4.442   6.565
 7059SOL     OW21919   4.055   4.251   6.599
 7059SOL    HW121920   4.020   4.163   6.584
 7059SOL    HW221921   4.131   4.256   6.541
 7060SOL     OW21922   4.857   4.100   7.266
 7060SOL    HW121923   4.809   4.155   7.328
 7060SOL    HW221924   4.944   4.139   7.261
 7061SOL     OW21925   4.885   3.925   7.055
 7061SOL    HW121926   4.873   3.987   7.126
 7061SOL    HW221927   4.924   3.977   6.984
 7062SOL     OW21928   3.730   5.040   5.776
 7062SOL    HW121929   3.640   5.057   5.751
 7062SOL    HW221930   3.728   4.952   5.814
 7063SOL     OW21931   4.704   4.515   6.812
 7063SOL    HW121932   4.762   4.493   6.885
 7063SOL    HW221933   4.620   4.476   6.835
 7064SOL     OW21934   3.760   4.269   6.703
 7064SOL    HW121935   3.840   4.257   6.652
 7064SOL    HW221936   3.788   4.272   6.794
 7065SOL     OW21937   3.916   4.243   7.314
 7065SOL    HW121938   3.971   4.203   7.246
 7065SOL    HW221939   3.875   4.318   7.270
 7066SOL     OW21940   5.113   4.661   7.253
 7066SOL    HW121941   5.119   4.755   7.240
 7066SOL    HW221942   5.116   4.624   7.164
 7067SOL     OW21943   4.540   4.293   5.947
 7067SOL    HW121944   4.544   4.219   5.887
 7067SOL    HW221945   4.466   4.346   5.916
 7068SOL     OW21946   3.928   5.275   7.330
 7068SOL    HW121947   3.895   0.023   7.405
 7068SOL    HW221948   3.943   5.186   7.363
 7069SOL     OW21949   4.427   4.173   6.844
 7069SOL    HW121950   4.373   4.100   6.815
 7069SOL    HW221951   4.422   4.237   6.772
 7070SOL     OW21952   4.188   4.216   5.772
 7070SOL    HW121953   4.246   4.289   5.794
 7070SOL    HW221954   4.102   4.257   5.760
 7071SOL     OW21955   3.868   4.863   7.057
 7071SOL    HW121956   3.870   4.812   7.138
 7071SOL    HW221957   3.886   4.799   6.988
 7072SOL     OW21958   5.049   4.769   6.813
 7072SOL    HW121959   5.073   4.707   6.744
 7072SOL    HW221960   4.979   4.822   6.774
 7073SOL     OW21961   5.034   4.585   5.902
 7073SOL    HW121962   4.953   4.550   5.939
 7073SOL    HW221963   5.023   4.575   5.808
 7074SOL     OW21964   3.819   4.987   6.608
 7074SOL    HW121965   3.797   5.005   6.699
 7074SOL    HW221966   3.739   4.948   6.572
 7075SOL     OW21967   4.469   0.028   7.302
 7075SOL    HW121968   4.377   0.057   7.302
 7075SOL    HW221969   4.506   0.066   7.223
 7076SOL     OW21970   0.078   3.885   6.118
 7076SOL    HW121971   0.161   3.870   6.072
 7076SOL    HW221972   0.065   3.807   6.170
 7077SOL     OW21973   5.017   4.643   6.258
 7077SOL    HW121974   5.095   4.589   6.245
 7077SOL    HW221975   5.035   4.723   6.209
 7078SOL     OW21976   4.541   4.992   7.005
 7078SOL    HW121977   4.510   5.028   7.088
 7078SOL    HW221978   4.468   5.003   6.945
 7079SOL     OW21979   3.985   4.039   6.302
 7079SOL    HW121980   3.899   4.075   6.279
 7079SOL    HW221981   3.983   4.032   6.398
 7080SOL     OW21982   4.549   4.727   6.957
 7080SOL    HW121983   4.595   4.720   6.873
 7080SOL    HW221984   4.551   4.820   6.977
 7081SOL     OW21985   4.640   4.636   5.877
 7081SOL    HW121986   4.702   4.668   5.811
 7081SOL    HW221987   4.688   4.566   5.921
 7082SOL     OW21988   4.088   5.027   7.084
 7082SOL    HW121989   4.078   5.100   7.023
 7082SOL    HW221990   4.013   4.970   7.066
 7083SOL     OW21991   4.779   4.834   6.299
 7083SOL    HW121992   4.707   4.783   6.336
 7083SOL    HW221993   4.837   4.768   6.260
 7084SOL     OW21994   4.739   3.963   6.555
 7084SOL    HW121995   4.737   3.916   6.471
 7084SOL    HW221996   4.736   3.894   6.621
 7085SOL     OW21997   3.982   5.050   5.870
 7085SOL    HW121998   3.890   5.052   5.842
 7085SOL    HW221999   3.983   5.095   5.954
 7086SOL     OW22000   3.837   4.748   7.306
 7086SOL    HW122001   3.760   4.724   7.358
 7086SOL    HW222002   3.911   4.709   7.352
 7087SOL     OW22003   4.398   3.920   7.086
 7087SOL    HW122004   4.483   3.900   7.045
 7087SOL    HW222005   4.421   3.951   7.173
 7088SOL     OW22006   3.803   4.057   5.620
 7088SOL    HW122007   3.715   4.038   5.587
 7088SOL    HW222008   3.833   4.132   5.570
 7089SOL     OW22009   5.164   4.584   6.990
 7089SOL    HW122010   5.111   4.641   6.934
 7089SOL    HW222011   5.253   4.591   6.954
 7090SOL     OW22012   3.791   3.880   5.895
 7090SOL    HW122013   3.778   3.960   5.844
 7090SOL    HW222014   3.876   3.847   5.865
 7091SOL     OW22015   4.908   5.058   5.707
 7091SOL    HW122016   4.814   5.041   5.706
 7091SOL    HW222017   4.933   5.055   5.799
 7092SOL     OW22018   4.343   4.555   7.020
 7092SOL    HW122019   4.400   4.630   7.004
 7092SOL    HW222020   4.403   4.481   7.028
 7093SOL     OW22021   4.442   4.286   7.290
 7093SOL    HW122022   4.483   4.347   7.352
 7093SOL    HW222023   4.466   4.199   7.322
 7094SOL     OW22024   5.184   4.926   7.218
 7094SOL    HW122025   5.172   4.939   7.312
 7094SOL    HW222026   5.278   4.931   7.204
 7095SOL     OW22027   4.939   4.044   6.041
 7095SOL    HW122028   5.001   3.972   6.029
 7095SOL    HW222029   4.969   4.088   6.121
 7096SOL     OW22030   4.314   4.461   6.256
 7096SOL    HW122031   4.352   4.547   6.242
 7096SOL    HW222032   4.246   4.453   6.188
 7097SOL     OW22033   4.581   5.094   5.606
 7097SOL    HW122034   4.558   5.097   5.699
 7097SOL    HW222035   4.586   5.186   5.580
 7098SOL     OW22036   4.593   4.692   6.441
 7098SOL    HW122037   4.642   4.620   6.481
 7098SOL    HW222038   4.557   4.741   6.516
 7099SOL     OW22039   4.809   4.712   5.679
 7099SOL    HW122040   4.781   4.760   5.600
 7099SOL    HW222041   4.882   4.658   5.649
 7100SOL     OW22042   3.945   5.022   7.441
 7100SOL    HW122043   3.880   4.958   7.410
 7100SOL    HW222044   3.923   5.035   7.534
 7101SOL     OW22045   3.810   4.954   6.256
 7101SOL    HW122046   3.810   4.903   6.336
 7101SOL    HW222047   3.874   4.911   6.199
 7102SOL     OW22048   4.395   5.101   7.195
 7102SOL    HW122049   4.317   5.073   7.243
 7102SOL    HW222050   4.426   5.177   7.243
 7103SOL     OW22051   4.153   4.158   6.112
 7103SOL    HW122052   4.183   4.087   6.055
 7103SOL    HW222053   4.105   4.113   6.181
 7104SOL     OW22054   0.123   5.230   6.636
 7104SOL    HW122055   0.039   5.205   6.598
 7104SOL    HW222056   0.106   5.241   6.729
 7105SOL     OW22057   4.055   4.280   6.878
 7105SOL    HW122058   4.111   4.224   6.933
 7105SOL    HW222059   4.074   4.252   6.789
 7106SOL     OW22060   5.146   3.943   6.701
 7106SOL    HW122061   5.192   3.878   6.755
 7106SOL    HW222062   5.100   3.998   6.764
 7107SOL     OW22063   4.729   3.742   6.727
 7107SOL    HW122064   4.676   3.674   6.686
 7107SOL    HW222065   4.817   3.704   6.732
 7108SOL     OW22066   4.527   5.046   5.870
 7108SOL    HW122067   4.468   4.973   5.890
 7108SOL    HW222068   4.582   5.055   5.948
 7109SOL     OW22069   4.346   5.300   6.879
 7109SOL    HW122070   4.352   0.053   6.958
 7109SOL    HW222071   4.437   5.280   6.856
 7110SOL     OW22072   5.056   3.770   5.753
 7110SOL    HW122073   5.079   3.729   5.670
 7110SOL    HW222074   4.971   3.732   5.776
 7111SOL     OW22075   5.027   4.182   6.267
 7111SOL    HW122076   4.973   4.261   6.271
 7111SOL    HW222077   5.016   4.141   6.353
 7112SOL     OW22078   0.002   3.950   6.467
 7112SOL    HW122079   5.237   3.937   6.536
 7112SOL    HW222080   5.274   4.029   6.422
 7113SOL     OW22081   3.766   4.793   5.894
 7113SOL    HW122082   3.860   4.787   5.877
 7113SOL    HW222083   3.740   4.704   5.916
 7114SOL     OW22084   3.952   4.343   7.572
 7114SOL    HW122085   3.862   4.351   7.604
 7114SOL    HW222086   3.944   4.321   7.480
 7115SOL     OW22087   4.001   0.125   7.958
 7115SOL    HW122088   3.975   0.210   7.993
 7115SOL    HW222089   4.007   0.138   7.863
 7116SOL     OW22090   3.941   5.157   7.991
 7116SOL    HW122091   3.955   5.251   7.997
 7116SOL    HW222092   3.883   5.137   8.065
 7117SOL     OW22093   4.309   4.705   7.579
 7117SOL    HW122094   4.354   4.756   7.511
 7117SOL    HW222095   4.347   4.737   7.662
 7118SOL     OW22096   3.724   0.010   7.537
 7118SOL    HW122097   3.727   5.221   7.573
 7118SOL    HW222098   3.723   0.067   7.613
 7119SOL     OW22099   0.118   4.651   8.013
 7119SOL    HW122100   0.209   4.640   8.037
 7119SOL    HW222101   0.108   4.745   7.999
 7120SOL     OW22102   4.525   3.719   7.938
 7120SOL    HW122103   4.575   3.799   7.921
 7120SOL    HW222104   4.434   3.748   7.946
 7121SOL     OW22105   4.315   4.448   7.709
 7121SOL    HW122106   4.317   4.531   7.660
 7121SOL    HW222107   4.255   4.465   7.782
 7122SOL     OW22108   3.783   4.587   0.088
 7122SOL    HW122109   3.847   4.522   0.114
 7122SOL    HW222110   3.782   4.651   0.159
 7123SOL     OW22111   4.609   4.070   7.639
 7123SOL    HW122112   4.651   4.129   7.576
 7123SOL    HW222113   4.640   3.983   7.615
 7124SOL     OW22114   4.046   4.680   7.698
 7124SOL    HW122115   4.126   4.697   7.648
 7124SOL    HW222116   4.009   4.601   7.657
 7125SOL     OW22117   4.795   0.182   7.647
 7125SOL    HW122118   4.791   0.141   7.734
 7125SOL    HW222119   4.877   0.150   7.610
 7126SOL     OW22120   5.132   3.850   7.855
 7126SOL    HW122121   5.096   3.826   7.770
 7126SOL    HW222122   5.227   3.851   7.841
 7127SOL     OW22123   4.116   4.422   7.918
 7127SOL    HW122124   4.117   4.327   7.927
 7127SOL    HW222125   4.025   4.447   7.934
 7128SOL     OW22126   4.355   3.843   7.559
 7128SOL    HW122127   4.428   3.782   7.570
 7128SOL    HW222128   4.310   3.813   7.480
 7129SOL     OW22129   4.256   3.799   7.959
 7129SOL    HW122130   4.171   3.803   8.002
 7129SOL    HW222131   4.254   3.870   7.895
 7130SOL     OW22132   5.136   4.907   7.490
 7130SOL    HW122133   5.145   4.829   7.545
 7130SOL    HW222134   5.047   4.938   7.508
 7131SOL     OW22135   4.016   3.773   7.633
 7131SOL    HW122136   4.074   3.834   7.587
 7131SOL    HW222137   4.075   3.709   7.672
 7132SOL     OW22138   4.667   3.950   7.909
 7132SOL    HW122139   4.625   4.014   7.851
 7132SOL    HW222140   4.758   3.978   7.913
 7133SOL     OW22141   4.163   4.873   0.099
 7133SOL    HW122142   4.089   4.913   0.145
 7133SOL    HW222143   4.132   4.861   0.010
 7134SOL     OW22144   4.750   4.267   7.467
 7134SOL    HW122145   4.703   4.349   7.450
 7134SOL    HW222146   4.804   4.286   7.544
 7135SOL     OW22147   4.194   5.151   7.600
 7135SOL    HW122148   4.138   5.097   7.655
 7135SOL    HW222149   4.205   5.100   7.520
 7136SOL     OW22150   5.128   4.284   7.531
 7136SOL    HW122151   5.053   4.275   7.589
 7136SOL    HW222152   5.201   4.245   7.579
 7137SOL     OW22153   4.249   3.990   7.769
 7137SOL    HW122154   4.294   3.941   7.701
 7137SOL    HW222155   4.226   4.073   7.728
 7138SOL     OW22156   4.433   4.783   7.812
 7138SOL    HW122157   4.408   4.769   7.903
 7138SOL    HW222158   4.514   4.733   7.801
 7139SOL     OW22159   4.088   4.828   7.926
 7139SOL    HW122160   4.065   4.907   7.877
 7139SOL    HW222161   4.076   4.756   7.863
 7140SOL     OW22162   4.954   5.103   7.833
 7140SOL    HW122163   5.035   5.127   7.878
 7140SOL    HW222164   4.902   5.058   7.900
 7141SOL     OW22165   0.038   4.374   7.924
 7141SOL    HW122166   5.280   4.385   7.999
 7141SOL    HW222167   0.039   4.460   7.882
 7142SOL     OW22168   4.925   4.253   7.712
 7142SOL    HW122169   4.930   4.169   7.758
 7142SOL    HW222170   4.894   4.315   7.779
 7143SOL     OW22171   0.024   4.129   7.804
 7143SOL    HW122172   0.035   4.061   7.871
 7143SOL    HW222173   0.024   4.211   7.854
 7144SOL     OW22174   5.036   4.556   7.490
 7144SOL    HW122175   5.066   4.465   7.488
 7144SOL    HW222176   5.058   4.591   7.404
 7145SOL     OW22177   3.733   5.044   7.640
 7145SOL    HW122178   3.643   5.058   7.611
 7145SOL    HW222179   3.734   4.955   7.675
 7146SOL     OW22180   4.567   4.329   7.756
 7146SOL    HW122181   4.559   4.236   7.733
 7146SOL    HW222182   4.476   4.361   7.759
 7147SOL     OW22183   4.185   4.217   7.642
 7147SOL    HW122184   4.244   4.291   7.657
 7147SOL    HW222185   4.100   4.258   7.623
 7148SOL     OW22186   5.032   4.575   7.773
 7148SOL    HW122187   4.939   4.588   7.791
 7148SOL    HW222188   5.038   4.571   7.677
 7149SOL     OW22189   0.183   3.867   7.990
 7149SOL    HW122190   0.155   3.851   7.900
 7149SOL    HW222191   0.139   3.799   8.042
 7150SOL     OW22192   4.655   4.632   7.760
 7150SOL    HW122193   4.705   4.657   7.683
 7150SOL    HW222194   4.642   4.537   7.751
 7151SOL     OW22195   3.982   5.055   7.748
 7151SOL    HW122196   3.891   5.059   7.718
 7151SOL    HW222197   3.981   5.096   7.835
 7152SOL     OW22198   3.802   4.056   7.483
 7152SOL    HW122199   3.715   4.037   7.446
 7152SOL    HW222200   3.833   4.132   7.434
 7153SOL     OW22201   3.793   3.881   7.757
 7153SOL    HW122202   3.777   3.957   7.701
 7153SOL    HW222203   3.876   3.845   7.726
 7154SOL     OW22204   4.906   5.055   7.568
 7154SOL    HW122205   4.812   5.040   7.561
 7154SOL    HW222206   4.922   5.067   7.661
 7155SOL     OW22207   4.938   4.044   7.901
 7155SOL    HW122208   5.009   3.982   7.890
 7155SOL    HW222209   4.955   4.087   7.984
 7156SOL     OW22210   4.352   4.459   8.053
 7156SOL    HW122211   4.356   4.541   0.024
 7156SOL    HW222212   4.265   4.459   8.015
 7157SOL     OW22213   4.584   5.094   7.467
 7157SOL    HW122214   4.561   5.096   7.560
 7157SOL    HW222215   4.585   5.186   7.440
 7158SOL     OW22216   4.804   4.702   7.543
 7158SOL    HW122217   4.777   4.755   7.467
 7158SOL    HW222218   4.881   4.654   7.512
 7159SOL     OW22219   4.111   4.151   7.984
 7159SOL    HW122220   4.161   4.100   7.921
 7159SOL    HW222221   4.162   4.148   8.064
 7160SOL     OW22222   4.530   5.048   7.730
 7160SOL    HW122223   4.476   4.971   7.751
 7160SOL    HW222224   4.544   5.091   7.814
 7161SOL     OW22225   5.060   3.768   7.609
 7161SOL    HW122226   5.080   3.723   7.527
 7161SOL    HW222227   4.976   3.732   7.637
 7162SOL     OW22228   3.775   4.800   7.750
 7162SOL    HW122229   3.869   4.793   7.739
 7162SOL    HW222230   3.745   4.710   7.765
   5.30000   5.30000   8.08000
