2gCDOH_2PEG_l11
22029
    1LIG      O    1   2.388   2.331   0.023
    1LIG      C    2   2.358   2.404   0.148
    1LIG     C1    3   2.427   2.341   0.277
    1LIG     O1    4   2.360   2.386   0.401
    1LIG     C2    5   2.426   2.343   0.526
    1LIG     C3    6   2.349   2.397   0.654
    1LIG     O2    7   2.404   2.341   0.779
    1LIG     C4    8   2.365   2.416   0.899
    1LIG     C5    9   2.436   2.362   1.029
    1LIG     O3   10   2.367   2.405   1.151
    1LIG     C6   11   2.428   2.349   1.272
    1LIG     C7   12   2.362   2.411   1.400
    1LIG     O4   13   2.420   2.357   1.522
    1LIG     C8   14   2.367   2.418   1.644
    1LIG     C9   15   2.428   2.350   1.771
    1LIG     O5   16   2.362   2.399   1.890
    1LIG    C10   17   2.422   2.348   2.013
    1LIG    C11   18   2.342   2.397   2.138
    1LIG     O6   19   2.392   2.335   2.259
    1LIG    C12   20   2.348   2.400   2.381
    1LIG    C13   21   2.421   2.339   2.506
    1LIG     O7   22   2.352   2.371   2.630
    1LIG    C14   23   2.427   2.332   2.748
    1LIG    C15   24   2.368   2.399   2.876
    1LIG     O8   25   2.408   2.329   2.997
    1LIG    C16   26   2.376   2.402   3.119
    1LIG    C17   27   2.435   2.332   3.246
    1LIG     O9   28   2.386   2.399   3.367
    1LIG    C18   29   2.441   2.338   3.488
    1LIG    C19   30   2.380   2.403   3.617
    1LIG    O10   31   2.418   2.328   3.736
    1LIG    C20   32   2.371   2.390   3.859
    1LIG    C21   33   2.428   2.314   3.984
    1LIG    O11   34   2.366   2.363   4.107
    1LIG    C22   35   2.432   2.316   4.228
    1LIG    C23   36   2.363   2.377   4.354
    1LIG    O12   37   2.413   2.321   4.478
    1LIG    C24   38   2.374   2.401   4.592
    1LIG    C25   39   2.441   2.349   4.722
    1LIG    O13   40   2.374   2.402   4.839
    1LIG    C26   41   2.436   2.355   4.961
    1LIG    C27   42   2.363   2.413   5.086
    1LIG    O14   43   2.424   2.361   5.207
    1LIG    C28   44   2.370   2.418   5.330
    1LIG    C29   45   2.429   2.348   5.456
    1LIG    O15   46   2.363   2.401   5.575
    1LIG    C30   47   2.426   2.350   5.695
    1LIG    C31   48   2.345   2.394   5.823
    1LIG    O16   49   2.407   2.340   5.943
    1LIG    C32   50   2.367   2.404   6.066
    1LIG    C33   51   2.440   2.339   6.188
    1LIG    O17   52   2.385   2.390   6.311
    1LIG    C34   53   2.441   2.331   6.430
    1LIG    C35   54   2.375   2.397   6.555
    1LIG    O18   55   2.415   2.328   6.677
    1LIG    C36   56   2.378   2.400   6.797
    1LIG    C37   57   2.437   2.334   6.925
    1LIG    O19   58   2.385   2.401   7.043
    1LIG    C38   59   2.440   2.345   7.166
    1LIG    C39   60   2.374   2.411   7.292
    1LIG    O20   61   2.418   2.344   7.412
    1LIG    C40   62   2.366   2.402   7.534
    1LIG    C41   63   2.426   2.331   7.660
    1LIG    O21   64   2.358   2.377   7.780
    1LIG    C42   65   2.417   2.328   7.904
    1LIG    C43   66   2.346   2.392   8.027
    1LIG    O22   67   2.399   2.334   8.150
    1LIG    C44   68   2.362   2.404   8.272
    1LIG    C45   69   2.428   2.335   8.396
    1LIG    O23   70   2.371   2.386   8.520
    1LIG    C46   71   2.430   2.328   8.639
    1LIG    C47   72   2.376   2.404   8.764
    1LIG    O24   73   2.426   2.348   8.888
    1LIG    C48   74   2.368   2.407   9.008
    1LIG    C49   75   2.429   2.342   9.136
    1LIG    O25   76   2.368   2.397   9.255
    1LIG    C50   77   2.431   2.349   9.377
    1LIG    C51   78   2.355   2.404   9.502
    1LIG    O26   79   2.411   2.349   9.626
    1LIG    C52   80   2.355   2.403   9.750
    1LIG    C53   81   2.426   2.337   9.874
    1LIG    O27   82   2.354   2.364   9.998
    1LIG    C54   83   2.431   2.332  10.118
    1LIG    C55   84   2.368   2.401  10.245
    1LIG    O28   85   2.407   2.335  10.371
    1LIG    C56   86   2.369   2.408  10.492
    1LIG    C57   87   2.429   2.343  10.624
    1LIG    O29   88   2.372   2.402  10.746
    1LIG    C58   89   2.417   2.333  10.868
    1LIG    C59   90   2.384   2.414  11.001
    1LIG      H   91   2.249   2.406   0.164
    1LIG     H1   92   2.389   2.508   0.137
    1LIG     H2   93   2.532   2.371   0.279
    1LIG     H3   94   2.423   2.231   0.272
    1LIG     H4   95   2.528   2.382   0.527
    1LIG     H5   96   2.431   2.234   0.529
    1LIG     H6   97   2.243   2.372   0.647
    1LIG     H7   98   2.352   2.506   0.658
    1LIG     H8   99   2.257   2.408   0.912
    1LIG     H9  100   2.390   2.522   0.886
    1LIG    H10  101   2.540   2.398   1.032
    1LIG    H11  102   2.439   2.253   1.026
    1LIG    H12  103   2.535   2.372   1.272
    1LIG    H13  104   2.416   2.241   1.274
    1LIG    H14  105   2.254   2.397   1.400
    1LIG    H15  106   2.377   2.519   1.399
    1LIG    H16  107   2.258   2.407   1.646
    1LIG    H17  108   2.390   2.525   1.645
    1LIG    H18  109   2.535   2.372   1.776
    1LIG    H19  110   2.414   2.241   1.765
    1LIG    H20  111   2.526   2.382   2.019
    1LIG    H21  112   2.423   2.239   2.010
    1LIG    H22  113   2.237   2.374   2.125
    1LIG    H23  114   2.344   2.506   2.146
    1LIG    H24  115   2.240   2.389   2.392
    1LIG    H25  116   2.369   2.507   2.374
    1LIG    H26  117   2.522   2.379   2.510
    1LIG    H27  118   2.428   2.229   2.496
    1LIG    H28  119   2.532   2.364   2.737
    1LIG    H29  120   2.426   2.223   2.757
    1LIG    H30  121   2.259   2.403   2.870
    1LIG    H31  122   2.402   2.503   2.880
    1LIG    H32  123   2.267   2.411   3.128
    1LIG    H33  124   2.418   2.502   3.112
    1LIG    H34  125   2.544   2.338   3.243
    1LIG    H35  126   2.405   2.227   3.248
    1LIG    H36  127   2.550   2.352   3.489
    1LIG    H37  128   2.419   2.231   3.487
    1LIG    H38  129   2.270   2.404   3.609
    1LIG    H39  130   2.414   2.506   3.626
    1LIG    H40  131   2.262   2.388   3.861
    1LIG    H41  132   2.402   2.495   3.860
    1LIG    H42  133   2.535   2.331   3.988
    1LIG    H43  134   2.412   2.207   3.977
    1LIG    H44  135   2.537   2.348   4.227
    1LIG    H45  136   2.429   2.207   4.232
    1LIG    H46  137   2.255   2.364   4.349
    1LIG    H47  138   2.378   2.484   4.354
    1LIG    H48  139   2.265   2.397   4.603
    1LIG    H49  140   2.402   2.506   4.577
    1LIG    H50  141   2.546   2.380   4.723
    1LIG    H51  142   2.437   2.240   4.724
    1LIG    H52  143   2.541   2.387   4.963
    1LIG    H53  144   2.433   2.246   4.965
    1LIG    H54  145   2.257   2.387   5.084
    1LIG    H55  146   2.369   2.521   5.085
    1LIG    H56  147   2.260   2.407   5.330
    1LIG    H57  148   2.393   2.525   5.334
    1LIG    H58  149   2.537   2.369   5.461
    1LIG    H59  150   2.413   2.240   5.450
    1LIG    H60  151   2.529   2.385   5.701
    1LIG    H61  152   2.429   2.241   5.692
    1LIG    H62  153   2.243   2.362   5.815
    1LIG    H63  154   2.332   2.502   5.830
    1LIG    H64  155   2.259   2.397   6.079
    1LIG    H65  156   2.394   2.510   6.062
    1LIG    H66  157   2.547   2.363   6.183
    1LIG    H67  158   2.429   2.230   6.185
    1LIG    H68  159   2.549   2.350   6.433
    1LIG    H69  160   2.424   2.223   6.430
    1LIG    H70  161   2.266   2.395   6.546
    1LIG    H71  162   2.405   2.501   6.560
    1LIG    H72  163   2.269   2.406   6.805
    1LIG    H73  164   2.416   2.503   6.790
    1LIG    H74  165   2.547   2.344   6.923
    1LIG    H75  166   2.412   2.227   6.928
    1LIG    H76  167   2.548   2.362   7.169
    1LIG    H77  168   2.421   2.237   7.169
    1LIG    H78  169   2.265   2.404   7.284
    1LIG    H79  170   2.401   2.518   7.296
    1LIG    H80  171   2.257   2.392   7.535
    1LIG    H81  172   2.390   2.509   7.537
    1LIG    H82  173   2.533   2.354   7.666
    1LIG    H83  174   2.416   2.222   7.652
    1LIG    H84  175   2.523   2.354   7.907
    1LIG    H85  176   2.410   2.218   7.907
    1LIG    H86  177   2.239   2.376   8.022
    1LIG    H87  178   2.360   2.500   8.025
    1LIG    H88  179   2.253   2.404   8.284
    1LIG    H89  180   2.394   2.509   8.269
    1LIG    H90  181   2.536   2.354   8.395
    1LIG    H91  182   2.414   2.226   8.392
    1LIG    H92  183   2.540   2.337   8.635
    1LIG    H93  184   2.406   2.221   8.644
    1LIG    H94  185   2.267   2.404   8.764
    1LIG    H95  186   2.408   2.507   8.756
    1LIG    H96  187   2.259   2.394   9.007
    1LIG    H97  188   2.388   2.515   9.010
    1LIG    H98  189   2.537   2.362   9.137
    1LIG    H99  190   2.413   2.234   9.133
    1LIG   H100  191   2.536   2.382   9.380
    1LIG   H101  192   2.430   2.240   9.378
    1LIG   H102  193   2.250   2.378   9.495
    1LIG   H103  194   2.358   2.513   9.502
    1LIG   H104  195   2.247   2.383   9.753
    1LIG   H105  196   2.368   2.511   9.753
    1LIG   H106  197   2.527   2.379   9.880
    1LIG   H107  198   2.435   2.229   9.860
    1LIG   H108  199   2.534   2.368  10.108
    1LIG   H109  200   2.434   2.223  10.131
    1LIG   H110  201   2.259   2.402  10.237
    1LIG   H111  202   2.400   2.506  10.247
    1LIG   H112  203   2.260   2.413  10.499
    1LIG   H113  204   2.406   2.511  10.485
    1LIG   H114  205   2.538   2.359  10.625
    1LIG   H115  206   2.411   2.235  10.623
    1LIG   H116  207   2.525   2.317  10.862
    1LIG   H117  208   2.371   2.234  10.871
    1LIG   H118  209   2.285   2.461  10.993
    1LIG   H119  210   2.458   2.494  11.012
    2LIG      O  211   2.111   2.064   0.033
    2LIG      C  212   2.155   2.131   0.157
    2LIG     C1  213   2.081   2.079   0.288
    2LIG     O1  214   2.157   2.106   0.411
    2LIG     C2  215   2.089   2.061   0.534
    2LIG     C3  216   2.141   2.139   0.661
    2LIG     O2  217   2.103   2.076   0.787
    2LIG     C4  218   2.141   2.154   0.905
    2LIG     C5  219   2.084   2.093   1.038
    2LIG     O3  220   2.159   2.135   1.157
    2LIG     C6  221   2.087   2.094   1.277
    2LIG     C7  222   2.155   2.148   1.406
    2LIG     O4  223   2.100   2.088   1.524
    2LIG     C8  224   2.141   2.157   1.644
    2LIG     C9  225   2.081   2.088   1.769
    2LIG     O5  226   2.150   2.130   1.890
    2LIG    C10  227   2.087   2.074   2.008
    2LIG    C11  228   2.146   2.136   2.138
    2LIG     O6  229   2.104   2.065   2.258
    2LIG    C12  230   2.139   2.139   2.379
    2LIG    C13  231   2.078   2.075   2.507
    2LIG     O7  232   2.149   2.122   2.625
    2LIG    C14  233   2.074   2.097   2.747
    2LIG    C15  234   2.143   2.152   2.875
    2LIG     O8  235   2.090   2.092   2.996
    2LIG    C16  236   2.145   2.149   3.118
    2LIG    C17  237   2.081   2.089   3.248
    2LIG     O9  238   2.132   2.155   3.367
    2LIG    C18  239   2.088   2.087   3.488
    2LIG    C19  240   2.148   2.152   3.616
    2LIG    O10  241   2.112   2.076   3.735
    2LIG    C20  242   2.143   2.146   3.859
    2LIG    C21  243   2.064   2.092   3.983
    2LIG    O11  244   2.143   2.109   4.104
    2LIG    C22  245   2.074   2.066   4.225
    2LIG    C23  246   2.134   2.139   4.348
    2LIG    O12  247   2.093   2.078   4.472
    2LIG    C24  248   2.133   2.155   4.588
    2LIG    C25  249   2.077   2.089   4.718
    2LIG    O13  250   2.151   2.131   4.836
    2LIG    C26  251   2.085   2.080   4.955
    2LIG    C27  252   2.138   2.154   5.081
    2LIG    O14  253   2.093   2.088   5.201
    2LIG    C28  254   2.145   2.154   5.319
    2LIG    C29  255   2.093   2.084   5.446
    2LIG    O15  256   2.167   2.128   5.563
    2LIG    C30  257   2.102   2.080   5.681
    2LIG    C31  258   2.162   2.135   5.815
    2LIG    O16  259   2.123   2.060   5.936
    2LIG    C32  260   2.158   2.134   6.058
    2LIG    C33  261   2.084   2.080   6.186
    2LIG    O17  262   2.149   2.125   6.309
    2LIG    C34  263   2.070   2.097   6.427
    2LIG    C35  264   2.138   2.154   6.557
    2LIG    O18  265   2.087   2.093   6.679
    2LIG    C36  266   2.144   2.152   6.799
    2LIG    C37  267   2.079   2.096   6.930
    2LIG    O19  268   2.134   2.160   7.049
    2LIG    C38  269   2.091   2.088   7.169
    2LIG    C39  270   2.152   2.150   7.299
    2LIG    O20  271   2.124   2.065   7.415
    2LIG    C40  272   2.161   2.128   7.541
    2LIG    C41  273   2.090   2.060   7.663
    2LIG    O21  274   2.153   2.099   7.788
    2LIG    C42  275   2.074   2.068   7.905
    2LIG    C43  276   2.136   2.137   8.030
    2LIG    O22  277   2.105   2.068   8.153
    2LIG    C44  278   2.153   2.143   8.268
    2LIG    C45  279   2.083   2.099   8.399
    2LIG    O23  280   2.152   2.144   8.518
    2LIG    C46  281   2.082   2.098   8.637
    2LIG    C47  282   2.150   2.146   8.769
    2LIG    O24  283   2.087   2.091   8.887
    2LIG    C48  284   2.139   2.150   9.010
    2LIG    C49  285   2.082   2.080   9.138
    2LIG    O25  286   2.149   2.129   9.257
    2LIG    C50  287   2.091   2.075   9.380
    2LIG    C51  288   2.152   2.141   9.508
    2LIG    O26  289   2.116   2.066   9.628
    2LIG    C52  290   2.151   2.136   9.751
    2LIG    C53  291   2.097   2.060   9.878
    2LIG    O27  292   2.160   2.110  10.000
    2LIG    C54  293   2.081   2.085  10.121
    2LIG    C55  294   2.148   2.146  10.251
    2LIG    O28  295   2.105   2.083  10.376
    2LIG    C56  296   2.156   2.146  10.498
    2LIG    C57  297   2.088   2.089  10.630
    2LIG    O29  298   2.142   2.147  10.755
    2LIG    C58  299   2.098   2.073  10.875
    2LIG    C59  300   2.151   2.137  11.010
    2LIG      H  301   2.134   2.238   0.148
    2LIG     H1  302   2.263   2.119   0.168
    2LIG     H2  303   2.064   1.971   0.281
    2LIG     H3  304   1.983   2.127   0.294
    2LIG     H4  305   2.108   1.954   0.548
    2LIG     H5  306   1.981   2.077   0.524
    2LIG     H6  307   2.099   2.240   0.659
    2LIG     H7  308   2.251   2.144   0.657
    2LIG     H8  309   2.101   2.256   0.895
    2LIG     H9  310   2.249   2.161   0.911
    2LIG    H10  311   2.083   1.984   1.033
    2LIG    H11  312   1.982   2.131   1.050
    2LIG    H12  313   2.079   1.986   1.283
    2LIG    H13  314   1.987   2.138   1.275
    2LIG    H14  315   2.131   2.254   1.410
    2LIG    H15  316   2.263   2.134   1.403
    2LIG    H16  317   2.106   2.261   1.640
    2LIG    H17  318   2.250   2.156   1.651
    2LIG    H18  319   2.094   1.980   1.757
    2LIG    H19  320   1.974   2.111   1.777
    2LIG    H20  321   2.100   1.965   2.009
    2LIG    H21  322   1.980   2.097   2.004
    2LIG    H22  323   2.105   2.237   2.145
    2LIG    H23  324   2.255   2.139   2.133
    2LIG    H24  325   2.100   2.241   2.370
    2LIG    H25  326   2.248   2.143   2.388
    2LIG    H26  327   2.085   1.966   2.502
    2LIG    H27  328   1.973   2.104   2.513
    2LIG    H28  329   2.059   1.989   2.757
    2LIG    H29  330   1.976   2.146   2.737
    2LIG    H30  331   2.123   2.260   2.879
    2LIG    H31  332   2.252   2.135   2.870
    2LIG    H32  333   2.125   2.257   3.117
    2LIG    H33  334   2.254   2.133   3.120
    2LIG    H34  335   2.101   1.981   3.253
    2LIG    H35  336   1.973   2.104   3.246
    2LIG    H36  337   2.121   1.982   3.485
    2LIG    H37  338   1.979   2.089   3.494
    2LIG    H38  339   2.111   2.255   3.624
    2LIG    H39  340   2.257   2.154   3.608
    2LIG    H40  341   2.118   2.252   3.848
    2LIG    H41  342   2.250   2.136   3.876
    2LIG    H42  343   2.040   1.986   3.971
    2LIG    H43  344   1.970   2.146   3.994
    2LIG    H44  345   2.087   1.959   4.237
    2LIG    H45  346   1.967   2.088   4.217
    2LIG    H46  347   2.100   2.243   4.346
    2LIG    H47  348   2.243   2.137   4.342
    2LIG    H48  349   2.094   2.258   4.581
    2LIG    H49  350   2.242   2.160   4.594
    2LIG    H50  351   2.084   1.980   4.708
    2LIG    H51  352   1.972   2.118   4.730
    2LIG    H52  353   2.107   1.973   4.964
    2LIG    H53  354   1.977   2.094   4.949
    2LIG    H54  355   2.102   2.257   5.081
    2LIG    H55  356   2.248   2.154   5.079
    2LIG    H56  357   2.112   2.259   5.320
    2LIG    H57  358   2.255   2.151   5.317
    2LIG    H58  359   2.103   1.976   5.435
    2LIG    H59  360   1.986   2.109   5.458
    2LIG    H60  361   2.102   1.971   5.680
    2LIG    H61  362   1.999   2.116   5.672
    2LIG    H62  363   2.115   2.232   5.826
    2LIG    H63  364   2.271   2.142   5.810
    2LIG    H64  365   2.129   2.239   6.045
    2LIG    H65  366   2.267   2.131   6.073
    2LIG    H66  367   2.082   1.971   6.187
    2LIG    H67  368   1.981   2.116   6.184
    2LIG    H68  369   2.056   1.988   6.436
    2LIG    H69  370   1.972   2.144   6.415
    2LIG    H70  371   2.116   2.261   6.561
    2LIG    H71  372   2.246   2.139   6.551
    2LIG    H72  373   2.125   2.260   6.797
    2LIG    H73  374   2.253   2.135   6.801
    2LIG    H74  375   2.095   1.988   6.936
    2LIG    H75  376   1.972   2.116   6.929
    2LIG    H76  377   2.125   1.985   7.163
    2LIG    H77  378   1.982   2.091   7.176
    2LIG    H78  379   2.110   2.250   7.315
    2LIG    H79  380   2.261   2.159   7.288
    2LIG    H80  381   2.131   2.234   7.540
    2LIG    H81  382   2.269   2.122   7.552
    2LIG    H82  383   2.095   1.951   7.653
    2LIG    H83  384   1.984   2.088   7.665
    2LIG    H84  385   2.072   1.960   7.919
    2LIG    H85  386   1.971   2.104   7.892
    2LIG    H86  387   2.097   2.239   8.035
    2LIG    H87  388   2.245   2.141   8.018
    2LIG    H88  389   2.129   2.249   8.253
    2LIG    H89  390   2.262   2.132   8.276
    2LIG    H90  391   2.076   1.989   8.401
    2LIG    H91  392   1.982   2.142   8.398
    2LIG    H92  393   2.076   1.989   8.636
    2LIG    H93  394   1.980   2.139   8.635
    2LIG    H94  395   2.138   2.255   8.772
    2LIG    H95  396   2.257   2.122   8.768
    2LIG    H96  397   2.110   2.256   9.012
    2LIG    H97  398   2.248   2.143   9.010
    2LIG    H98  399   2.100   1.972   9.130
    2LIG    H99  400   1.974   2.098   9.145
    2LIG   H100  401   2.109   1.968   9.384
    2LIG   H101  402   1.983   2.094   9.380
    2LIG   H102  403   2.111   2.242   9.516
    2LIG   H103  404   2.261   2.146   9.499
    2LIG   H104  405   2.106   2.236   9.749
    2LIG   H105  406   2.260   2.146   9.757
    2LIG   H106  407   2.120   1.953   9.869
    2LIG   H107  408   1.989   2.072   9.883
    2LIG   H108  409   2.067   1.978  10.133
    2LIG   H109  410   1.982   2.130  10.109
    2LIG   H110  411   2.122   2.252  10.255
    2LIG   H111  412   2.257   2.137  10.242
    2LIG   H112  413   2.133   2.253  10.493
    2LIG   H113  414   2.264   2.134  10.503
    2LIG   H114  415   2.100   1.981  10.633
    2LIG   H115  416   1.982   2.113  10.627
    2LIG   H116  417   2.135   1.970  10.868
    2LIG   H117  418   1.988   2.070  10.876
    2LIG   H118  419   2.260   2.140  11.007
    2LIG   H119  420   2.112   2.239  11.016
    3MOL     C1  421   1.563   2.449   4.962
    3MOL     H1  422   1.458   2.418   4.964
    3MOL     O1  423   1.599   2.509   5.089
    3MOL     C2  424   1.735   2.559   5.100
    3MOL     H2  425   1.806   2.476   5.090
    3MOL     C3  426   1.752   2.622   5.241
    3MOL     H3  427   1.858   2.645   5.258
    3MOL     H4  428   1.722   2.548   5.316
    3MOL     O2  429   1.674   2.742   5.256
    3MOL     H5  430   1.720   2.796   5.324
    3MOL     C4  431   1.581   2.554   4.848
    3MOL     H6  432   1.516   2.639   4.871
    3MOL     O3  433   1.548   2.498   4.720
    3MOL     H7  434   1.559   2.401   4.732
    3MOL     C5  435   1.727   2.605   4.847
    3MOL     H8  436   1.792   2.519   4.827
    3MOL     O4  437   1.747   2.704   4.745
    3MOL     H9  438   1.690   2.678   4.669
    3MOL     C6  439   1.759   2.663   4.987
    3MOL    H10  440   1.694   2.750   5.002
    3MOL     O5  441   1.898   2.701   4.986
    3MOL     C7  442   1.926   2.831   5.044
    3MOL    H11  443   1.834   2.877   5.083
    3MOL     O6  444   2.022   2.814   5.151
    3MOL     C8  445   2.150   2.761   5.109
    3MOL    H12  446   2.135   2.663   5.061
    3MOL     C9  447   2.238   2.739   5.234
    3MOL    H13  448   2.321   2.674   5.207
    3MOL    H14  449   2.178   2.687   5.309
    3MOL     O7  450   2.292   2.860   5.288
    3MOL    H15  451   2.367   2.886   5.229
    3MOL    C10  452   1.984   2.923   4.934
    3MOL    H16  453   2.001   3.022   4.977
    3MOL     O8  454   1.895   2.931   4.826
    3MOL    H17  455   1.846   2.845   4.822
    3MOL    C11  456   2.119   2.873   4.883
    3MOL    H18  457   2.103   2.774   4.839
    3MOL     O9  458   2.172   2.965   4.785
    3MOL    H19  459   2.094   3.012   4.748
    3MOL    C12  460   2.211   2.858   5.006
    3MOL    H20  461   2.221   2.957   5.053
    3MOL    O10  462   2.338   2.809   4.961
    3MOL    C13  463   2.446   2.902   4.983
    3MOL    H21  464   2.408   3.002   5.005
    3MOL    O11  465   2.524   2.854   5.095
    3MOL    C14  466   2.586   2.724   5.073
    3MOL    H22  467   2.508   2.652   5.046
    3MOL    C15  468   2.650   2.673   5.206
    3MOL    H23  469   2.659   2.564   5.202
    3MOL    H24  470   2.580   2.696   5.288
    3MOL    O12  471   2.778   2.730   5.234
    3MOL    H25  472   2.842   2.671   5.187
    3MOL    C16  473   2.531   2.910   4.854
    3MOL    H26  474   2.606   2.990   4.866
    3MOL    O13  475   2.448   2.939   4.741
    3MOL    H27  476   2.359   2.957   4.779
    3MOL    C17  477   2.604   2.778   4.827
    3MOL    H28  478   2.527   2.702   4.807
    3MOL    O14  479   2.688   2.792   4.712
    3MOL    H29  480   2.640   2.858   4.658
    3MOL    C18  481   2.682   2.735   4.952
    3MOL    H30  482   2.761   2.808   4.974
    3MOL    O15  483   2.734   2.606   4.922
    3MOL    C19  484   2.877   2.591   4.931
    3MOL    H31  485   2.928   2.689   4.935
    3MOL    O16  486   2.904   2.514   5.050
    3MOL    C20  487   2.843   2.381   5.051
    3MOL    H32  488   2.735   2.391   5.044
    3MOL    C21  489   2.872   2.309   5.187
    3MOL    H33  490   2.793   2.236   5.205
    3MOL    H34  491   2.868   2.383   5.268
    3MOL    O17  492   2.998   2.241   5.188
    3MOL    H35  493   2.976   2.150   5.157
    3MOL    C22  494   2.925   2.517   4.803
    3MOL    H36  495   3.034   2.505   4.807
    3MOL    O18  496   2.889   2.594   4.688
    3MOL    H37  497   2.810   2.647   4.716
    3MOL    C23  498   2.859   2.377   4.795
    3MOL    H38  499   2.750   2.391   4.793
    3MOL    O19  500   2.901   2.304   4.678
    3MOL    H39  501   2.866   2.350   4.598
    3MOL    C24  502   2.895   2.303   4.927
    3MOL    H40  503   3.004   2.294   4.933
    3MOL    O20  504   2.832   2.173   4.922
    3MOL    C25  505   2.921   2.060   4.937
    3MOL    H41  506   3.027   2.090   4.928
    3MOL    O21  507   2.897   2.000   5.067
    3MOL    C26  508   2.760   1.953   5.087
    3MOL    H42  509   2.691   2.038   5.076
    3MOL    C27  510   2.742   1.899   5.232
    3MOL    H43  511   2.635   1.897   5.255
    3MOL    H44  512   2.788   1.971   5.300
    3MOL    O22  513   2.798   1.769   5.254
    3MOL    H45  514   2.882   1.781   5.304
    3MOL    C28  515   2.892   1.959   4.823
    3MOL    H46  516   2.961   1.875   4.830
    3MOL    O23  517   2.907   2.026   4.698
    3MOL    H47  518   2.877   2.118   4.714
    3MOL    C29  519   2.747   1.906   4.835
    3MOL    H48  520   2.679   1.991   4.823
    3MOL    O24  521   2.719   1.806   4.736
    3MOL    H49  522   2.736   1.849   4.649
    3MOL    C30  523   2.728   1.849   4.977
    3MOL    H50  524   2.793   1.761   4.989
    3MOL    O25  525   2.589   1.812   4.987
    3MOL    C31  526   2.565   1.688   5.054
    3MOL    H51  527   2.656   1.648   5.100
    3MOL    O26  528   2.465   1.711   5.155
    3MOL    C32  529   2.338   1.759   5.106
    3MOL    H52  530   2.352   1.854   5.053
    3MOL    C33  531   2.245   1.785   5.226
    3MOL    H53  532   2.158   1.841   5.191
    3MOL    H54  533   2.298   1.848   5.299
    3MOL    O27  534   2.205   1.663   5.287
    3MOL    H55  535   2.112   1.676   5.316
    3MOL    C34  536   2.515   1.584   4.952
    3MOL    H56  537   2.502   1.489   5.005
    3MOL    O28  538   2.610   1.568   4.848
    3MOL    H57  539   2.641   1.658   4.822
    3MOL    C35  540   2.381   1.627   4.890
    3MOL    H58  541   2.397   1.722   4.838
    3MOL    O29  542   2.332   1.527   4.797
    3MOL    H59  543   2.404   1.512   4.731
    3MOL    C36  544   2.283   1.653   5.007
    3MOL    H60  545   2.267   1.559   5.062
    3MOL    O30  546   2.160   1.701   4.951
    3MOL    C37  547   2.055   1.603   4.946
    3MOL    H61  548   2.095   1.501   4.953
    3MOL    O31  549   1.963   1.629   5.056
    3MOL    C38  550   1.905   1.762   5.055
    3MOL    H62  551   1.984   1.837   5.051
    3MOL    C39  552   1.830   1.788   5.187
    3MOL    H63  553   1.745   1.720   5.194
    3MOL    H64  554   1.793   1.891   5.190
    3MOL    O32  555   1.921   1.765   5.296
    3MOL    H65  556   1.889   1.807   5.379
    3MOL    C40  557   1.982   1.617   4.811
    3MOL    H66  558   1.910   1.534   4.803
    3MOL    O33  559   2.078   1.607   4.706
    3MOL    H67  560   2.162   1.578   4.749
    3MOL    C41  561   1.907   1.752   4.801
    3MOL    H68  562   1.983   1.830   4.802
    3MOL    O34  563   1.829   1.762   4.681
    3MOL    H69  564   1.859   1.689   4.620
    3MOL    C42  565   1.819   1.774   4.927
    3MOL    H70  566   1.740   1.698   4.930
    3MOL    O35  567   1.763   1.907   4.918
    3MOL    C43  568   1.620   1.916   4.929
    3MOL    H71  569   1.574   1.817   4.930
    3MOL    O36  570   1.589   1.986   5.052
    3MOL    C44  571   1.639   2.122   5.063
    3MOL    H72  572   1.749   2.123   5.063
    3MOL    C45  573   1.587   2.181   5.198
    3MOL    H73  574   1.480   2.162   5.205
    3MOL    H74  575   1.602   2.289   5.197
    3MOL    O37  576   1.654   2.127   5.313
    3MOL    H75  577   1.596   2.057   5.349
    3MOL    C46  578   1.564   1.994   4.807
    3MOL    H76  579   1.455   2.000   4.818
    3MOL    O38  580   1.596   1.926   4.686
    3MOL    H77  581   1.670   1.863   4.706
    3MOL    C47  582   1.619   2.139   4.806
    3MOL    H78  583   1.728   2.136   4.794
    3MOL    O39  584   1.558   2.217   4.703
    3MOL    H79  585   1.589   2.184   4.615
    3MOL    C48  586   1.587   2.206   4.942
    3MOL    H80  587   1.479   2.214   4.950
    3MOL    O40  588   1.650   2.336   4.940
    4MOL     C1  589   2.924   2.449   6.142
    4MOL     H1  590   3.027   2.414   6.144
    4MOL     O1  591   2.902   2.513   6.016
    4MOL     C2  592   2.776   2.584   5.994
    4MOL     H2  593   2.696   2.511   5.979
    4MOL     C3  594   2.801   2.668   5.865
    4MOL     H3  595   2.717   2.734   5.845
    4MOL     H4  596   2.812   2.599   5.781
    4MOL     O2  597   2.915   2.751   5.878
    4MOL     H5  598   2.921   2.802   5.793
    4MOL     C4  599   2.904   2.550   6.257
    4MOL     H6  600   2.977   2.630   6.243
    4MOL     O3  601   2.927   2.485   6.381
    4MOL     H7  602   2.902   2.390   6.367
    4MOL     C5  603   2.762   2.613   6.252
    4MOL     H8  604   2.689   2.532   6.265
    4MOL     O4  605   2.746   2.712   6.357
    4MOL     H9  606   2.809   2.694   6.430
    4MOL     C6  607   2.740   2.678   6.114
    4MOL    H10  608   2.805   2.766   6.108
    4MOL     O5  609   2.599   2.719   6.107
    4MOL     C7  610   2.571   2.853   6.060
    4MOL    H11  611   2.663   2.898   6.019
    4MOL     O6  612   2.470   2.848   5.955
    4MOL     C8  613   2.340   2.798   5.997
    4MOL    H12  614   2.353   2.701   6.046
    4MOL     C9  615   2.247   2.776   5.875
    4MOL    H13  616   2.164   2.711   5.904
    4MOL    H14  617   2.301   2.722   5.796
    4MOL     O7  618   2.195   2.898   5.823
    4MOL    H15  619   2.113   2.915   5.874
    4MOL    C10  620   2.520   2.943   6.176
    4MOL    H16  621   2.512   3.046   6.138
    4MOL     O8  622   2.611   2.941   6.284
    4MOL    H17  623   2.635   2.845   6.298
    4MOL    C11  624   2.379   2.901   6.225
    4MOL    H18  625   2.387   2.799   6.266
    4MOL     O9  626   2.332   2.991   6.328
    4MOL    H19  627   2.385   2.970   6.408
    4MOL    C12  628   2.283   2.895   6.103
    4MOL    H20  629   2.274   2.996   6.060
    4MOL    O10  630   2.156   2.845   6.149
    4MOL    C13  631   2.041   2.926   6.119
    4MOL    H21  632   2.069   3.030   6.097
    4MOL    O11  633   1.969   2.867   6.008
    4MOL    C14  634   1.923   2.730   6.030
    4MOL    H22  635   2.008   2.666   6.054
    4MOL    C15  636   1.858   2.674   5.900
    4MOL    H23  637   1.855   2.564   5.906
    4MOL    H24  638   1.920   2.701   5.815
    4MOL    O12  639   1.725   2.721   5.880
    4MOL    H25  640   1.667   2.657   5.927
    4MOL    C16  641   1.952   2.928   6.245
    4MOL    H26  642   1.867   2.994   6.226
    4MOL    O13  643   2.028   2.976   6.355
    4MOL    H27  644   2.120   2.948   6.336
    4MOL    C17  645   1.897   2.786   6.277
    4MOL    H28  646   1.982   2.721   6.300
    4MOL    O14  647   1.807   2.791   6.389
    4MOL    H29  648   1.854   2.840   6.459
    4MOL    C18  649   1.825   2.733   6.151
    4MOL    H30  650   1.743   2.801   6.128
    4MOL    O15  651   1.774   2.601   6.180
    4MOL    C19  652   1.632   2.585   6.165
    4MOL    H31  653   1.581   2.682   6.158
    4MOL    O16  654   1.607   2.508   6.045
    4MOL    C20  655   1.660   2.372   6.046
    4MOL    H32  656   1.768   2.376   6.059
    4MOL    C21  657   1.632   2.306   5.907
    4MOL    H33  658   1.706   2.228   5.890
    4MOL    H34  659   1.648   2.382   5.830
    4MOL    O17  660   1.501   2.251   5.895
    4MOL    H35  661   1.512   2.154   5.911
    4MOL    C22  662   1.576   2.512   6.290
    4MOL    H36  663   1.466   2.508   6.282
    4MOL    O18  664   1.613   2.586   6.406
    4MOL    H37  665   1.690   2.642   6.381
    4MOL    C23  666   1.630   2.367   6.299
    4MOL    H38  667   1.739   2.372   6.310
    4MOL    O19  668   1.573   2.298   6.412
    4MOL    H39  669   1.540   2.368   6.473
    4MOL    C24  670   1.597   2.294   6.166
    4MOL    H40  671   1.488   2.293   6.152
    4MOL    O20  672   1.648   2.158   6.172
    4MOL    C25  673   1.549   2.052   6.179
    4MOL    H41  674   1.449   2.092   6.198
    4MOL    O21  675   1.550   1.978   6.054
    4MOL    C26  676   1.679   1.919   6.020
    4MOL    H42  677   1.749   2.001   6.019
    4MOL    C27  678   1.671   1.849   5.880
    4MOL    H43  679   1.772   1.821   5.849
    4MOL    H44  680   1.634   1.921   5.806
    4MOL    O22  681   1.588   1.732   5.882
    4MOL    H45  682   1.567   1.709   5.787
    4MOL    C28  683   1.584   1.952   6.292
    4MOL    H46  684   1.509   1.871   6.290
    4MOL    O23  685   1.580   2.017   6.418
    4MOL    H47  686   1.574   2.115   6.399
    4MOL    C29  687   1.724   1.890   6.270
    4MOL    H48  688   1.797   1.972   6.272
    4MOL    O24  689   1.755   1.793   6.371
    4MOL    H49  690   1.681   1.792   6.436
    4MOL    C30  691   1.733   1.824   6.130
    4MOL    H50  692   1.675   1.731   6.130
    4MOL    O25  693   1.875   1.799   6.109
    4MOL    C31  694   1.913   1.672   6.050
    4MOL    H51  695   1.824   1.625   6.005
    4MOL    O26  696   2.012   1.696   5.946
    4MOL    C32  697   2.141   1.749   5.991
    4MOL    H52  698   2.124   1.843   6.044
    4MOL    C33  699   2.234   1.778   5.871
    4MOL    H53  700   2.321   1.836   5.905
    4MOL    H54  701   2.180   1.839   5.800
    4MOL    O27  702   2.278   1.659   5.806
    4MOL    H55  703   2.375   1.655   5.819
    4MOL    C34  704   1.971   1.576   6.157
    4MOL    H56  705   1.983   1.478   6.111
    4MOL    O28  706   1.883   1.565   6.267
    4MOL    H57  707   1.834   1.650   6.273
    4MOL    C35  708   2.109   1.622   6.210
    4MOL    H58  709   2.094   1.717   6.262
    4MOL    O29  710   2.163   1.523   6.300
    4MOL    H59  711   2.084   1.473   6.333
    4MOL    C36  712   2.203   1.649   6.090
    4MOL    H60  713   2.223   1.555   6.037
    4MOL    O30  714   2.325   1.705   6.143
    4MOL    C37  715   2.435   1.613   6.148
    4MOL    H61  716   2.400   1.510   6.137
    4MOL    O31  717   2.526   1.644   6.040
    4MOL    C38  718   2.588   1.775   6.046
    4MOL    H62  719   2.512   1.854   6.048
    4MOL    C39  720   2.675   1.796   5.920
    4MOL    H63  721   2.743   1.710   5.908
    4MOL    H64  722   2.736   1.885   5.931
    4MOL    O32  723   2.593   1.809   5.805
    4MOL    H65  724   2.587   1.718   5.766
    4MOL    C40  725   2.506   1.626   6.285
    4MOL    H66  726   2.582   1.547   6.291
    4MOL    O33  727   2.410   1.610   6.390
    4MOL    H67  728   2.329   1.572   6.345
    4MOL    C41  729   2.579   1.760   6.300
    4MOL    H68  730   2.504   1.840   6.302
    4MOL    O34  731   2.654   1.760   6.423
    4MOL    H69  732   2.608   1.697   6.482
    4MOL    C42  733   2.669   1.781   6.178
    4MOL    H70  734   2.748   1.704   6.176
    4MOL    O35  735   2.725   1.912   6.192
    4MOL    C43  736   2.868   1.920   6.190
    4MOL    H71  737   2.914   1.820   6.195
    4MOL    O36  738   2.907   1.987   6.069
    4MOL    C44  739   2.849   2.119   6.048
    4MOL    H72  740   2.740   2.113   6.047
    4MOL    C45  741   2.893   2.169   5.908
    4MOL    H73  742   3.002   2.157   5.898
    4MOL    H74  743   2.869   2.275   5.898
    4MOL    O37  744   2.827   2.095   5.805
    4MOL    H75  745   2.878   2.103   5.721
    4MOL    C46  746   2.912   2.004   6.311
    4MOL    H76  747   3.021   2.014   6.310
    4MOL    O38  748   2.870   1.943   6.434
    4MOL    H77  749   2.792   1.886   6.412
    4MOL    C47  750   2.850   2.144   6.300
    4MOL    H78  751   2.740   2.134   6.298
    4MOL    O39  752   2.887   2.219   6.416
    4MOL    H79  753   2.865   2.158   6.489
    4MOL    C48  754   2.894   2.209   6.167
    4MOL    H80  755   3.004   2.215   6.165
    4MOL    O40  756   2.832   2.339   6.156
    5SOL     OW  757   0.241   0.596   0.110
    5SOL    HW1  758   0.166   0.588   0.169
    5SOL    HW2  759   0.205   0.640   0.032
    6SOL     OW  760   0.192   0.294   0.989
    6SOL    HW1  761   0.226   0.267   1.075
    6SOL    HW2  762   0.129   0.226   0.966
    7SOL     OW  763   0.001   0.385   0.638
    7SOL    HW1  764   4.426   0.424   0.685
    7SOL    HW2  765   4.463   0.312   0.589
    8SOL     OW  766   0.568   1.291   1.178
    8SOL    HW1  767   0.481   1.296   1.138
    8SOL    HW2  768   0.584   1.378   1.213
    9SOL     OW  769   1.563   1.511   0.709
    9SOL    HW1  770   1.520   1.490   0.792
    9SOL    HW2  771   1.491   1.514   0.645
   10SOL     OW  772   1.137   0.698   0.696
   10SOL    HW1  773   1.182   0.782   0.687
   10SOL    HW2  774   1.085   0.707   0.776
   11SOL     OW  775   1.779   0.601   0.213
   11SOL    HW1  776   1.719   0.612   0.140
   11SOL    HW2  777   1.740   0.531   0.266
   12SOL     OW  778   0.752   1.140   1.042
   12SOL    HW1  779   0.684   1.176   1.100
   12SOL    HW2  780   0.789   1.217   0.998
   13SOL     OW  781   0.867   0.769   1.821
   13SOL    HW1  782   0.853   0.839   1.885
   13SOL    HW2  783   0.892   0.815   1.740
   14SOL     OW  784   0.685   1.001   0.647
   14SOL    HW1  785   0.751   0.990   0.715
   14SOL    HW2  786   0.616   1.053   0.688
   15SOL     OW  787   0.712   1.149   1.815
   15SOL    HW1  788   0.759   1.228   1.843
   15SOL    HW2  789   0.631   1.182   1.777
   16SOL     OW  790   0.334   1.420   1.069
   16SOL    HW1  791   0.253   1.400   1.022
   16SOL    HW2  792   0.385   1.474   1.008
   17SOL     OW  793   1.460   1.500   1.356
   17SOL    HW1  794   1.513   1.579   1.365
   17SOL    HW2  795   1.396   1.506   1.427
   18SOL     OW  796   0.441   0.393   1.486
   18SOL    HW1  797   0.531   0.359   1.486
   18SOL    HW2  798   0.387   0.320   1.516
   19SOL     OW  799   1.609   0.445   0.739
   19SOL    HW1  800   1.527   0.462   0.693
   19SOL    HW2  801   1.624   0.523   0.792
   20SOL     OW  802   0.245   1.691   0.481
   20SOL    HW1  803   0.231   1.778   0.519
   20SOL    HW2  804   0.310   1.705   0.412
   21SOL     OW  805   1.137   1.342   1.693
   21SOL    HW1  806   1.177   1.336   1.780
   21SOL    HW2  807   1.084   1.262   1.686
   22SOL     OW  808   0.246   1.426   0.527
   22SOL    HW1  809   0.240   1.522   0.527
   22SOL    HW2  810   0.182   1.399   0.594
   23SOL     OW  811   0.248   1.083   0.884
   23SOL    HW1  812   0.265   0.992   0.910
   23SOL    HW2  813   0.188   1.116   0.950
   24SOL     OW  814   0.611   1.791   1.430
   24SOL    HW1  815   0.528   1.773   1.474
   24SOL    HW2  816   0.632   1.881   1.455
   25SOL     OW  817   0.567   0.997   0.152
   25SOL    HW1  818   0.618   1.031   0.079
   25SOL    HW2  819   0.616   1.024   0.230
   26SOL     OW  820   1.579   0.117   1.468
   26SOL    HW1  821   1.608   0.186   1.408
   26SOL    HW2  822   1.569   0.162   1.552
   27SOL     OW  823   0.135   0.645   0.573
   27SOL    HW1  824   0.085   0.567   0.595
   27SOL    HW2  825   0.111   0.709   0.639
   28SOL     OW  826   1.848   1.783   0.333
   28SOL    HW1  827   1.903   1.746   0.403
   28SOL    HW2  828   1.911   1.824   0.273
   29SOL     OW  829   0.075   1.589   0.150
   29SOL    HW1  830   0.042   1.499   0.161
   29SOL    HW2  831   0.035   1.637   0.222
   30SOL     OW  832   1.690   0.919   0.643
   30SOL    HW1  833   1.772   0.877   0.619
   30SOL    HW2  834   1.667   0.971   0.566
   31SOL     OW  835   1.647   1.104   0.432
   31SOL    HW1  836   1.730   1.114   0.384
   31SOL    HW2  837   1.653   1.167   0.503
   32SOL     OW  838   0.102   0.767   1.574
   32SOL    HW1  839   0.191   0.759   1.540
   32SOL    HW2  840   0.096   0.859   1.602
   33SOL     OW  841   0.615   1.388   0.736
   33SOL    HW1  842   0.568   1.305   0.746
   33SOL    HW2  843   0.597   1.414   0.646
   34SOL     OW  844   1.288   1.237   1.423
   34SOL    HW1  845   1.320   1.170   1.363
   34SOL    HW2  846   1.346   1.232   1.498
   35SOL     OW  847   0.824   0.012   0.555
   35SOL    HW1  848   0.862   0.090   0.515
   35SOL    HW2  849   0.729   0.023   0.544
   36SOL     OW  850   0.177   0.940   1.279
   36SOL    HW1  851   0.269   0.920   1.259
   36SOL    HW2  852   0.133   0.931   1.195
   37SOL     OW  853   1.514   1.004   0.205
   37SOL    HW1  854   1.449   0.944   0.242
   37SOL    HW2  855   1.565   1.033   0.280
   38SOL     OW  856   1.185   1.808   1.623
   38SOL    HW1  857   1.195   1.867   1.548
   38SOL    HW2  858   1.202   1.721   1.587
   39SOL     OW  859   0.317   0.260   1.767
   39SOL    HW1  860   0.385   0.310   1.812
   39SOL    HW2  861   0.240   0.268   1.823
   40SOL     OW  862   1.466   1.419   0.950
   40SOL    HW1  863   1.399   1.435   1.016
   40SOL    HW2  864   1.453   1.328   0.924
   41SOL     OW  865   1.655   1.739   0.581
   41SOL    HW1  866   1.633   1.710   0.492
   41SOL    HW2  867   1.631   1.665   0.637
   42SOL     OW  868   0.593   0.718   0.263
   42SOL    HW1  869   0.596   0.801   0.217
   42SOL    HW2  870   0.531   0.732   0.335
   43SOL     OW  871   1.290   0.366   0.934
   43SOL    HW1  872   1.200   0.336   0.922
   43SOL    HW2  873   1.329   0.303   0.994
   44SOL     OW  874   1.584   1.673   0.314
   44SOL    HW1  875   1.672   1.711   0.303
   44SOL    HW2  876   1.556   1.653   0.225
   45SOL     OW  877   0.798   0.618   1.454
   45SOL    HW1  878   0.769   0.592   1.541
   45SOL    HW2  879   0.756   0.555   1.395
   46SOL     OW  880   1.388   0.480   1.676
   46SOL    HW1  881   1.392   0.525   1.761
   46SOL    HW2  882   1.455   0.412   1.681
   47SOL     OW  883   0.953   0.887   1.584
   47SOL    HW1  884   1.008   0.817   1.547
   47SOL    HW2  885   0.906   0.923   1.508
   48SOL     OW  886   0.998   0.418   1.234
   48SOL    HW1  887   0.910   0.424   1.271
   48SOL    HW2  888   0.987   0.367   1.153
   49SOL     OW  889   1.050   0.701   0.427
   49SOL    HW1  890   1.069   0.692   0.521
   49SOL    HW2  891   0.967   0.655   0.414
   50SOL     OW  892   0.097   0.824   0.784
   50SOL    HW1  893   0.183   0.815   0.826
   50SOL    HW2  894   0.038   0.846   0.856
   51SOL     OW  895   0.121   1.862   1.578
   51SOL    HW1  896   0.115   1.837   1.671
   51SOL    HW2  897   0.046   1.818   1.537
   52SOL     OW  898   0.879   0.362   0.205
   52SOL    HW1  899   0.929   0.416   0.144
   52SOL    HW2  900   0.906   0.272   0.185
   53SOL     OW  901   1.703   0.572   1.828
   53SOL    HW1  902   1.667   0.646   1.780
   53SOL    HW2  903   1.739   0.514   1.761
   54SOL     OW  904   1.379   1.142   0.541
   54SOL    HW1  905   1.457   1.129   0.486
   54SOL    HW2  906   1.325   1.204   0.492
   55SOL     OW  907   0.539   0.207   0.899
   55SOL    HW1  908   0.561   0.224   0.991
   55SOL    HW2  909   0.536   0.293   0.858
   56SOL     OW  910   1.003   1.443   0.473
   56SOL    HW1  911   0.968   1.517   0.423
   56SOL    HW2  912   0.982   1.464   0.564
   57SOL     OW  913   0.356   1.813   0.861
   57SOL    HW1  914   0.398   1.727   0.870
   57SOL    HW2  915   0.427   1.875   0.877
   58SOL     OW  916   1.800   1.054   0.869
   58SOL    HW1  917   1.746   1.037   0.792
   58SOL    HW2  918   1.738   1.061   0.941
   59SOL     OW  919   1.228   1.539   1.513
   59SOL    HW1  920   1.214   1.466   1.574
   59SOL    HW2  921   1.163   1.524   1.444
   60SOL     OW  922   0.311   0.954   0.281
   60SOL    HW1  923   0.393   0.982   0.241
   60SOL    HW2  924   0.311   0.859   0.272
   61SOL     OW  925   1.481   0.742   0.722
   61SOL    HW1  926   1.471   0.702   0.808
   61SOL    HW2  927   1.557   0.800   0.731
   62SOL     OW  928   0.469   1.264   1.735
   62SOL    HW1  929   0.442   1.270   1.643
   62SOL    HW2  930   0.387   1.266   1.784
   63SOL     OW  931   1.108   1.780   0.227
   63SOL    HW1  932   1.046   1.729   0.280
   63SOL    HW2  933   1.150   1.715   0.170
   64SOL     OW  934   0.160   0.266   1.511
   64SOL    HW1  935   0.134   0.354   1.481
   64SOL    HW2  936   0.196   0.281   1.599
   65SOL     OW  937   1.627   1.373   0.092
   65SOL    HW1  938   1.585   1.459   0.078
   65SOL    HW2  939   1.562   1.310   0.061
   66SOL     OW  940   0.468   1.740   0.318
   66SOL    HW1  941   0.508   1.799   0.383
   66SOL    HW2  942   0.541   1.710   0.264
   67SOL     OW  943   1.422   0.142   0.425
   67SOL    HW1  944   1.403   0.104   0.339
   67SOL    HW2  945   1.518   0.136   0.432
   68SOL     OW  946   0.255   1.787   1.232
   68SOL    HW1  947   0.303   1.712   1.266
   68SOL    HW2  948   0.223   1.759   1.146
   69SOL     OW  949   0.938   1.699   0.898
   69SOL    HW1  950   1.016   1.648   0.920
   69SOL    HW2  951   0.895   1.649   0.829
   70SOL     OW  952   0.393   0.692   0.468
   70SOL    HW1  953   0.419   0.601   0.483
   70SOL    HW2  954   0.303   0.696   0.498
   71SOL     OW  955   1.524   0.233   1.723
   71SOL    HW1  956   1.525   0.255   1.816
   71SOL    HW2  957   1.445   0.181   1.711
   72SOL     OW  958   0.601   0.102   0.125
   72SOL    HW1  959   0.695   0.082   0.122
   72SOL    HW2  960   0.567   0.070   0.042
   73SOL     OW  961   0.768   0.270   1.755
   73SOL    HW1  962   0.836   0.203   1.758
   73SOL    HW2  963   0.731   0.271   1.843
   74SOL     OW  964   0.877   1.522   1.194
   74SOL    HW1  965   0.860   1.486   1.107
   74SOL    HW2  966   0.946   1.468   1.230
   75SOL     OW  967   1.340   0.590   1.428
   75SOL    HW1  968   1.368   0.561   1.515
   75SOL    HW2  969   1.375   0.678   1.420
   76SOL     OW  970   0.817   1.393   0.942
   76SOL    HW1  971   0.901   1.381   0.898
   76SOL    HW2  972   0.752   1.396   0.871
   77SOL     OW  973   0.925   0.519   0.899
   77SOL    HW1  974   0.907   0.520   0.805
   77SOL    HW2  975   0.961   0.432   0.915
   78SOL     OW  976   0.564   0.069   0.513
   78SOL    HW1  977   0.477   0.056   0.550
   78SOL    HW2  978   0.552   0.137   0.446
   79SOL     OW  979   1.424   1.196   0.028
   79SOL    HW1  980   1.454   1.125   0.084
   79SOL    HW2  981   1.341   1.224   0.067
   80SOL     OW  982   0.299   0.052   0.191
   80SOL    HW1  983   0.381   0.085   0.154
   80SOL    HW2  984   0.326   4.497   0.264
   81SOL     OW  985   0.954   0.227   0.446
   81SOL    HW1  986   0.908   0.289   0.390
   81SOL    HW2  987   1.044   0.261   0.450
   82SOL     OW  988   1.081   0.683   1.460
   82SOL    HW1  989   1.011   0.617   1.459
   82SOL    HW2  990   1.161   0.632   1.448
   83SOL     OW  991   1.222   1.570   0.794
   83SOL    HW1  992   1.238   1.636   0.727
   83SOL    HW2  993   1.291   1.586   0.859
   84SOL     OW  994   0.469   1.151   0.738
   84SOL    HW1  995   0.399   1.131   0.800
   84SOL    HW2  996   0.429   1.139   0.652
   85SOL     OW  997   1.267   1.793   0.608
   85SOL    HW1  998   1.314   1.855   0.552
   85SOL    HW2  999   1.201   1.846   0.652
   86SOL     OW 1000   1.020   0.529   0.039
   86SOL    HW1 1001   0.982   0.614   0.018
   86SOL    HW2 1002   1.093   0.548   0.097
   87SOL     OW 1003   0.094   0.513   1.412
   87SOL    HW1 1004   0.150   0.520   1.335
   87SOL    HW2 1005   0.057   0.601   1.424
   88SOL     OW 1006   0.560   0.246   1.167
   88SOL    HW1 1007   0.590   0.164   1.206
   88SOL    HW2 1008   0.466   0.247   1.184
   89SOL     OW 1009   0.860   0.512   0.631
   89SOL    HW1 1010   0.825   0.543   0.547
   89SOL    HW2 1011   0.825   0.423   0.640
   90SOL     OW 1012   0.953   0.025   0.793
   90SOL    HW1 1013   0.909   0.023   0.708
   90SOL    HW2 1014   0.979   4.434   0.808
   91SOL     OW 1015   1.438   1.161   0.857
   91SOL    HW1 1016   1.368   1.096   0.856
   91SOL    HW2 1017   1.462   1.172   0.764
   92SOL     OW 1018   1.465   0.606   0.971
   92SOL    HW1 1019   1.410   0.528   0.973
   92SOL    HW2 1020   1.521   0.597   1.048
   93SOL     OW 1021   1.849   0.812   0.378
   93SOL    HW1 1022   1.902   0.762   0.440
   93SOL    HW2 1023   1.821   0.747   0.313
   94SOL     OW 1024   0.495   1.423   0.174
   94SOL    HW1 1025   0.416   1.398   0.221
   94SOL    HW2 1026   0.492   1.372   0.093
   95SOL     OW 1027   1.673   1.264   0.645
   95SOL    HW1 1028   1.768   1.268   0.659
   95SOL    HW2 1029   1.643   1.353   0.667
   96SOL     OW 1030   1.391   0.572   0.078
   96SOL    HW1 1031   1.328   0.556   0.148
   96SOL    HW2 1032   1.455   0.501   0.086
   97SOL     OW 1033   0.523   0.262   0.325
   97SOL    HW1 1034   0.556   0.203   0.258
   97SOL    HW2 1035   0.508   0.345   0.280
   98SOL     OW 1036   1.752   1.240   1.571
   98SOL    HW1 1037   1.840   1.202   1.564
   98SOL    HW2 1038   1.768   1.330   1.598
   99SOL     OW 1039   1.057   1.354   1.333
   99SOL    HW1 1040   0.982   1.323   1.384
   99SOL    HW2 1041   1.133   1.312   1.374
  100SOL     OW 1042   1.610   1.625   1.655
  100SOL    HW1 1043   1.602   1.660   1.566
  100SOL    HW2 1044   1.693   1.578   1.655
  101SOL     OW 1045   1.131   1.205   1.104
  101SOL    HW1 1046   1.071   1.243   1.169
  101SOL    HW2 1047   1.099   1.238   1.020
  102SOL     OW 1048   1.627   1.097   1.076
  102SOL    HW1 1049   1.622   1.160   1.149
  102SOL    HW2 1050   1.549   1.115   1.024
  103SOL     OW 1051   0.899   0.136   1.385
  103SOL    HW1 1052   0.922   0.090   1.304
  103SOL    HW2 1053   0.983   0.153   1.428
  104SOL     OW 1054   0.984   1.115   1.724
  104SOL    HW1 1055   0.893   1.131   1.746
  104SOL    HW2 1056   0.982   1.037   1.668
  105SOL     OW 1057   0.711   1.059   0.375
  105SOL    HW1 1058   0.698   1.042   0.468
  105SOL    HW2 1059   0.786   1.005   0.351
  106SOL     OW 1060   0.430   0.828   1.244
  106SOL    HW1 1061   0.499   0.838   1.310
  106SOL    HW2 1062   0.374   0.759   1.279
  107SOL     OW 1063   1.269   0.374   1.275
  107SOL    HW1 1064   1.301   0.453   1.318
  107SOL    HW2 1065   1.179   0.396   1.249
  108SOL     OW 1066   0.064   1.576   1.347
  108SOL    HW1 1067   0.039   1.665   1.323
  108SOL    HW2 1068   0.159   1.578   1.350
  109SOL     OW 1069   0.341   1.121   0.500
  109SOL    HW1 1070   0.347   1.196   0.440
  109SOL    HW2 1071   0.335   1.045   0.442
  110SOL     OW 1072   0.563   0.522   0.851
  110SOL    HW1 1073   0.574   0.584   0.779
  110SOL    HW2 1074   0.624   0.552   0.918
  111SOL     OW 1075   1.247   1.346   0.397
  111SOL    HW1 1076   1.302   1.419   0.424
  111SOL    HW2 1077   1.159   1.369   0.428
  112SOL     OW 1078   1.283   1.459   1.147
  112SOL    HW1 1079   1.339   1.462   1.225
  112SOL    HW2 1080   1.228   1.382   1.161
  113SOL     OW 1081   1.584   0.627   0.477
  113SOL    HW1 1082   1.533   0.665   0.548
  113SOL    HW2 1083   1.617   0.702   0.427
  114SOL     OW 1084   0.346   1.533   1.313
  114SOL    HW1 1085   0.333   1.485   1.231
  114SOL    HW2 1086   0.441   1.542   1.320
  115SOL     OW 1087   0.491   0.759   1.674
  115SOL    HW1 1088   0.517   0.796   1.590
  115SOL    HW2 1089   0.543   0.679   1.682
  116SOL     OW 1090   1.603   0.779   1.682
  116SOL    HW1 1091   1.517   0.821   1.676
  116SOL    HW2 1092   1.656   0.821   1.614
  117SOL     OW 1093   1.001   0.087   1.715
  117SOL    HW1 1094   1.039   0.166   1.679
  117SOL    HW2 1095   1.025   0.018   1.653
  118SOL     OW 1096   0.495   0.043   1.753
  118SOL    HW1 1097   0.481   4.496   1.670
  118SOL    HW2 1098   0.430   0.113   1.752
  119SOL     OW 1099   0.590   0.875   1.024
  119SOL    HW1 1100   0.622   0.965   1.027
  119SOL    HW2 1101   0.534   0.867   1.102
  120SOL     OW 1102   1.355   0.858   1.027
  120SOL    HW1 1103   1.271   0.847   0.983
  120SOL    HW2 1104   1.397   0.773   1.019
  121SOL     OW 1105   1.197   0.532   0.264
  121SOL    HW1 1106   1.206   0.454   0.318
  121SOL    HW2 1107   1.155   0.596   0.321
  122SOL     OW 1108   0.284   0.214   1.234
  122SOL    HW1 1109   0.243   0.232   1.319
  122SOL    HW2 1110   0.328   0.130   1.246
  123SOL     OW 1111   0.032   1.313   1.287
  123SOL    HW1 1112   0.072   1.265   1.359
  123SOL    HW2 1113   0.040   1.405   1.312
  124SOL     OW 1114   0.722   0.629   1.055
  124SOL    HW1 1115   0.798   0.611   0.999
  124SOL    HW2 1116   0.697   0.719   1.031
  125SOL     OW 1117   1.736   0.959   1.854
  125SOL    HW1 1118   1.690   0.897   1.798
  125SOL    HW2 1119   1.676   0.974   1.927
  126SOL     OW 1120   0.318   0.072   0.628
  126SOL    HW1 1121   0.303   0.161   0.659
  126SOL    HW2 1122   0.309   0.017   0.705
  127SOL     OW 1123   1.622   0.381   0.359
  127SOL    HW1 1124   1.646   0.314   0.423
  127SOL    HW2 1125   1.596   0.457   0.411
  128SOL     OW 1126   1.030   0.762   0.960
  128SOL    HW1 1127   1.024   0.778   1.054
  128SOL    HW2 1128   1.001   0.672   0.949
  129SOL     OW 1129   0.982   1.567   1.718
  129SOL    HW1 1130   0.967   1.610   1.635
  129SOL    HW2 1131   1.025   1.484   1.695
  130SOL     OW 1132   1.855   1.502   1.605
  130SOL    HW1 1133   1.869   1.532   1.515
  130SOL    HW2 1134   1.936   1.523   1.651
  131SOL     OW 1135   0.346   0.935   1.818
  131SOL    HW1 1136   0.417   0.967   1.874
  131SOL    HW2 1137   0.387   0.867   1.764
  132SOL     OW 1138   1.529   0.298   0.108
  132SOL    HW1 1139   1.473   0.223   0.126
  132SOL    HW2 1140   1.567   0.321   0.192
  133SOL     OW 1141   1.286   0.820   0.032
  133SOL    HW1 1142   1.330   0.735   0.041
  133SOL    HW2 1143   1.322   0.857  11.051
  134SOL     OW 1144   1.067   1.336   0.854
  134SOL    HW1 1145   1.070   1.264   0.791
  134SOL    HW2 1146   1.127   1.401   0.820
  135SOL     OW 1147   0.320   0.813   0.945
  135SOL    HW1 1148   0.414   0.831   0.944
  135SOL    HW2 1149   0.312   0.722   0.973
  136SOL     OW 1150   0.332   0.532   0.986
  136SOL    HW1 1151   0.288   0.449   0.969
  136SOL    HW2 1152   0.411   0.529   0.932
  137SOL     OW 1153   1.136   0.372   1.699
  137SOL    HW1 1154   1.085   0.435   1.749
  137SOL    HW2 1155   1.221   0.415   1.686
  138SOL     OW 1156   1.154   0.214   1.474
  138SOL    HW1 1157   1.150   0.278   1.545
  138SOL    HW2 1158   1.197   0.261   1.402
  139SOL     OW 1159   4.498   1.324   0.204
  139SOL    HW1 1160   4.404   1.343   0.196
  139SOL    HW2 1161   0.001   1.232   0.231
  140SOL     OW 1162   0.099   1.772   0.940
  140SOL    HW1 1163   0.060   1.726   0.866
  140SOL    HW2 1164   0.187   1.795   0.910
  141SOL     OW 1165   0.495   1.574   0.907
  141SOL    HW1 1166   0.563   1.637   0.931
  141SOL    HW2 1167   0.539   1.512   0.849
  142SOL     OW 1168   0.981   0.792   1.226
  142SOL    HW1 1169   1.038   0.770   1.300
  142SOL    HW2 1170   0.897   0.752   1.248
  143SOL     OW 1171   0.033   0.566   1.108
  143SOL    HW1 1172   0.112   0.529   1.069
  143SOL    HW2 1173   0.008   0.503   1.176
  144SOL     OW 1174   0.179   0.529   1.714
  144SOL    HW1 1175   0.267   0.511   1.681
  144SOL    HW2 1176   0.151   0.608   1.668
  145SOL     OW 1177   1.379   0.937   1.658
  145SOL    HW1 1178   1.400   1.030   1.655
  145SOL    HW2 1179   1.375   0.911   1.566
  146SOL     OW 1180   0.812   0.578   0.362
  146SOL    HW1 1181   0.821   0.502   0.305
  146SOL    HW2 1182   0.738   0.627   0.326
  147SOL     OW 1183   1.639   0.601   1.184
  147SOL    HW1 1184   1.629   0.543   1.259
  147SOL    HW2 1185   1.727   0.582   1.150
  148SOL     OW 1186   0.273   1.562   1.740
  148SOL    HW1 1187   0.215   1.613   1.796
  148SOL    HW2 1188   0.255   1.471   1.763
  149SOL     OW 1189   0.691   0.463   1.265
  149SOL    HW1 1190   0.649   0.384   1.231
  149SOL    HW2 1191   0.695   0.522   1.190
  150SOL     OW 1192   0.926   1.679   1.469
  150SOL    HW1 1193   0.901   1.642   1.384
  150SOL    HW2 1194   0.920   1.774   1.456
  151SOL     OW 1195   0.475   0.482   0.177
  151SOL    HW1 1196   0.531   0.556   0.201
  151SOL    HW2 1197   0.391   0.522   0.156
  152SOL     OW 1198   0.161   1.141   1.460
  152SOL    HW1 1199   0.144   1.097   1.543
  152SOL    HW2 1200   0.168   1.070   1.396
  153SOL     OW 1201   1.324   1.045   1.222
  153SOL    HW1 1202   1.347   0.982   1.154
  153SOL    HW2 1203   1.255   1.099   1.183
  154SOL     OW 1204   1.309   0.851   0.310
  154SOL    HW1 1205   1.233   0.820   0.359
  154SOL    HW2 1206   1.286   0.837   0.218
  155SOL     OW 1207   1.769   1.742   1.150
  155SOL    HW1 1208   1.833   1.771   1.085
  155SOL    HW2 1209   1.750   1.651   1.126
  156SOL     OW 1210   1.240   1.733   1.110
  156SOL    HW1 1211   1.323   1.755   1.067
  156SOL    HW2 1212   1.248   1.639   1.129
  157SOL     OW 1213   0.067   1.184   1.051
  157SOL    HW1 1214   0.060   1.215   1.141
  157SOL    HW2 1215   0.032   1.256   0.998
  158SOL     OW 1216   0.679   1.667   1.733
  158SOL    HW1 1217   0.622   1.743   1.725
  158SOL    HW2 1218   0.744   1.679   1.664
  159SOL     OW 1219   0.877   0.066   0.125
  159SOL    HW1 1220   0.964   0.095   0.095
  159SOL    HW2 1221   0.895   0.009   0.199
  160SOL     OW 1222   1.720   0.134   0.492
  160SOL    HW1 1223   1.791   0.143   0.429
  160SOL    HW2 1224   1.744   0.058   0.545
  161SOL     OW 1225   1.391   1.568   0.487
  161SOL    HW1 1226   1.451   1.600   0.420
  161SOL    HW2 1227   1.342   1.645   0.516
  162SOL     OW 1228   0.117   1.808   1.849
  162SOL    HW1 1229   0.077   1.736   1.897
  162SOL    HW2 1230   0.181   1.845   1.909
  163SOL     OW 1231   1.279   0.929   0.673
  163SOL    HW1 1232   1.352   0.867   0.678
  163SOL    HW2 1233   1.312   1.000   0.620
  164SOL     OW 1234   0.812   1.275   1.428
  164SOL    HW1 1235   0.784   1.314   1.511
  164SOL    HW2 1236   0.742   1.296   1.367
  165SOL     OW 1237   0.674   1.622   0.169
  165SOL    HW1 1238   0.691   1.629   0.075
  165SOL    HW2 1239   0.617   1.546   0.178
  166SOL     OW 1240   1.620   1.725   1.390
  166SOL    HW1 1241   1.672   1.732   1.310
  166SOL    HW2 1242   1.609   1.815   1.419
  167SOL     OW 1243   1.839   0.153   0.965
  167SOL    HW1 1244   1.868   0.074   0.919
  167SOL    HW2 1245   1.752   0.172   0.929
  168SOL     OW 1246   0.261   0.323   0.720
  168SOL    HW1 1247   0.178   0.358   0.689
  168SOL    HW2 1248   0.249   0.314   0.815
  169SOL     OW 1249   1.224   1.601   0.054
  169SOL    HW1 1250   1.211   1.508   0.073
  169SOL    HW2 1251   1.160   1.620  11.086
  170SOL     OW 1252   0.826   1.007   1.373
  170SOL    HW1 1253   0.869   1.003   1.287
  170SOL    HW2 1254   0.823   1.100   1.394
  171SOL     OW 1255   0.913   0.905   0.280
  171SOL    HW1 1256   0.979   0.946   0.224
  171SOL    HW2 1257   0.962   0.843   0.334
  172SOL     OW 1258   1.499   1.622   0.049
  172SOL    HW1 1259   1.403   1.616   0.047
  172SOL    HW2 1260   1.524   1.638  11.058
  173SOL     OW 1261   0.373   1.309   1.491
  173SOL    HW1 1262   0.355   1.387   1.439
  173SOL    HW2 1263   0.298   1.251   1.473
  174SOL     OW 1264   1.609   1.283   1.279
  174SOL    HW1 1265   1.671   1.272   1.351
  174SOL    HW2 1266   1.549   1.352   1.309
  175SOL     OW 1267   1.054   1.108   0.706
  175SOL    HW1 1268   0.984   1.057   0.746
  175SOL    HW2 1269   1.119   1.042   0.679
  176SOL     OW 1270   1.009   0.243   1.004
  176SOL    HW1 1271   1.009   0.219   0.911
  176SOL    HW2 1272   0.999   0.160   1.051
  177SOL     OW 1273   0.603   1.489   0.483
  177SOL    HW1 1274   0.645   1.439   0.412
  177SOL    HW2 1275   0.530   1.533   0.440
  178SOL     OW 1276   1.723   0.394   1.376
  178SOL    HW1 1277   1.796   0.456   1.376
  178SOL    HW2 1278   1.752   0.322   1.319
  179SOL     OW 1279   0.265   1.327   0.284
  179SOL    HW1 1280   0.177   1.336   0.246
  179SOL    HW2 1281   0.259   1.367   0.370
  180SOL     OW 1282   0.115   1.005   1.694
  180SOL    HW1 1283   0.053   1.052   1.750
  180SOL    HW2 1284   0.194   0.998   1.748
  181SOL     OW 1285   0.658   0.210   1.499
  181SOL    HW1 1286   0.737   0.183   1.452
  181SOL    HW2 1287   0.688   0.227   1.588
  182SOL     OW 1288   0.050   0.339   0.018
  182SOL    HW1 1289   4.459   0.326   0.046
  182SOL    HW2 1290   0.066   0.433   0.033
  183SOL     OW 1291   1.428   0.858   1.399
  183SOL    HW1 1292   1.379   0.919   1.344
  183SOL    HW2 1293   1.517   0.861   1.364
  184SOL     OW 1294   0.081   0.180   0.292
  184SOL    HW1 1295   0.083   0.265   0.247
  184SOL    HW2 1296   0.160   0.135   0.262
  185SOL     OW 1297   1.184   1.338   0.122
  185SOL    HW1 1298   1.090   1.323   0.114
  185SOL    HW2 1299   1.201   1.330   0.216
  186SOL     OW 1300   0.625   0.829   1.432
  186SOL    HW1 1301   0.680   0.907   1.417
  186SOL    HW2 1302   0.687   0.757   1.439
  187SOL     OW 1303   1.484   1.779   0.981
  187SOL    HW1 1304   1.504   1.842   0.912
  187SOL    HW2 1305   1.568   1.761   1.022
  188SOL     OW 1306   0.711   0.563   1.705
  188SOL    HW1 1307   0.755   0.626   1.762
  188SOL    HW2 1308   0.742   0.478   1.736
  189SOL     OW 1309   1.473   1.198   1.631
  189SOL    HW1 1310   1.460   1.213   1.725
  189SOL    HW2 1311   1.566   1.215   1.616
  190SOL     OW 1312   0.378   1.745   1.565
  190SOL    HW1 1313   0.293   1.786   1.546
  190SOL    HW2 1314   0.355   1.666   1.614
  191SOL     OW 1315   1.668   0.881   1.255
  191SOL    HW1 1316   1.661   0.796   1.211
  191SOL    HW2 1317   1.658   0.945   1.185
  192SOL     OW 1318   1.218   0.328   0.447
  192SOL    HW1 1319   1.286   0.262   0.435
  192SOL    HW2 1320   1.244   0.375   0.526
  193SOL     OW 1321   0.583   0.736   0.672
  193SOL    HW1 1322   0.626   0.821   0.659
  193SOL    HW2 1323   0.518   0.731   0.602
  194SOL     OW 1324   1.760   0.368   1.644
  194SOL    HW1 1325   1.745   0.381   1.551
  194SOL    HW2 1326   1.682   0.321   1.675
  195SOL     OW 1327   1.746   0.933   1.512
  195SOL    HW1 1328   1.741   1.028   1.526
  195SOL    HW2 1329   1.730   0.922   1.418
  196SOL     OW 1330   0.909   1.355   0.074
  196SOL    HW1 1331   0.839   1.352   0.139
  196SOL    HW2 1332   0.891   1.435   0.024
  197SOL     OW 1333   0.662   1.790   0.944
  197SOL    HW1 1334   0.642   1.880   0.920
  197SOL    HW2 1335   0.757   1.783   0.935
  198SOL     OW 1336   0.868   0.968   0.854
  198SOL    HW1 1337   0.919   0.896   0.892
  198SOL    HW2 1338   0.832   1.015   0.929
  199SOL     OW 1339   1.078   0.989   0.084
  199SOL    HW1 1340   1.052   1.021  11.098
  199SOL    HW2 1341   1.154   0.933   0.067
  200SOL     OW 1342   1.852   1.549   0.840
  200SOL    HW1 1343   1.770   1.541   0.792
  200SOL    HW2 1344   1.841   1.491   0.916
  201SOL     OW 1345   0.232   1.304   1.859
  201SOL    HW1 1346   0.153   1.254   1.840
  201SOL    HW2 1347   0.231   1.315   1.954
  202SOL     OW 1348   0.108   1.225   0.669
  202SOL    HW1 1349   0.133   1.187   0.753
  202SOL    HW2 1350   0.174   1.192   0.608
  203SOL     OW 1351   0.683   1.404   1.629
  203SOL    HW1 1352   0.603   1.361   1.659
  203SOL    HW2 1353   0.678   1.492   1.667
  204SOL     OW 1354   1.806   0.179   1.238
  204SOL    HW1 1355   1.803   0.086   1.258
  204SOL    HW2 1356   1.823   0.183   1.144
  205SOL     OW 1357   0.440   0.431   0.531
  205SOL    HW1 1358   0.459   0.360   0.470
  205SOL    HW2 1359   0.382   0.391   0.596
  206SOL     OW 1360   1.702   1.485   1.089
  206SOL    HW1 1361   1.620   1.464   1.046
  206SOL    HW2 1362   1.712   1.419   1.157
  207SOL     OW 1363   0.308   0.505   1.251
  207SOL    HW1 1364   0.381   0.457   1.290
  207SOL    HW2 1365   0.334   0.517   1.159
  208SOL     OW 1366   0.828   1.578   0.677
  208SOL    HW1 1367   0.811   1.635   0.602
  208SOL    HW2 1368   0.753   1.519   0.680
  209SOL     OW 1369   1.431   0.217   1.117
  209SOL    HW1 1370   1.466   0.145   1.169
  209SOL    HW2 1371   1.381   0.270   1.179
  210SOL     OW 1372   0.995   0.006   1.152
  210SOL    HW1 1373   0.955   4.420   1.144
  210SOL    HW2 1374   1.089   4.488   1.162
  211SOL     OW 1375   0.769   1.327   0.319
  211SOL    HW1 1376   0.742   1.237   0.334
  211SOL    HW2 1377   0.853   1.335   0.365
  212SOL     OW 1378   0.621   1.555   1.286
  212SOL    HW1 1379   0.623   1.637   1.336
  212SOL    HW2 1380   0.708   1.549   1.248
  213SOL     OW 1381   1.354   0.058   0.169
  213SOL    HW1 1382   1.389   4.491   0.109
  213SOL    HW2 1383   1.271   0.021   0.200
  214SOL     OW 1384   1.316   0.463   0.675
  214SOL    HW1 1385   1.257   0.539   0.675
  214SOL    HW2 1386   1.302   0.422   0.760
  215SOL     OW 1387   1.586   0.199   0.869
  215SOL    HW1 1388   1.527   0.214   0.942
  215SOL    HW2 1389   1.588   0.282   0.821
  216SOL     OW 1390   0.038   1.052   0.285
  216SOL    HW1 1391   0.132   1.040   0.283
  216SOL    HW2 1392   0.011   1.024   0.372
  217SOL     OW 1393   0.887   1.656   0.346
  217SOL    HW1 1394   0.814   1.636   0.288
  217SOL    HW2 1395   0.856   1.729   0.400
  218SOL     OW 1396   0.245   0.628   1.985
  218SOL    HW1 1397   0.171   0.603   2.041
  218SOL    HW2 1398   0.213   0.617   1.896
  219SOL     OW 1399   0.192   0.294   2.851
  219SOL    HW1 1400   0.224   0.266   2.936
  219SOL    HW2 1401   0.131   0.225   2.824
  220SOL     OW 1402   0.002   0.386   2.500
  220SOL    HW1 1403   4.425   0.422   2.544
  220SOL    HW2 1404   4.468   0.313   2.448
  221SOL     OW 1405   0.568   1.291   3.040
  221SOL    HW1 1406   0.481   1.296   3.000
  221SOL    HW2 1407   0.584   1.378   3.075
  222SOL     OW 1408   1.562   1.509   2.571
  222SOL    HW1 1409   1.520   1.490   2.654
  222SOL    HW2 1410   1.490   1.514   2.508
  223SOL     OW 1411   1.137   0.697   2.558
  223SOL    HW1 1412   1.182   0.781   2.549
  223SOL    HW2 1413   1.086   0.707   2.639
  224SOL     OW 1414   1.771   0.605   2.088
  224SOL    HW1 1415   1.748   0.597   1.996
  224SOL    HW2 1416   1.736   0.526   2.129
  225SOL     OW 1417   0.752   1.140   2.904
  225SOL    HW1 1418   0.684   1.176   2.962
  225SOL    HW2 1419   0.789   1.217   2.860
  226SOL     OW 1420   0.868   0.769   3.683
  226SOL    HW1 1421   0.853   0.840   3.746
  226SOL    HW2 1422   0.892   0.814   3.602
  227SOL     OW 1423   0.684   1.001   2.508
  227SOL    HW1 1424   0.751   0.990   2.577
  227SOL    HW2 1425   0.616   1.053   2.550
  228SOL     OW 1426   0.712   1.149   3.677
  228SOL    HW1 1427   0.759   1.228   3.705
  228SOL    HW2 1428   0.631   1.182   3.639
  229SOL     OW 1429   0.334   1.420   2.931
  229SOL    HW1 1430   0.253   1.400   2.884
  229SOL    HW2 1431   0.384   1.474   2.870
  230SOL     OW 1432   1.460   1.500   3.218
  230SOL    HW1 1433   1.514   1.579   3.227
  230SOL    HW2 1434   1.396   1.506   3.289
  231SOL     OW 1435   0.441   0.393   3.349
  231SOL    HW1 1436   0.531   0.359   3.349
  231SOL    HW2 1437   0.387   0.319   3.377
  232SOL     OW 1438   1.609   0.444   2.601
  232SOL    HW1 1439   1.529   0.464   2.552
  232SOL    HW2 1440   1.625   0.522   2.654
  233SOL     OW 1441   0.246   1.691   2.338
  233SOL    HW1 1442   0.229   1.776   2.378
  233SOL    HW2 1443   0.317   1.707   2.276
  234SOL     OW 1444   1.137   1.342   3.555
  234SOL    HW1 1445   1.178   1.336   3.642
  234SOL    HW2 1446   1.084   1.262   3.548
  235SOL     OW 1447   0.252   1.426   2.388
  235SOL    HW1 1448   0.242   1.521   2.391
  235SOL    HW2 1449   0.190   1.393   2.454
  236SOL     OW 1450   0.249   1.082   2.747
  236SOL    HW1 1451   0.266   0.992   2.772
  236SOL    HW2 1452   0.189   1.116   2.813
  237SOL     OW 1453   0.611   1.791   3.292
  237SOL    HW1 1454   0.528   1.773   3.336
  237SOL    HW2 1455   0.632   1.881   3.316
  238SOL     OW 1456   0.576   0.989   2.003
  238SOL    HW1 1457   0.625   1.030   1.931
  238SOL    HW2 1458   0.620   1.018   2.082
  239SOL     OW 1459   1.578   0.117   3.329
  239SOL    HW1 1460   1.608   0.186   3.270
  239SOL    HW2 1461   1.569   0.161   3.414
  240SOL     OW 1462   0.136   0.645   2.435
  240SOL    HW1 1463   0.085   0.566   2.456
  240SOL    HW2 1464   0.108   0.709   2.501
  241SOL     OW 1465   1.841   1.730   2.200
  241SOL    HW1 1466   1.910   1.713   2.264
  241SOL    HW2 1467   1.840   1.825   2.190
  242SOL     OW 1468   0.032   1.603   2.007
  242SOL    HW1 1469   0.020   1.509   2.001
  242SOL    HW2 1470   0.031   1.622   2.101
  243SOL     OW 1471   1.690   0.920   2.504
  243SOL    HW1 1472   1.772   0.876   2.481
  243SOL    HW2 1473   1.667   0.970   2.426
  244SOL     OW 1474   1.647   1.106   2.291
  244SOL    HW1 1475   1.733   1.110   2.249
  244SOL    HW2 1476   1.652   1.168   2.363
  245SOL     OW 1477   0.102   0.768   3.436
  245SOL    HW1 1478   0.191   0.759   3.402
  245SOL    HW2 1479   0.096   0.859   3.464
  246SOL     OW 1480   0.614   1.387   2.598
  246SOL    HW1 1481   0.568   1.304   2.608
  246SOL    HW2 1482   0.598   1.413   2.508
  247SOL     OW 1483   1.288   1.237   3.285
  247SOL    HW1 1484   1.320   1.170   3.225
  247SOL    HW2 1485   1.346   1.232   3.360
  248SOL     OW 1486   0.823   0.016   2.417
  248SOL    HW1 1487   0.859   0.101   2.390
  248SOL    HW2 1488   0.729   0.024   2.404
  249SOL     OW 1489   0.178   0.940   3.141
  249SOL    HW1 1490   0.269   0.920   3.122
  249SOL    HW2 1491   0.133   0.929   3.057
  250SOL     OW 1492   1.531   0.994   2.061
  250SOL    HW1 1493   1.461   0.938   2.094
  250SOL    HW2 1494   1.573   1.029   2.140
  251SOL     OW 1495   1.184   1.808   3.485
  251SOL    HW1 1496   1.195   1.867   3.411
  251SOL    HW2 1497   1.202   1.721   3.449
  252SOL     OW 1498   0.317   0.260   3.629
  252SOL    HW1 1499   0.385   0.311   3.674
  252SOL    HW2 1500   0.240   0.268   3.685
  253SOL     OW 1501   1.466   1.419   2.813
  253SOL    HW1 1502   1.398   1.435   2.878
  253SOL    HW2 1503   1.453   1.327   2.787
  254SOL     OW 1504   1.659   1.734   2.445
  254SOL    HW1 1505   1.639   1.705   2.356
  254SOL    HW2 1506   1.632   1.660   2.500
  255SOL     OW 1507   0.595   0.723   2.129
  255SOL    HW1 1508   0.596   0.805   2.080
  255SOL    HW2 1509   0.529   0.735   2.197
  256SOL     OW 1510   1.292   0.367   2.794
  256SOL    HW1 1511   1.203   0.337   2.777
  256SOL    HW2 1512   1.328   0.303   2.856
  257SOL     OW 1513   1.573   1.669   2.171
  257SOL    HW1 1514   1.668   1.685   2.166
  257SOL    HW2 1515   1.547   1.654   2.080
  258SOL     OW 1516   0.798   0.618   3.316
  258SOL    HW1 1517   0.769   0.592   3.403
  258SOL    HW2 1518   0.756   0.555   3.257
  259SOL     OW 1519   1.388   0.480   3.538
  259SOL    HW1 1520   1.392   0.525   3.623
  259SOL    HW2 1521   1.455   0.412   3.543
  260SOL     OW 1522   0.953   0.887   3.446
  260SOL    HW1 1523   1.008   0.817   3.409
  260SOL    HW2 1524   0.906   0.922   3.370
  261SOL     OW 1525   0.998   0.418   3.096
  261SOL    HW1 1526   0.909   0.424   3.132
  261SOL    HW2 1527   0.989   0.364   3.017
  262SOL     OW 1528   1.051   0.698   2.288
  262SOL    HW1 1529   1.068   0.690   2.382
  262SOL    HW2 1530   0.968   0.652   2.275
  263SOL     OW 1531   0.095   0.827   2.647
  263SOL    HW1 1532   0.182   0.815   2.686
  263SOL    HW2 1533   0.038   0.844   2.721
  264SOL     OW 1534   0.121   1.862   3.440
  264SOL    HW1 1535   0.115   1.837   3.533
  264SOL    HW2 1536   0.046   1.818   3.399
  265SOL     OW 1537   0.854   0.370   2.044
  265SOL    HW1 1538   0.925   0.404   1.990
  265SOL    HW2 1539   0.870   0.276   2.049
  266SOL     OW 1540   1.702   0.572   3.690
  266SOL    HW1 1541   1.667   0.646   3.642
  266SOL    HW2 1542   1.739   0.514   3.623
  267SOL     OW 1543   1.379   1.142   2.402
  267SOL    HW1 1544   1.457   1.131   2.349
  267SOL    HW2 1545   1.325   1.205   2.353
  268SOL     OW 1546   0.540   0.206   2.762
  268SOL    HW1 1547   0.561   0.225   2.854
  268SOL    HW2 1548   0.534   0.293   2.721
  269SOL     OW 1549   1.004   1.443   2.333
  269SOL    HW1 1550   0.969   1.518   2.283
  269SOL    HW2 1551   0.984   1.464   2.424
  270SOL     OW 1552   0.357   1.812   2.722
  270SOL    HW1 1553   0.398   1.727   2.732
  270SOL    HW2 1554   0.427   1.875   2.739
  271SOL     OW 1555   1.800   1.055   2.730
  271SOL    HW1 1556   1.746   1.036   2.654
  271SOL    HW2 1557   1.738   1.062   2.803
  272SOL     OW 1558   1.228   1.539   3.375
  272SOL    HW1 1559   1.214   1.466   3.436
  272SOL    HW2 1560   1.164   1.524   3.306
  273SOL     OW 1561   0.314   0.953   2.118
  273SOL    HW1 1562   0.398   0.977   2.078
  273SOL    HW2 1563   0.301   0.862   2.093
  274SOL     OW 1564   1.481   0.744   2.585
  274SOL    HW1 1565   1.471   0.702   2.671
  274SOL    HW2 1566   1.558   0.800   2.595
  275SOL     OW 1567   0.469   1.264   3.597
  275SOL    HW1 1568   0.442   1.270   3.506
  275SOL    HW2 1569   0.387   1.266   3.646
  276SOL     OW 1570   1.123   1.778   2.092
  276SOL    HW1 1571   1.049   1.737   2.137
  276SOL    HW2 1572   1.146   1.716   2.023
  277SOL     OW 1573   0.160   0.266   3.373
  277SOL    HW1 1574   0.135   0.354   3.342
  277SOL    HW2 1575   0.196   0.281   3.460
  278SOL     OW 1576   1.628   1.380   1.952
  278SOL    HW1 1577   1.587   1.465   1.935
  278SOL    HW2 1578   1.559   1.316   1.931
  279SOL     OW 1579   0.469   1.742   2.176
  279SOL    HW1 1580   0.512   1.796   2.242
  279SOL    HW2 1581   0.540   1.706   2.123
  280SOL     OW 1582   1.424   0.143   2.280
  280SOL    HW1 1583   1.408   0.088   2.203
  280SOL    HW2 1584   1.518   0.133   2.297
  281SOL     OW 1585   0.255   1.787   3.094
  281SOL    HW1 1586   0.303   1.712   3.128
  281SOL    HW2 1587   0.222   1.758   3.008
  282SOL     OW 1588   0.938   1.699   2.760
  282SOL    HW1 1589   1.016   1.648   2.782
  282SOL    HW2 1590   0.895   1.649   2.691
  283SOL     OW 1591   0.395   0.692   2.333
  283SOL    HW1 1592   0.420   0.600   2.348
  283SOL    HW2 1593   0.303   0.696   2.359
  284SOL     OW 1594   1.524   0.233   3.585
  284SOL    HW1 1595   1.525   0.255   3.678
  284SOL    HW2 1596   1.445   0.181   3.572
  285SOL     OW 1597   0.627   0.120   1.981
  285SOL    HW1 1598   0.715   0.085   1.993
  285SOL    HW2 1599   0.597   0.081   1.899
  286SOL     OW 1600   0.768   0.270   3.617
  286SOL    HW1 1601   0.836   0.203   3.620
  286SOL    HW2 1602   0.731   0.271   3.705
  287SOL     OW 1603   0.876   1.522   3.056
  287SOL    HW1 1604   0.860   1.486   2.969
  287SOL    HW2 1605   0.946   1.468   3.092
  288SOL     OW 1606   1.340   0.590   3.290
  288SOL    HW1 1607   1.368   0.561   3.377
  288SOL    HW2 1608   1.375   0.678   3.282
  289SOL     OW 1609   0.817   1.393   2.804
  289SOL    HW1 1610   0.901   1.381   2.760
  289SOL    HW2 1611   0.753   1.396   2.733
  290SOL     OW 1612   0.924   0.521   2.760
  290SOL    HW1 1613   0.907   0.519   2.666
  290SOL    HW2 1614   0.959   0.434   2.780
  291SOL     OW 1615   0.564   0.070   2.369
  291SOL    HW1 1616   0.478   0.056   2.409
  291SOL    HW2 1617   0.549   0.138   2.304
  292SOL     OW 1618   1.428   1.199   1.903
  292SOL    HW1 1619   1.457   1.123   1.953
  292SOL    HW2 1620   1.342   1.221   1.940
  293SOL     OW 1621   0.305   0.071   2.053
  293SOL    HW1 1622   0.389   0.118   2.052
  293SOL    HW2 1623   0.319   4.498   2.113
  294SOL     OW 1624   0.956   0.240   2.328
  294SOL    HW1 1625   0.903   0.301   2.277
  294SOL    HW2 1626   1.045   0.275   2.322
  295SOL     OW 1627   1.081   0.682   3.322
  295SOL    HW1 1628   1.011   0.617   3.320
  295SOL    HW2 1629   1.161   0.632   3.310
  296SOL     OW 1630   1.223   1.570   2.656
  296SOL    HW1 1631   1.238   1.637   2.589
  296SOL    HW2 1632   1.291   1.586   2.722
  297SOL     OW 1633   0.467   1.151   2.596
  297SOL    HW1 1634   0.398   1.132   2.659
  297SOL    HW2 1635   0.427   1.135   2.510
  298SOL     OW 1636   1.267   1.793   2.471
  298SOL    HW1 1637   1.314   1.855   2.415
  298SOL    HW2 1638   1.201   1.846   2.515
  299SOL     OW 1639   1.028   0.545   1.881
  299SOL    HW1 1640   0.980   0.626   1.865
  299SOL    HW2 1641   1.087   0.566   1.953
  300SOL     OW 1642   0.094   0.513   3.275
  300SOL    HW1 1643   0.149   0.520   3.197
  300SOL    HW2 1644   0.056   0.600   3.285
  301SOL     OW 1645   0.559   0.246   3.029
  301SOL    HW1 1646   0.590   0.164   3.068
  301SOL    HW2 1647   0.465   0.247   3.046
  302SOL     OW 1648   0.864   0.504   2.490
  302SOL    HW1 1649   0.824   0.542   2.412
  302SOL    HW2 1650   0.822   0.419   2.500
  303SOL     OW 1651   0.956   0.018   2.655
  303SOL    HW1 1652   0.911   0.020   2.570
  303SOL    HW2 1653   0.973   4.426   2.671
  304SOL     OW 1654   1.437   1.161   2.719
  304SOL    HW1 1655   1.368   1.096   2.719
  304SOL    HW2 1656   1.461   1.172   2.627
  305SOL     OW 1657   1.465   0.606   2.833
  305SOL    HW1 1658   1.410   0.528   2.835
  305SOL    HW2 1659   1.521   0.597   2.910
  306SOL     OW 1660   1.844   0.815   2.246
  306SOL    HW1 1661   1.901   0.764   2.303
  306SOL    HW2 1662   1.817   0.753   2.178
  307SOL     OW 1663   0.491   1.420   2.019
  307SOL    HW1 1664   0.414   1.391   2.067
  307SOL    HW2 1665   0.478   1.386   1.930
  308SOL     OW 1666   1.673   1.264   2.505
  308SOL    HW1 1667   1.767   1.268   2.520
  308SOL    HW2 1668   1.642   1.352   2.528
  309SOL     OW 1669   1.395   0.572   1.931
  309SOL    HW1 1670   1.332   0.555   2.002
  309SOL    HW2 1671   1.480   0.555   1.970
  310SOL     OW 1672   0.520   0.264   2.181
  310SOL    HW1 1673   0.571   0.215   2.116
  310SOL    HW2 1674   0.503   0.349   2.140
  311SOL     OW 1675   1.752   1.240   3.434
  311SOL    HW1 1676   1.840   1.202   3.426
  311SOL    HW2 1677   1.768   1.331   3.460
  312SOL     OW 1678   1.057   1.354   3.195
  312SOL    HW1 1679   0.982   1.323   3.246
  312SOL    HW2 1680   1.133   1.312   3.236
  313SOL     OW 1681   1.609   1.625   3.517
  313SOL    HW1 1682   1.602   1.660   3.428
  313SOL    HW2 1683   1.692   1.577   3.518
  314SOL     OW 1684   1.131   1.205   2.966
  314SOL    HW1 1685   1.071   1.243   3.031
  314SOL    HW2 1686   1.099   1.238   2.882
  315SOL     OW 1687   1.627   1.097   2.938
  315SOL    HW1 1688   1.622   1.160   3.011
  315SOL    HW2 1689   1.549   1.115   2.886
  316SOL     OW 1690   0.899   0.135   3.247
  316SOL    HW1 1691   0.922   0.089   3.166
  316SOL    HW2 1692   0.984   0.153   3.289
  317SOL     OW 1693   0.984   1.114   3.586
  317SOL    HW1 1694   0.892   1.131   3.608
  317SOL    HW2 1695   0.982   1.037   3.530
  318SOL     OW 1696   0.709   1.062   2.234
  318SOL    HW1 1697   0.696   1.044   2.327
  318SOL    HW2 1698   0.784   1.008   2.210
  319SOL     OW 1699   0.430   0.828   3.106
  319SOL    HW1 1700   0.498   0.838   3.172
  319SOL    HW2 1701   0.374   0.758   3.139
  320SOL     OW 1702   1.269   0.374   3.137
  320SOL    HW1 1703   1.301   0.453   3.180
  320SOL    HW2 1704   1.179   0.396   3.110
  321SOL     OW 1705   0.064   1.576   3.208
  321SOL    HW1 1706   0.038   1.665   3.185
  321SOL    HW2 1707   0.159   1.578   3.212
  322SOL     OW 1708   0.342   1.110   2.355
  322SOL    HW1 1709   0.354   1.184   2.296
  322SOL    HW2 1710   0.342   1.033   2.298
  323SOL     OW 1711   0.563   0.522   2.713
  323SOL    HW1 1712   0.573   0.584   2.641
  323SOL    HW2 1713   0.624   0.553   2.780
  324SOL     OW 1714   1.248   1.349   2.251
  324SOL    HW1 1715   1.303   1.420   2.283
  324SOL    HW2 1716   1.161   1.370   2.285
  325SOL     OW 1717   1.283   1.459   3.010
  325SOL    HW1 1718   1.339   1.462   3.087
  325SOL    HW2 1719   1.228   1.382   3.023
  326SOL     OW 1720   1.580   0.623   2.340
  326SOL    HW1 1721   1.533   0.670   2.408
  326SOL    HW2 1722   1.624   0.691   2.290
  327SOL     OW 1723   0.346   1.533   3.175
  327SOL    HW1 1724   0.333   1.485   3.093
  327SOL    HW2 1725   0.441   1.542   3.182
  328SOL     OW 1726   0.491   0.760   3.537
  328SOL    HW1 1727   0.517   0.797   3.452
  328SOL    HW2 1728   0.542   0.679   3.543
  329SOL     OW 1729   1.603   0.778   3.544
  329SOL    HW1 1730   1.517   0.821   3.538
  329SOL    HW2 1731   1.655   0.821   3.477
  330SOL     OW 1732   1.001   0.086   3.577
  330SOL    HW1 1733   1.039   0.166   3.541
  330SOL    HW2 1734   1.025   0.018   3.515
  331SOL     OW 1735   0.495   0.043   3.615
  331SOL    HW1 1736   0.482   4.496   3.532
  331SOL    HW2 1737   0.430   0.113   3.614
  332SOL     OW 1738   0.590   0.875   2.886
  332SOL    HW1 1739   0.622   0.965   2.889
  332SOL    HW2 1740   0.534   0.867   2.964
  333SOL     OW 1741   1.355   0.858   2.889
  333SOL    HW1 1742   1.270   0.847   2.846
  333SOL    HW2 1743   1.397   0.773   2.881
  334SOL     OW 1744   1.201   0.536   2.122
  334SOL    HW1 1745   1.208   0.456   2.175
  334SOL    HW2 1746   1.158   0.599   2.180
  335SOL     OW 1747   0.284   0.214   3.096
  335SOL    HW1 1748   0.243   0.232   3.181
  335SOL    HW2 1749   0.328   0.130   3.108
  336SOL     OW 1750   0.031   1.313   3.149
  336SOL    HW1 1751   0.072   1.265   3.221
  336SOL    HW2 1752   0.040   1.405   3.174
  337SOL     OW 1753   0.722   0.630   2.917
  337SOL    HW1 1754   0.798   0.611   2.862
  337SOL    HW2 1755   0.696   0.719   2.893
  338SOL     OW 1756   1.736   0.958   3.716
  338SOL    HW1 1757   1.689   0.897   3.660
  338SOL    HW2 1758   1.676   0.974   3.789
  339SOL     OW 1759   0.322   0.073   2.492
  339SOL    HW1 1760   0.303   0.162   2.521
  339SOL    HW2 1761   0.310   0.019   2.570
  340SOL     OW 1762   1.618   0.381   2.221
  340SOL    HW1 1763   1.644   0.316   2.287
  340SOL    HW2 1764   1.594   0.458   2.272
  341SOL     OW 1765   1.031   0.762   2.822
  341SOL    HW1 1766   1.025   0.778   2.916
  341SOL    HW2 1767   1.000   0.672   2.811
  342SOL     OW 1768   0.982   1.566   3.580
  342SOL    HW1 1769   0.967   1.610   3.497
  342SOL    HW2 1770   1.025   1.484   3.557
  343SOL     OW 1771   1.855   1.502   3.467
  343SOL    HW1 1772   1.871   1.530   3.378
  343SOL    HW2 1773   1.934   1.524   3.515
  344SOL     OW 1774   0.346   0.935   3.680
  344SOL    HW1 1775   0.417   0.967   3.736
  344SOL    HW2 1776   0.387   0.868   3.626
  345SOL     OW 1777   1.529   0.263   1.990
  345SOL    HW1 1778   1.458   0.207   2.021
  345SOL    HW2 1779   1.560   0.309   2.068
  346SOL     OW 1780   1.290   0.826   1.891
  346SOL    HW1 1781   1.332   0.740   1.894
  346SOL    HW2 1782   1.321   0.866   1.810
  347SOL     OW 1783   1.067   1.336   2.717
  347SOL    HW1 1784   1.070   1.264   2.654
  347SOL    HW2 1785   1.127   1.402   2.682
  348SOL     OW 1786   0.319   0.813   2.807
  348SOL    HW1 1787   0.413   0.830   2.806
  348SOL    HW2 1788   0.312   0.721   2.835
  349SOL     OW 1789   0.333   0.531   2.848
  349SOL    HW1 1790   0.288   0.448   2.830
  349SOL    HW2 1791   0.411   0.528   2.793
  350SOL     OW 1792   1.136   0.372   3.562
  350SOL    HW1 1793   1.085   0.435   3.611
  350SOL    HW2 1794   1.221   0.415   3.548
  351SOL     OW 1795   1.154   0.214   3.336
  351SOL    HW1 1796   1.150   0.278   3.407
  351SOL    HW2 1797   1.197   0.261   3.264
  352SOL     OW 1798   4.491   1.321   2.070
  352SOL    HW1 1799   4.398   1.338   2.051
  352SOL    HW2 1800   4.495   1.228   2.090
  353SOL     OW 1801   0.099   1.773   2.802
  353SOL    HW1 1802   0.060   1.724   2.729
  353SOL    HW2 1803   0.187   1.795   2.771
  354SOL     OW 1804   0.495   1.574   2.769
  354SOL    HW1 1805   0.563   1.637   2.793
  354SOL    HW2 1806   0.539   1.512   2.711
  355SOL     OW 1807   0.981   0.792   3.088
  355SOL    HW1 1808   1.038   0.770   3.162
  355SOL    HW2 1809   0.897   0.752   3.110
  356SOL     OW 1810   0.035   0.567   2.972
  356SOL    HW1 1811   0.112   0.528   2.930
  356SOL    HW2 1812   0.007   0.502   3.036
  357SOL     OW 1813   0.179   0.529   3.576
  357SOL    HW1 1814   0.267   0.511   3.543
  357SOL    HW2 1815   0.151   0.608   3.529
  358SOL     OW 1816   1.378   0.937   3.520
  358SOL    HW1 1817   1.400   1.031   3.517
  358SOL    HW2 1818   1.374   0.911   3.428
  359SOL     OW 1819   0.811   0.575   2.220
  359SOL    HW1 1820   0.815   0.504   2.155
  359SOL    HW2 1821   0.739   0.631   2.190
  360SOL     OW 1822   1.639   0.601   3.046
  360SOL    HW1 1823   1.629   0.543   3.121
  360SOL    HW2 1824   1.727   0.582   3.012
  361SOL     OW 1825   0.273   1.562   3.602
  361SOL    HW1 1826   0.214   1.613   3.658
  361SOL    HW2 1827   0.255   1.471   3.625
  362SOL     OW 1828   0.692   0.463   3.127
  362SOL    HW1 1829   0.649   0.384   3.094
  362SOL    HW2 1830   0.695   0.522   3.052
  363SOL     OW 1831   0.926   1.679   3.331
  363SOL    HW1 1832   0.901   1.643   3.246
  363SOL    HW2 1833   0.920   1.774   3.319
  364SOL     OW 1834   0.472   0.490   2.043
  364SOL    HW1 1835   0.533   0.561   2.067
  364SOL    HW2 1836   0.389   0.535   2.027
  365SOL     OW 1837   0.161   1.141   3.322
  365SOL    HW1 1838   0.144   1.097   3.405
  365SOL    HW2 1839   0.168   1.070   3.258
  366SOL     OW 1840   1.324   1.045   3.084
  366SOL    HW1 1841   1.347   0.982   3.016
  366SOL    HW2 1842   1.255   1.099   3.045
  367SOL     OW 1843   1.314   0.856   2.167
  367SOL    HW1 1844   1.239   0.828   2.219
  367SOL    HW2 1845   1.286   0.844   2.076
  368SOL     OW 1846   1.763   1.740   3.012
  368SOL    HW1 1847   1.830   1.769   2.950
  368SOL    HW2 1848   1.747   1.648   2.988
  369SOL     OW 1849   1.241   1.733   2.972
  369SOL    HW1 1850   1.323   1.755   2.929
  369SOL    HW2 1851   1.248   1.640   2.991
  370SOL     OW 1852   0.067   1.184   2.912
  370SOL    HW1 1853   0.061   1.215   3.003
  370SOL    HW2 1854   0.030   1.256   2.860
  371SOL     OW 1855   0.679   1.667   3.595
  371SOL    HW1 1856   0.622   1.743   3.586
  371SOL    HW2 1857   0.745   1.679   3.526
  372SOL     OW 1858   1.719   0.129   2.351
  372SOL    HW1 1859   1.788   0.141   2.286
  372SOL    HW2 1860   1.750   0.058   2.408
  373SOL     OW 1861   1.389   1.567   2.350
  373SOL    HW1 1862   1.448   1.600   2.282
  373SOL    HW2 1863   1.340   1.644   2.378
  374SOL     OW 1864   0.117   1.808   3.711
  374SOL    HW1 1865   0.077   1.736   3.759
  374SOL    HW2 1866   0.181   1.845   3.771
  375SOL     OW 1867   1.279   0.928   2.534
  375SOL    HW1 1868   1.352   0.867   2.541
  375SOL    HW2 1869   1.313   1.000   2.481
  376SOL     OW 1870   0.812   1.275   3.290
  376SOL    HW1 1871   0.784   1.314   3.373
  376SOL    HW2 1872   0.742   1.296   3.229
  377SOL     OW 1873   0.672   1.622   2.017
  377SOL    HW1 1874   0.683   1.634   1.923
  377SOL    HW2 1875   0.617   1.544   2.025
  378SOL     OW 1876   1.622   1.725   3.253
  378SOL    HW1 1877   1.672   1.732   3.171
  378SOL    HW2 1878   1.609   1.816   3.280
  379SOL     OW 1879   1.839   0.153   2.827
  379SOL    HW1 1880   1.868   0.074   2.781
  379SOL    HW2 1881   1.752   0.171   2.791
  380SOL     OW 1882   0.261   0.324   2.582
  380SOL    HW1 1883   0.177   0.358   2.550
  380SOL    HW2 1884   0.247   0.313   2.677
  381SOL     OW 1885   1.208   1.605   1.894
  381SOL    HW1 1886   1.197   1.513   1.921
  381SOL    HW2 1887   1.142   1.617   1.825
  382SOL     OW 1888   0.826   1.007   3.235
  382SOL    HW1 1889   0.869   1.003   3.149
  382SOL    HW2 1890   0.824   1.101   3.256
  383SOL     OW 1891   0.915   0.910   2.152
  383SOL    HW1 1892   0.977   0.942   2.086
  383SOL    HW2 1893   0.963   0.841   2.198
  384SOL     OW 1894   1.491   1.626   1.904
  384SOL    HW1 1895   1.396   1.618   1.889
  384SOL    HW2 1896   1.528   1.632   1.816
  385SOL     OW 1897   0.373   1.309   3.353
  385SOL    HW1 1898   0.355   1.387   3.301
  385SOL    HW2 1899   0.298   1.251   3.335
  386SOL     OW 1900   1.609   1.283   3.141
  386SOL    HW1 1901   1.672   1.273   3.213
  386SOL    HW2 1902   1.550   1.352   3.171
  387SOL     OW 1903   1.055   1.108   2.569
  387SOL    HW1 1904   0.983   1.058   2.608
  387SOL    HW2 1905   1.118   1.042   2.541
  388SOL     OW 1906   1.002   0.246   2.872
  388SOL    HW1 1907   1.008   0.227   2.778
  388SOL    HW2 1908   0.995   0.160   2.913
  389SOL     OW 1909   0.605   1.489   2.344
  389SOL    HW1 1910   0.649   1.439   2.275
  389SOL    HW2 1911   0.529   1.528   2.301
  390SOL     OW 1912   1.723   0.394   3.238
  390SOL    HW1 1913   1.796   0.456   3.238
  390SOL    HW2 1914   1.752   0.323   3.181
  391SOL     OW 1915   0.252   1.343   2.137
  391SOL    HW1 1916   0.157   1.341   2.124
  391SOL    HW2 1917   0.263   1.375   2.226
  392SOL     OW 1918   0.115   1.006   3.556
  392SOL    HW1 1919   0.053   1.052   3.612
  392SOL    HW2 1920   0.194   0.998   3.610
  393SOL     OW 1921   0.658   0.210   3.361
  393SOL    HW1 1922   0.737   0.183   3.314
  393SOL    HW2 1923   0.688   0.227   3.450
  394SOL     OW 1924   0.073   0.320   1.887
  394SOL    HW1 1925   4.479   0.327   1.905
  394SOL    HW2 1926   0.098   0.407   1.857
  395SOL     OW 1927   1.428   0.858   3.261
  395SOL    HW1 1928   1.379   0.919   3.206
  395SOL    HW2 1929   1.517   0.861   3.227
  396SOL     OW 1930   0.086   0.187   2.164
  396SOL    HW1 1931   0.075   0.262   2.104
  396SOL    HW2 1932   0.166   0.144   2.135
  397SOL     OW 1933   1.179   1.338   1.979
  397SOL    HW1 1934   1.088   1.308   1.981
  397SOL    HW2 1935   1.206   1.339   2.071
  398SOL     OW 1936   0.625   0.830   3.294
  398SOL    HW1 1937   0.680   0.907   3.279
  398SOL    HW2 1938   0.687   0.757   3.301
  399SOL     OW 1939   1.485   1.779   2.843
  399SOL    HW1 1940   1.505   1.843   2.775
  399SOL    HW2 1941   1.568   1.763   2.887
  400SOL     OW 1942   0.711   0.563   3.567
  400SOL    HW1 1943   0.755   0.626   3.624
  400SOL    HW2 1944   0.743   0.478   3.598
  401SOL     OW 1945   1.473   1.198   3.493
  401SOL    HW1 1946   1.461   1.213   3.587
  401SOL    HW2 1947   1.566   1.215   3.478
  402SOL     OW 1948   0.378   1.745   3.427
  402SOL    HW1 1949   0.293   1.786   3.408
  402SOL    HW2 1950   0.355   1.666   3.476
  403SOL     OW 1951   1.668   0.881   3.117
  403SOL    HW1 1952   1.661   0.796   3.073
  403SOL    HW2 1953   1.658   0.945   3.046
  404SOL     OW 1954   1.219   0.332   2.309
  404SOL    HW1 1955   1.285   0.264   2.296
  404SOL    HW2 1956   1.248   0.379   2.387
  405SOL     OW 1957   0.586   0.736   2.534
  405SOL    HW1 1958   0.627   0.821   2.520
  405SOL    HW2 1959   0.520   0.729   2.465
  406SOL     OW 1960   1.760   0.368   3.506
  406SOL    HW1 1961   1.745   0.381   3.413
  406SOL    HW2 1962   1.682   0.321   3.537
  407SOL     OW 1963   1.745   0.933   3.374
  407SOL    HW1 1964   1.741   1.028   3.388
  407SOL    HW2 1965   1.730   0.922   3.280
  408SOL     OW 1966   0.864   1.366   1.899
  408SOL    HW1 1967   0.825   1.394   1.982
  408SOL    HW2 1968   0.880   1.448   1.852
  409SOL     OW 1969   0.661   1.790   2.805
  409SOL    HW1 1970   0.642   1.880   2.782
  409SOL    HW2 1971   0.757   1.782   2.797
  410SOL     OW 1972   0.869   0.969   2.716
  410SOL    HW1 1973   0.919   0.897   2.754
  410SOL    HW2 1974   0.832   1.015   2.791
  411SOL     OW 1975   1.079   0.988   1.951
  411SOL    HW1 1976   1.056   1.040   1.874
  411SOL    HW2 1977   1.153   0.934   1.924
  412SOL     OW 1978   1.851   1.544   2.701
  412SOL    HW1 1979   1.768   1.538   2.653
  412SOL    HW2 1980   1.839   1.489   2.777
  413SOL     OW 1981   0.232   1.304   3.721
  413SOL    HW1 1982   0.153   1.254   3.702
  413SOL    HW2 1983   0.230   1.315   3.816
  414SOL     OW 1984   0.112   1.231   2.530
  414SOL    HW1 1985   0.129   1.189   2.614
  414SOL    HW2 1986   0.170   1.187   2.469
  415SOL     OW 1987   0.684   1.404   3.492
  415SOL    HW1 1988   0.603   1.361   3.521
  415SOL    HW2 1989   0.678   1.492   3.529
  416SOL     OW 1990   1.806   0.179   3.100
  416SOL    HW1 1991   1.803   0.086   3.120
  416SOL    HW2 1992   1.823   0.183   3.006
  417SOL     OW 1993   0.443   0.430   2.395
  417SOL    HW1 1994   0.457   0.360   2.331
  417SOL    HW2 1995   0.381   0.392   2.458
  418SOL     OW 1996   1.704   1.483   2.949
  418SOL    HW1 1997   1.620   1.463   2.908
  418SOL    HW2 1998   1.713   1.418   3.019
  419SOL     OW 1999   0.310   0.506   3.113
  419SOL    HW1 2000   0.382   0.456   3.151
  419SOL    HW2 2001   0.334   0.517   3.021
  420SOL     OW 2002   0.829   1.578   2.539
  420SOL    HW1 2003   0.813   1.635   2.464
  420SOL    HW2 2004   0.753   1.520   2.541
  421SOL     OW 2005   1.431   0.216   2.979
  421SOL    HW1 2006   1.467   0.145   3.032
  421SOL    HW2 2007   1.381   0.269   3.041
  422SOL     OW 2008   0.995   0.004   3.015
  422SOL    HW1 2009   0.955   4.417   3.006
  422SOL    HW2 2010   1.089   4.486   3.024
  423SOL     OW 2011   0.773   1.333   2.178
  423SOL    HW1 2012   0.743   1.242   2.185
  423SOL    HW2 2013   0.854   1.336   2.228
  424SOL     OW 2014   0.621   1.555   3.148
  424SOL    HW1 2015   0.623   1.637   3.198
  424SOL    HW2 2016   0.708   1.549   3.110
  425SOL     OW 2017   1.339   0.052   2.018
  425SOL    HW1 2018   1.377   4.476   1.974
  425SOL    HW2 2019   1.263   0.017   2.065
  426SOL     OW 2020   1.314   0.464   2.536
  426SOL    HW1 2021   1.257   0.540   2.537
  426SOL    HW2 2022   1.303   0.424   2.622
  427SOL     OW 2023   1.585   0.199   2.730
  427SOL    HW1 2024   1.527   0.214   2.805
  427SOL    HW2 2025   1.588   0.283   2.684
  428SOL     OW 2026   0.040   1.050   2.151
  428SOL    HW1 2027   0.133   1.031   2.140
  428SOL    HW2 2028   0.021   1.023   2.241
  429SOL     OW 2029   0.887   1.655   2.203
  429SOL    HW1 2030   0.813   1.638   2.144
  429SOL    HW2 2031   0.858   1.729   2.256
  430SOL     OW 2032   0.245   0.628   3.847
  430SOL    HW1 2033   0.171   0.603   3.903
  430SOL    HW2 2034   0.213   0.617   3.758
  431SOL     OW 2035   0.192   0.294   4.713
  431SOL    HW1 2036   0.223   0.266   4.798
  431SOL    HW2 2037   0.132   0.225   4.685
  432SOL     OW 2038   0.002   0.386   4.362
  432SOL    HW1 2039   4.424   0.422   4.405
  432SOL    HW2 2040   4.468   0.313   4.310
  433SOL     OW 2041   0.569   1.291   4.902
  433SOL    HW1 2042   0.482   1.295   4.863
  433SOL    HW2 2043   0.583   1.379   4.937
  434SOL     OW 2044   1.563   1.506   4.431
  434SOL    HW1 2045   1.515   1.486   4.511
  434SOL    HW2 2046   1.495   1.517   4.365
  435SOL     OW 2047   1.137   0.698   4.420
  435SOL    HW1 2048   1.182   0.782   4.411
  435SOL    HW2 2049   1.086   0.707   4.501
  436SOL     OW 2050   1.770   0.605   3.951
  436SOL    HW1 2051   1.747   0.597   3.858
  436SOL    HW2 2052   1.736   0.525   3.990
  437SOL     OW 2053   0.754   1.141   4.768
  437SOL    HW1 2054   0.685   1.177   4.825
  437SOL    HW2 2055   0.789   1.218   4.722
  438SOL     OW 2056   0.868   0.769   5.545
  438SOL    HW1 2057   0.852   0.839   5.608
  438SOL    HW2 2058   0.892   0.815   5.464
  439SOL     OW 2059   0.685   1.001   4.370
  439SOL    HW1 2060   0.751   0.990   4.439
  439SOL    HW2 2061   0.616   1.053   4.411
  440SOL     OW 2062   0.713   1.149   5.539
  440SOL    HW1 2063   0.759   1.228   5.567
  440SOL    HW2 2064   0.631   1.182   5.501
  441SOL     OW 2065   0.334   1.420   4.793
  441SOL    HW1 2066   0.253   1.399   4.747
  441SOL    HW2 2067   0.384   1.474   4.731
  442SOL     OW 2068   1.464   1.499   5.095
  442SOL    HW1 2069   1.454   1.593   5.076
  442SOL    HW2 2070   1.396   1.480   5.160
  443SOL     OW 2071   0.442   0.393   5.211
  443SOL    HW1 2072   0.531   0.358   5.211
  443SOL    HW2 2073   0.387   0.319   5.239
  444SOL     OW 2074   1.609   0.444   4.463
  444SOL    HW1 2075   1.529   0.464   4.414
  444SOL    HW2 2076   1.626   0.523   4.514
  445SOL     OW 2077   0.246   1.691   4.200
  445SOL    HW1 2078   0.229   1.777   4.240
  445SOL    HW2 2079   0.316   1.708   4.137
  446SOL     OW 2080   1.138   1.342   5.416
  446SOL    HW1 2081   1.177   1.338   5.504
  446SOL    HW2 2082   1.085   1.262   5.410
  447SOL     OW 2083   0.253   1.426   4.250
  447SOL    HW1 2084   0.242   1.521   4.253
  447SOL    HW2 2085   0.191   1.393   4.315
  448SOL     OW 2086   0.251   1.082   4.609
  448SOL    HW1 2087   0.266   0.991   4.635
  448SOL    HW2 2088   0.189   1.116   4.675
  449SOL     OW 2089   0.613   1.790   5.156
  449SOL    HW1 2090   0.529   1.773   5.199
  449SOL    HW2 2091   0.632   1.881   5.179
  450SOL     OW 2092   0.575   0.989   3.865
  450SOL    HW1 2093   0.625   1.030   3.793
  450SOL    HW2 2094   0.620   1.018   3.944
  451SOL     OW 2095   1.579   0.117   5.192
  451SOL    HW1 2096   1.609   0.184   5.132
  451SOL    HW2 2097   1.569   0.162   5.276
  452SOL     OW 2098   0.136   0.645   4.298
  452SOL    HW1 2099   0.085   0.566   4.318
  452SOL    HW2 2100   0.108   0.709   4.363
  453SOL     OW 2101   1.847   1.771   4.060
  453SOL    HW1 2102   1.905   1.739   4.130
  453SOL    HW2 2103   1.901   1.831   4.009
  454SOL     OW 2104   0.032   1.603   3.869
  454SOL    HW1 2105   0.020   1.508   3.862
  454SOL    HW2 2106   0.030   1.622   3.962
  455SOL     OW 2107   1.689   0.918   4.365
  455SOL    HW1 2108   1.772   0.877   4.344
  455SOL    HW2 2109   1.667   0.969   4.287
  456SOL     OW 2110   1.647   1.106   4.153
  456SOL    HW1 2111   1.733   1.110   4.112
  456SOL    HW2 2112   1.654   1.167   4.227
  457SOL     OW 2113   0.102   0.768   5.299
  457SOL    HW1 2114   0.191   0.759   5.265
  457SOL    HW2 2115   0.096   0.859   5.326
  458SOL     OW 2116   0.614   1.387   4.461
  458SOL    HW1 2117   0.567   1.304   4.470
  458SOL    HW2 2118   0.598   1.413   4.370
  459SOL     OW 2119   1.294   1.244   5.143
  459SOL    HW1 2120   1.321   1.172   5.085
  459SOL    HW2 2121   1.348   1.232   5.221
  460SOL     OW 2122   0.823   0.016   4.279
  460SOL    HW1 2123   0.859   0.101   4.253
  460SOL    HW2 2124   0.729   0.024   4.266
  461SOL     OW 2125   0.177   0.940   5.003
  461SOL    HW1 2126   0.269   0.920   4.984
  461SOL    HW2 2127   0.132   0.930   4.920
  462SOL     OW 2128   1.531   0.995   3.924
  462SOL    HW1 2129   1.461   0.938   3.957
  462SOL    HW2 2130   1.573   1.029   4.002
  463SOL     OW 2131   1.183   1.807   5.347
  463SOL    HW1 2132   1.191   1.869   5.275
  463SOL    HW2 2133   1.197   1.722   5.307
  464SOL     OW 2134   0.317   0.260   5.491
  464SOL    HW1 2135   0.385   0.311   5.536
  464SOL    HW2 2136   0.240   0.267   5.547
  465SOL     OW 2137   1.445   1.423   4.664
  465SOL    HW1 2138   1.385   1.432   4.737
  465SOL    HW2 2139   1.442   1.330   4.641
  466SOL     OW 2140   1.650   1.741   4.304
  466SOL    HW1 2141   1.632   1.707   4.217
  466SOL    HW2 2142   1.641   1.665   4.362
  467SOL     OW 2143   0.595   0.723   3.991
  467SOL    HW1 2144   0.595   0.805   3.942
  467SOL    HW2 2145   0.529   0.735   4.059
  468SOL     OW 2146   1.292   0.368   4.656
  468SOL    HW1 2147   1.203   0.338   4.639
  468SOL    HW2 2148   1.328   0.304   4.718
  469SOL     OW 2149   1.581   1.668   4.034
  469SOL    HW1 2150   1.669   1.707   4.026
  469SOL    HW2 2151   1.554   1.653   3.944
  470SOL     OW 2152   0.798   0.618   5.178
  470SOL    HW1 2153   0.769   0.592   5.265
  470SOL    HW2 2154   0.757   0.555   5.119
  471SOL     OW 2155   1.388   0.481   5.400
  471SOL    HW1 2156   1.392   0.524   5.485
  471SOL    HW2 2157   1.454   0.412   5.405
  472SOL     OW 2158   0.954   0.887   5.308
  472SOL    HW1 2159   1.008   0.817   5.272
  472SOL    HW2 2160   0.906   0.922   5.233
  473SOL     OW 2161   0.998   0.418   4.958
  473SOL    HW1 2162   0.909   0.423   4.993
  473SOL    HW2 2163   0.989   0.365   4.879
  474SOL     OW 2164   1.051   0.698   4.150
  474SOL    HW1 2165   1.068   0.689   4.244
  474SOL    HW2 2166   0.968   0.652   4.137
  475SOL     OW 2167   0.095   0.828   4.509
  475SOL    HW1 2168   0.182   0.816   4.548
  475SOL    HW2 2169   0.037   0.843   4.584
  476SOL     OW 2170   0.121   1.862   5.302
  476SOL    HW1 2171   0.116   1.837   5.395
  476SOL    HW2 2172   0.046   1.818   5.261
  477SOL     OW 2173   0.854   0.370   3.907
  477SOL    HW1 2174   0.924   0.404   3.852
  477SOL    HW2 2175   0.870   0.276   3.911
  478SOL     OW 2176   1.703   0.572   5.553
  478SOL    HW1 2177   1.668   0.646   5.503
  478SOL    HW2 2178   1.739   0.514   5.486
  479SOL     OW 2179   1.379   1.143   4.264
  479SOL    HW1 2180   1.458   1.131   4.211
  479SOL    HW2 2181   1.326   1.204   4.213
  480SOL     OW 2182   0.540   0.206   4.624
  480SOL    HW1 2183   0.561   0.225   4.716
  480SOL    HW2 2184   0.534   0.292   4.583
  481SOL     OW 2185   1.004   1.445   4.196
  481SOL    HW1 2186   0.969   1.518   4.145
  481SOL    HW2 2187   0.982   1.465   4.287
  482SOL     OW 2188   0.357   1.813   4.584
  482SOL    HW1 2189   0.398   1.727   4.594
  482SOL    HW2 2190   0.427   1.875   4.601
  483SOL     OW 2191   1.798   1.049   4.594
  483SOL    HW1 2192   1.746   1.036   4.515
  483SOL    HW2 2193   1.733   1.057   4.664
  484SOL     OW 2194   1.226   1.538   5.234
  484SOL    HW1 2195   1.212   1.468   5.298
  484SOL    HW2 2196   1.155   1.526   5.170
  485SOL     OW 2197   0.314   0.953   3.980
  485SOL    HW1 2198   0.398   0.977   3.940
  485SOL    HW2 2199   0.300   0.862   3.954
  486SOL     OW 2200   1.480   0.744   4.448
  486SOL    HW1 2201   1.472   0.702   4.533
  486SOL    HW2 2202   1.558   0.799   4.455
  487SOL     OW 2203   0.469   1.263   5.459
  487SOL    HW1 2204   0.442   1.270   5.367
  487SOL    HW2 2205   0.387   1.266   5.508
  488SOL     OW 2206   1.122   1.777   3.954
  488SOL    HW1 2207   1.048   1.736   3.999
  488SOL    HW2 2208   1.146   1.716   3.885
  489SOL     OW 2209   0.160   0.266   5.235
  489SOL    HW1 2210   0.135   0.354   5.204
  489SOL    HW2 2211   0.196   0.281   5.322
  490SOL     OW 2212   1.628   1.380   3.814
  490SOL    HW1 2213   1.587   1.465   3.797
  490SOL    HW2 2214   1.559   1.317   3.793
  491SOL     OW 2215   0.469   1.742   4.038
  491SOL    HW1 2216   0.512   1.796   4.104
  491SOL    HW2 2217   0.540   1.706   3.985
  492SOL     OW 2218   1.424   0.143   4.142
  492SOL    HW1 2219   1.407   0.088   4.065
  492SOL    HW2 2220   1.517   0.133   4.159
  493SOL     OW 2221   0.255   1.787   4.955
  493SOL    HW1 2222   0.302   1.711   4.989
  493SOL    HW2 2223   0.221   1.759   4.870
  494SOL     OW 2224   0.939   1.697   4.621
  494SOL    HW1 2225   1.019   1.647   4.637
  494SOL    HW2 2226   0.893   1.649   4.552
  495SOL     OW 2227   0.395   0.691   4.196
  495SOL    HW1 2228   0.420   0.600   4.210
  495SOL    HW2 2229   0.303   0.696   4.222
  496SOL     OW 2230   1.524   0.233   5.447
  496SOL    HW1 2231   1.524   0.255   5.540
  496SOL    HW2 2232   1.445   0.180   5.434
  497SOL     OW 2233   0.627   0.120   3.843
  497SOL    HW1 2234   0.715   0.085   3.854
  497SOL    HW2 2235   0.596   0.081   3.761
  498SOL     OW 2236   0.769   0.271   5.479
  498SOL    HW1 2237   0.836   0.203   5.482
  498SOL    HW2 2238   0.730   0.270   5.567
  499SOL     OW 2239   0.877   1.524   4.917
  499SOL    HW1 2240   0.860   1.487   4.831
  499SOL    HW2 2241   0.945   1.467   4.955
  500SOL     OW 2242   1.340   0.590   5.152
  500SOL    HW1 2243   1.368   0.561   5.239
  500SOL    HW2 2244   1.375   0.678   5.144
  501SOL     OW 2245   0.816   1.393   4.666
  501SOL    HW1 2246   0.900   1.381   4.621
  501SOL    HW2 2247   0.752   1.396   4.595
  502SOL     OW 2248   0.924   0.521   4.622
  502SOL    HW1 2249   0.907   0.519   4.528
  502SOL    HW2 2250   0.959   0.434   4.642
  503SOL     OW 2251   0.564   0.070   4.232
  503SOL    HW1 2252   0.478   0.056   4.271
  503SOL    HW2 2253   0.549   0.138   4.166
  504SOL     OW 2254   1.428   1.199   3.764
  504SOL    HW1 2255   1.457   1.123   3.815
  504SOL    HW2 2256   1.342   1.220   3.802
  505SOL     OW 2257   0.305   0.071   3.915
  505SOL    HW1 2258   0.389   0.118   3.913
  505SOL    HW2 2259   0.319   4.498   3.975
  506SOL     OW 2260   0.956   0.240   4.190
  506SOL    HW1 2261   0.903   0.301   4.138
  506SOL    HW2 2262   1.045   0.275   4.184
  507SOL     OW 2263   1.080   0.682   5.183
  507SOL    HW1 2264   1.010   0.617   5.183
  507SOL    HW2 2265   1.161   0.631   5.172
  508SOL     OW 2266   1.214   1.574   4.521
  508SOL    HW1 2267   1.233   1.638   4.452
  508SOL    HW2 2268   1.298   1.562   4.566
  509SOL     OW 2269   0.467   1.151   4.458
  509SOL    HW1 2270   0.398   1.132   4.521
  509SOL    HW2 2271   0.427   1.136   4.372
  510SOL     OW 2272   1.267   1.793   4.334
  510SOL    HW1 2273   1.316   1.852   4.278
  510SOL    HW2 2274   1.200   1.847   4.375
  511SOL     OW 2275   1.027   0.545   3.743
  511SOL    HW1 2276   0.980   0.626   3.727
  511SOL    HW2 2277   1.087   0.566   3.815
  512SOL     OW 2278   0.095   0.513   5.137
  512SOL    HW1 2279   0.149   0.521   5.059
  512SOL    HW2 2280   0.055   0.599   5.147
  513SOL     OW 2281   0.560   0.247   4.892
  513SOL    HW1 2282   0.590   0.164   4.930
  513SOL    HW2 2283   0.465   0.248   4.908
  514SOL     OW 2284   0.864   0.504   4.352
  514SOL    HW1 2285   0.825   0.542   4.273
  514SOL    HW2 2286   0.822   0.419   4.362
  515SOL     OW 2287   0.956   0.018   4.517
  515SOL    HW1 2288   0.911   0.021   4.433
  515SOL    HW2 2289   0.973   4.425   4.532
  516SOL     OW 2290   1.438   1.162   4.581
  516SOL    HW1 2291   1.369   1.096   4.577
  516SOL    HW2 2292   1.467   1.171   4.490
  517SOL     OW 2293   1.465   0.607   4.696
  517SOL    HW1 2294   1.410   0.529   4.697
  517SOL    HW2 2295   1.522   0.597   4.773
  518SOL     OW 2296   1.844   0.815   4.108
  518SOL    HW1 2297   1.901   0.765   4.165
  518SOL    HW2 2298   1.817   0.753   4.040
  519SOL     OW 2299   0.491   1.419   3.881
  519SOL    HW1 2300   0.414   1.391   3.929
  519SOL    HW2 2301   0.478   1.386   3.792
  520SOL     OW 2302   1.674   1.261   4.371
  520SOL    HW1 2303   1.769   1.263   4.382
  520SOL    HW2 2304   1.646   1.351   4.387
  521SOL     OW 2305   1.395   0.572   3.793
  521SOL    HW1 2306   1.333   0.555   3.864
  521SOL    HW2 2307   1.481   0.555   3.832
  522SOL     OW 2308   0.520   0.264   4.043
  522SOL    HW1 2309   0.571   0.215   3.978
  522SOL    HW2 2310   0.503   0.349   4.002
  523SOL     OW 2311   1.750   1.234   5.293
  523SOL    HW1 2312   1.836   1.191   5.298
  523SOL    HW2 2313   1.768   1.326   5.312
  524SOL     OW 2314   1.056   1.356   5.060
  524SOL    HW1 2315   0.981   1.323   5.110
  524SOL    HW2 2316   1.132   1.314   5.100
  525SOL     OW 2317   1.606   1.619   5.386
  525SOL    HW1 2318   1.586   1.641   5.295
  525SOL    HW2 2319   1.687   1.568   5.381
  526SOL     OW 2320   1.134   1.212   4.829
  526SOL    HW1 2321   1.067   1.240   4.891
  526SOL    HW2 2322   1.100   1.237   4.743
  527SOL     OW 2323   1.625   1.097   4.801
  527SOL    HW1 2324   1.617   1.158   4.875
  527SOL    HW2 2325   1.547   1.114   4.748
  528SOL     OW 2326   0.900   0.135   5.109
  528SOL    HW1 2327   0.922   0.089   5.029
  528SOL    HW2 2328   0.984   0.152   5.151
  529SOL     OW 2329   0.984   1.116   5.446
  529SOL    HW1 2330   0.893   1.131   5.470
  529SOL    HW2 2331   0.982   1.037   5.392
  530SOL     OW 2332   0.709   1.062   4.096
  530SOL    HW1 2333   0.696   1.044   4.189
  530SOL    HW2 2334   0.784   1.008   4.072
  531SOL     OW 2335   0.430   0.828   4.967
  531SOL    HW1 2336   0.497   0.837   5.034
  531SOL    HW2 2337   0.374   0.757   4.999
  532SOL     OW 2338   1.268   0.374   4.999
  532SOL    HW1 2339   1.301   0.453   5.042
  532SOL    HW2 2340   1.179   0.396   4.972
  533SOL     OW 2341   0.063   1.576   5.071
  533SOL    HW1 2342   0.038   1.665   5.047
  533SOL    HW2 2343   0.159   1.579   5.074
  534SOL     OW 2344   0.343   1.110   4.217
  534SOL    HW1 2345   0.353   1.184   4.158
  534SOL    HW2 2346   0.342   1.034   4.160
  535SOL     OW 2347   0.563   0.522   4.576
  535SOL    HW1 2348   0.573   0.584   4.503
  535SOL    HW2 2349   0.624   0.553   4.642
  536SOL     OW 2350   1.248   1.349   4.114
  536SOL    HW1 2351   1.304   1.420   4.144
  536SOL    HW2 2352   1.161   1.371   4.147
  537SOL     OW 2353   1.282   1.454   4.877
  537SOL    HW1 2354   1.333   1.444   4.957
  537SOL    HW2 2355   1.223   1.379   4.876
  538SOL     OW 2356   1.581   0.622   4.203
  538SOL    HW1 2357   1.533   0.672   4.269
  538SOL    HW2 2358   1.626   0.689   4.152
  539SOL     OW 2359   0.346   1.533   5.037
  539SOL    HW1 2360   0.333   1.485   4.955
  539SOL    HW2 2361   0.441   1.542   5.044
  540SOL     OW 2362   0.492   0.761   5.399
  540SOL    HW1 2363   0.517   0.797   5.314
  540SOL    HW2 2364   0.540   0.678   5.405
  541SOL     OW 2365   1.604   0.779   5.407
  541SOL    HW1 2366   1.518   0.821   5.400
  541SOL    HW2 2367   1.656   0.821   5.338
  542SOL     OW 2368   1.001   0.087   5.440
  542SOL    HW1 2369   1.039   0.166   5.403
  542SOL    HW2 2370   1.025   0.018   5.377
  543SOL     OW 2371   0.495   0.043   5.477
  543SOL    HW1 2372   0.481   4.496   5.394
  543SOL    HW2 2373   0.430   0.112   5.476
  544SOL     OW 2374   0.590   0.875   4.749
  544SOL    HW1 2375   0.620   0.966   4.751
  544SOL    HW2 2376   0.534   0.866   4.826
  545SOL     OW 2377   1.354   0.858   4.753
  545SOL    HW1 2378   1.271   0.847   4.707
  545SOL    HW2 2379   1.398   0.773   4.744
  546SOL     OW 2380   1.201   0.536   3.984
  546SOL    HW1 2381   1.208   0.456   4.037
  546SOL    HW2 2382   1.158   0.599   4.042
  547SOL     OW 2383   0.284   0.215   4.959
  547SOL    HW1 2384   0.242   0.232   5.043
  547SOL    HW2 2385   0.328   0.130   4.970
  548SOL     OW 2386   0.033   1.313   5.011
  548SOL    HW1 2387   0.073   1.265   5.083
  548SOL    HW2 2388   0.041   1.405   5.036
  549SOL     OW 2389   0.723   0.630   4.780
  549SOL    HW1 2390   0.798   0.611   4.723
  549SOL    HW2 2391   0.697   0.719   4.755
  550SOL     OW 2392   1.735   0.960   5.577
  550SOL    HW1 2393   1.690   0.896   5.522
  550SOL    HW2 2394   1.676   0.974   5.651
  551SOL     OW 2395   0.323   0.073   4.354
  551SOL    HW1 2396   0.303   0.162   4.383
  551SOL    HW2 2397   0.310   0.019   4.432
  552SOL     OW 2398   1.618   0.380   4.083
  552SOL    HW1 2399   1.644   0.316   4.149
  552SOL    HW2 2400   1.594   0.458   4.134
  553SOL     OW 2401   1.030   0.763   4.684
  553SOL    HW1 2402   1.024   0.778   4.779
  553SOL    HW2 2403   1.000   0.673   4.673
  554SOL     OW 2404   0.983   1.567   5.442
  554SOL    HW1 2405   0.968   1.611   5.358
  554SOL    HW2 2406   1.024   1.484   5.419
  555SOL     OW 2407   1.852   1.490   5.314
  555SOL    HW1 2408   1.879   1.558   5.253
  555SOL    HW2 2409   1.915   1.496   5.386
  556SOL     OW 2410   0.346   0.935   5.542
  556SOL    HW1 2411   0.417   0.967   5.599
  556SOL    HW2 2412   0.387   0.868   5.488
  557SOL     OW 2413   1.529   0.263   3.852
  557SOL    HW1 2414   1.459   0.206   3.883
  557SOL    HW2 2415   1.560   0.309   3.930
  558SOL     OW 2416   1.290   0.826   3.754
  558SOL    HW1 2417   1.332   0.740   3.756
  558SOL    HW2 2418   1.321   0.866   3.672
  559SOL     OW 2419   1.067   1.335   4.579
  559SOL    HW1 2420   1.069   1.263   4.516
  559SOL    HW2 2421   1.122   1.402   4.541
  560SOL     OW 2422   0.319   0.812   4.669
  560SOL    HW1 2423   0.413   0.829   4.667
  560SOL    HW2 2424   0.312   0.721   4.697
  561SOL     OW 2425   0.333   0.531   4.710
  561SOL    HW1 2426   0.288   0.448   4.692
  561SOL    HW2 2427   0.411   0.528   4.655
  562SOL     OW 2428   1.136   0.372   5.423
  562SOL    HW1 2429   1.085   0.435   5.473
  562SOL    HW2 2430   1.221   0.415   5.409
  563SOL     OW 2431   1.154   0.214   5.198
  563SOL    HW1 2432   1.150   0.278   5.269
  563SOL    HW2 2433   1.197   0.261   5.126
  564SOL     OW 2434   4.491   1.321   3.932
  564SOL    HW1 2435   4.398   1.338   3.913
  564SOL    HW2 2436   4.495   1.228   3.952
  565SOL     OW 2437   0.100   1.772   4.665
  565SOL    HW1 2438   0.060   1.724   4.592
  565SOL    HW2 2439   0.187   1.795   4.634
  566SOL     OW 2440   0.495   1.574   4.631
  566SOL    HW1 2441   0.563   1.637   4.655
  566SOL    HW2 2442   0.539   1.512   4.573
  567SOL     OW 2443   0.981   0.793   4.950
  567SOL    HW1 2444   1.037   0.770   5.024
  567SOL    HW2 2445   0.897   0.752   4.970
  568SOL     OW 2446   0.036   0.568   4.836
  568SOL    HW1 2447   0.111   0.528   4.792
  568SOL    HW2 2448   0.006   0.501   4.897
  569SOL     OW 2449   0.179   0.529   5.438
  569SOL    HW1 2450   0.267   0.511   5.404
  569SOL    HW2 2451   0.151   0.608   5.391
  570SOL     OW 2452   1.379   0.937   5.382
  570SOL    HW1 2453   1.399   1.031   5.379
  570SOL    HW2 2454   1.375   0.911   5.290
  571SOL     OW 2455   0.811   0.575   4.082
  571SOL    HW1 2456   0.815   0.504   4.018
  571SOL    HW2 2457   0.739   0.631   4.052
  572SOL     OW 2458   1.640   0.602   4.909
  572SOL    HW1 2459   1.630   0.542   4.983
  572SOL    HW2 2460   1.727   0.583   4.874
  573SOL     OW 2461   0.274   1.562   5.464
  573SOL    HW1 2462   0.214   1.613   5.519
  573SOL    HW2 2463   0.255   1.471   5.487
  574SOL     OW 2464   0.693   0.463   4.989
  574SOL    HW1 2465   0.649   0.384   4.956
  574SOL    HW2 2466   0.696   0.522   4.914
  575SOL     OW 2467   0.931   1.678   5.190
  575SOL    HW1 2468   0.900   1.642   5.106
  575SOL    HW2 2469   0.922   1.773   5.180
  576SOL     OW 2470   0.472   0.490   3.905
  576SOL    HW1 2471   0.533   0.561   3.929
  576SOL    HW2 2472   0.389   0.535   3.889
  577SOL     OW 2473   0.162   1.141   5.184
  577SOL    HW1 2474   0.144   1.097   5.267
  577SOL    HW2 2475   0.168   1.070   5.120
  578SOL     OW 2476   1.324   1.047   4.946
  578SOL    HW1 2477   1.346   0.982   4.879
  578SOL    HW2 2478   1.256   1.101   4.906
  579SOL     OW 2479   1.313   0.856   4.029
  579SOL    HW1 2480   1.238   0.827   4.081
  579SOL    HW2 2481   1.286   0.844   3.938
  580SOL     OW 2482   1.240   1.729   4.850
  580SOL    HW1 2483   1.315   1.747   4.794
  580SOL    HW2 2484   1.240   1.634   4.861
  581SOL     OW 2485   0.067   1.184   4.774
  581SOL    HW1 2486   0.061   1.215   4.865
  581SOL    HW2 2487   0.030   1.255   4.722
  582SOL     OW 2488   0.679   1.668   5.457
  582SOL    HW1 2489   0.620   1.743   5.450
  582SOL    HW2 2490   0.742   1.681   5.387
  583SOL     OW 2491   1.719   0.129   4.213
  583SOL    HW1 2492   1.789   0.141   4.148
  583SOL    HW2 2493   1.751   0.058   4.269
  584SOL     OW 2494   1.392   1.567   4.213
  584SOL    HW1 2495   1.451   1.598   4.144
  584SOL    HW2 2496   1.343   1.645   4.239
  585SOL     OW 2497   0.118   1.808   5.573
  585SOL    HW1 2498   0.077   1.736   5.621
  585SOL    HW2 2499   0.181   1.845   5.634
  586SOL     OW 2500   1.279   0.929   4.398
  586SOL    HW1 2501   1.352   0.867   4.403
  586SOL    HW2 2502   1.313   1.000   4.343
  587SOL     OW 2503   0.811   1.275   5.152
  587SOL    HW1 2504   0.783   1.314   5.234
  587SOL    HW2 2505   0.740   1.295   5.091
  588SOL     OW 2506   0.672   1.621   3.879
  588SOL    HW1 2507   0.683   1.634   3.785
  588SOL    HW2 2508   0.617   1.544   3.887
  589SOL     OW 2509   1.839   0.153   4.689
  589SOL    HW1 2510   1.869   0.075   4.642
  589SOL    HW2 2511   1.752   0.171   4.653
  590SOL     OW 2512   0.260   0.324   4.445
  590SOL    HW1 2513   0.177   0.357   4.412
  590SOL    HW2 2514   0.247   0.313   4.539
  591SOL     OW 2515   1.207   1.605   3.756
  591SOL    HW1 2516   1.198   1.513   3.782
  591SOL    HW2 2517   1.142   1.617   3.687
  592SOL     OW 2518   0.825   1.007   5.098
  592SOL    HW1 2519   0.867   1.002   5.011
  592SOL    HW2 2520   0.823   1.101   5.117
  593SOL     OW 2521   0.916   0.911   4.015
  593SOL    HW1 2522   0.977   0.942   3.948
  593SOL    HW2 2523   0.964   0.841   4.060
  594SOL     OW 2524   1.491   1.626   3.767
  594SOL    HW1 2525   1.397   1.619   3.752
  594SOL    HW2 2526   1.529   1.632   3.679
  595SOL     OW 2527   0.373   1.309   5.214
  595SOL    HW1 2528   0.355   1.387   5.163
  595SOL    HW2 2529   0.299   1.251   5.197
  596SOL     OW 2530   1.609   1.280   5.010
  596SOL    HW1 2531   1.671   1.264   5.081
  596SOL    HW2 2532   1.552   1.350   5.043
  597SOL     OW 2533   1.055   1.108   4.432
  597SOL    HW1 2534   0.983   1.057   4.470
  597SOL    HW2 2535   1.118   1.043   4.402
  598SOL     OW 2536   1.002   0.246   4.734
  598SOL    HW1 2537   1.008   0.227   4.640
  598SOL    HW2 2538   0.995   0.160   4.775
  599SOL     OW 2539   0.605   1.489   4.206
  599SOL    HW1 2540   0.650   1.440   4.137
  599SOL    HW2 2541   0.529   1.528   4.163
  600SOL     OW 2542   1.723   0.394   5.100
  600SOL    HW1 2543   1.796   0.455   5.100
  600SOL    HW2 2544   1.752   0.322   5.043
  601SOL     OW 2545   0.252   1.343   3.999
  601SOL    HW1 2546   0.157   1.341   3.986
  601SOL    HW2 2547   0.263   1.375   4.089
  602SOL     OW 2548   0.115   1.006   5.418
  602SOL    HW1 2549   0.052   1.052   5.474
  602SOL    HW2 2550   0.194   0.998   5.472
  603SOL     OW 2551   0.658   0.210   5.223
  603SOL    HW1 2552   0.737   0.183   5.176
  603SOL    HW2 2553   0.688   0.227   5.312
  604SOL     OW 2554   0.073   0.320   3.750
  604SOL    HW1 2555   4.479   0.327   3.767
  604SOL    HW2 2556   0.098   0.407   3.719
  605SOL     OW 2557   1.429   0.859   5.123
  605SOL    HW1 2558   1.379   0.919   5.068
  605SOL    HW2 2559   1.517   0.860   5.087
  606SOL     OW 2560   0.086   0.188   4.026
  606SOL    HW1 2561   0.075   0.261   3.966
  606SOL    HW2 2562   0.166   0.144   3.997
  607SOL     OW 2563   1.179   1.338   3.841
  607SOL    HW1 2564   1.088   1.308   3.843
  607SOL    HW2 2565   1.205   1.338   3.933
  608SOL     OW 2566   0.625   0.829   5.155
  608SOL    HW1 2567   0.680   0.906   5.141
  608SOL    HW2 2568   0.686   0.757   5.163
  609SOL     OW 2569   0.712   0.562   5.429
  609SOL    HW1 2570   0.755   0.625   5.486
  609SOL    HW2 2571   0.743   0.477   5.460
  610SOL     OW 2572   1.472   1.199   5.356
  610SOL    HW1 2573   1.459   1.213   5.450
  610SOL    HW2 2574   1.566   1.213   5.342
  611SOL     OW 2575   0.378   1.745   5.289
  611SOL    HW1 2576   0.294   1.786   5.270
  611SOL    HW2 2577   0.355   1.666   5.338
  612SOL     OW 2578   1.667   0.880   4.979
  612SOL    HW1 2579   1.662   0.794   4.937
  612SOL    HW2 2580   1.658   0.943   4.908
  613SOL     OW 2581   1.219   0.332   4.171
  613SOL    HW1 2582   1.286   0.264   4.158
  613SOL    HW2 2583   1.248   0.379   4.249
  614SOL     OW 2584   0.585   0.736   4.396
  614SOL    HW1 2585   0.626   0.821   4.381
  614SOL    HW2 2586   0.520   0.729   4.327
  615SOL     OW 2587   1.759   0.369   5.368
  615SOL    HW1 2588   1.745   0.382   5.275
  615SOL    HW2 2589   1.682   0.321   5.399
  616SOL     OW 2590   1.748   0.934   5.235
  616SOL    HW1 2591   1.737   1.028   5.247
  616SOL    HW2 2592   1.731   0.919   5.142
  617SOL     OW 2593   0.864   1.366   3.761
  617SOL    HW1 2594   0.824   1.395   3.843
  617SOL    HW2 2595   0.880   1.448   3.713
  618SOL     OW 2596   0.662   1.790   4.668
  618SOL    HW1 2597   0.641   1.880   4.644
  618SOL    HW2 2598   0.757   1.784   4.659
  619SOL     OW 2599   0.868   0.969   4.578
  619SOL    HW1 2600   0.918   0.896   4.616
  619SOL    HW2 2601   0.832   1.015   4.654
  620SOL     OW 2602   1.079   0.988   3.813
  620SOL    HW1 2603   1.056   1.039   3.736
  620SOL    HW2 2604   1.153   0.935   3.786
  621SOL     OW 2605   1.839   1.542   4.520
  621SOL    HW1 2606   1.747   1.520   4.508
  621SOL    HW2 2607   1.872   1.474   4.579
  622SOL     OW 2608   0.232   1.304   5.583
  622SOL    HW1 2609   0.153   1.254   5.563
  622SOL    HW2 2610   0.230   1.315   5.678
  623SOL     OW 2611   0.112   1.233   4.392
  623SOL    HW1 2612   0.127   1.190   4.476
  623SOL    HW2 2613   0.170   1.187   4.331
  624SOL     OW 2614   0.684   1.405   5.354
  624SOL    HW1 2615   0.604   1.360   5.382
  624SOL    HW2 2616   0.677   1.493   5.391
  625SOL     OW 2617   1.806   0.179   4.962
  625SOL    HW1 2618   1.803   0.085   4.982
  625SOL    HW2 2619   1.823   0.183   4.868
  626SOL     OW 2620   0.443   0.430   4.258
  626SOL    HW1 2621   0.457   0.360   4.193
  626SOL    HW2 2622   0.381   0.392   4.320
  627SOL     OW 2623   1.670   1.481   4.825
  627SOL    HW1 2624   1.597   1.461   4.766
  627SOL    HW2 2625   1.673   1.407   4.885
  628SOL     OW 2626   0.311   0.508   4.975
  628SOL    HW1 2627   0.382   0.456   5.012
  628SOL    HW2 2628   0.334   0.517   4.883
  629SOL     OW 2629   0.829   1.578   4.400
  629SOL    HW1 2630   0.813   1.636   4.326
  629SOL    HW2 2631   0.752   1.520   4.402
  630SOL     OW 2632   1.431   0.216   4.841
  630SOL    HW1 2633   1.466   0.144   4.893
  630SOL    HW2 2634   1.381   0.269   4.903
  631SOL     OW 2635   0.995   0.004   4.877
  631SOL    HW1 2636   0.955   4.418   4.868
  631SOL    HW2 2637   1.089   4.486   4.885
  632SOL     OW 2638   0.772   1.333   4.041
  632SOL    HW1 2639   0.742   1.242   4.047
  632SOL    HW2 2640   0.855   1.335   4.090
  633SOL     OW 2641   0.621   1.555   5.010
  633SOL    HW1 2642   0.623   1.637   5.060
  633SOL    HW2 2643   0.708   1.549   4.971
  634SOL     OW 2644   1.339   0.052   3.881
  634SOL    HW1 2645   1.378   4.476   3.836
  634SOL    HW2 2646   1.263   0.016   3.927
  635SOL     OW 2647   1.314   0.464   4.398
  635SOL    HW1 2648   1.257   0.541   4.399
  635SOL    HW2 2649   1.303   0.424   4.484
  636SOL     OW 2650   1.585   0.199   4.592
  636SOL    HW1 2651   1.527   0.215   4.666
  636SOL    HW2 2652   1.588   0.282   4.546
  637SOL     OW 2653   0.040   1.050   4.013
  637SOL    HW1 2654   0.133   1.030   4.002
  637SOL    HW2 2655   0.021   1.023   4.103
  638SOL     OW 2656   0.886   1.655   4.065
  638SOL    HW1 2657   0.813   1.638   4.006
  638SOL    HW2 2658   0.857   1.729   4.118
  639SOL     OW 2659   0.245   0.628   5.709
  639SOL    HW1 2660   0.171   0.603   5.765
  639SOL    HW2 2661   0.213   0.616   5.620
  640SOL     OW 2662   0.192   0.294   6.575
  640SOL    HW1 2663   0.224   0.266   6.660
  640SOL    HW2 2664   0.132   0.225   6.547
  641SOL     OW 2665   0.002   0.386   6.224
  641SOL    HW1 2666   4.425   0.422   6.268
  641SOL    HW2 2667   4.468   0.313   6.172
  642SOL     OW 2668   0.568   1.291   6.764
  642SOL    HW1 2669   0.481   1.296   6.725
  642SOL    HW2 2670   0.584   1.379   6.799
  643SOL     OW 2671   1.558   1.516   6.283
  643SOL    HW1 2672   1.517   1.498   6.368
  643SOL    HW2 2673   1.485   1.524   6.222
  644SOL     OW 2674   1.137   0.697   6.282
  644SOL    HW1 2675   1.182   0.781   6.273
  644SOL    HW2 2676   1.086   0.706   6.363
  645SOL     OW 2677   1.770   0.606   5.813
  645SOL    HW1 2678   1.748   0.597   5.720
  645SOL    HW2 2679   1.736   0.526   5.853
  646SOL     OW 2680   0.752   1.141   6.628
  646SOL    HW1 2681   0.684   1.177   6.686
  646SOL    HW2 2682   0.789   1.217   6.584
  647SOL     OW 2683   0.868   0.769   7.407
  647SOL    HW1 2684   0.853   0.839   7.470
  647SOL    HW2 2685   0.892   0.815   7.326
  648SOL     OW 2686   0.685   1.001   6.232
  648SOL    HW1 2687   0.751   0.990   6.301
  648SOL    HW2 2688   0.616   1.053   6.274
  649SOL     OW 2689   0.712   1.149   7.401
  649SOL    HW1 2690   0.759   1.228   7.429
  649SOL    HW2 2691   0.631   1.182   7.363
  650SOL     OW 2692   0.334   1.420   6.655
  650SOL    HW1 2693   0.253   1.400   6.609
  650SOL    HW2 2694   0.384   1.474   6.594
  651SOL     OW 2695   1.460   1.499   6.942
  651SOL    HW1 2696   1.514   1.578   6.951
  651SOL    HW2 2697   1.396   1.506   7.013
  652SOL     OW 2698   0.441   0.393   7.073
  652SOL    HW1 2699   0.531   0.359   7.073
  652SOL    HW2 2700   0.387   0.320   7.101
  653SOL     OW 2701   1.609   0.444   6.325
  653SOL    HW1 2702   1.529   0.464   6.276
  653SOL    HW2 2703   1.624   0.521   6.379
  654SOL     OW 2704   0.246   1.691   6.062
  654SOL    HW1 2705   0.229   1.776   6.102
  654SOL    HW2 2706   0.316   1.708   5.999
  655SOL     OW 2707   1.137   1.342   7.279
  655SOL    HW1 2708   1.177   1.336   7.366
  655SOL    HW2 2709   1.084   1.262   7.272
  656SOL     OW 2710   0.253   1.426   6.113
  656SOL    HW1 2711   0.242   1.521   6.115
  656SOL    HW2 2712   0.191   1.393   6.178
  657SOL     OW 2713   0.250   1.083   6.471
  657SOL    HW1 2714   0.266   0.992   6.496
  657SOL    HW2 2715   0.189   1.116   6.537
  658SOL     OW 2716   0.611   1.791   7.016
  658SOL    HW1 2717   0.528   1.773   7.060
  658SOL    HW2 2718   0.632   1.881   7.041
  659SOL     OW 2719   0.576   0.989   5.727
  659SOL    HW1 2720   0.625   1.029   5.655
  659SOL    HW2 2721   0.620   1.018   5.806
  660SOL     OW 2722   1.579   0.117   7.054
  660SOL    HW1 2723   1.608   0.186   6.994
  660SOL    HW2 2724   1.569   0.161   7.138
  661SOL     OW 2725   0.136   0.645   6.160
  661SOL    HW1 2726   0.085   0.566   6.180
  661SOL    HW2 2727   0.108   0.709   6.225
  662SOL     OW 2728   0.032   1.603   5.730
  662SOL    HW1 2729   0.020   1.508   5.725
  662SOL    HW2 2730   0.030   1.622   5.824
  663SOL     OW 2731   1.689   0.920   6.228
  663SOL    HW1 2732   1.771   0.877   6.205
  663SOL    HW2 2733   1.667   0.971   6.150
  664SOL     OW 2734   1.648   1.109   6.018
  664SOL    HW1 2735   1.734   1.112   5.976
  664SOL    HW2 2736   1.654   1.172   6.089
  665SOL     OW 2737   0.102   0.768   7.161
  665SOL    HW1 2738   0.191   0.759   7.127
  665SOL    HW2 2739   0.096   0.859   7.188
  666SOL     OW 2740   0.615   1.387   6.322
  666SOL    HW1 2741   0.568   1.304   6.332
  666SOL    HW2 2742   0.598   1.414   6.232
  667SOL     OW 2743   1.287   1.237   7.009
  667SOL    HW1 2744   1.320   1.170   6.949
  667SOL    HW2 2745   1.346   1.232   7.084
  668SOL     OW 2746   0.823   0.016   6.141
  668SOL    HW1 2747   0.859   0.101   6.114
  668SOL    HW2 2748   0.729   0.024   6.128
  669SOL     OW 2749   0.178   0.940   6.865
  669SOL    HW1 2750   0.269   0.920   6.846
  669SOL    HW2 2751   0.133   0.929   6.781
  670SOL     OW 2752   1.532   0.995   5.786
  670SOL    HW1 2753   1.462   0.939   5.818
  670SOL    HW2 2754   1.573   1.030   5.866
  671SOL     OW 2755   1.186   1.809   7.209
  671SOL    HW1 2756   1.194   1.867   7.134
  671SOL    HW2 2757   1.202   1.721   7.174
  672SOL     OW 2758   0.317   0.260   7.353
  672SOL    HW1 2759   0.385   0.311   7.398
  672SOL    HW2 2760   0.240   0.267   7.409
  673SOL     OW 2761   1.463   1.423   6.532
  673SOL    HW1 2762   1.399   1.435   6.602
  673SOL    HW2 2763   1.454   1.331   6.508
  674SOL     OW 2764   0.595   0.723   5.853
  674SOL    HW1 2765   0.595   0.805   5.804
  674SOL    HW2 2766   0.529   0.735   5.921
  675SOL     OW 2767   1.292   0.367   6.518
  675SOL    HW1 2768   1.203   0.338   6.501
  675SOL    HW2 2769   1.328   0.303   6.580
  676SOL     OW 2770   0.798   0.618   7.040
  676SOL    HW1 2771   0.769   0.592   7.127
  676SOL    HW2 2772   0.757   0.555   6.981
  677SOL     OW 2773   1.388   0.480   7.262
  677SOL    HW1 2774   1.392   0.525   7.347
  677SOL    HW2 2775   1.455   0.412   7.268
  678SOL     OW 2776   0.953   0.887   7.170
  678SOL    HW1 2777   1.008   0.817   7.133
  678SOL    HW2 2778   0.906   0.922   7.094
  679SOL     OW 2779   0.998   0.418   6.820
  679SOL    HW1 2780   0.910   0.424   6.856
  679SOL    HW2 2781   0.989   0.364   6.741
  680SOL     OW 2782   1.051   0.698   6.012
  680SOL    HW1 2783   1.068   0.690   6.106
  680SOL    HW2 2784   0.968   0.652   5.999
  681SOL     OW 2785   0.095   0.827   6.371
  681SOL    HW1 2786   0.182   0.816   6.410
  681SOL    HW2 2787   0.038   0.843   6.446
  682SOL     OW 2788   0.121   1.862   7.164
  682SOL    HW1 2789   0.116   1.837   7.257
  682SOL    HW2 2790   0.046   1.819   7.123
  683SOL     OW 2791   0.854   0.370   5.769
  683SOL    HW1 2792   0.925   0.403   5.714
  683SOL    HW2 2793   0.869   0.275   5.773
  684SOL     OW 2794   1.703   0.572   7.414
  684SOL    HW1 2795   1.667   0.646   7.366
  684SOL    HW2 2796   1.739   0.514   7.347
  685SOL     OW 2797   1.379   1.142   6.126
  685SOL    HW1 2798   1.458   1.132   6.074
  685SOL    HW2 2799   1.326   1.205   6.077
  686SOL     OW 2800   0.540   0.206   6.486
  686SOL    HW1 2801   0.561   0.224   6.578
  686SOL    HW2 2802   0.534   0.292   6.445
  687SOL     OW 2803   1.005   1.445   6.058
  687SOL    HW1 2804   0.969   1.518   6.008
  687SOL    HW2 2805   0.982   1.464   6.148
  688SOL     OW 2806   0.357   1.812   6.446
  688SOL    HW1 2807   0.398   1.727   6.456
  688SOL    HW2 2808   0.427   1.875   6.463
  689SOL     OW 2809   1.801   1.058   6.451
  689SOL    HW1 2810   1.744   1.038   6.377
  689SOL    HW2 2811   1.742   1.065   6.526
  690SOL     OW 2812   1.228   1.539   7.100
  690SOL    HW1 2813   1.214   1.466   7.160
  690SOL    HW2 2814   1.164   1.524   7.030
  691SOL     OW 2815   0.314   0.953   5.842
  691SOL    HW1 2816   0.398   0.977   5.802
  691SOL    HW2 2817   0.300   0.862   5.817
  692SOL     OW 2818   1.481   0.744   6.309
  692SOL    HW1 2819   1.471   0.702   6.395
  692SOL    HW2 2820   1.557   0.800   6.319
  693SOL     OW 2821   0.469   1.264   7.321
  693SOL    HW1 2822   0.442   1.270   7.229
  693SOL    HW2 2823   0.387   1.266   7.370
  694SOL     OW 2824   1.125   1.772   5.826
  694SOL    HW1 2825   1.046   1.731   5.863
  694SOL    HW2 2826   1.149   1.714   5.754
  695SOL     OW 2827   0.160   0.266   7.097
  695SOL    HW1 2828   0.135   0.354   7.067
  695SOL    HW2 2829   0.196   0.281   7.185
  696SOL     OW 2830   1.631   1.383   5.676
  696SOL    HW1 2831   1.589   1.469   5.666
  696SOL    HW2 2832   1.562   1.320   5.656
  697SOL     OW 2833   0.469   1.742   5.900
  697SOL    HW1 2834   0.512   1.796   5.966
  697SOL    HW2 2835   0.540   1.706   5.847
  698SOL     OW 2836   1.424   0.143   6.004
  698SOL    HW1 2837   1.408   0.088   5.927
  698SOL    HW2 2838   1.518   0.132   6.021
  699SOL     OW 2839   0.255   1.787   6.817
  699SOL    HW1 2840   0.302   1.712   6.852
  699SOL    HW2 2841   0.222   1.758   6.733
  700SOL     OW 2842   0.938   1.700   6.483
  700SOL    HW1 2843   1.015   1.648   6.507
  700SOL    HW2 2844   0.895   1.649   6.415
  701SOL     OW 2845   0.395   0.691   6.058
  701SOL    HW1 2846   0.420   0.600   6.072
  701SOL    HW2 2847   0.303   0.696   6.083
  702SOL     OW 2848   1.524   0.233   7.309
  702SOL    HW1 2849   1.524   0.255   7.402
  702SOL    HW2 2850   1.445   0.181   7.297
  703SOL     OW 2851   0.627   0.120   5.704
  703SOL    HW1 2852   0.715   0.084   5.716
  703SOL    HW2 2853   0.596   0.082   5.623
  704SOL     OW 2854   0.768   0.270   7.341
  704SOL    HW1 2855   0.836   0.203   7.344
  704SOL    HW2 2856   0.731   0.271   7.429
  705SOL     OW 2857   0.877   1.523   6.779
  705SOL    HW1 2858   0.860   1.485   6.693
  705SOL    HW2 2859   0.946   1.468   6.816
  706SOL     OW 2860   1.341   0.589   7.014
  706SOL    HW1 2861   1.368   0.561   7.101
  706SOL    HW2 2862   1.375   0.678   7.006
  707SOL     OW 2863   0.816   1.394   6.528
  707SOL    HW1 2864   0.901   1.381   6.484
  707SOL    HW2 2865   0.752   1.396   6.457
  708SOL     OW 2866   0.924   0.521   6.484
  708SOL    HW1 2867   0.907   0.519   6.390
  708SOL    HW2 2868   0.959   0.434   6.504
  709SOL     OW 2869   0.564   0.070   6.093
  709SOL    HW1 2870   0.479   0.056   6.133
  709SOL    HW2 2871   0.549   0.138   6.028
  710SOL     OW 2872   1.430   1.200   5.628
  710SOL    HW1 2873   1.459   1.124   5.678
  710SOL    HW2 2874   1.344   1.222   5.663
  711SOL     OW 2875   0.305   0.071   5.777
  711SOL    HW1 2876   0.389   0.118   5.776
  711SOL    HW2 2877   0.319   4.498   5.837
  712SOL     OW 2878   0.956   0.240   6.052
  712SOL    HW1 2879   0.903   0.301   6.001
  712SOL    HW2 2880   1.045   0.275   6.046
  713SOL     OW 2881   1.081   0.682   7.046
  713SOL    HW1 2882   1.011   0.617   7.045
  713SOL    HW2 2883   1.161   0.632   7.034
  714SOL     OW 2884   1.224   1.570   6.381
  714SOL    HW1 2885   1.243   1.638   6.317
  714SOL    HW2 2886   1.295   1.576   6.445
  715SOL     OW 2887   0.467   1.151   6.320
  715SOL    HW1 2888   0.398   1.132   6.383
  715SOL    HW2 2889   0.427   1.136   6.234
  716SOL     OW 2890   1.268   1.799   6.190
  716SOL    HW1 2891   1.279   1.853   6.112
  716SOL    HW2 2892   1.199   1.844   6.239
  717SOL     OW 2893   1.028   0.545   5.605
  717SOL    HW1 2894   0.980   0.626   5.589
  717SOL    HW2 2895   1.086   0.566   5.678
  718SOL     OW 2896   0.094   0.513   6.999
  718SOL    HW1 2897   0.149   0.520   6.921
  718SOL    HW2 2898   0.056   0.600   7.009
  719SOL     OW 2899   0.559   0.246   6.753
  719SOL    HW1 2900   0.590   0.164   6.792
  719SOL    HW2 2901   0.465   0.247   6.770
  720SOL     OW 2902   0.864   0.504   6.214
  720SOL    HW1 2903   0.824   0.542   6.136
  720SOL    HW2 2904   0.821   0.419   6.224
  721SOL     OW 2905   0.957   0.018   6.378
  721SOL    HW1 2906   0.911   0.020   6.294
  721SOL    HW2 2907   0.973   4.425   6.395
  722SOL     OW 2908   1.439   1.162   6.444
  722SOL    HW1 2909   1.369   1.096   6.443
  722SOL    HW2 2910   1.462   1.174   6.352
  723SOL     OW 2911   1.465   0.606   6.557
  723SOL    HW1 2912   1.410   0.528   6.559
  723SOL    HW2 2913   1.521   0.597   6.634
  724SOL     OW 2914   1.845   0.816   5.969
  724SOL    HW1 2915   1.901   0.765   6.027
  724SOL    HW2 2916   1.817   0.753   5.902
  725SOL     OW 2917   0.491   1.419   5.743
  725SOL    HW1 2918   0.414   1.391   5.792
  725SOL    HW2 2919   0.477   1.387   5.654
  726SOL     OW 2920   1.680   1.275   6.227
  726SOL    HW1 2921   1.774   1.281   6.244
  726SOL    HW2 2922   1.646   1.362   6.250
  727SOL     OW 2923   1.395   0.572   5.656
  727SOL    HW1 2924   1.332   0.555   5.726
  727SOL    HW2 2925   1.480   0.554   5.695
  728SOL     OW 2926   0.520   0.264   5.905
  728SOL    HW1 2927   0.571   0.215   5.840
  728SOL    HW2 2928   0.503   0.349   5.864
  729SOL     OW 2929   1.752   1.240   7.158
  729SOL    HW1 2930   1.839   1.201   7.151
  729SOL    HW2 2931   1.768   1.330   7.184
  730SOL     OW 2932   1.057   1.354   6.919
  730SOL    HW1 2933   0.982   1.323   6.970
  730SOL    HW2 2934   1.133   1.312   6.961
  731SOL     OW 2935   1.611   1.627   7.241
  731SOL    HW1 2936   1.602   1.660   7.152
  731SOL    HW2 2937   1.693   1.577   7.241
  732SOL     OW 2938   1.131   1.205   6.691
  732SOL    HW1 2939   1.071   1.243   6.755
  732SOL    HW2 2940   1.099   1.238   6.607
  733SOL     OW 2941   1.628   1.097   6.662
  733SOL    HW1 2942   1.622   1.159   6.734
  733SOL    HW2 2943   1.551   1.115   6.608
  734SOL     OW 2944   0.900   0.135   6.971
  734SOL    HW1 2945   0.922   0.089   6.890
  734SOL    HW2 2946   0.984   0.152   7.013
  735SOL     OW 2947   0.984   1.115   7.309
  735SOL    HW1 2948   0.893   1.131   7.332
  735SOL    HW2 2949   0.982   1.037   7.254
  736SOL     OW 2950   0.709   1.062   5.958
  736SOL    HW1 2951   0.696   1.044   6.051
  736SOL    HW2 2952   0.784   1.008   5.934
  737SOL     OW 2953   0.430   0.828   6.829
  737SOL    HW1 2954   0.498   0.838   6.896
  737SOL    HW2 2955   0.374   0.758   6.863
  738SOL     OW 2956   1.269   0.375   6.860
  738SOL    HW1 2957   1.301   0.453   6.904
  738SOL    HW2 2958   1.179   0.397   6.834
  739SOL     OW 2959   0.063   1.576   6.932
  739SOL    HW1 2960   0.038   1.666   6.910
  739SOL    HW2 2961   0.159   1.578   6.936
  740SOL     OW 2962   0.342   1.110   6.079
  740SOL    HW1 2963   0.353   1.184   6.019
  740SOL    HW2 2964   0.342   1.033   6.022
  741SOL     OW 2965   0.563   0.522   6.437
  741SOL    HW1 2966   0.574   0.584   6.365
  741SOL    HW2 2967   0.624   0.553   6.504
  742SOL     OW 2968   1.249   1.350   5.975
  742SOL    HW1 2969   1.305   1.423   6.003
  742SOL    HW2 2970   1.162   1.371   6.009
  743SOL     OW 2971   1.283   1.458   6.734
  743SOL    HW1 2972   1.340   1.461   6.811
  743SOL    HW2 2973   1.229   1.380   6.747
  744SOL     OW 2974   1.580   0.623   6.065
  744SOL    HW1 2975   1.533   0.670   6.133
  744SOL    HW2 2976   1.623   0.691   6.014
  745SOL     OW 2977   0.346   1.533   6.899
  745SOL    HW1 2978   0.333   1.485   6.817
  745SOL    HW2 2979   0.441   1.542   6.906
  746SOL     OW 2980   0.491   0.759   7.261
  746SOL    HW1 2981   0.517   0.797   7.176
  746SOL    HW2 2982   0.542   0.679   7.267
  747SOL     OW 2983   1.603   0.779   7.268
  747SOL    HW1 2984   1.517   0.821   7.262
  747SOL    HW2 2985   1.656   0.821   7.200
  748SOL     OW 2986   1.001   0.087   7.301
  748SOL    HW1 2987   1.039   0.167   7.265
  748SOL    HW2 2988   1.025   0.018   7.239
  749SOL     OW 2989   0.495   0.043   7.339
  749SOL    HW1 2990   0.481   4.496   7.256
  749SOL    HW2 2991   0.430   0.112   7.338
  750SOL     OW 2992   0.590   0.875   6.610
  750SOL    HW1 2993   0.622   0.965   6.613
  750SOL    HW2 2994   0.534   0.867   6.688
  751SOL     OW 2995   1.355   0.858   6.613
  751SOL    HW1 2996   1.270   0.847   6.570
  751SOL    HW2 2997   1.397   0.772   6.605
  752SOL     OW 2998   1.201   0.536   5.846
  752SOL    HW1 2999   1.208   0.456   5.898
  752SOL    HW2 3000   1.158   0.599   5.904
  753SOL     OW 3001   0.284   0.214   6.820
  753SOL    HW1 3002   0.243   0.232   6.905
  753SOL    HW2 3003   0.328   0.130   6.832
  754SOL     OW 3004   0.032   1.313   6.873
  754SOL    HW1 3005   0.072   1.264   6.945
  754SOL    HW2 3006   0.040   1.405   6.898
  755SOL     OW 3007   0.722   0.630   6.641
  755SOL    HW1 3008   0.798   0.611   6.586
  755SOL    HW2 3009   0.696   0.719   6.617
  756SOL     OW 3010   1.736   0.959   7.440
  756SOL    HW1 3011   1.690   0.896   7.384
  756SOL    HW2 3012   1.676   0.974   7.514
  757SOL     OW 3013   0.323   0.073   6.216
  757SOL    HW1 3014   0.303   0.162   6.245
  757SOL    HW2 3015   0.310   0.019   6.294
  758SOL     OW 3016   1.619   0.381   5.945
  758SOL    HW1 3017   1.644   0.316   6.010
  758SOL    HW2 3018   1.594   0.458   5.997
  759SOL     OW 3019   1.031   0.763   6.546
  759SOL    HW1 3020   1.025   0.778   6.640
  759SOL    HW2 3021   1.000   0.672   6.535
  760SOL     OW 3022   0.983   1.567   7.304
  760SOL    HW1 3023   0.967   1.610   7.221
  760SOL    HW2 3024   1.025   1.485   7.281
  761SOL     OW 3025   1.854   1.501   7.192
  761SOL    HW1 3026   1.870   1.529   7.102
  761SOL    HW2 3027   1.936   1.521   7.238
  762SOL     OW 3028   0.346   0.935   7.404
  762SOL    HW1 3029   0.417   0.967   7.460
  762SOL    HW2 3030   0.387   0.868   7.350
  763SOL     OW 3031   1.529   0.263   5.714
  763SOL    HW1 3032   1.458   0.207   5.745
  763SOL    HW2 3033   1.560   0.309   5.792
  764SOL     OW 3034   1.290   0.826   5.615
  764SOL    HW1 3035   1.332   0.740   5.618
  764SOL    HW2 3036   1.321   0.865   5.534
  765SOL     OW 3037   1.066   1.336   6.440
  765SOL    HW1 3038   1.070   1.264   6.378
  765SOL    HW2 3039   1.127   1.401   6.406
  766SOL     OW 3040   0.319   0.812   6.531
  766SOL    HW1 3041   0.413   0.830   6.530
  766SOL    HW2 3042   0.312   0.721   6.559
  767SOL     OW 3043   0.333   0.531   6.572
  767SOL    HW1 3044   0.288   0.448   6.554
  767SOL    HW2 3045   0.411   0.528   6.517
  768SOL     OW 3046   1.136   0.372   7.285
  768SOL    HW1 3047   1.085   0.435   7.335
  768SOL    HW2 3048   1.221   0.415   7.271
  769SOL     OW 3049   1.154   0.214   7.060
  769SOL    HW1 3050   1.150   0.278   7.131
  769SOL    HW2 3051   1.197   0.261   6.988
  770SOL     OW 3052   4.491   1.321   5.793
  770SOL    HW1 3053   4.399   1.338   5.775
  770SOL    HW2 3054   4.495   1.228   5.814
  771SOL     OW 3055   0.099   1.772   6.526
  771SOL    HW1 3056   0.060   1.724   6.453
  771SOL    HW2 3057   0.187   1.795   6.495
  772SOL     OW 3058   0.495   1.574   6.493
  772SOL    HW1 3059   0.563   1.637   6.517
  772SOL    HW2 3060   0.539   1.511   6.435
  773SOL     OW 3061   0.981   0.792   6.812
  773SOL    HW1 3062   1.038   0.770   6.886
  773SOL    HW2 3063   0.897   0.752   6.834
  774SOL     OW 3064   0.035   0.568   6.696
  774SOL    HW1 3065   0.111   0.528   6.654
  774SOL    HW2 3066   0.007   0.502   6.760
  775SOL     OW 3067   0.179   0.529   7.301
  775SOL    HW1 3068   0.267   0.511   7.267
  775SOL    HW2 3069   0.151   0.608   7.253
  776SOL     OW 3070   1.379   0.937   7.244
  776SOL    HW1 3071   1.399   1.031   7.241
  776SOL    HW2 3072   1.375   0.911   7.152
  777SOL     OW 3073   0.811   0.576   5.944
  777SOL    HW1 3074   0.815   0.505   5.880
  777SOL    HW2 3075   0.739   0.631   5.914
  778SOL     OW 3076   1.639   0.601   6.770
  778SOL    HW1 3077   1.629   0.543   6.845
  778SOL    HW2 3078   1.727   0.582   6.736
  779SOL     OW 3079   0.273   1.562   7.326
  779SOL    HW1 3080   0.215   1.613   7.382
  779SOL    HW2 3081   0.255   1.471   7.349
  780SOL     OW 3082   0.692   0.463   6.851
  780SOL    HW1 3083   0.649   0.384   6.818
  780SOL    HW2 3084   0.695   0.522   6.776
  781SOL     OW 3085   0.926   1.679   7.055
  781SOL    HW1 3086   0.901   1.642   6.970
  781SOL    HW2 3087   0.920   1.774   7.042
  782SOL     OW 3088   0.472   0.491   5.767
  782SOL    HW1 3089   0.533   0.561   5.791
  782SOL    HW2 3090   0.389   0.535   5.751
  783SOL     OW 3091   0.161   1.141   7.046
  783SOL    HW1 3092   0.144   1.097   7.129
  783SOL    HW2 3093   0.168   1.070   6.982
  784SOL     OW 3094   1.324   1.045   6.808
  784SOL    HW1 3095   1.347   0.982   6.740
  784SOL    HW2 3096   1.255   1.099   6.769
  785SOL     OW 3097   1.314   0.857   5.891
  785SOL    HW1 3098   1.240   0.828   5.944
  785SOL    HW2 3099   1.286   0.843   5.801
  786SOL     OW 3100   1.757   1.748   6.730
  786SOL    HW1 3101   1.838   1.765   6.682
  786SOL    HW2 3102   1.739   1.655   6.713
  787SOL     OW 3103   1.239   1.731   6.696
  787SOL    HW1 3104   1.321   1.751   6.651
  787SOL    HW2 3105   1.245   1.637   6.716
  788SOL     OW 3106   0.067   1.184   6.636
  788SOL    HW1 3107   0.061   1.215   6.727
  788SOL    HW2 3108   0.031   1.256   6.584
  789SOL     OW 3109   0.679   1.667   7.319
  789SOL    HW1 3110   0.621   1.743   7.311
  789SOL    HW2 3111   0.744   1.680   7.250
  790SOL     OW 3112   1.719   0.129   6.075
  790SOL    HW1 3113   1.788   0.140   6.010
  790SOL    HW2 3114   1.750   0.059   6.132
  791SOL     OW 3115   1.392   1.577   6.059
  791SOL    HW1 3116   1.452   1.616   5.995
  791SOL    HW2 3117   1.344   1.651   6.095
  792SOL     OW 3118   0.117   1.808   7.435
  792SOL    HW1 3119   0.077   1.736   7.483
  792SOL    HW2 3120   0.181   1.845   7.495
  793SOL     OW 3121   1.279   0.928   6.258
  793SOL    HW1 3122   1.352   0.867   6.265
  793SOL    HW2 3123   1.313   1.000   6.205
  794SOL     OW 3124   0.811   1.275   7.014
  794SOL    HW1 3125   0.784   1.314   7.097
  794SOL    HW2 3126   0.741   1.295   6.953
  795SOL     OW 3127   0.672   1.621   5.741
  795SOL    HW1 3128   0.682   1.634   5.647
  795SOL    HW2 3129   0.617   1.544   5.749
  796SOL     OW 3130   1.622   1.726   6.976
  796SOL    HW1 3131   1.670   1.733   6.894
  796SOL    HW2 3132   1.609   1.816   7.005
  797SOL     OW 3133   1.839   0.153   6.551
  797SOL    HW1 3134   1.868   0.074   6.505
  797SOL    HW2 3135   1.752   0.171   6.515
  798SOL     OW 3136   0.261   0.324   6.307
  798SOL    HW1 3137   0.177   0.358   6.274
  798SOL    HW2 3138   0.247   0.313   6.401
  799SOL     OW 3139   1.209   1.606   5.620
  799SOL    HW1 3140   1.198   1.514   5.646
  799SOL    HW2 3141   1.144   1.619   5.551
  800SOL     OW 3142   0.826   1.007   6.959
  800SOL    HW1 3143   0.869   1.003   6.874
  800SOL    HW2 3144   0.824   1.101   6.980
  801SOL     OW 3145   0.915   0.910   5.876
  801SOL    HW1 3146   0.977   0.943   5.810
  801SOL    HW2 3147   0.963   0.842   5.922
  802SOL     OW 3148   1.495   1.635   5.635
  802SOL    HW1 3149   1.400   1.627   5.623
  802SOL    HW2 3150   1.530   1.636   5.546
  803SOL     OW 3151   0.373   1.309   7.077
  803SOL    HW1 3152   0.355   1.387   7.025
  803SOL    HW2 3153   0.298   1.251   7.059
  804SOL     OW 3154   1.609   1.281   6.866
  804SOL    HW1 3155   1.671   1.272   6.938
  804SOL    HW2 3156   1.549   1.351   6.895
  805SOL     OW 3157   1.055   1.108   6.292
  805SOL    HW1 3158   0.983   1.058   6.332
  805SOL    HW2 3159   1.118   1.042   6.265
  806SOL     OW 3160   1.002   0.246   6.596
  806SOL    HW1 3161   1.009   0.227   6.502
  806SOL    HW2 3162   0.995   0.160   6.637
  807SOL     OW 3163   0.606   1.489   6.068
  807SOL    HW1 3164   0.649   1.440   5.998
  807SOL    HW2 3165   0.528   1.527   6.026
  808SOL     OW 3166   1.723   0.394   6.962
  808SOL    HW1 3167   1.796   0.456   6.962
  808SOL    HW2 3168   1.752   0.323   6.905
  809SOL     OW 3169   0.252   1.343   5.861
  809SOL    HW1 3170   0.157   1.341   5.848
  809SOL    HW2 3171   0.263   1.375   5.951
  810SOL     OW 3172   0.115   1.006   7.280
  810SOL    HW1 3173   0.053   1.052   7.336
  810SOL    HW2 3174   0.194   0.998   7.334
  811SOL     OW 3175   0.658   0.210   7.085
  811SOL    HW1 3176   0.737   0.183   7.038
  811SOL    HW2 3177   0.688   0.227   7.174
  812SOL     OW 3178   0.073   0.320   5.612
  812SOL    HW1 3179   4.479   0.327   5.629
  812SOL    HW2 3180   0.098   0.407   5.581
  813SOL     OW 3181   1.428   0.858   6.985
  813SOL    HW1 3182   1.379   0.919   6.930
  813SOL    HW2 3183   1.517   0.861   6.950
  814SOL     OW 3184   0.086   0.188   5.888
  814SOL    HW1 3185   0.075   0.261   5.828
  814SOL    HW2 3186   0.166   0.145   5.859
  815SOL     OW 3187   1.178   1.338   5.702
  815SOL    HW1 3188   1.087   1.308   5.704
  815SOL    HW2 3189   1.205   1.338   5.794
  816SOL     OW 3190   0.625   0.829   7.018
  816SOL    HW1 3191   0.680   0.907   7.003
  816SOL    HW2 3192   0.687   0.757   7.025
  817SOL     OW 3193   1.487   1.779   6.562
  817SOL    HW1 3194   1.494   1.871   6.537
  817SOL    HW2 3195   1.557   1.765   6.625
  818SOL     OW 3196   0.712   0.563   7.291
  818SOL    HW1 3197   0.755   0.626   7.348
  818SOL    HW2 3198   0.742   0.477   7.322
  819SOL     OW 3199   1.473   1.198   7.217
  819SOL    HW1 3200   1.461   1.213   7.311
  819SOL    HW2 3201   1.566   1.215   7.202
  820SOL     OW 3202   0.378   1.745   7.151
  820SOL    HW1 3203   0.293   1.786   7.132
  820SOL    HW2 3204   0.355   1.666   7.200
  821SOL     OW 3205   1.668   0.881   6.841
  821SOL    HW1 3206   1.661   0.796   6.797
  821SOL    HW2 3207   1.658   0.945   6.770
  822SOL     OW 3208   1.219   0.332   6.032
  822SOL    HW1 3209   1.285   0.264   6.020
  822SOL    HW2 3210   1.247   0.379   6.111
  823SOL     OW 3211   0.586   0.736   6.258
  823SOL    HW1 3212   0.627   0.821   6.243
  823SOL    HW2 3213   0.520   0.729   6.189
  824SOL     OW 3214   1.760   0.368   7.230
  824SOL    HW1 3215   1.744   0.382   7.136
  824SOL    HW2 3216   1.683   0.321   7.261
  825SOL     OW 3217   1.746   0.933   7.098
  825SOL    HW1 3218   1.740   1.028   7.111
  825SOL    HW2 3219   1.730   0.922   7.004
  826SOL     OW 3220   0.865   1.367   5.623
  826SOL    HW1 3221   0.825   1.392   5.706
  826SOL    HW2 3222   0.879   1.449   5.577
  827SOL     OW 3223   0.661   1.789   6.529
  827SOL    HW1 3224   0.642   1.880   6.506
  827SOL    HW2 3225   0.757   1.783   6.522
  828SOL     OW 3226   0.869   0.969   6.440
  828SOL    HW1 3227   0.919   0.897   6.478
  828SOL    HW2 3228   0.832   1.015   6.515
  829SOL     OW 3229   1.079   0.989   5.675
  829SOL    HW1 3230   1.057   1.040   5.597
  829SOL    HW2 3231   1.153   0.935   5.648
  830SOL     OW 3232   0.232   1.304   7.445
  830SOL    HW1 3233   0.153   1.253   7.426
  830SOL    HW2 3234   0.230   1.315   7.540
  831SOL     OW 3235   0.112   1.232   6.254
  831SOL    HW1 3236   0.128   1.190   6.338
  831SOL    HW2 3237   0.170   1.187   6.193
  832SOL     OW 3238   0.683   1.405   7.216
  832SOL    HW1 3239   0.603   1.361   7.245
  832SOL    HW2 3240   0.677   1.493   7.253
  833SOL     OW 3241   1.806   0.179   6.824
  833SOL    HW1 3242   1.803   0.086   6.844
  833SOL    HW2 3243   1.823   0.183   6.730
  834SOL     OW 3244   0.443   0.430   6.119
  834SOL    HW1 3245   0.457   0.360   6.055
  834SOL    HW2 3246   0.381   0.392   6.182
  835SOL     OW 3247   1.694   1.493   6.686
  835SOL    HW1 3248   1.621   1.467   6.629
  835SOL    HW2 3249   1.705   1.419   6.745
  836SOL     OW 3250   0.310   0.506   6.837
  836SOL    HW1 3251   0.382   0.456   6.875
  836SOL    HW2 3252   0.334   0.517   6.745
  837SOL     OW 3253   0.829   1.577   6.262
  837SOL    HW1 3254   0.811   1.635   6.188
  837SOL    HW2 3255   0.754   1.519   6.266
  838SOL     OW 3256   1.431   0.216   6.703
  838SOL    HW1 3257   1.466   0.145   6.756
  838SOL    HW2 3258   1.381   0.269   6.765
  839SOL     OW 3259   0.995   0.004   6.739
  839SOL    HW1 3260   0.955   4.417   6.731
  839SOL    HW2 3261   1.089   4.486   6.748
  840SOL     OW 3262   0.773   1.333   5.901
  840SOL    HW1 3263   0.743   1.242   5.908
  840SOL    HW2 3264   0.855   1.335   5.952
  841SOL     OW 3265   0.621   1.555   6.872
  841SOL    HW1 3266   0.623   1.637   6.922
  841SOL    HW2 3267   0.709   1.549   6.834
  842SOL     OW 3268   1.339   0.052   5.742
  842SOL    HW1 3269   1.377   4.476   5.698
  842SOL    HW2 3270   1.263   0.017   5.789
  843SOL     OW 3271   1.315   0.464   6.260
  843SOL    HW1 3272   1.257   0.540   6.261
  843SOL    HW2 3273   1.303   0.424   6.346
  844SOL     OW 3274   1.585   0.199   6.454
  844SOL    HW1 3275   1.527   0.214   6.529
  844SOL    HW2 3276   1.587   0.283   6.408
  845SOL     OW 3277   0.040   1.050   5.876
  845SOL    HW1 3278   0.133   1.030   5.864
  845SOL    HW2 3279   0.021   1.023   5.965
  846SOL     OW 3280   0.886   1.655   5.926
  846SOL    HW1 3281   0.812   1.637   5.868
  846SOL    HW2 3282   0.856   1.728   5.980
  847SOL     OW 3283   0.245   0.628   7.571
  847SOL    HW1 3284   0.171   0.603   7.626
  847SOL    HW2 3285   0.213   0.616   7.482
  848SOL     OW 3286   0.192   0.294   8.437
  848SOL    HW1 3287   0.224   0.266   8.522
  848SOL    HW2 3288   0.131   0.225   8.410
  849SOL     OW 3289   0.002   0.386   8.086
  849SOL    HW1 3290   4.425   0.422   8.130
  849SOL    HW2 3291   4.468   0.313   8.034
  850SOL     OW 3292   0.568   1.291   8.626
  850SOL    HW1 3293   0.481   1.296   8.587
  850SOL    HW2 3294   0.584   1.378   8.661
  851SOL     OW 3295   1.563   1.511   8.157
  851SOL    HW1 3296   1.521   1.490   8.241
  851SOL    HW2 3297   1.491   1.515   8.094
  852SOL     OW 3298   1.137   0.697   8.144
  852SOL    HW1 3299   1.182   0.781   8.135
  852SOL    HW2 3300   1.086   0.706   8.225
  853SOL     OW 3301   1.770   0.605   7.674
  853SOL    HW1 3302   1.748   0.597   7.582
  853SOL    HW2 3303   1.736   0.526   7.715
  854SOL     OW 3304   0.752   1.140   8.490
  854SOL    HW1 3305   0.684   1.176   8.548
  854SOL    HW2 3306   0.789   1.217   8.446
  855SOL     OW 3307   0.868   0.769   9.269
  855SOL    HW1 3308   0.853   0.839   9.333
  855SOL    HW2 3309   0.892   0.815   9.188
  856SOL     OW 3310   0.685   1.001   8.094
  856SOL    HW1 3311   0.751   0.990   8.163
  856SOL    HW2 3312   0.616   1.053   8.136
  857SOL     OW 3313   0.712   1.149   9.263
  857SOL    HW1 3314   0.759   1.228   9.291
  857SOL    HW2 3315   0.631   1.182   9.225
  858SOL     OW 3316   0.334   1.420   8.517
  858SOL    HW1 3317   0.253   1.400   8.470
  858SOL    HW2 3318   0.384   1.474   8.456
  859SOL     OW 3319   1.460   1.500   8.804
  859SOL    HW1 3320   1.513   1.579   8.813
  859SOL    HW2 3321   1.396   1.506   8.875
  860SOL     OW 3322   0.441   0.393   8.934
  860SOL    HW1 3323   0.531   0.359   8.935
  860SOL    HW2 3324   0.387   0.320   8.964
  861SOL     OW 3325   1.609   0.444   8.187
  861SOL    HW1 3326   1.529   0.464   8.138
  861SOL    HW2 3327   1.625   0.522   8.241
  862SOL     OW 3328   0.246   1.691   7.924
  862SOL    HW1 3329   0.229   1.776   7.964
  862SOL    HW2 3330   0.317   1.708   7.861
  863SOL     OW 3331   1.137   1.342   9.141
  863SOL    HW1 3332   1.177   1.336   9.228
  863SOL    HW2 3333   1.084   1.262   9.134
  864SOL     OW 3334   0.252   1.426   7.974
  864SOL    HW1 3335   0.242   1.521   7.977
  864SOL    HW2 3336   0.190   1.393   8.040
  865SOL     OW 3337   0.250   1.082   8.333
  865SOL    HW1 3338   0.266   0.992   8.358
  865SOL    HW2 3339   0.189   1.116   8.399
  866SOL     OW 3340   0.611   1.791   8.878
  866SOL    HW1 3341   0.528   1.773   8.922
  866SOL    HW2 3342   0.632   1.881   8.903
  867SOL     OW 3343   0.575   0.989   7.589
  867SOL    HW1 3344   0.625   1.030   7.517
  867SOL    HW2 3345   0.620   1.018   7.668
  868SOL     OW 3346   1.579   0.117   8.916
  868SOL    HW1 3347   1.608   0.186   8.856
  868SOL    HW2 3348   1.569   0.161   9.000
  869SOL     OW 3349   0.136   0.645   8.021
  869SOL    HW1 3350   0.085   0.566   8.042
  869SOL    HW2 3351   0.108   0.709   8.087
  870SOL     OW 3352   1.843   1.777   7.788
  870SOL    HW1 3353   1.900   1.739   7.855
  870SOL    HW2 3354   1.899   1.840   7.741
  871SOL     OW 3355   0.032   1.603   7.593
  871SOL    HW1 3356   0.020   1.509   7.587
  871SOL    HW2 3357   0.031   1.622   7.687
  872SOL     OW 3358   1.691   0.920   8.090
  872SOL    HW1 3359   1.772   0.876   8.067
  872SOL    HW2 3360   1.667   0.970   8.012
  873SOL     OW 3361   1.647   1.106   7.876
  873SOL    HW1 3362   1.733   1.110   7.835
  873SOL    HW2 3363   1.652   1.168   7.949
  874SOL     OW 3364   0.102   0.768   9.023
  874SOL    HW1 3365   0.191   0.759   8.989
  874SOL    HW2 3366   0.096   0.859   9.050
  875SOL     OW 3367   0.614   1.387   8.184
  875SOL    HW1 3368   0.568   1.304   8.194
  875SOL    HW2 3369   0.598   1.413   8.094
  876SOL     OW 3370   1.288   1.237   8.871
  876SOL    HW1 3371   1.320   1.170   8.811
  876SOL    HW2 3372   1.346   1.232   8.946
  877SOL     OW 3373   0.823   0.016   8.003
  877SOL    HW1 3374   0.859   0.101   7.976
  877SOL    HW2 3375   0.729   0.024   7.990
  878SOL     OW 3376   0.178   0.940   8.727
  878SOL    HW1 3377   0.269   0.920   8.708
  878SOL    HW2 3378   0.133   0.929   8.643
  879SOL     OW 3379   1.532   0.994   7.647
  879SOL    HW1 3380   1.461   0.938   7.680
  879SOL    HW2 3381   1.573   1.029   7.726
  880SOL     OW 3382   1.184   1.808   9.071
  880SOL    HW1 3383   1.195   1.867   8.997
  880SOL    HW2 3384   1.202   1.721   9.035
  881SOL     OW 3385   0.317   0.260   9.215
  881SOL    HW1 3386   0.385   0.310   9.260
  881SOL    HW2 3387   0.240   0.267   9.271
  882SOL     OW 3388   1.466   1.419   8.398
  882SOL    HW1 3389   1.399   1.435   8.464
  882SOL    HW2 3390   1.453   1.327   8.372
  883SOL     OW 3391   1.654   1.738   8.028
  883SOL    HW1 3392   1.632   1.708   7.940
  883SOL    HW2 3393   1.631   1.665   8.085
  884SOL     OW 3394   0.595   0.723   7.715
  884SOL    HW1 3395   0.596   0.805   7.666
  884SOL    HW2 3396   0.529   0.735   7.783
  885SOL     OW 3397   1.292   0.367   8.380
  885SOL    HW1 3398   1.203   0.338   8.363
  885SOL    HW2 3399   1.328   0.304   8.442
  886SOL     OW 3400   1.580   1.672   7.758
  886SOL    HW1 3401   1.668   1.710   7.749
  886SOL    HW2 3402   1.552   1.654   7.668
  887SOL     OW 3403   0.798   0.618   8.902
  887SOL    HW1 3404   0.769   0.592   8.989
  887SOL    HW2 3405   0.756   0.555   8.843
  888SOL     OW 3406   1.388   0.480   9.124
  888SOL    HW1 3407   1.392   0.525   9.209
  888SOL    HW2 3408   1.455   0.412   9.130
  889SOL     OW 3409   0.953   0.887   9.032
  889SOL    HW1 3410   1.008   0.817   8.995
  889SOL    HW2 3411   0.906   0.922   8.956
  890SOL     OW 3412   0.998   0.418   8.682
  890SOL    HW1 3413   0.910   0.424   8.718
  890SOL    HW2 3414   0.989   0.364   8.603
  891SOL     OW 3415   1.051   0.698   7.874
  891SOL    HW1 3416   1.068   0.690   7.968
  891SOL    HW2 3417   0.968   0.652   7.861
  892SOL     OW 3418   0.095   0.827   8.233
  892SOL    HW1 3419   0.182   0.815   8.272
  892SOL    HW2 3420   0.038   0.843   8.307
  893SOL     OW 3421   0.121   1.862   9.026
  893SOL    HW1 3422   0.115   1.837   9.119
  893SOL    HW2 3423   0.046   1.818   8.985
  894SOL     OW 3424   0.854   0.370   7.631
  894SOL    HW1 3425   0.925   0.404   7.576
  894SOL    HW2 3426   0.869   0.275   7.635
  895SOL     OW 3427   1.703   0.572   9.276
  895SOL    HW1 3428   1.667   0.646   9.228
  895SOL    HW2 3429   1.739   0.514   9.209
  896SOL     OW 3430   1.379   1.143   7.989
  896SOL    HW1 3431   1.457   1.131   7.935
  896SOL    HW2 3432   1.325   1.204   7.939
  897SOL     OW 3433   0.540   0.206   8.348
  897SOL    HW1 3434   0.561   0.224   8.440
  897SOL    HW2 3435   0.534   0.293   8.307
  898SOL     OW 3436   1.004   1.444   7.919
  898SOL    HW1 3437   0.969   1.518   7.869
  898SOL    HW2 3438   0.983   1.464   8.010
  899SOL     OW 3439   0.357   1.812   8.308
  899SOL    HW1 3440   0.398   1.727   8.318
  899SOL    HW2 3441   0.427   1.875   8.325
  900SOL     OW 3442   1.800   1.056   8.316
  900SOL    HW1 3443   1.746   1.036   8.240
  900SOL    HW2 3444   1.737   1.062   8.388
  901SOL     OW 3445   1.228   1.539   8.961
  901SOL    HW1 3446   1.214   1.466   9.022
  901SOL    HW2 3447   1.163   1.524   8.892
  902SOL     OW 3448   0.314   0.953   7.704
  902SOL    HW1 3449   0.398   0.977   7.664
  902SOL    HW2 3450   0.301   0.862   7.679
  903SOL     OW 3451   1.481   0.744   8.171
  903SOL    HW1 3452   1.471   0.702   8.256
  903SOL    HW2 3453   1.558   0.800   8.181
  904SOL     OW 3454   0.469   1.264   9.183
  904SOL    HW1 3455   0.442   1.270   9.092
  904SOL    HW2 3456   0.387   1.266   9.232
  905SOL     OW 3457   1.123   1.777   7.678
  905SOL    HW1 3458   1.048   1.737   7.723
  905SOL    HW2 3459   1.146   1.715   7.610
  906SOL     OW 3460   0.160   0.266   8.959
  906SOL    HW1 3461   0.135   0.354   8.929
  906SOL    HW2 3462   0.196   0.281   9.047
  907SOL     OW 3463   1.628   1.382   7.537
  907SOL    HW1 3464   1.585   1.466   7.520
  907SOL    HW2 3465   1.561   1.317   7.517
  908SOL     OW 3466   0.469   1.742   7.762
  908SOL    HW1 3467   0.512   1.796   7.828
  908SOL    HW2 3468   0.540   1.706   7.709
  909SOL     OW 3469   1.424   0.143   7.866
  909SOL    HW1 3470   1.408   0.088   7.789
  909SOL    HW2 3471   1.518   0.133   7.883
  910SOL     OW 3472   0.255   1.787   8.680
  910SOL    HW1 3473   0.302   1.712   8.714
  910SOL    HW2 3474   0.222   1.758   8.595
  911SOL     OW 3475   0.938   1.699   8.346
  911SOL    HW1 3476   1.015   1.648   8.369
  911SOL    HW2 3477   0.895   1.649   8.277
  912SOL     OW 3478   0.395   0.692   7.919
  912SOL    HW1 3479   0.420   0.600   7.934
  912SOL    HW2 3480   0.303   0.696   7.945
  913SOL     OW 3481   1.524   0.233   9.171
  913SOL    HW1 3482   1.525   0.255   9.264
  913SOL    HW2 3483   1.445   0.181   9.159
  914SOL     OW 3484   0.627   0.120   7.567
  914SOL    HW1 3485   0.715   0.085   7.578
  914SOL    HW2 3486   0.597   0.081   7.485
  915SOL     OW 3487   0.768   0.270   9.203
  915SOL    HW1 3488   0.836   0.203   9.206
  915SOL    HW2 3489   0.731   0.271   9.291
  916SOL     OW 3490   0.877   1.523   8.642
  916SOL    HW1 3491   0.860   1.485   8.555
  916SOL    HW2 3492   0.946   1.468   8.678
  917SOL     OW 3493   1.341   0.589   8.876
  917SOL    HW1 3494   1.368   0.561   8.963
  917SOL    HW2 3495   1.375   0.678   8.868
  918SOL     OW 3496   0.817   1.393   8.390
  918SOL    HW1 3497   0.901   1.381   8.346
  918SOL    HW2 3498   0.752   1.396   8.319
  919SOL     OW 3499   0.924   0.521   8.346
  919SOL    HW1 3500   0.907   0.519   8.252
  919SOL    HW2 3501   0.959   0.434   8.366
  920SOL     OW 3502   0.564   0.070   7.955
  920SOL    HW1 3503   0.478   0.056   7.995
  920SOL    HW2 3504   0.549   0.138   7.890
  921SOL     OW 3505   1.429   1.199   7.489
  921SOL    HW1 3506   1.458   1.123   7.539
  921SOL    HW2 3507   1.343   1.220   7.526
  922SOL     OW 3508   0.305   0.071   7.639
  922SOL    HW1 3509   0.389   0.118   7.638
  922SOL    HW2 3510   0.319   4.498   7.699
  923SOL     OW 3511   0.956   0.240   7.914
  923SOL    HW1 3512   0.903   0.301   7.863
  923SOL    HW2 3513   1.045   0.275   7.908
  924SOL     OW 3514   1.081   0.682   8.908
  924SOL    HW1 3515   1.011   0.617   8.907
  924SOL    HW2 3516   1.161   0.632   8.896
  925SOL     OW 3517   1.223   1.570   8.242
  925SOL    HW1 3518   1.238   1.637   8.175
  925SOL    HW2 3519   1.291   1.586   8.308
  926SOL     OW 3520   0.467   1.151   8.182
  926SOL    HW1 3521   0.398   1.132   8.245
  926SOL    HW2 3522   0.427   1.136   8.096
  927SOL     OW 3523   1.267   1.793   8.058
  927SOL    HW1 3524   1.313   1.855   8.001
  927SOL    HW2 3525   1.200   1.845   8.101
  928SOL     OW 3526   1.028   0.545   7.467
  928SOL    HW1 3527   0.980   0.626   7.451
  928SOL    HW2 3528   1.087   0.566   7.539
  929SOL     OW 3529   0.094   0.513   8.861
  929SOL    HW1 3530   0.150   0.520   8.783
  929SOL    HW2 3531   0.056   0.600   8.872
  930SOL     OW 3532   0.559   0.246   8.615
  930SOL    HW1 3533   0.590   0.164   8.654
  930SOL    HW2 3534   0.465   0.247   8.632
  931SOL     OW 3535   0.864   0.504   8.076
  931SOL    HW1 3536   0.824   0.542   7.998
  931SOL    HW2 3537   0.822   0.419   8.086
  932SOL     OW 3538   0.957   0.019   8.240
  932SOL    HW1 3539   0.911   0.020   8.156
  932SOL    HW2 3540   0.973   4.426   8.257
  933SOL     OW 3541   1.437   1.161   8.305
  933SOL    HW1 3542   1.368   1.096   8.305
  933SOL    HW2 3543   1.460   1.171   8.212
  934SOL     OW 3544   1.465   0.606   8.419
  934SOL    HW1 3545   1.410   0.528   8.421
  934SOL    HW2 3546   1.521   0.597   8.496
  935SOL     OW 3547   1.844   0.815   7.832
  935SOL    HW1 3548   1.901   0.765   7.889
  935SOL    HW2 3549   1.817   0.753   7.764
  936SOL     OW 3550   0.491   1.419   7.605
  936SOL    HW1 3551   0.414   1.391   7.653
  936SOL    HW2 3552   0.478   1.386   7.516
  937SOL     OW 3553   1.673   1.265   8.090
  937SOL    HW1 3554   1.767   1.268   8.106
  937SOL    HW2 3555   1.643   1.353   8.114
  938SOL     OW 3556   1.395   0.572   7.517
  938SOL    HW1 3557   1.332   0.555   7.588
  938SOL    HW2 3558   1.480   0.555   7.556
  939SOL     OW 3559   0.520   0.264   7.767
  939SOL    HW1 3560   0.571   0.215   7.702
  939SOL    HW2 3561   0.503   0.349   7.726
  940SOL     OW 3562   1.752   1.240   9.019
  940SOL    HW1 3563   1.839   1.201   9.012
  940SOL    HW2 3564   1.768   1.330   9.046
  941SOL     OW 3565   1.057   1.354   8.781
  941SOL    HW1 3566   0.982   1.323   8.832
  941SOL    HW2 3567   1.133   1.312   8.822
  942SOL     OW 3568   1.610   1.625   9.103
  942SOL    HW1 3569   1.602   1.660   9.015
  942SOL    HW2 3570   1.693   1.577   9.103
  943SOL     OW 3571   1.131   1.205   8.552
  943SOL    HW1 3572   1.071   1.243   8.617
  943SOL    HW2 3573   1.099   1.238   8.468
  944SOL     OW 3574   1.627   1.097   8.524
  944SOL    HW1 3575   1.622   1.160   8.597
  944SOL    HW2 3576   1.549   1.115   8.472
  945SOL     OW 3577   0.899   0.135   8.833
  945SOL    HW1 3578   0.922   0.089   8.752
  945SOL    HW2 3579   0.983   0.153   8.875
  946SOL     OW 3580   0.984   1.115   9.171
  946SOL    HW1 3581   0.893   1.131   9.194
  946SOL    HW2 3582   0.982   1.037   9.116
  947SOL     OW 3583   0.709   1.062   7.820
  947SOL    HW1 3584   0.696   1.044   7.913
  947SOL    HW2 3585   0.784   1.008   7.796
  948SOL     OW 3586   0.430   0.828   8.691
  948SOL    HW1 3587   0.498   0.838   8.758
  948SOL    HW2 3588   0.374   0.758   8.725
  949SOL     OW 3589   1.269   0.375   8.722
  949SOL    HW1 3590   1.301   0.453   8.766
  949SOL    HW2 3591   1.179   0.397   8.696
  950SOL     OW 3592   0.064   1.576   8.794
  950SOL    HW1 3593   0.038   1.666   8.772
  950SOL    HW2 3594   0.159   1.578   8.798
  951SOL     OW 3595   0.342   1.110   7.941
  951SOL    HW1 3596   0.354   1.184   7.882
  951SOL    HW2 3597   0.342   1.033   7.884
  952SOL     OW 3598   0.563   0.522   8.299
  952SOL    HW1 3599   0.574   0.584   8.227
  952SOL    HW2 3600   0.624   0.553   8.366
  953SOL     OW 3601   1.248   1.349   7.837
  953SOL    HW1 3602   1.303   1.420   7.869
  953SOL    HW2 3603   1.161   1.370   7.871
  954SOL     OW 3604   1.283   1.459   8.595
  954SOL    HW1 3605   1.339   1.462   8.673
  954SOL    HW2 3606   1.228   1.382   8.609
  955SOL     OW 3607   1.580   0.623   7.926
  955SOL    HW1 3608   1.533   0.670   7.995
  955SOL    HW2 3609   1.624   0.691   7.876
  956SOL     OW 3610   0.346   1.533   8.761
  956SOL    HW1 3611   0.333   1.485   8.679
  956SOL    HW2 3612   0.441   1.542   8.768
  957SOL     OW 3613   0.491   0.759   9.123
  957SOL    HW1 3614   0.517   0.797   9.038
  957SOL    HW2 3615   0.543   0.679   9.130
  958SOL     OW 3616   1.603   0.779   9.130
  958SOL    HW1 3617   1.517   0.821   9.124
  958SOL    HW2 3618   1.656   0.821   9.063
  959SOL     OW 3619   1.001   0.087   9.163
  959SOL    HW1 3620   1.039   0.166   9.127
  959SOL    HW2 3621   1.025   0.018   9.101
  960SOL     OW 3622   0.495   0.042   9.201
  960SOL    HW1 3623   0.481   4.496   9.118
  960SOL    HW2 3624   0.430   0.112   9.200
  961SOL     OW 3625   0.590   0.875   8.472
  961SOL    HW1 3626   0.622   0.965   8.475
  961SOL    HW2 3627   0.534   0.867   8.550
  962SOL     OW 3628   1.355   0.858   8.474
  962SOL    HW1 3629   1.270   0.847   8.432
  962SOL    HW2 3630   1.397   0.773   8.467
  963SOL     OW 3631   1.201   0.536   7.708
  963SOL    HW1 3632   1.208   0.456   7.760
  963SOL    HW2 3633   1.158   0.599   7.766
  964SOL     OW 3634   0.284   0.214   8.682
  964SOL    HW1 3635   0.243   0.232   8.767
  964SOL    HW2 3636   0.328   0.130   8.694
  965SOL     OW 3637   0.031   1.313   8.735
  965SOL    HW1 3638   0.072   1.264   8.807
  965SOL    HW2 3639   0.040   1.405   8.760
  966SOL     OW 3640   0.722   0.630   8.503
  966SOL    HW1 3641   0.798   0.611   8.448
  966SOL    HW2 3642   0.696   0.719   8.479
  967SOL     OW 3643   1.736   0.959   9.302
  967SOL    HW1 3644   1.690   0.896   9.246
  967SOL    HW2 3645   1.676   0.974   9.375
  968SOL     OW 3646   0.322   0.073   8.078
  968SOL    HW1 3647   0.303   0.162   8.107
  968SOL    HW2 3648   0.310   0.019   8.155
  969SOL     OW 3649   1.619   0.381   7.807
  969SOL    HW1 3650   1.644   0.316   7.872
  969SOL    HW2 3651   1.594   0.458   7.858
  970SOL     OW 3652   1.031   0.762   8.408
  970SOL    HW1 3653   1.025   0.778   8.502
  970SOL    HW2 3654   1.000   0.672   8.397
  971SOL     OW 3655   0.982   1.567   9.166
  971SOL    HW1 3656   0.967   1.610   9.083
  971SOL    HW2 3657   1.025   1.484   9.143
  972SOL     OW 3658   1.855   1.501   9.054
  972SOL    HW1 3659   1.869   1.530   8.964
  972SOL    HW2 3660   1.937   1.522   9.098
  973SOL     OW 3661   0.346   0.935   9.266
  973SOL    HW1 3662   0.417   0.967   9.322
  973SOL    HW2 3663   0.387   0.868   9.212
  974SOL     OW 3664   1.529   0.263   7.576
  974SOL    HW1 3665   1.458   0.207   7.607
  974SOL    HW2 3666   1.560   0.309   7.654
  975SOL     OW 3667   1.290   0.826   7.477
  975SOL    HW1 3668   1.332   0.740   7.480
  975SOL    HW2 3669   1.321   0.865   7.396
  976SOL     OW 3670   1.067   1.336   8.302
  976SOL    HW1 3671   1.070   1.264   8.240
  976SOL    HW2 3672   1.127   1.401   8.267
  977SOL     OW 3673   0.319   0.812   8.393
  977SOL    HW1 3674   0.413   0.830   8.392
  977SOL    HW2 3675   0.312   0.721   8.421
  978SOL     OW 3676   0.333   0.531   8.434
  978SOL    HW1 3677   0.288   0.448   8.416
  978SOL    HW2 3678   0.411   0.528   8.379
  979SOL     OW 3679   1.136   0.372   9.147
  979SOL    HW1 3680   1.085   0.435   9.197
  979SOL    HW2 3681   1.221   0.415   9.133
  980SOL     OW 3682   1.154   0.214   8.922
  980SOL    HW1 3683   1.150   0.278   8.993
  980SOL    HW2 3684   1.197   0.261   8.850
  981SOL     OW 3685   4.491   1.321   7.656
  981SOL    HW1 3686   4.398   1.338   7.637
  981SOL    HW2 3687   4.495   1.228   7.676
  982SOL     OW 3688   0.099   1.773   8.388
  982SOL    HW1 3689   0.060   1.724   8.315
  982SOL    HW2 3690   0.187   1.795   8.357
  983SOL     OW 3691   0.495   1.574   8.355
  983SOL    HW1 3692   0.563   1.637   8.379
  983SOL    HW2 3693   0.539   1.512   8.297
  984SOL     OW 3694   0.981   0.792   8.674
  984SOL    HW1 3695   1.038   0.770   8.748
  984SOL    HW2 3696   0.897   0.752   8.696
  985SOL     OW 3697   0.035   0.568   8.558
  985SOL    HW1 3698   0.112   0.528   8.516
  985SOL    HW2 3699   0.007   0.502   8.622
  986SOL     OW 3700   0.179   0.529   9.163
  986SOL    HW1 3701   0.267   0.511   9.129
  986SOL    HW2 3702   0.151   0.608   9.115
  987SOL     OW 3703   1.379   0.937   9.106
  987SOL    HW1 3704   1.400   1.031   9.103
  987SOL    HW2 3705   1.375   0.911   9.014
  988SOL     OW 3706   0.811   0.575   7.806
  988SOL    HW1 3707   0.815   0.504   7.741
  988SOL    HW2 3708   0.739   0.631   7.776
  989SOL     OW 3709   1.639   0.601   8.632
  989SOL    HW1 3710   1.629   0.543   8.707
  989SOL    HW2 3711   1.727   0.582   8.598
  990SOL     OW 3712   0.273   1.562   9.188
  990SOL    HW1 3713   0.215   1.613   9.244
  990SOL    HW2 3714   0.255   1.471   9.211
  991SOL     OW 3715   0.692   0.463   8.713
  991SOL    HW1 3716   0.649   0.384   8.680
  991SOL    HW2 3717   0.695   0.522   8.638
  992SOL     OW 3718   0.926   1.679   8.917
  992SOL    HW1 3719   0.901   1.642   8.832
  992SOL    HW2 3720   0.920   1.774   8.905
  993SOL     OW 3721   0.472   0.491   7.629
  993SOL    HW1 3722   0.533   0.561   7.653
  993SOL    HW2 3723   0.389   0.535   7.613
  994SOL     OW 3724   0.161   1.141   8.907
  994SOL    HW1 3725   0.144   1.097   8.991
  994SOL    HW2 3726   0.168   1.070   8.844
  995SOL     OW 3727   1.324   1.045   8.670
  995SOL    HW1 3728   1.347   0.982   8.602
  995SOL    HW2 3729   1.255   1.099   8.631
  996SOL     OW 3730   1.314   0.856   7.753
  996SOL    HW1 3731   1.239   0.828   7.806
  996SOL    HW2 3732   1.286   0.844   7.663
  997SOL     OW 3733   1.765   1.737   8.600
  997SOL    HW1 3734   1.829   1.769   8.536
  997SOL    HW2 3735   1.749   1.647   8.574
  998SOL     OW 3736   1.240   1.733   8.557
  998SOL    HW1 3737   1.323   1.755   8.515
  998SOL    HW2 3738   1.248   1.639   8.577
  999SOL     OW 3739   0.067   1.184   8.498
  999SOL    HW1 3740   0.061   1.215   8.589
  999SOL    HW2 3741   0.030   1.256   8.446
 1000SOL     OW 3742   0.679   1.667   9.181
 1000SOL    HW1 3743   0.622   1.743   9.173
 1000SOL    HW2 3744   0.745   1.679   9.112
 1001SOL     OW 3745   1.719   0.129   7.937
 1001SOL    HW1 3746   1.788   0.140   7.872
 1001SOL    HW2 3747   1.750   0.058   7.994
 1002SOL     OW 3748   1.391   1.567   7.935
 1002SOL    HW1 3749   1.449   1.601   7.867
 1002SOL    HW2 3750   1.341   1.644   7.964
 1003SOL     OW 3751   0.117   1.808   9.297
 1003SOL    HW1 3752   0.077   1.736   9.345
 1003SOL    HW2 3753   0.181   1.845   9.357
 1004SOL     OW 3754   1.279   0.928   8.120
 1004SOL    HW1 3755   1.352   0.867   8.127
 1004SOL    HW2 3756   1.313   1.000   8.067
 1005SOL     OW 3757   0.812   1.275   8.876
 1005SOL    HW1 3758   0.784   1.314   8.959
 1005SOL    HW2 3759   0.741   1.296   8.815
 1006SOL     OW 3760   0.672   1.622   7.603
 1006SOL    HW1 3761   0.683   1.634   7.509
 1006SOL    HW2 3762   0.617   1.544   7.611
 1007SOL     OW 3763   1.620   1.724   8.839
 1007SOL    HW1 3764   1.671   1.732   8.758
 1007SOL    HW2 3765   1.607   1.815   8.867
 1008SOL     OW 3766   1.839   0.153   8.413
 1008SOL    HW1 3767   1.868   0.074   8.367
 1008SOL    HW2 3768   1.752   0.171   8.377
 1009SOL     OW 3769   0.261   0.324   8.169
 1009SOL    HW1 3770   0.177   0.358   8.136
 1009SOL    HW2 3771   0.247   0.313   8.263
 1010SOL     OW 3772   1.208   1.605   7.480
 1010SOL    HW1 3773   1.198   1.513   7.507
 1010SOL    HW2 3774   1.143   1.617   7.411
 1011SOL     OW 3775   0.826   1.007   8.821
 1011SOL    HW1 3776   0.869   1.003   8.735
 1011SOL    HW2 3777   0.824   1.101   8.842
 1012SOL     OW 3778   0.915   0.910   7.738
 1012SOL    HW1 3779   0.977   0.942   7.672
 1012SOL    HW2 3780   0.963   0.841   7.784
 1013SOL     OW 3781   1.491   1.627   7.491
 1013SOL    HW1 3782   1.397   1.619   7.477
 1013SOL    HW2 3783   1.528   1.633   7.403
 1014SOL     OW 3784   0.373   1.309   8.939
 1014SOL    HW1 3785   0.355   1.387   8.887
 1014SOL    HW2 3786   0.298   1.251   8.921
 1015SOL     OW 3787   1.609   1.283   8.727
 1015SOL    HW1 3788   1.672   1.272   8.799
 1015SOL    HW2 3789   1.550   1.352   8.757
 1016SOL     OW 3790   1.055   1.108   8.155
 1016SOL    HW1 3791   0.983   1.058   8.194
 1016SOL    HW2 3792   1.118   1.042   8.127
 1017SOL     OW 3793   1.002   0.246   8.458
 1017SOL    HW1 3794   1.008   0.227   8.364
 1017SOL    HW2 3795   0.995   0.160   8.499
 1018SOL     OW 3796   0.605   1.489   7.930
 1018SOL    HW1 3797   0.649   1.439   7.860
 1018SOL    HW2 3798   0.529   1.528   7.887
 1019SOL     OW 3799   1.723   0.394   8.824
 1019SOL    HW1 3800   1.796   0.456   8.824
 1019SOL    HW2 3801   1.752   0.323   8.767
 1020SOL     OW 3802   0.252   1.343   7.723
 1020SOL    HW1 3803   0.157   1.341   7.710
 1020SOL    HW2 3804   0.263   1.375   7.812
 1021SOL     OW 3805   0.115   1.006   9.142
 1021SOL    HW1 3806   0.053   1.052   9.198
 1021SOL    HW2 3807   0.194   0.998   9.196
 1022SOL     OW 3808   0.658   0.210   8.947
 1022SOL    HW1 3809   0.737   0.183   8.900
 1022SOL    HW2 3810   0.688   0.227   9.036
 1023SOL     OW 3811   0.073   0.320   7.473
 1023SOL    HW1 3812   4.479   0.327   7.491
 1023SOL    HW2 3813   0.098   0.407   7.443
 1024SOL     OW 3814   1.428   0.858   8.847
 1024SOL    HW1 3815   1.379   0.919   8.792
 1024SOL    HW2 3816   1.517   0.861   8.812
 1025SOL     OW 3817   0.086   0.188   7.750
 1025SOL    HW1 3818   0.075   0.262   7.690
 1025SOL    HW2 3819   0.166   0.144   7.721
 1026SOL     OW 3820   1.178   1.338   7.565
 1026SOL    HW1 3821   1.088   1.308   7.567
 1026SOL    HW2 3822   1.206   1.338   7.657
 1027SOL     OW 3823   0.625   0.829   8.880
 1027SOL    HW1 3824   0.680   0.907   8.865
 1027SOL    HW2 3825   0.687   0.757   8.887
 1028SOL     OW 3826   1.485   1.778   8.429
 1028SOL    HW1 3827   1.505   1.841   8.360
 1028SOL    HW2 3828   1.568   1.762   8.473
 1029SOL     OW 3829   0.711   0.563   9.153
 1029SOL    HW1 3830   0.755   0.626   9.210
 1029SOL    HW2 3831   0.742   0.478   9.184
 1030SOL     OW 3832   1.473   1.198   9.079
 1030SOL    HW1 3833   1.460   1.213   9.173
 1030SOL    HW2 3834   1.566   1.215   9.064
 1031SOL     OW 3835   0.378   1.745   9.013
 1031SOL    HW1 3836   0.293   1.786   8.994
 1031SOL    HW2 3837   0.355   1.666   9.062
 1032SOL     OW 3838   1.668   0.881   8.703
 1032SOL    HW1 3839   1.661   0.796   8.659
 1032SOL    HW2 3840   1.658   0.945   8.633
 1033SOL     OW 3841   1.219   0.332   7.894
 1033SOL    HW1 3842   1.285   0.264   7.882
 1033SOL    HW2 3843   1.247   0.379   7.973
 1034SOL     OW 3844   0.586   0.736   8.120
 1034SOL    HW1 3845   0.627   0.821   8.106
 1034SOL    HW2 3846   0.520   0.729   8.051
 1035SOL     OW 3847   1.760   0.368   9.092
 1035SOL    HW1 3848   1.744   0.382   8.999
 1035SOL    HW2 3849   1.682   0.321   9.123
 1036SOL     OW 3850   1.746   0.933   8.960
 1036SOL    HW1 3851   1.741   1.028   8.974
 1036SOL    HW2 3852   1.730   0.922   8.866
 1037SOL     OW 3853   0.864   1.366   7.485
 1037SOL    HW1 3854   0.825   1.393   7.568
 1037SOL    HW2 3855   0.880   1.448   7.438
 1038SOL     OW 3856   0.661   1.790   8.391
 1038SOL    HW1 3857   0.642   1.880   8.368
 1038SOL    HW2 3858   0.757   1.783   8.383
 1039SOL     OW 3859   0.869   0.969   8.302
 1039SOL    HW1 3860   0.919   0.897   8.340
 1039SOL    HW2 3861   0.832   1.015   8.377
 1040SOL     OW 3862   1.079   0.989   7.537
 1040SOL    HW1 3863   1.056   1.039   7.459
 1040SOL    HW2 3864   1.153   0.935   7.510
 1041SOL     OW 3865   1.850   1.544   8.286
 1041SOL    HW1 3866   1.766   1.537   8.240
 1041SOL    HW2 3867   1.840   1.489   8.363
 1042SOL     OW 3868   0.232   1.305   9.307
 1042SOL    HW1 3869   0.153   1.253   9.288
 1042SOL    HW2 3870   0.230   1.315   9.402
 1043SOL     OW 3871   0.112   1.232   8.116
 1043SOL    HW1 3872   0.129   1.190   8.201
 1043SOL    HW2 3873   0.170   1.187   8.055
 1044SOL     OW 3874   0.683   1.404   9.077
 1044SOL    HW1 3875   0.603   1.361   9.107
 1044SOL    HW2 3876   0.678   1.492   9.115
 1045SOL     OW 3877   1.806   0.179   8.686
 1045SOL    HW1 3878   1.803   0.086   8.706
 1045SOL    HW2 3879   1.823   0.183   8.592
 1046SOL     OW 3880   0.443   0.430   7.981
 1046SOL    HW1 3881   0.457   0.360   7.917
 1046SOL    HW2 3882   0.381   0.392   8.044
 1047SOL     OW 3883   1.704   1.482   8.535
 1047SOL    HW1 3884   1.620   1.462   8.493
 1047SOL    HW2 3885   1.712   1.417   8.604
 1048SOL     OW 3886   0.310   0.506   8.699
 1048SOL    HW1 3887   0.382   0.456   8.737
 1048SOL    HW2 3888   0.334   0.517   8.607
 1049SOL     OW 3889   0.829   1.578   8.125
 1049SOL    HW1 3890   0.812   1.635   8.050
 1049SOL    HW2 3891   0.753   1.519   8.127
 1050SOL     OW 3892   1.431   0.216   8.565
 1050SOL    HW1 3893   1.466   0.145   8.618
 1050SOL    HW2 3894   1.381   0.269   8.627
 1051SOL     OW 3895   0.995   0.004   8.601
 1051SOL    HW1 3896   0.955   4.417   8.593
 1051SOL    HW2 3897   1.089   4.486   8.610
 1052SOL     OW 3898   0.773   1.333   7.764
 1052SOL    HW1 3899   0.743   1.242   7.771
 1052SOL    HW2 3900   0.854   1.335   7.814
 1053SOL     OW 3901   0.621   1.555   8.734
 1053SOL    HW1 3902   0.622   1.637   8.784
 1053SOL    HW2 3903   0.708   1.549   8.696
 1054SOL     OW 3904   1.339   0.052   7.604
 1054SOL    HW1 3905   1.377   4.476   7.560
 1054SOL    HW2 3906   1.263   0.017   7.651
 1055SOL     OW 3907   1.315   0.464   8.122
 1055SOL    HW1 3908   1.257   0.540   8.123
 1055SOL    HW2 3909   1.303   0.424   8.208
 1056SOL     OW 3910   1.585   0.199   8.316
 1056SOL    HW1 3911   1.527   0.214   8.391
 1056SOL    HW2 3912   1.588   0.283   8.270
 1057SOL     OW 3913   0.040   1.050   7.737
 1057SOL    HW1 3914   0.133   1.030   7.726
 1057SOL    HW2 3915   0.021   1.023   7.827
 1058SOL     OW 3916   0.887   1.655   7.788
 1058SOL    HW1 3917   0.813   1.638   7.730
 1058SOL    HW2 3918   0.858   1.729   7.842
 1059SOL     OW 3919   0.245   0.628   9.433
 1059SOL    HW1 3920   0.171   0.603   9.488
 1059SOL    HW2 3921   0.213   0.616   9.344
 1060SOL     OW 3922   0.195   0.293  10.300
 1060SOL    HW1 3923   0.226   0.266  10.386
 1060SOL    HW2 3924   0.133   0.225  10.274
 1061SOL     OW 3925   0.002   0.386   9.948
 1061SOL    HW1 3926   4.425   0.423   9.992
 1061SOL    HW2 3927   4.468   0.314   9.896
 1062SOL     OW 3928   0.568   1.291  10.489
 1062SOL    HW1 3929   0.482   1.295  10.448
 1062SOL    HW2 3930   0.583   1.379  10.523
 1063SOL     OW 3931   1.564   1.512  10.018
 1063SOL    HW1 3932   1.522   1.491  10.101
 1063SOL    HW2 3933   1.492   1.516   9.955
 1064SOL     OW 3934   1.137   0.697  10.006
 1064SOL    HW1 3935   1.182   0.782   9.997
 1064SOL    HW2 3936   1.086   0.706  10.087
 1065SOL     OW 3937   1.770   0.605   9.536
 1065SOL    HW1 3938   1.748   0.597   9.444
 1065SOL    HW2 3939   1.736   0.526   9.577
 1066SOL     OW 3940   0.753   1.141  10.353
 1066SOL    HW1 3941   0.685   1.177  10.410
 1066SOL    HW2 3942   0.789   1.217  10.308
 1067SOL     OW 3943   0.857   0.771   0.022
 1067SOL    HW1 3944   0.864   0.826   0.101
 1067SOL    HW2 3945   0.889   0.826  11.051
 1068SOL     OW 3946   0.685   1.001   9.956
 1068SOL    HW1 3947   0.751   0.990  10.025
 1068SOL    HW2 3948   0.616   1.053   9.998
 1069SOL     OW 3949   0.335   1.419  10.377
 1069SOL    HW1 3950   0.253   1.399  10.332
 1069SOL    HW2 3951   0.384   1.473  10.316
 1070SOL     OW 3952   1.463   1.499  10.662
 1070SOL    HW1 3953   1.521   1.575  10.668
 1070SOL    HW2 3954   1.403   1.508  10.736
 1071SOL     OW 3955   0.442   0.387  10.783
 1071SOL    HW1 3956   0.528   0.345  10.780
 1071SOL    HW2 3957   0.399   0.349  10.860
 1072SOL     OW 3958   1.609   0.444  10.049
 1072SOL    HW1 3959   1.529   0.464  10.000
 1072SOL    HW2 3960   1.625   0.522  10.103
 1073SOL     OW 3961   0.246   1.691   9.786
 1073SOL    HW1 3962   0.229   1.776   9.826
 1073SOL    HW2 3963   0.316   1.708   9.723
 1074SOL     OW 3964   0.252   1.426   9.836
 1074SOL    HW1 3965   0.242   1.521   9.839
 1074SOL    HW2 3966   0.190   1.393   9.901
 1075SOL     OW 3967   0.250   1.083  10.195
 1075SOL    HW1 3968   0.265   0.992  10.220
 1075SOL    HW2 3969   0.189   1.116  10.261
 1076SOL     OW 3970   0.609   1.790  10.737
 1076SOL    HW1 3971   0.529   1.771  10.787
 1076SOL    HW2 3972   0.632   1.880  10.762
 1077SOL     OW 3973   0.575   0.989   9.451
 1077SOL    HW1 3974   0.625   1.030   9.379
 1077SOL    HW2 3975   0.620   1.018   9.530
 1078SOL     OW 3976   1.552   0.138  10.787
 1078SOL    HW1 3977   1.595   0.194  10.723
 1078SOL    HW2 3978   1.618   0.125  10.856
 1079SOL     OW 3979   0.135   0.645   9.883
 1079SOL    HW1 3980   0.086   0.566   9.904
 1079SOL    HW2 3981   0.108   0.709   9.949
 1080SOL     OW 3982   1.841   1.738   9.647
 1080SOL    HW1 3983   1.912   1.722   9.709
 1080SOL    HW2 3984   1.846   1.832   9.629
 1081SOL     OW 3985   0.032   1.603   9.455
 1081SOL    HW1 3986   0.020   1.509   9.449
 1081SOL    HW2 3987   0.031   1.622   9.549
 1082SOL     OW 3988   1.690   0.920   9.952
 1082SOL    HW1 3989   1.772   0.876   9.929
 1082SOL    HW2 3990   1.667   0.970   9.874
 1083SOL     OW 3991   1.647   1.106   9.739
 1083SOL    HW1 3992   1.733   1.110   9.697
 1083SOL    HW2 3993   1.652   1.168   9.811
 1084SOL     OW 3994   0.094   0.765  10.909
 1084SOL    HW1 3995   0.180   0.745  10.873
 1084SOL    HW2 3996   0.092   0.860  10.915
 1085SOL     OW 3997   0.614   1.387  10.046
 1085SOL    HW1 3998   0.568   1.304  10.056
 1085SOL    HW2 3999   0.598   1.413   9.956
 1086SOL     OW 4000   1.292   1.236  10.753
 1086SOL    HW1 4001   1.317   1.176  10.683
 1086SOL    HW2 4002   1.349   1.214  10.826
 1087SOL     OW 4003   0.823   0.016   9.864
 1087SOL    HW1 4004   0.858   0.101   9.838
 1087SOL    HW2 4005   0.729   0.024   9.852
 1088SOL     OW 4006   0.175   0.938  10.589
 1088SOL    HW1 4007   0.267   0.918  10.572
 1088SOL    HW2 4008   0.132   0.928  10.505
 1089SOL     OW 4009   1.531   0.994   9.509
 1089SOL    HW1 4010   1.461   0.938   9.542
 1089SOL    HW2 4011   1.573   1.029   9.588
 1090SOL     OW 4012   1.195   1.806  10.929
 1090SOL    HW1 4013   1.194   1.871  10.858
 1090SOL    HW2 4014   1.206   1.722  10.884
 1091SOL     OW 4015   0.325   0.298  11.052
 1091SOL    HW1 4016   0.388   0.336   0.013
 1091SOL    HW2 4017   0.244   0.290   0.004
 1092SOL     OW 4018   1.467   1.419  10.259
 1092SOL    HW1 4019   1.399   1.436  10.325
 1092SOL    HW2 4020   1.453   1.328  10.233
 1093SOL     OW 4021   1.654   1.743   9.889
 1093SOL    HW1 4022   1.637   1.710   9.801
 1093SOL    HW2 4023   1.632   1.670   9.946
 1094SOL     OW 4024   0.595   0.723   9.577
 1094SOL    HW1 4025   0.596   0.805   9.528
 1094SOL    HW2 4026   0.529   0.735   9.645
 1095SOL     OW 4027   1.293   0.367  10.242
 1095SOL    HW1 4028   1.203   0.338  10.226
 1095SOL    HW2 4029   1.328   0.303  10.305
 1096SOL     OW 4030   1.575   1.670   9.619
 1096SOL    HW1 4031   1.668   1.689   9.613
 1096SOL    HW2 4032   1.548   1.654   9.528
 1097SOL     OW 4033   0.798   0.618  10.763
 1097SOL    HW1 4034   0.769   0.591  10.850
 1097SOL    HW2 4035   0.760   0.554  10.704
 1098SOL     OW 4036   0.965   0.900  10.905
 1098SOL    HW1 4037   1.014   0.828  10.864
 1098SOL    HW2 4038   0.915   0.939  10.833
 1099SOL     OW 4039   0.998   0.420  10.542
 1099SOL    HW1 4040   0.910   0.424  10.579
 1099SOL    HW2 4041   0.990   0.365  10.464
 1100SOL     OW 4042   1.051   0.698   9.736
 1100SOL    HW1 4043   1.068   0.690   9.830
 1100SOL    HW2 4044   0.968   0.652   9.723
 1101SOL     OW 4045   0.095   0.828  10.095
 1101SOL    HW1 4046   0.182   0.815  10.133
 1101SOL    HW2 4047   0.037   0.843  10.169
 1102SOL     OW 4048   0.117   1.850  10.901
 1102SOL    HW1 4049   0.113   1.789  10.974
 1102SOL    HW2 4050   0.051   1.818  10.839
 1103SOL     OW 4051   0.854   0.370   9.492
 1103SOL    HW1 4052   0.925   0.403   9.438
 1103SOL    HW2 4053   0.869   0.275   9.497
 1104SOL     OW 4054   1.379   1.143   9.850
 1104SOL    HW1 4055   1.457   1.131   9.797
 1104SOL    HW2 4056   1.325   1.204   9.800
 1105SOL     OW 4057   0.541   0.207  10.210
 1105SOL    HW1 4058   0.560   0.225  10.302
 1105SOL    HW2 4059   0.534   0.294  10.170
 1106SOL     OW 4060   1.004   1.444   9.781
 1106SOL    HW1 4061   0.969   1.518   9.731
 1106SOL    HW2 4062   0.983   1.464   9.872
 1107SOL     OW 4063   0.356   1.812  10.170
 1107SOL    HW1 4064   0.398   1.727  10.180
 1107SOL    HW2 4065   0.426   1.876  10.188
 1108SOL     OW 4066   1.800   1.055  10.178
 1108SOL    HW1 4067   1.746   1.035  10.102
 1108SOL    HW2 4068   1.738   1.062  10.251
 1109SOL     OW 4069   1.229   1.535  10.823
 1109SOL    HW1 4070   1.238   1.445  10.855
 1109SOL    HW2 4071   1.164   1.529  10.754
 1110SOL     OW 4072   0.314   0.953   9.566
 1110SOL    HW1 4073   0.398   0.977   9.526
 1110SOL    HW2 4074   0.301   0.862   9.541
 1111SOL     OW 4075   1.481   0.744  10.033
 1111SOL    HW1 4076   1.471   0.702  10.119
 1111SOL    HW2 4077   1.558   0.800  10.043
 1112SOL     OW 4078   0.455   1.267  11.052
 1112SOL    HW1 4079   0.426   1.282  10.962
 1112SOL    HW2 4080   0.390   1.207  11.089
 1113SOL     OW 4081   1.123   1.778   9.540
 1113SOL    HW1 4082   1.049   1.737   9.585
 1113SOL    HW2 4083   1.146   1.716   9.472
 1114SOL     OW 4084   0.158   0.259  10.822
 1114SOL    HW1 4085   0.135   0.347  10.794
 1114SOL    HW2 4086   0.207   0.272  10.903
 1115SOL     OW 4087   1.628   1.380   9.400
 1115SOL    HW1 4088   1.587   1.465   9.383
 1115SOL    HW2 4089   1.560   1.317   9.379
 1116SOL     OW 4090   0.469   1.742   9.624
 1116SOL    HW1 4091   0.512   1.796   9.690
 1116SOL    HW2 4092   0.540   1.706   9.571
 1117SOL     OW 4093   1.424   0.143   9.728
 1117SOL    HW1 4094   1.408   0.088   9.651
 1117SOL    HW2 4095   1.518   0.133   9.745
 1118SOL     OW 4096   0.253   1.788  10.544
 1118SOL    HW1 4097   0.302   1.714  10.580
 1118SOL    HW2 4098   0.224   1.757  10.457
 1119SOL     OW 4099   0.938   1.699  10.208
 1119SOL    HW1 4100   1.017   1.649  10.229
 1119SOL    HW2 4101   0.895   1.649  10.139
 1120SOL     OW 4102   0.395   0.692   9.781
 1120SOL    HW1 4103   0.420   0.600   9.796
 1120SOL    HW2 4104   0.303   0.696   9.807
 1121SOL     OW 4105   0.627   0.120   9.429
 1121SOL    HW1 4106   0.715   0.085   9.441
 1121SOL    HW2 4107   0.597   0.081   9.347
 1122SOL     OW 4108   0.764   0.275  11.044
 1122SOL    HW1 4109   0.827   0.206  11.068
 1122SOL    HW2 4110   0.709   0.285   0.021
 1123SOL     OW 4111   0.876   1.522  10.504
 1123SOL    HW1 4112   0.859   1.486  10.416
 1123SOL    HW2 4113   0.948   1.470  10.538
 1124SOL     OW 4114   1.344   0.591  10.754
 1124SOL    HW1 4115   1.395   0.574  10.833
 1124SOL    HW2 4116   1.369   0.680  10.728
 1125SOL     OW 4117   0.817   1.393  10.252
 1125SOL    HW1 4118   0.901   1.381  10.208
 1125SOL    HW2 4119   0.752   1.396  10.181
 1126SOL     OW 4120   0.924   0.521  10.208
 1126SOL    HW1 4121   0.908   0.519  10.114
 1126SOL    HW2 4122   0.958   0.434  10.229
 1127SOL     OW 4123   0.564   0.070   9.817
 1127SOL    HW1 4124   0.478   0.056   9.857
 1127SOL    HW2 4125   0.549   0.138   9.752
 1128SOL     OW 4126   1.428   1.199   9.351
 1128SOL    HW1 4127   1.457   1.123   9.401
 1128SOL    HW2 4128   1.342   1.220   9.388
 1129SOL     OW 4129   0.305   0.071   9.501
 1129SOL    HW1 4130   0.389   0.118   9.500
 1129SOL    HW2 4131   0.319   4.498   9.561
 1130SOL     OW 4132   0.956   0.240   9.775
 1130SOL    HW1 4133   0.903   0.301   9.725
 1130SOL    HW2 4134   1.045   0.275   9.770
 1131SOL     OW 4135   1.079   0.688  10.772
 1131SOL    HW1 4136   1.008   0.624  10.772
 1131SOL    HW2 4137   1.159   0.634  10.769
 1132SOL     OW 4138   1.222   1.571  10.105
 1132SOL    HW1 4139   1.238   1.637  10.037
 1132SOL    HW2 4140   1.291   1.586  10.169
 1133SOL     OW 4141   0.467   1.151  10.044
 1133SOL    HW1 4142   0.398   1.132  10.107
 1133SOL    HW2 4143   0.427   1.136   9.959
 1134SOL     OW 4144   1.267   1.793   9.919
 1134SOL    HW1 4145   1.313   1.855   9.863
 1134SOL    HW2 4146   1.200   1.846   9.963
 1135SOL     OW 4147   1.028   0.545   9.329
 1135SOL    HW1 4148   0.980   0.626   9.313
 1135SOL    HW2 4149   1.087   0.565   9.401
 1136SOL     OW 4150   0.088   0.511  10.725
 1136SOL    HW1 4151   0.150   0.520  10.652
 1136SOL    HW2 4152   0.062   0.601  10.746
 1137SOL     OW 4153   0.558   0.247  10.478
 1137SOL    HW1 4154   0.586   0.161  10.510
 1137SOL    HW2 4155   0.465   0.251  10.499
 1138SOL     OW 4156   0.864   0.504   9.938
 1138SOL    HW1 4157   0.824   0.542   9.860
 1138SOL    HW2 4158   0.822   0.419   9.948
 1139SOL     OW 4159   0.958   0.019  10.102
 1139SOL    HW1 4160   0.911   0.020  10.018
 1139SOL    HW2 4161   0.973   4.426  10.119
 1140SOL     OW 4162   1.437   1.162  10.167
 1140SOL    HW1 4163   1.368   1.095  10.167
 1140SOL    HW2 4164   1.461   1.172  10.074
 1141SOL     OW 4165   1.464   0.607  10.281
 1141SOL    HW1 4166   1.410   0.529  10.283
 1141SOL    HW2 4167   1.521   0.598  10.358
 1142SOL     OW 4168   1.844   0.815   9.694
 1142SOL    HW1 4169   1.901   0.764   9.751
 1142SOL    HW2 4170   1.817   0.753   9.626
 1143SOL     OW 4171   0.491   1.420   9.467
 1143SOL    HW1 4172   0.414   1.391   9.515
 1143SOL    HW2 4173   0.478   1.386   9.378
 1144SOL     OW 4174   1.673   1.265   9.953
 1144SOL    HW1 4175   1.767   1.267   9.968
 1144SOL    HW2 4176   1.643   1.353   9.976
 1145SOL     OW 4177   1.395   0.572   9.379
 1145SOL    HW1 4178   1.332   0.555   9.450
 1145SOL    HW2 4179   1.480   0.555   9.418
 1146SOL     OW 4180   0.520   0.264   9.629
 1146SOL    HW1 4181   0.571   0.215   9.564
 1146SOL    HW2 4182   0.503   0.349   9.588
 1147SOL     OW 4183   1.760   1.229  10.864
 1147SOL    HW1 4184   1.852   1.202  10.860
 1147SOL    HW2 4185   1.762   1.316  10.904
 1148SOL     OW 4186   1.062   1.353  10.649
 1148SOL    HW1 4187   0.983   1.321  10.693
 1148SOL    HW2 4188   1.134   1.305  10.689
 1149SOL     OW 4189   1.132   1.209  10.414
 1149SOL    HW1 4190   1.066   1.242  10.475
 1149SOL    HW2 4191   1.102   1.238  10.328
 1150SOL     OW 4192   1.628   1.098  10.387
 1150SOL    HW1 4193   1.624   1.159  10.460
 1150SOL    HW2 4194   1.549   1.116  10.336
 1151SOL     OW 4195   0.895   0.128  10.695
 1151SOL    HW1 4196   0.923   0.088  10.612
 1151SOL    HW2 4197   0.977   0.154  10.737
 1152SOL     OW 4198   0.709   1.062   9.682
 1152SOL    HW1 4199   0.696   1.044   9.775
 1152SOL    HW2 4200   0.784   1.008   9.658
 1153SOL     OW 4201   0.428   0.827  10.554
 1153SOL    HW1 4202   0.496   0.834  10.621
 1153SOL    HW2 4203   0.371   0.756  10.586
 1154SOL     OW 4204   1.271   0.383  10.582
 1154SOL    HW1 4205   1.301   0.459  10.631
 1154SOL    HW2 4206   1.181   0.405  10.557
 1155SOL     OW 4207   0.065   1.579  10.661
 1155SOL    HW1 4208   0.041   1.665  10.627
 1155SOL    HW2 4209   0.160   1.578  10.661
 1156SOL     OW 4210   0.342   1.110   9.803
 1156SOL    HW1 4211   0.354   1.184   9.744
 1156SOL    HW2 4212   0.342   1.033   9.746
 1157SOL     OW 4213   0.563   0.522  10.161
 1157SOL    HW1 4214   0.574   0.584  10.089
 1157SOL    HW2 4215   0.624   0.552  10.229
 1158SOL     OW 4216   1.248   1.349   9.699
 1158SOL    HW1 4217   1.303   1.420   9.731
 1158SOL    HW2 4218   1.161   1.370   9.733
 1159SOL     OW 4219   1.282   1.460  10.456
 1159SOL    HW1 4220   1.340   1.463  10.532
 1159SOL    HW2 4221   1.230   1.381  10.469
 1160SOL     OW 4222   1.580   0.623   9.788
 1160SOL    HW1 4223   1.533   0.670   9.856
 1160SOL    HW2 4224   1.624   0.691   9.738
 1161SOL     OW 4225   0.345   1.530  10.622
 1161SOL    HW1 4226   0.333   1.483  10.539
 1161SOL    HW2 4227   0.440   1.542  10.629
 1162SOL     OW 4228   0.497   0.748  10.976
 1162SOL    HW1 4229   0.531   0.784  10.894
 1162SOL    HW2 4230   0.544   0.666  10.988
 1163SOL     OW 4231   1.597   0.756  10.967
 1163SOL    HW1 4232   1.520   0.812  10.961
 1163SOL    HW2 4233   1.667   0.807  10.924
 1164SOL     OW 4234   0.589   0.875  10.335
 1164SOL    HW1 4235   0.620   0.966  10.338
 1164SOL    HW2 4236   0.533   0.866  10.412
 1165SOL     OW 4237   1.355   0.861  10.341
 1165SOL    HW1 4238   1.271   0.850  10.297
 1165SOL    HW2 4239   1.398   0.776  10.333
 1166SOL     OW 4240   1.201   0.536   9.570
 1166SOL    HW1 4241   1.208   0.456   9.622
 1166SOL    HW2 4242   1.158   0.599   9.628
 1167SOL     OW 4243   0.284   0.212  10.546
 1167SOL    HW1 4244   0.251   0.230  10.634
 1167SOL    HW2 4245   0.326   0.126  10.553
 1168SOL     OW 4246   0.033   1.315  10.596
 1168SOL    HW1 4247   0.071   1.265  10.668
 1168SOL    HW2 4248   0.039   1.407  10.624
 1169SOL     OW 4249   0.722   0.630  10.365
 1169SOL    HW1 4250   0.798   0.611  10.309
 1169SOL    HW2 4251   0.696   0.719  10.341
 1170SOL     OW 4252   0.322   0.073   9.940
 1170SOL    HW1 4253   0.303   0.162   9.970
 1170SOL    HW2 4254   0.311   0.019  10.018
 1171SOL     OW 4255   1.619   0.381   9.669
 1171SOL    HW1 4256   1.644   0.316   9.734
 1171SOL    HW2 4257   1.594   0.458   9.720
 1172SOL     OW 4258   1.030   0.763  10.270
 1172SOL    HW1 4259   1.024   0.778  10.365
 1172SOL    HW2 4260   1.000   0.673  10.259
 1173SOL     OW 4261   0.972   1.573  11.004
 1173SOL    HW1 4262   0.958   1.623  10.924
 1173SOL    HW2 4263   1.002   1.487  10.973
 1174SOL     OW 4264   1.857   1.489  10.913
 1174SOL    HW1 4265   1.871   1.524  10.825
 1174SOL    HW2 4266   1.917   1.539  10.969
 1175SOL     OW 4267   0.348   0.936  11.091
 1175SOL    HW1 4268   0.419   0.965   0.048
 1175SOL    HW2 4269   0.385   0.863  11.042
 1176SOL     OW 4270   1.529   0.263   9.438
 1176SOL    HW1 4271   1.458   0.207   9.469
 1176SOL    HW2 4272   1.560   0.309   9.516
 1177SOL     OW 4273   1.290   0.826   9.339
 1177SOL    HW1 4274   1.332   0.740   9.342
 1177SOL    HW2 4275   1.321   0.865   9.258
 1178SOL     OW 4276   1.067   1.336  10.165
 1178SOL    HW1 4277   1.070   1.264  10.102
 1178SOL    HW2 4278   1.127   1.401  10.129
 1179SOL     OW 4279   0.319   0.812  10.255
 1179SOL    HW1 4280   0.413   0.830  10.254
 1179SOL    HW2 4281   0.312   0.721  10.283
 1180SOL     OW 4282   0.333   0.531  10.297
 1180SOL    HW1 4283   0.288   0.448  10.281
 1180SOL    HW2 4284   0.411   0.528  10.242
 1181SOL     OW 4285   1.144   0.219  10.767
 1181SOL    HW1 4286   1.181   0.246  10.851
 1181SOL    HW2 4287   1.191   0.271  10.702
 1182SOL     OW 4288   4.491   1.321   9.518
 1182SOL    HW1 4289   4.398   1.338   9.499
 1182SOL    HW2 4290   4.495   1.228   9.538
 1183SOL     OW 4291   0.099   1.771  10.249
 1183SOL    HW1 4292   0.060   1.723  10.176
 1183SOL    HW2 4293   0.186   1.795  10.219
 1184SOL     OW 4294   0.495   1.574  10.217
 1184SOL    HW1 4295   0.563   1.637  10.240
 1184SOL    HW2 4296   0.539   1.512  10.159
 1185SOL     OW 4297   0.980   0.795  10.537
 1185SOL    HW1 4298   1.037   0.773  10.610
 1185SOL    HW2 4299   0.897   0.751  10.556
 1186SOL     OW 4300   0.030   0.565  10.413
 1186SOL    HW1 4301   0.113   0.530  10.379
 1186SOL    HW2 4302   0.013   0.512  10.491
 1187SOL     OW 4303   0.811   0.575   9.667
 1187SOL    HW1 4304   0.815   0.504   9.603
 1187SOL    HW2 4305   0.739   0.631   9.638
 1188SOL     OW 4306   1.639   0.601  10.493
 1188SOL    HW1 4307   1.630   0.544  10.570
 1188SOL    HW2 4308   1.727   0.583  10.460
 1189SOL     OW 4309   0.262   1.576  11.053
 1189SOL    HW1 4310   0.207   1.596   0.029
 1189SOL    HW2 4311   0.247   1.482  11.037
 1190SOL     OW 4312   0.699   0.460  10.574
 1190SOL    HW1 4313   0.651   0.383  10.543
 1190SOL    HW2 4314   0.699   0.520  10.499
 1191SOL     OW 4315   0.939   1.682  10.756
 1191SOL    HW1 4316   0.903   1.647  10.674
 1191SOL    HW2 4317   0.922   1.776  10.751
 1192SOL     OW 4318   0.472   0.491   9.491
 1192SOL    HW1 4319   0.533   0.561   9.515
 1192SOL    HW2 4320   0.389   0.535   9.475
 1193SOL     OW 4321   0.163   1.143  10.766
 1193SOL    HW1 4322   0.137   1.105  10.849
 1193SOL    HW2 4323   0.167   1.069  10.706
 1194SOL     OW 4324   1.322   1.052  10.538
 1194SOL    HW1 4325   1.348   0.986  10.473
 1194SOL    HW2 4326   1.254   1.103  10.494
 1195SOL     OW 4327   1.314   0.856   9.615
 1195SOL    HW1 4328   1.239   0.827   9.667
 1195SOL    HW2 4329   1.286   0.844   9.524
 1196SOL     OW 4330   1.765   1.745  10.457
 1196SOL    HW1 4331   1.834   1.770  10.395
 1196SOL    HW2 4332   1.748   1.653  10.437
 1197SOL     OW 4333   1.240   1.734  10.419
 1197SOL    HW1 4334   1.323   1.757  10.377
 1197SOL    HW2 4335   1.247   1.640  10.438
 1198SOL     OW 4336   0.067   1.185  10.361
 1198SOL    HW1 4337   0.061   1.216  10.451
 1198SOL    HW2 4338   0.030   1.255  10.308
 1199SOL     OW 4339   1.719   0.129   9.799
 1199SOL    HW1 4340   1.788   0.140   9.734
 1199SOL    HW2 4341   1.750   0.059   9.856
 1200SOL     OW 4342   1.390   1.567   9.798
 1200SOL    HW1 4343   1.448   1.600   9.730
 1200SOL    HW2 4344   1.340   1.644   9.826
 1201SOL     OW 4345   1.279   0.929   9.983
 1201SOL    HW1 4346   1.352   0.867   9.989
 1201SOL    HW2 4347   1.313   1.000   9.929
 1202SOL     OW 4348   0.815   1.275  10.736
 1202SOL    HW1 4349   0.784   1.309  10.820
 1202SOL    HW2 4350   0.745   1.297  10.675
 1203SOL     OW 4351   0.672   1.622   9.465
 1203SOL    HW1 4352   0.683   1.634   9.371
 1203SOL    HW2 4353   0.617   1.544   9.473
 1204SOL     OW 4354   1.617   1.720  10.693
 1204SOL    HW1 4355   1.672   1.736  10.617
 1204SOL    HW2 4356   1.601   1.807  10.729
 1205SOL     OW 4357   1.839   0.154  10.275
 1205SOL    HW1 4358   1.868   0.074  10.231
 1205SOL    HW2 4359   1.752   0.171  10.239
 1206SOL     OW 4360   0.261   0.324  10.031
 1206SOL    HW1 4361   0.177   0.358   9.999
 1206SOL    HW2 4362   0.248   0.314  10.125
 1207SOL     OW 4363   1.208   1.605   9.342
 1207SOL    HW1 4364   1.197   1.513   9.369
 1207SOL    HW2 4365   1.142   1.617   9.273
 1208SOL     OW 4366   0.826   1.006  10.688
 1208SOL    HW1 4367   0.870   0.997  10.603
 1208SOL    HW2 4368   0.826   1.101  10.704
 1209SOL     OW 4369   0.915   0.910   9.600
 1209SOL    HW1 4370   0.977   0.942   9.534
 1209SOL    HW2 4371   0.963   0.841   9.646
 1210SOL     OW 4372   1.491   1.626   9.352
 1210SOL    HW1 4373   1.396   1.619   9.337
 1210SOL    HW2 4374   1.528   1.632   9.264
 1211SOL     OW 4375   0.366   1.316  10.807
 1211SOL    HW1 4376   0.353   1.389  10.747
 1211SOL    HW2 4377   0.296   1.254  10.785
 1212SOL     OW 4378   1.612   1.281  10.592
 1212SOL    HW1 4379   1.670   1.267  10.667
 1212SOL    HW2 4380   1.555   1.353  10.619
 1213SOL     OW 4381   1.055   1.108  10.017
 1213SOL    HW1 4382   0.983   1.057  10.056
 1213SOL    HW2 4383   1.118   1.042   9.989
 1214SOL     OW 4384   1.003   0.246  10.319
 1214SOL    HW1 4385   1.009   0.227  10.226
 1214SOL    HW2 4386   0.995   0.160  10.361
 1215SOL     OW 4387   0.605   1.489   9.792
 1215SOL    HW1 4388   0.650   1.439   9.723
 1215SOL    HW2 4389   0.529   1.527   9.749
 1216SOL     OW 4390   1.720   0.394  10.691
 1216SOL    HW1 4391   1.794   0.455  10.693
 1216SOL    HW2 4392   1.749   0.324  10.632
 1217SOL     OW 4393   0.252   1.343   9.585
 1217SOL    HW1 4394   0.157   1.341   9.572
 1217SOL    HW2 4395   0.263   1.375   9.675
 1218SOL     OW 4396   0.110   1.021  11.001
 1218SOL    HW1 4397   0.056   1.030  11.079
 1218SOL    HW2 4398   0.197   1.001  11.035
 1219SOL     OW 4399   0.654   0.198  10.803
 1219SOL    HW1 4400   0.732   0.171  10.755
 1219SOL    HW2 4401   0.686   0.227  10.888
 1220SOL     OW 4402   0.073   0.320   9.335
 1220SOL    HW1 4403   4.479   0.327   9.353
 1220SOL    HW2 4404   0.098   0.407   9.305
 1221SOL     OW 4405   1.428   0.850  10.709
 1221SOL    HW1 4406   1.379   0.918  10.663
 1221SOL    HW2 4407   1.518   0.858  10.677
 1222SOL     OW 4408   0.086   0.188   9.612
 1222SOL    HW1 4409   0.075   0.262   9.552
 1222SOL    HW2 4410   0.166   0.144   9.583
 1223SOL     OW 4411   1.179   1.338   9.427
 1223SOL    HW1 4412   1.088   1.308   9.429
 1223SOL    HW2 4413   1.206   1.338   9.519
 1224SOL     OW 4414   0.626   0.827  10.741
 1224SOL    HW1 4415   0.680   0.905  10.727
 1224SOL    HW2 4416   0.688   0.755  10.746
 1225SOL     OW 4417   1.485   1.779  10.291
 1225SOL    HW1 4418   1.508   1.842  10.223
 1225SOL    HW2 4419   1.568   1.760  10.335
 1226SOL     OW 4420   0.711   0.564  11.013
 1226SOL    HW1 4421   0.753   0.632  11.066
 1226SOL    HW2 4422   0.755   0.483  11.040
 1227SOL     OW 4423   0.382   1.741  10.874
 1227SOL    HW1 4424   0.306   1.798  10.865
 1227SOL    HW2 4425   0.354   1.673  10.935
 1228SOL     OW 4426   1.669   0.882  10.567
 1228SOL    HW1 4427   1.661   0.797  10.524
 1228SOL    HW2 4428   1.660   0.946  10.496
 1229SOL     OW 4429   1.219   0.332   9.756
 1229SOL    HW1 4430   1.285   0.264   9.744
 1229SOL    HW2 4431   1.247   0.379   9.835
 1230SOL     OW 4432   0.586   0.736   9.982
 1230SOL    HW1 4433   0.627   0.821   9.967
 1230SOL    HW2 4434   0.520   0.729   9.913
 1231SOL     OW 4435   1.746   0.312  10.955
 1231SOL    HW1 4436   1.730   0.351  10.869
 1231SOL    HW2 4437   1.670   0.335  11.008
 1232SOL     OW 4438   1.749   0.936  10.826
 1232SOL    HW1 4439   1.741   1.030  10.840
 1232SOL    HW2 4440   1.731   0.924  10.732
 1233SOL     OW 4441   0.864   1.366   9.347
 1233SOL    HW1 4442   0.825   1.394   9.430
 1233SOL    HW2 4443   0.880   1.448   9.300
 1234SOL     OW 4444   0.662   1.789  10.253
 1234SOL    HW1 4445   0.641   1.880  10.231
 1234SOL    HW2 4446   0.757   1.783  10.245
 1235SOL     OW 4447   0.868   0.969  10.164
 1235SOL    HW1 4448   0.918   0.896  10.201
 1235SOL    HW2 4449   0.832   1.015  10.240
 1236SOL     OW 4450   1.079   0.989   9.399
 1236SOL    HW1 4451   1.056   1.039   9.321
 1236SOL    HW2 4452   1.153   0.935   9.372
 1237SOL     OW 4453   1.852   1.551  10.151
 1237SOL    HW1 4454   1.770   1.541  10.103
 1237SOL    HW2 4455   1.843   1.493  10.226
 1238SOL     OW 4456   0.112   1.232   9.978
 1238SOL    HW1 4457   0.128   1.190  10.063
 1238SOL    HW2 4458   0.170   1.187   9.917
 1239SOL     OW 4459   0.681   1.396  10.942
 1239SOL    HW1 4460   0.610   1.345  10.980
 1239SOL    HW2 4461   0.642   1.482  10.925
 1240SOL     OW 4462   1.798   0.178  10.549
 1240SOL    HW1 4463   1.816   0.086  10.569
 1240SOL    HW2 4464   1.817   0.185  10.455
 1241SOL     OW 4465   0.442   0.430   9.843
 1241SOL    HW1 4466   0.457   0.360   9.779
 1241SOL    HW2 4467   0.381   0.392   9.906
 1242SOL     OW 4468   1.704   1.486  10.400
 1242SOL    HW1 4469   1.621   1.463  10.358
 1242SOL    HW2 4470   1.716   1.420  10.468
 1243SOL     OW 4471   0.304   0.507  10.564
 1243SOL    HW1 4472   0.370   0.455  10.609
 1243SOL    HW2 4473   0.335   0.514  10.474
 1244SOL     OW 4474   0.829   1.578   9.987
 1244SOL    HW1 4475   0.813   1.636   9.912
 1244SOL    HW2 4476   0.753   1.520   9.989
 1245SOL     OW 4477   1.430   0.216  10.428
 1245SOL    HW1 4478   1.470   0.149  10.483
 1245SOL    HW2 4479   1.381   0.271  10.489
 1246SOL     OW 4480   0.995   0.005  10.461
 1246SOL    HW1 4481   0.955   4.418  10.452
 1246SOL    HW2 4482   1.088   4.488  10.472
 1247SOL     OW 4483   0.773   1.333   9.626
 1247SOL    HW1 4484   0.743   1.242   9.633
 1247SOL    HW2 4485   0.855   1.335   9.676
 1248SOL     OW 4486   0.620   1.554  10.599
 1248SOL    HW1 4487   0.620   1.638  10.644
 1248SOL    HW2 4488   0.707   1.548  10.559
 1249SOL     OW 4489   1.339   0.052   9.466
 1249SOL    HW1 4490   1.377   4.476   9.422
 1249SOL    HW2 4491   1.263   0.017   9.513
 1250SOL     OW 4492   1.315   0.464   9.984
 1250SOL    HW1 4493   1.257   0.540   9.985
 1250SOL    HW2 4494   1.303   0.424  10.070
 1251SOL     OW 4495   1.585   0.199  10.178
 1251SOL    HW1 4496   1.526   0.214  10.252
 1251SOL    HW2 4497   1.587   0.282  10.132
 1252SOL     OW 4498   0.040   1.050   9.599
 1252SOL    HW1 4499   0.133   1.030   9.588
 1252SOL    HW2 4500   0.021   1.023   9.689
 1253SOL     OW 4501   0.887   1.655   9.651
 1253SOL    HW1 4502   0.813   1.638   9.592
 1253SOL    HW2 4503   0.857   1.729   9.704
 1254SOL     OW 4504   0.239   2.455   0.106
 1254SOL    HW1 4505   0.166   2.448   0.168
 1254SOL    HW2 4506   0.203   2.504   0.032
 1255SOL     OW 4507   0.212   2.137   0.991
 1255SOL    HW1 4508   0.248   2.110   1.076
 1255SOL    HW2 4509   0.137   2.078   0.978
 1256SOL     OW 4510   0.008   2.256   0.638
 1256SOL    HW1 4511   4.427   2.288   0.678
 1256SOL    HW2 4512   4.483   2.173   0.597
 1257SOL     OW 4513   0.568   3.153   1.178
 1257SOL    HW1 4514   0.481   3.157   1.138
 1257SOL    HW2 4515   0.584   3.240   1.213
 1258SOL     OW 4516   1.563   3.374   0.707
 1258SOL    HW1 4517   1.520   3.353   0.790
 1258SOL    HW2 4518   1.492   3.377   0.643
 1259SOL     OW 4519   1.131   2.561   0.699
 1259SOL    HW1 4520   1.180   2.642   0.686
 1259SOL    HW2 4521   1.084   2.574   0.782
 1260SOL     OW 4522   1.759   2.474   0.230
 1260SOL    HW1 4523   1.752   2.452   0.137
 1260SOL    HW2 4524   1.737   2.393   0.276
 1261SOL     OW 4525   0.753   3.003   1.042
 1261SOL    HW1 4526   0.684   3.038   1.099
 1261SOL    HW2 4527   0.789   3.079   0.998
 1262SOL     OW 4528   0.869   2.631   1.821
 1262SOL    HW1 4529   0.853   2.701   1.884
 1262SOL    HW2 4530   0.892   2.676   1.740
 1263SOL     OW 4531   0.685   2.863   0.647
 1263SOL    HW1 4532   0.751   2.852   0.715
 1263SOL    HW2 4533   0.616   2.916   0.688
 1264SOL     OW 4534   0.712   3.011   1.815
 1264SOL    HW1 4535   0.759   3.090   1.843
 1264SOL    HW2 4536   0.631   3.044   1.777
 1265SOL     OW 4537   0.334   3.281   1.069
 1265SOL    HW1 4538   0.253   3.262   1.023
 1265SOL    HW2 4539   0.384   3.336   1.008
 1266SOL     OW 4540   1.460   3.362   1.357
 1266SOL    HW1 4541   1.512   3.442   1.366
 1266SOL    HW2 4542   1.395   3.368   1.426
 1267SOL     OW 4543   0.447   2.266   1.488
 1267SOL    HW1 4544   0.526   2.212   1.494
 1267SOL    HW2 4545   0.375   2.203   1.496
 1268SOL     OW 4546   1.594   2.312   0.748
 1268SOL    HW1 4547   1.520   2.332   0.691
 1268SOL    HW2 4548   1.609   2.392   0.798
 1269SOL     OW 4549   0.245   3.553   0.481
 1269SOL    HW1 4550   0.231   3.640   0.519
 1269SOL    HW2 4551   0.308   3.567   0.411
 1270SOL     OW 4552   1.137   3.204   1.693
 1270SOL    HW1 4553   1.177   3.199   1.780
 1270SOL    HW2 4554   1.084   3.124   1.686
 1271SOL     OW 4555   0.247   3.289   0.528
 1271SOL    HW1 4556   0.240   3.384   0.527
 1271SOL    HW2 4557   0.184   3.260   0.593
 1272SOL     OW 4558   0.250   2.945   0.885
 1272SOL    HW1 4559   0.265   2.853   0.910
 1272SOL    HW2 4560   0.189   2.978   0.951
 1273SOL     OW 4561   0.612   3.653   1.431
 1273SOL    HW1 4562   0.528   3.635   1.474
 1273SOL    HW2 4563   0.632   3.743   1.455
 1274SOL     OW 4564   0.567   2.858   0.152
 1274SOL    HW1 4565   0.618   2.893   0.079
 1274SOL    HW2 4566   0.616   2.885   0.230
 1275SOL     OW 4567   1.594   1.983   1.472
 1275SOL    HW1 4568   1.609   2.060   1.417
 1275SOL    HW2 4569   1.580   2.019   1.559
 1276SOL     OW 4570   0.135   2.511   0.572
 1276SOL    HW1 4571   0.091   2.429   0.594
 1276SOL    HW2 4572   0.107   2.572   0.639
 1277SOL     OW 4573   1.843   3.620   0.331
 1277SOL    HW1 4574   1.909   3.591   0.395
 1277SOL    HW2 4575   1.866   3.711   0.313
 1278SOL     OW 4576   0.076   3.450   0.151
 1278SOL    HW1 4577   0.042   3.361   0.161
 1278SOL    HW2 4578   0.032   3.501   0.219
 1279SOL     OW 4579   1.690   2.780   0.643
 1279SOL    HW1 4580   1.770   2.735   0.617
 1279SOL    HW2 4581   1.666   2.832   0.566
 1280SOL     OW 4582   1.647   2.966   0.432
 1280SOL    HW1 4583   1.729   2.975   0.385
 1280SOL    HW2 4584   1.652   3.029   0.503
 1281SOL     OW 4585   0.111   2.628   1.578
 1281SOL    HW1 4586   0.200   2.622   1.544
 1281SOL    HW2 4587   0.101   2.720   1.603
 1282SOL     OW 4588   0.615   3.250   0.736
 1282SOL    HW1 4589   0.568   3.167   0.746
 1282SOL    HW2 4590   0.597   3.276   0.646
 1283SOL     OW 4591   1.288   3.100   1.422
 1283SOL    HW1 4592   1.319   3.032   1.363
 1283SOL    HW2 4593   1.346   3.094   1.498
 1284SOL     OW 4594   0.819   1.864   0.511
 1284SOL    HW1 4595   0.857   1.950   0.492
 1284SOL    HW2 4596   0.725   1.881   0.518
 1285SOL     OW 4597   0.177   2.801   1.279
 1285SOL    HW1 4598   0.269   2.782   1.260
 1285SOL    HW2 4599   0.133   2.793   1.195
 1286SOL     OW 4600   1.513   2.867   0.204
 1286SOL    HW1 4601   1.450   2.805   0.241
 1286SOL    HW2 4602   1.566   2.895   0.279
 1287SOL     OW 4603   1.186   3.671   1.623
 1287SOL    HW1 4604   1.194   3.729   1.548
 1287SOL    HW2 4605   1.202   3.583   1.587
 1288SOL     OW 4606   0.332   2.119   1.801
 1288SOL    HW1 4607   0.379   2.192   1.840
 1288SOL    HW2 4608   0.244   2.124   1.837
 1289SOL     OW 4609   1.467   3.281   0.951
 1289SOL    HW1 4610   1.399   3.297   1.016
 1289SOL    HW2 4611   1.454   3.190   0.924
 1290SOL     OW 4612   1.657   3.605   0.579
 1290SOL    HW1 4613   1.639   3.576   0.490
 1290SOL    HW2 4614   1.633   3.531   0.634
 1291SOL     OW 4615   0.595   2.578   0.266
 1291SOL    HW1 4616   0.598   2.661   0.218
 1291SOL    HW2 4617   0.532   2.593   0.337
 1292SOL     OW 4618   1.277   2.220   0.934
 1292SOL    HW1 4619   1.188   2.185   0.942
 1292SOL    HW2 4620   1.330   2.166   0.992
 1293SOL     OW 4621   1.582   3.533   0.313
 1293SOL    HW1 4622   1.673   3.562   0.305
 1293SOL    HW2 4623   1.555   3.515   0.223
 1294SOL     OW 4624   0.794   2.478   1.450
 1294SOL    HW1 4625   0.767   2.453   1.539
 1294SOL    HW2 4626   0.753   2.413   1.394
 1295SOL     OW 4627   1.394   2.336   1.677
 1295SOL    HW1 4628   1.397   2.380   1.762
 1295SOL    HW2 4629   1.454   2.263   1.686
 1296SOL     OW 4630   0.953   2.749   1.583
 1296SOL    HW1 4631   1.008   2.679   1.547
 1296SOL    HW2 4632   0.906   2.784   1.508
 1297SOL     OW 4633   0.993   2.276   1.237
 1297SOL    HW1 4634   0.906   2.295   1.274
 1297SOL    HW2 4635   0.975   2.229   1.156
 1298SOL     OW 4636   1.052   2.564   0.427
 1298SOL    HW1 4637   1.069   2.556   0.520
 1298SOL    HW2 4638   0.969   2.518   0.414
 1299SOL     OW 4639   0.095   2.690   0.785
 1299SOL    HW1 4640   0.181   2.677   0.825
 1299SOL    HW2 4641   0.037   2.707   0.859
 1300SOL     OW 4642   0.123   3.718   1.577
 1300SOL    HW1 4643   0.116   3.696   1.670
 1300SOL    HW2 4644   0.044   3.682   1.537
 1301SOL     OW 4645   0.891   2.216   0.211
 1301SOL    HW1 4646   0.935   2.274   0.149
 1301SOL    HW2 4647   0.904   2.129   0.175
 1302SOL     OW 4648   1.709   2.439   1.832
 1302SOL    HW1 4649   1.670   2.509   1.779
 1302SOL    HW2 4650   1.736   2.373   1.768
 1303SOL     OW 4651   1.378   3.003   0.541
 1303SOL    HW1 4652   1.456   2.990   0.487
 1303SOL    HW2 4653   1.325   3.066   0.492
 1304SOL     OW 4654   0.553   2.042   0.894
 1304SOL    HW1 4655   0.555   2.074   0.984
 1304SOL    HW2 4656   0.553   2.122   0.840
 1305SOL     OW 4657   1.003   3.305   0.473
 1305SOL    HW1 4658   0.968   3.379   0.423
 1305SOL    HW2 4659   0.982   3.326   0.564
 1306SOL     OW 4660   0.356   3.674   0.861
 1306SOL    HW1 4661   0.398   3.588   0.871
 1306SOL    HW2 4662   0.427   3.737   0.877
 1307SOL     OW 4663   1.800   2.916   0.869
 1307SOL    HW1 4664   1.747   2.898   0.791
 1307SOL    HW2 4665   1.737   2.922   0.941
 1308SOL     OW 4666   1.228   3.401   1.513
 1308SOL    HW1 4667   1.214   3.328   1.574
 1308SOL    HW2 4668   1.162   3.387   1.444
 1309SOL     OW 4669   0.310   2.817   0.280
 1309SOL    HW1 4670   0.393   2.844   0.241
 1309SOL    HW2 4671   0.311   2.721   0.274
 1310SOL     OW 4672   1.479   2.607   0.726
 1310SOL    HW1 4673   1.471   2.567   0.813
 1310SOL    HW2 4674   1.557   2.662   0.732
 1311SOL     OW 4675   0.469   3.125   1.735
 1311SOL    HW1 4676   0.442   3.132   1.643
 1311SOL    HW2 4677   0.387   3.128   1.784
 1312SOL     OW 4678   1.108   3.642   0.227
 1312SOL    HW1 4679   1.047   3.591   0.280
 1312SOL    HW2 4680   1.150   3.576   0.171
 1313SOL     OW 4681   0.198   2.138   1.485
 1313SOL    HW1 4682   0.140   2.215   1.492
 1313SOL    HW2 4683   0.182   2.089   1.565
 1314SOL     OW 4684   1.628   3.236   0.089
 1314SOL    HW1 4685   1.585   3.321   0.078
 1314SOL    HW2 4686   1.562   3.172   0.060
 1315SOL     OW 4687   0.468   3.604   0.317
 1315SOL    HW1 4688   0.509   3.661   0.382
 1315SOL    HW2 4689   0.542   3.572   0.264
 1316SOL     OW 4690   1.399   1.969   0.432
 1316SOL    HW1 4691   1.390   1.947   0.339
 1316SOL    HW2 4692   1.494   1.980   0.445
 1317SOL     OW 4693   0.260   3.655   1.228
 1317SOL    HW1 4694   0.304   3.578   1.265
 1317SOL    HW2 4695   0.223   3.624   1.146
 1318SOL     OW 4696   0.938   3.561   0.898
 1318SOL    HW1 4697   1.016   3.509   0.920
 1318SOL    HW2 4698   0.895   3.511   0.828
 1319SOL     OW 4699   0.393   2.557   0.468
 1319SOL    HW1 4700   0.417   2.465   0.481
 1319SOL    HW2 4701   0.302   2.562   0.498
 1320SOL     OW 4702   1.535   2.089   1.727
 1320SOL    HW1 4703   1.545   2.109   1.820
 1320SOL    HW2 4704   1.468   2.021   1.725
 1321SOL     OW 4705   0.616   1.968   0.124
 1321SOL    HW1 4706   0.706   1.933   0.121
 1321SOL    HW2 4707   0.581   1.949   0.037
 1322SOL     OW 4708   0.766   2.141   1.755
 1322SOL    HW1 4709   0.844   2.085   1.753
 1322SOL    HW2 4710   0.718   2.113   1.834
 1323SOL     OW 4711   0.877   3.385   1.194
 1323SOL    HW1 4712   0.860   3.348   1.107
 1323SOL    HW2 4713   0.946   3.330   1.230
 1324SOL     OW 4714   1.340   2.451   1.432
 1324SOL    HW1 4715   1.371   2.419   1.517
 1324SOL    HW2 4716   1.377   2.539   1.425
 1325SOL     OW 4717   0.817   3.255   0.942
 1325SOL    HW1 4718   0.901   3.244   0.898
 1325SOL    HW2 4719   0.752   3.258   0.871
 1326SOL     OW 4720   0.928   2.371   0.903
 1326SOL    HW1 4721   0.904   2.363   0.810
 1326SOL    HW2 4722   0.959   2.284   0.927
 1327SOL     OW 4723   0.555   1.923   0.503
 1327SOL    HW1 4724   0.473   1.920   0.552
 1327SOL    HW2 4725   0.548   2.002   0.449
 1328SOL     OW 4726   1.424   3.059   0.028
 1328SOL    HW1 4727   1.454   2.988   0.084
 1328SOL    HW2 4728   1.341   3.087   0.067
 1329SOL     OW 4729   0.286   1.911   0.191
 1329SOL    HW1 4730   0.334   1.961   0.125
 1329SOL    HW2 4731   0.349   1.847   0.223
 1330SOL     OW 4732   0.941   2.109   0.462
 1330SOL    HW1 4733   0.913   2.153   0.382
 1330SOL    HW2 4734   1.035   2.125   0.467
 1331SOL     OW 4735   1.080   2.544   1.459
 1331SOL    HW1 4736   1.013   2.476   1.463
 1331SOL    HW2 4737   1.162   2.495   1.452
 1332SOL     OW 4738   1.222   3.433   0.794
 1332SOL    HW1 4739   1.238   3.498   0.726
 1332SOL    HW2 4740   1.291   3.448   0.859
 1333SOL     OW 4741   0.470   3.013   0.738
 1333SOL    HW1 4742   0.400   2.994   0.800
 1333SOL    HW2 4743   0.429   3.002   0.652
 1334SOL     OW 4744   1.268   3.656   0.608
 1334SOL    HW1 4745   1.316   3.717   0.552
 1334SOL    HW2 4746   1.201   3.709   0.651
 1335SOL     OW 4747   1.010   2.397   0.042
 1335SOL    HW1 4748   0.976   2.485   0.025
 1335SOL    HW2 4749   1.091   2.411   0.090
 1336SOL     OW 4750   0.083   2.386   1.411
 1336SOL    HW1 4751   0.145   2.381   1.338
 1336SOL    HW2 4752   0.067   2.479   1.422
 1337SOL     OW 4753   0.560   2.090   1.167
 1337SOL    HW1 4754   0.603   2.013   1.203
 1337SOL    HW2 4755   0.468   2.080   1.193
 1338SOL     OW 4756   0.868   2.322   0.640
 1338SOL    HW1 4757   0.823   2.376   0.575
 1338SOL    HW2 4758   0.888   2.241   0.594
 1339SOL     OW 4759   1.016   1.916   0.750
 1339SOL    HW1 4760   0.957   1.909   0.675
 1339SOL    HW2 4761   0.994   1.840   0.805
 1340SOL     OW 4762   1.438   3.024   0.857
 1340SOL    HW1 4763   1.368   2.959   0.855
 1340SOL    HW2 4764   1.463   3.034   0.765
 1341SOL     OW 4765   1.464   2.470   0.976
 1341SOL    HW1 4766   1.412   2.390   0.977
 1341SOL    HW2 4767   1.522   2.462   1.052
 1342SOL     OW 4768   1.854   2.678   0.381
 1342SOL    HW1 4769   1.904   2.623   0.442
 1342SOL    HW2 4770   1.815   2.616   0.320
 1343SOL     OW 4771   0.495   3.285   0.174
 1343SOL    HW1 4772   0.416   3.260   0.221
 1343SOL    HW2 4773   0.492   3.234   0.093
 1344SOL     OW 4774   1.671   3.126   0.646
 1344SOL    HW1 4775   1.766   3.129   0.659
 1344SOL    HW2 4776   1.642   3.215   0.666
 1345SOL     OW 4777   1.387   2.437   0.078
 1345SOL    HW1 4778   1.328   2.415   0.150
 1345SOL    HW2 4779   1.459   2.374   0.085
 1346SOL     OW 4780   0.529   2.125   0.327
 1346SOL    HW1 4781   0.557   2.065   0.258
 1346SOL    HW2 4782   0.509   2.207   0.281
 1347SOL     OW 4783   1.751   3.102   1.570
 1347SOL    HW1 4784   1.839   3.064   1.563
 1347SOL    HW2 4785   1.767   3.192   1.599
 1348SOL     OW 4786   1.057   3.216   1.333
 1348SOL    HW1 4787   0.982   3.185   1.384
 1348SOL    HW2 4788   1.133   3.174   1.375
 1349SOL     OW 4789   1.609   3.488   1.656
 1349SOL    HW1 4790   1.602   3.522   1.566
 1349SOL    HW2 4791   1.692   3.440   1.656
 1350SOL     OW 4792   1.131   3.068   1.104
 1350SOL    HW1 4793   1.071   3.105   1.169
 1350SOL    HW2 4794   1.099   3.100   1.020
 1351SOL     OW 4795   1.627   2.959   1.077
 1351SOL    HW1 4796   1.621   3.022   1.149
 1351SOL    HW2 4797   1.549   2.977   1.024
 1352SOL     OW 4798   0.917   1.959   1.395
 1352SOL    HW1 4799   0.940   1.939   1.304
 1352SOL    HW2 4800   0.997   1.998   1.432
 1353SOL     OW 4801   0.984   2.976   1.723
 1353SOL    HW1 4802   0.893   2.993   1.746
 1353SOL    HW2 4803   0.982   2.898   1.668
 1354SOL     OW 4804   0.711   2.922   0.375
 1354SOL    HW1 4805   0.698   2.905   0.468
 1354SOL    HW2 4806   0.786   2.868   0.351
 1355SOL     OW 4807   0.431   2.690   1.244
 1355SOL    HW1 4808   0.501   2.702   1.308
 1355SOL    HW2 4809   0.375   2.623   1.283
 1356SOL     OW 4810   1.265   2.238   1.276
 1356SOL    HW1 4811   1.298   2.315   1.322
 1356SOL    HW2 4812   1.175   2.259   1.254
 1357SOL     OW 4813   0.063   3.438   1.344
 1357SOL    HW1 4814   0.037   3.528   1.326
 1357SOL    HW2 4815   0.159   3.442   1.349
 1358SOL     OW 4816   0.343   2.983   0.500
 1358SOL    HW1 4817   0.346   3.058   0.440
 1358SOL    HW2 4818   0.336   2.907   0.442
 1359SOL     OW 4819   0.560   2.393   0.855
 1359SOL    HW1 4820   0.573   2.453   0.781
 1359SOL    HW2 4821   0.622   2.422   0.921
 1360SOL     OW 4822   1.247   3.208   0.397
 1360SOL    HW1 4823   1.303   3.281   0.424
 1360SOL    HW2 4824   1.159   3.232   0.428
 1361SOL     OW 4825   1.283   3.321   1.147
 1361SOL    HW1 4826   1.338   3.323   1.225
 1361SOL    HW2 4827   1.227   3.244   1.159
 1362SOL     OW 4828   1.580   2.481   0.481
 1362SOL    HW1 4829   1.532   2.535   0.545
 1362SOL    HW2 4830   1.615   2.544   0.418
 1363SOL     OW 4831   0.346   3.396   1.312
 1363SOL    HW1 4832   0.332   3.348   1.231
 1363SOL    HW2 4833   0.441   3.405   1.320
 1364SOL     OW 4834   0.486   2.619   1.670
 1364SOL    HW1 4835   0.515   2.657   1.587
 1364SOL    HW2 4836   0.537   2.539   1.679
 1365SOL     OW 4837   1.605   2.642   1.683
 1365SOL    HW1 4838   1.518   2.683   1.676
 1365SOL    HW2 4839   1.656   2.683   1.613
 1366SOL     OW 4840   0.996   1.989   1.753
 1366SOL    HW1 4841   1.054   2.060   1.728
 1366SOL    HW2 4842   1.043   1.909   1.729
 1367SOL     OW 4843   0.497   1.904   1.748
 1367SOL    HW1 4844   0.454   1.847   1.683
 1367SOL    HW2 4845   0.439   1.979   1.756
 1368SOL     OW 4846   0.590   2.736   1.025
 1368SOL    HW1 4847   0.620   2.827   1.027
 1368SOL    HW2 4848   0.534   2.728   1.102
 1369SOL     OW 4849   1.355   2.721   1.028
 1369SOL    HW1 4850   1.271   2.710   0.983
 1369SOL    HW2 4851   1.397   2.635   1.021
 1370SOL     OW 4852   1.200   2.387   0.270
 1370SOL    HW1 4853   1.209   2.310   0.326
 1370SOL    HW2 4854   1.158   2.452   0.326
 1371SOL     OW 4855   0.301   2.051   1.242
 1371SOL    HW1 4856   0.262   2.084   1.323
 1371SOL    HW2 4857   0.285   1.957   1.244
 1372SOL     OW 4858   0.032   3.175   1.287
 1372SOL    HW1 4859   0.072   3.127   1.359
 1372SOL    HW2 4860   0.040   3.267   1.311
 1373SOL     OW 4861   0.724   2.492   1.057
 1373SOL    HW1 4862   0.800   2.476   1.000
 1373SOL    HW2 4863   0.697   2.581   1.034
 1374SOL     OW 4864   1.737   2.821   1.854
 1374SOL    HW1 4865   1.691   2.756   1.799
 1374SOL    HW2 4866   1.676   2.837   1.927
 1375SOL     OW 4867   0.313   1.932   0.620
 1375SOL    HW1 4868   0.288   2.021   0.645
 1375SOL    HW2 4869   0.311   1.882   0.701
 1376SOL     OW 4870   1.615   2.232   0.369
 1376SOL    HW1 4871   1.648   2.173   0.436
 1376SOL    HW2 4872   1.593   2.312   0.416
 1377SOL     OW 4873   1.028   2.621   0.959
 1377SOL    HW1 4874   1.023   2.638   1.053
 1377SOL    HW2 4875   1.002   2.529   0.951
 1378SOL     OW 4876   0.983   3.429   1.718
 1378SOL    HW1 4877   0.967   3.473   1.634
 1378SOL    HW2 4878   1.025   3.347   1.695
 1379SOL     OW 4879   1.854   3.366   1.605
 1379SOL    HW1 4880   1.873   3.393   1.515
 1379SOL    HW2 4881   1.935   3.383   1.653
 1380SOL     OW 4882   0.347   2.797   1.817
 1380SOL    HW1 4883   0.418   2.827   1.873
 1380SOL    HW2 4884   0.386   2.729   1.763
 1381SOL     OW 4885   1.536   2.155   0.116
 1381SOL    HW1 4886   1.475   2.082   0.130
 1381SOL    HW2 4887   1.566   2.178   0.203
 1382SOL     OW 4888   1.285   2.683   0.032
 1382SOL    HW1 4889   1.328   2.598   0.043
 1382SOL    HW2 4890   1.322   2.718  11.051
 1383SOL     OW 4891   1.067   3.198   0.854
 1383SOL    HW1 4892   1.070   3.126   0.791
 1383SOL    HW2 4893   1.127   3.264   0.819
 1384SOL     OW 4894   0.319   2.673   0.945
 1384SOL    HW1 4895   0.413   2.690   0.944
 1384SOL    HW2 4896   0.311   2.581   0.972
 1385SOL     OW 4897   0.328   2.388   0.987
 1385SOL    HW1 4898   0.291   2.301   0.972
 1385SOL    HW2 4899   0.407   2.389   0.934
 1386SOL     OW 4900   1.134   2.237   1.683
 1386SOL    HW1 4901   1.086   2.292   1.745
 1386SOL    HW2 4902   1.222   2.276   1.679
 1387SOL     OW 4903   1.160   2.064   1.470
 1387SOL    HW1 4904   1.150   2.127   1.541
 1387SOL    HW2 4905   1.202   2.113   1.400
 1388SOL     OW 4906   4.498   3.185   0.204
 1388SOL    HW1 4907   4.405   3.205   0.196
 1388SOL    HW2 4908   0.001   3.094   0.231
 1389SOL     OW 4909   0.099   3.635   0.940
 1389SOL    HW1 4910   0.059   3.588   0.867
 1389SOL    HW2 4911   0.187   3.657   0.910
 1390SOL     OW 4912   0.495   3.436   0.907
 1390SOL    HW1 4913   0.563   3.499   0.931
 1390SOL    HW2 4914   0.539   3.374   0.849
 1391SOL     OW 4915   0.981   2.653   1.225
 1391SOL    HW1 4916   1.038   2.631   1.299
 1391SOL    HW2 4917   0.896   2.615   1.249
 1392SOL     OW 4918   0.031   2.424   1.100
 1392SOL    HW1 4919   0.118   2.396   1.072
 1392SOL    HW2 4920   0.014   2.376   1.180
 1393SOL     OW 4921   0.179   2.385   1.716
 1393SOL    HW1 4922   0.260   2.354   1.675
 1393SOL    HW2 4923   0.157   2.465   1.668
 1394SOL     OW 4924   1.378   2.799   1.658
 1394SOL    HW1 4925   1.399   2.893   1.655
 1394SOL    HW2 4926   1.374   2.772   1.566
 1395SOL     OW 4927   0.816   2.437   0.368
 1395SOL    HW1 4928   0.825   2.361   0.310
 1395SOL    HW2 4929   0.742   2.485   0.333
 1396SOL     OW 4930   1.640   2.465   1.186
 1396SOL    HW1 4931   1.633   2.404   1.259
 1396SOL    HW2 4932   1.727   2.449   1.149
 1397SOL     OW 4933   0.274   3.424   1.740
 1397SOL    HW1 4934   0.215   3.476   1.795
 1397SOL    HW2 4935   0.255   3.333   1.764
 1398SOL     OW 4936   0.697   2.314   1.260
 1398SOL    HW1 4937   0.648   2.238   1.229
 1398SOL    HW2 4938   0.695   2.376   1.187
 1399SOL     OW 4939   0.927   3.541   1.468
 1399SOL    HW1 4940   0.901   3.504   1.384
 1399SOL    HW2 4941   0.920   3.636   1.456
 1400SOL     OW 4942   0.475   2.344   0.177
 1400SOL    HW1 4943   0.531   2.417   0.203
 1400SOL    HW2 4944   0.390   2.385   0.157
 1401SOL     OW 4945   0.162   3.003   1.459
 1401SOL    HW1 4946   0.144   2.960   1.542
 1401SOL    HW2 4947   0.168   2.932   1.396
 1402SOL     OW 4948   1.325   2.908   1.222
 1402SOL    HW1 4949   1.347   2.844   1.154
 1402SOL    HW2 4950   1.256   2.962   1.183
 1403SOL     OW 4951   1.308   2.714   0.311
 1403SOL    HW1 4952   1.232   2.680   0.358
 1403SOL    HW2 4953   1.286   2.699   0.218
 1404SOL     OW 4954   1.775   3.603   1.153
 1404SOL    HW1 4955   1.834   3.630   1.082
 1404SOL    HW2 4956   1.749   3.514   1.130
 1405SOL     OW 4957   1.241   3.596   1.112
 1405SOL    HW1 4958   1.323   3.617   1.067
 1405SOL    HW2 4959   1.247   3.502   1.130
 1406SOL     OW 4960   0.067   3.046   1.050
 1406SOL    HW1 4961   0.060   3.077   1.141
 1406SOL    HW2 4962   0.032   3.118   0.998
 1407SOL     OW 4963   0.679   3.530   1.733
 1407SOL    HW1 4964   0.620   3.605   1.725
 1407SOL    HW2 4965   0.743   3.542   1.663
 1408SOL     OW 4966   0.919   1.954   0.104
 1408SOL    HW1 4967   0.968   1.916   0.030
 1408SOL    HW2 4968   0.957   1.913   0.181
 1409SOL     OW 4969   1.721   2.000   0.513
 1409SOL    HW1 4970   1.769   1.956   0.443
 1409SOL    HW2 4971   1.691   1.930   0.570
 1410SOL     OW 4972   1.391   3.430   0.487
 1410SOL    HW1 4973   1.452   3.462   0.421
 1410SOL    HW2 4974   1.343   3.508   0.516
 1411SOL     OW 4975   0.118   3.669   1.848
 1411SOL    HW1 4976   0.077   3.597   1.896
 1411SOL    HW2 4977   0.181   3.706   1.909
 1412SOL     OW 4978   1.277   2.789   0.672
 1412SOL    HW1 4979   1.351   2.728   0.679
 1412SOL    HW2 4980   1.311   2.861   0.618
 1413SOL     OW 4981   0.811   3.137   1.428
 1413SOL    HW1 4982   0.783   3.176   1.511
 1413SOL    HW2 4983   0.741   3.158   1.367
 1414SOL     OW 4984   0.674   3.484   0.169
 1414SOL    HW1 4985   0.690   3.491   0.075
 1414SOL    HW2 4986   0.617   3.408   0.178
 1415SOL     OW 4987   1.624   3.589   1.391
 1415SOL    HW1 4988   1.675   3.595   1.310
 1415SOL    HW2 4989   1.610   3.679   1.418
 1416SOL     OW 4990   1.797   2.009   0.967
 1416SOL    HW1 4991   1.850   1.940   0.927
 1416SOL    HW2 4992   1.722   2.019   0.908
 1417SOL     OW 4993   0.263   2.182   0.719
 1417SOL    HW1 4994   0.180   2.220   0.691
 1417SOL    HW2 4995   0.253   2.168   0.813
 1418SOL     OW 4996   1.223   3.462   0.054
 1418SOL    HW1 4997   1.211   3.370   0.074
 1418SOL    HW2 4998   1.158   3.481  11.086
 1419SOL     OW 4999   0.826   2.869   1.373
 1419SOL    HW1 5000   0.868   2.865   1.287
 1419SOL    HW2 5001   0.823   2.963   1.394
 1420SOL     OW 5002   0.914   2.768   0.281
 1420SOL    HW1 5003   0.980   2.809   0.224
 1420SOL    HW2 5004   0.963   2.705   0.333
 1421SOL     OW 5005   1.498   3.484   0.048
 1421SOL    HW1 5006   1.402   3.478   0.046
 1421SOL    HW2 5007   1.523   3.498  11.057
 1422SOL     OW 5008   0.373   3.171   1.490
 1422SOL    HW1 5009   0.355   3.250   1.439
 1422SOL    HW2 5010   0.299   3.113   1.473
 1423SOL     OW 5011   1.611   3.146   1.280
 1423SOL    HW1 5012   1.669   3.132   1.355
 1423SOL    HW2 5013   1.549   3.213   1.309
 1424SOL     OW 5014   1.054   2.970   0.707
 1424SOL    HW1 5015   0.984   2.919   0.746
 1424SOL    HW2 5016   1.118   2.905   0.678
 1425SOL     OW 5017   1.021   2.102   0.966
 1425SOL    HW1 5018   1.017   2.055   0.883
 1425SOL    HW2 5019   1.017   2.034   1.033
 1426SOL     OW 5020   0.604   3.352   0.482
 1426SOL    HW1 5021   0.645   3.302   0.412
 1426SOL    HW2 5022   0.528   3.394   0.441
 1427SOL     OW 5023   1.723   2.255   1.379
 1427SOL    HW1 5024   1.801   2.310   1.376
 1427SOL    HW2 5025   1.744   2.181   1.322
 1428SOL     OW 5026   0.265   3.189   0.284
 1428SOL    HW1 5027   0.177   3.198   0.246
 1428SOL    HW2 5028   0.259   3.230   0.370
 1429SOL     OW 5029   0.116   2.869   1.693
 1429SOL    HW1 5030   0.052   2.913   1.750
 1429SOL    HW2 5031   0.194   2.860   1.747
 1430SOL     OW 5032   0.675   2.061   1.499
 1430SOL    HW1 5033   0.759   2.038   1.459
 1430SOL    HW2 5034   0.698   2.090   1.587
 1431SOL     OW 5035   0.058   2.205   0.002
 1431SOL    HW1 5036   4.473   2.185   0.041
 1431SOL    HW2 5037   0.076   2.296   0.028
 1432SOL     OW 5038   1.429   2.721   1.400
 1432SOL    HW1 5039   1.380   2.781   1.345
 1432SOL    HW2 5040   1.518   2.722   1.363
 1433SOL     OW 5041   0.078   2.030   0.308
 1433SOL    HW1 5042   0.085   2.116   0.266
 1433SOL    HW2 5043   0.154   1.982   0.275
 1434SOL     OW 5044   1.184   3.200   0.122
 1434SOL    HW1 5045   1.090   3.185   0.114
 1434SOL    HW2 5046   1.201   3.191   0.216
 1435SOL     OW 5047   0.625   2.693   1.432
 1435SOL    HW1 5048   0.682   2.769   1.418
 1435SOL    HW2 5049   0.686   2.619   1.438
 1436SOL     OW 5050   1.483   3.641   0.980
 1436SOL    HW1 5051   1.505   3.702   0.910
 1436SOL    HW2 5052   1.567   3.619   1.021
 1437SOL     OW 5053   0.713   2.425   1.704
 1437SOL    HW1 5054   0.758   2.486   1.762
 1437SOL    HW2 5055   0.739   2.338   1.734
 1438SOL     OW 5056   1.472   3.060   1.631
 1438SOL    HW1 5057   1.460   3.074   1.725
 1438SOL    HW2 5058   1.565   3.077   1.617
 1439SOL     OW 5059   0.379   3.606   1.565
 1439SOL    HW1 5060   0.294   3.647   1.547
 1439SOL    HW2 5061   0.357   3.527   1.614
 1440SOL     OW 5062   1.669   2.743   1.255
 1440SOL    HW1 5063   1.660   2.658   1.213
 1440SOL    HW2 5064   1.658   2.806   1.184
 1441SOL     OW 5065   1.215   2.179   0.460
 1441SOL    HW1 5066   1.279   2.109   0.451
 1441SOL    HW2 5067   1.245   2.229   0.536
 1442SOL     OW 5068   0.589   2.598   0.669
 1442SOL    HW1 5069   0.626   2.685   0.656
 1442SOL    HW2 5070   0.521   2.591   0.602
 1443SOL     OW 5071   1.761   2.237   1.654
 1443SOL    HW1 5072   1.748   2.242   1.559
 1443SOL    HW2 5073   1.696   2.174   1.684
 1444SOL     OW 5074   1.753   2.792   1.510
 1444SOL    HW1 5075   1.742   2.886   1.526
 1444SOL    HW2 5076   1.732   2.781   1.417
 1445SOL     OW 5077   0.908   3.218   0.073
 1445SOL    HW1 5078   0.839   3.213   0.139
 1445SOL    HW2 5079   0.890   3.298   0.025
 1446SOL     OW 5080   0.662   3.651   0.944
 1446SOL    HW1 5081   0.642   3.741   0.920
 1446SOL    HW2 5082   0.757   3.645   0.935
 1447SOL     OW 5083   0.869   2.830   0.854
 1447SOL    HW1 5084   0.918   2.758   0.893
 1447SOL    HW2 5085   0.832   2.877   0.929
 1448SOL     OW 5086   1.077   2.851   0.083
 1448SOL    HW1 5087   1.053   2.882  11.096
 1448SOL    HW2 5088   1.154   2.797   0.068
 1449SOL     OW 5089   1.852   3.416   0.844
 1449SOL    HW1 5090   1.775   3.405   0.789
 1449SOL    HW2 5091   1.842   3.350   0.913
 1450SOL     OW 5092   0.232   3.166   1.859
 1450SOL    HW1 5093   0.154   3.115   1.839
 1450SOL    HW2 5094   0.230   3.177   1.954
 1451SOL     OW 5095   0.109   3.090   0.670
 1451SOL    HW1 5096   0.130   3.049   0.753
 1451SOL    HW2 5097   0.173   3.054   0.608
 1452SOL     OW 5098   0.684   3.266   1.630
 1452SOL    HW1 5099   0.604   3.223   1.658
 1452SOL    HW2 5100   0.677   3.354   1.667
 1453SOL     OW 5101   1.771   2.034   1.231
 1453SOL    HW1 5102   1.791   1.943   1.252
 1453SOL    HW2 5103   1.777   2.039   1.135
 1454SOL     OW 5104   0.433   2.297   0.526
 1454SOL    HW1 5105   0.464   2.225   0.472
 1454SOL    HW2 5106   0.384   2.255   0.597
 1455SOL     OW 5107   1.699   3.350   1.095
 1455SOL    HW1 5108   1.619   3.329   1.047
 1455SOL    HW2 5109   1.707   3.281   1.160
 1456SOL     OW 5110   0.297   2.350   1.250
 1456SOL    HW1 5111   0.371   2.307   1.293
 1456SOL    HW2 5112   0.327   2.366   1.161
 1457SOL     OW 5113   0.828   3.440   0.677
 1457SOL    HW1 5114   0.811   3.496   0.602
 1457SOL    HW2 5115   0.753   3.381   0.681
 1458SOL     OW 5116   1.433   2.090   1.115
 1458SOL    HW1 5117   1.464   2.011   1.161
 1458SOL    HW2 5118   1.381   2.137   1.180
 1459SOL     OW 5119   1.009   1.880   1.141
 1459SOL    HW1 5120   0.954   1.812   1.099
 1459SOL    HW2 5121   1.097   1.842   1.143
 1460SOL     OW 5122   0.770   3.189   0.318
 1460SOL    HW1 5123   0.741   3.099   0.333
 1460SOL    HW2 5124   0.853   3.197   0.365
 1461SOL     OW 5125   0.621   3.417   1.286
 1461SOL    HW1 5126   0.623   3.499   1.336
 1461SOL    HW2 5127   0.708   3.411   1.248
 1462SOL     OW 5128   1.350   1.917   0.165
 1462SOL    HW1 5129   1.372   1.867   0.086
 1462SOL    HW2 5130   1.263   1.886   0.190
 1463SOL     OW 5131   1.296   2.324   0.680
 1463SOL    HW1 5132   1.242   2.403   0.686
 1463SOL    HW2 5133   1.291   2.285   0.768
 1464SOL     OW 5134   1.557   2.058   0.859
 1464SOL    HW1 5135   1.514   2.079   0.942
 1464SOL    HW2 5136   1.565   2.142   0.814
 1465SOL     OW 5137   0.037   2.914   0.285
 1465SOL    HW1 5138   0.132   2.901   0.284
 1465SOL    HW2 5139   0.011   2.885   0.372
 1466SOL     OW 5140   0.887   3.518   0.346
 1466SOL    HW1 5141   0.814   3.498   0.288
 1466SOL    HW2 5142   0.856   3.591   0.400
 1467SOL     OW 5143   0.246   2.492   1.983
 1467SOL    HW1 5144   0.173   2.468   2.039
 1467SOL    HW2 5145   0.216   2.474   1.894
 1468SOL     OW 5146   0.212   2.137   2.853
 1468SOL    HW1 5147   0.249   2.110   2.938
 1468SOL    HW2 5148   0.137   2.079   2.840
 1469SOL     OW 5149   0.007   2.257   2.502
 1469SOL    HW1 5150   4.426   2.289   2.541
 1469SOL    HW2 5151   4.482   2.177   2.456
 1470SOL     OW 5152   0.568   3.153   3.040
 1470SOL    HW1 5153   0.481   3.157   3.001
 1470SOL    HW2 5154   0.584   3.240   3.075
 1471SOL     OW 5155   1.563   3.374   2.570
 1471SOL    HW1 5156   1.520   3.353   2.653
 1471SOL    HW2 5157   1.492   3.378   2.506
 1472SOL     OW 5158   1.130   2.561   2.561
 1472SOL    HW1 5159   1.179   2.642   2.548
 1472SOL    HW2 5160   1.083   2.574   2.644
 1473SOL     OW 5161   1.783   2.456   2.088
 1473SOL    HW1 5162   1.753   2.454   1.997
 1473SOL    HW2 5163   1.731   2.390   2.133
 1474SOL     OW 5164   0.752   3.003   2.904
 1474SOL    HW1 5165   0.684   3.038   2.962
 1474SOL    HW2 5166   0.789   3.079   2.860
 1475SOL     OW 5167   0.869   2.631   3.683
 1475SOL    HW1 5168   0.854   2.702   3.746
 1475SOL    HW2 5169   0.892   2.676   3.602
 1476SOL     OW 5170   0.685   2.864   2.508
 1476SOL    HW1 5171   0.751   2.853   2.577
 1476SOL    HW2 5172   0.616   2.916   2.549
 1477SOL     OW 5173   0.712   3.011   3.677
 1477SOL    HW1 5174   0.759   3.090   3.705
 1477SOL    HW2 5175   0.631   3.044   3.639
 1478SOL     OW 5176   0.334   3.281   2.931
 1478SOL    HW1 5177   0.253   3.262   2.885
 1478SOL    HW2 5178   0.384   3.336   2.870
 1479SOL     OW 5179   1.460   3.362   3.218
 1479SOL    HW1 5180   1.512   3.442   3.228
 1479SOL    HW2 5181   1.395   3.367   3.288
 1480SOL     OW 5182   0.446   2.266   3.350
 1480SOL    HW1 5183   0.526   2.213   3.356
 1480SOL    HW2 5184   0.375   2.203   3.358
 1481SOL     OW 5185   1.595   2.302   2.606
 1481SOL    HW1 5186   1.519   2.328   2.554
 1481SOL    HW2 5187   1.632   2.385   2.637
 1482SOL     OW 5188   0.246   3.553   2.338
 1482SOL    HW1 5189   0.230   3.638   2.378
 1482SOL    HW2 5190   0.316   3.570   2.274
 1483SOL     OW 5191   1.137   3.204   3.555
 1483SOL    HW1 5192   1.177   3.199   3.642
 1483SOL    HW2 5193   1.084   3.124   3.548
 1484SOL     OW 5194   0.253   3.288   2.389
 1484SOL    HW1 5195   0.242   3.383   2.391
 1484SOL    HW2 5196   0.191   3.255   2.454
 1485SOL     OW 5197   0.251   2.945   2.748
 1485SOL    HW1 5198   0.265   2.853   2.772
 1485SOL    HW2 5199   0.189   2.978   2.813
 1486SOL     OW 5200   0.612   3.653   3.293
 1486SOL    HW1 5201   0.528   3.635   3.336
 1486SOL    HW2 5202   0.632   3.743   3.317
 1487SOL     OW 5203   0.576   2.850   2.002
 1487SOL    HW1 5204   0.625   2.892   1.931
 1487SOL    HW2 5205   0.620   2.880   2.082
 1488SOL     OW 5206   1.594   1.983   3.333
 1488SOL    HW1 5207   1.609   2.060   3.279
 1488SOL    HW2 5208   1.578   2.018   3.421
 1489SOL     OW 5209   0.136   2.510   2.435
 1489SOL    HW1 5210   0.090   2.429   2.455
 1489SOL    HW2 5211   0.106   2.572   2.502
 1490SOL     OW 5212   1.843   3.620   2.195
 1490SOL    HW1 5213   1.908   3.592   2.260
 1490SOL    HW2 5214   1.865   3.711   2.176
 1491SOL     OW 5215   0.032   3.465   2.006
 1491SOL    HW1 5216   0.020   3.370   2.001
 1491SOL    HW2 5217   0.029   3.484   2.100
 1492SOL     OW 5218   1.690   2.782   2.503
 1492SOL    HW1 5219   1.771   2.738   2.477
 1492SOL    HW2 5220   1.665   2.833   2.427
 1493SOL     OW 5221   1.646   2.967   2.291
 1493SOL    HW1 5222   1.732   2.972   2.249
 1493SOL    HW2 5223   1.651   3.030   2.364
 1494SOL     OW 5224   0.111   2.628   3.441
 1494SOL    HW1 5225   0.200   2.622   3.406
 1494SOL    HW2 5226   0.101   2.720   3.465
 1495SOL     OW 5227   0.615   3.249   2.598
 1495SOL    HW1 5228   0.568   3.166   2.608
 1495SOL    HW2 5229   0.598   3.276   2.508
 1496SOL     OW 5230   1.288   3.100   3.284
 1496SOL    HW1 5231   1.320   3.032   3.225
 1496SOL    HW2 5232   1.346   3.094   3.360
 1497SOL     OW 5233   0.818   1.863   2.372
 1497SOL    HW1 5234   0.858   1.947   2.351
 1497SOL    HW2 5235   0.725   1.881   2.380
 1498SOL     OW 5236   0.178   2.801   3.141
 1498SOL    HW1 5237   0.269   2.782   3.122
 1498SOL    HW2 5238   0.133   2.792   3.057
 1499SOL     OW 5239   1.532   2.856   2.061
 1499SOL    HW1 5240   1.462   2.800   2.092
 1499SOL    HW2 5241   1.572   2.891   2.141
 1500SOL     OW 5242   1.186   3.670   3.485
 1500SOL    HW1 5243   1.194   3.729   3.410
 1500SOL    HW2 5244   1.202   3.583   3.449
 1501SOL     OW 5245   0.332   2.119   3.663
 1501SOL    HW1 5246   0.379   2.192   3.702
 1501SOL    HW2 5247   0.244   2.124   3.699
 1502SOL     OW 5248   1.468   3.281   2.813
 1502SOL    HW1 5249   1.399   3.297   2.878
 1502SOL    HW2 5250   1.454   3.190   2.786
 1503SOL     OW 5251   1.658   3.604   2.440
 1503SOL    HW1 5252   1.638   3.574   2.351
 1503SOL    HW2 5253   1.633   3.531   2.496
 1504SOL     OW 5254   0.598   2.581   2.130
 1504SOL    HW1 5255   0.599   2.663   2.081
 1504SOL    HW2 5256   0.532   2.595   2.198
 1505SOL     OW 5257   1.277   2.220   2.795
 1505SOL    HW1 5258   1.188   2.185   2.804
 1505SOL    HW2 5259   1.330   2.166   2.854
 1506SOL     OW 5260   1.580   3.533   2.171
 1506SOL    HW1 5261   1.671   3.563   2.164
 1506SOL    HW2 5262   1.552   3.517   2.081
 1507SOL     OW 5263   0.793   2.478   3.312
 1507SOL    HW1 5264   0.767   2.453   3.401
 1507SOL    HW2 5265   0.752   2.412   3.256
 1508SOL     OW 5266   1.393   2.336   3.540
 1508SOL    HW1 5267   1.396   2.381   3.624
 1508SOL    HW2 5268   1.452   2.262   3.550
 1509SOL     OW 5269   0.953   2.749   3.445
 1509SOL    HW1 5270   1.008   2.679   3.409
 1509SOL    HW2 5271   0.906   2.784   3.370
 1510SOL     OW 5272   0.993   2.276   3.099
 1510SOL    HW1 5273   0.906   2.295   3.135
 1510SOL    HW2 5274   0.975   2.229   3.018
 1511SOL     OW 5275   1.052   2.560   2.288
 1511SOL    HW1 5276   1.068   2.553   2.382
 1511SOL    HW2 5277   0.969   2.514   2.274
 1512SOL     OW 5278   0.094   2.692   2.648
 1512SOL    HW1 5279   0.181   2.678   2.685
 1512SOL    HW2 5280   0.037   2.706   2.723
 1513SOL     OW 5281   0.124   3.718   3.439
 1513SOL    HW1 5282   0.116   3.696   3.532
 1513SOL    HW2 5283   0.044   3.682   3.399
 1514SOL     OW 5284   0.895   2.211   2.057
 1514SOL    HW1 5285   0.935   2.273   1.995
 1514SOL    HW2 5286   0.908   2.125   2.016
 1515SOL     OW 5287   1.689   2.450   3.692
 1515SOL    HW1 5288   1.656   2.522   3.637
 1515SOL    HW2 5289   1.719   2.384   3.629
 1516SOL     OW 5290   1.378   3.004   2.404
 1516SOL    HW1 5291   1.456   2.992   2.350
 1516SOL    HW2 5292   1.324   3.066   2.354
 1517SOL     OW 5293   0.552   2.043   2.756
 1517SOL    HW1 5294   0.554   2.074   2.846
 1517SOL    HW2 5295   0.553   2.122   2.703
 1518SOL     OW 5296   1.004   3.306   2.333
 1518SOL    HW1 5297   0.969   3.380   2.283
 1518SOL    HW2 5298   0.983   3.326   2.424
 1519SOL     OW 5299   0.357   3.674   2.721
 1519SOL    HW1 5300   0.398   3.588   2.732
 1519SOL    HW2 5301   0.427   3.737   2.739
 1520SOL     OW 5302   1.800   2.915   2.730
 1520SOL    HW1 5303   1.745   2.898   2.653
 1520SOL    HW2 5304   1.738   2.923   2.802
 1521SOL     OW 5305   1.228   3.401   3.375
 1521SOL    HW1 5306   1.214   3.328   3.436
 1521SOL    HW2 5307   1.162   3.387   3.306
 1522SOL     OW 5308   0.314   2.815   2.118
 1522SOL    HW1 5309   0.397   2.839   2.077
 1522SOL    HW2 5310   0.300   2.724   2.093
 1523SOL     OW 5311   1.481   2.603   2.586
 1523SOL    HW1 5312   1.471   2.562   2.672
 1523SOL    HW2 5313   1.557   2.661   2.597
 1524SOL     OW 5314   0.469   3.126   3.597
 1524SOL    HW1 5315   0.442   3.132   3.505
 1524SOL    HW2 5316   0.387   3.128   3.646
 1525SOL     OW 5317   1.122   3.640   2.092
 1525SOL    HW1 5318   1.048   3.599   2.137
 1525SOL    HW2 5319   1.146   3.578   2.023
 1526SOL     OW 5320   0.197   2.138   3.347
 1526SOL    HW1 5321   0.140   2.215   3.354
 1526SOL    HW2 5322   0.182   2.089   3.427
 1527SOL     OW 5323   1.629   3.243   1.950
 1527SOL    HW1 5324   1.587   3.328   1.935
 1527SOL    HW2 5325   1.560   3.179   1.931
 1528SOL     OW 5326   0.469   3.605   2.175
 1528SOL    HW1 5327   0.512   3.659   2.241
 1528SOL    HW2 5328   0.541   3.568   2.123
 1529SOL     OW 5329   1.399   1.971   2.298
 1529SOL    HW1 5330   1.397   1.943   2.206
 1529SOL    HW2 5331   1.492   1.976   2.319
 1530SOL     OW 5332   0.260   3.655   3.090
 1530SOL    HW1 5333   0.304   3.578   3.127
 1530SOL    HW2 5334   0.222   3.623   3.008
 1531SOL     OW 5335   0.938   3.561   2.760
 1531SOL    HW1 5336   1.015   3.509   2.783
 1531SOL    HW2 5337   0.895   3.511   2.690
 1532SOL     OW 5338   0.396   2.556   2.334
 1532SOL    HW1 5339   0.418   2.464   2.346
 1532SOL    HW2 5340   0.304   2.562   2.359
 1533SOL     OW 5341   1.530   2.087   3.587
 1533SOL    HW1 5342   1.540   2.107   3.681
 1533SOL    HW2 5343   1.464   2.018   3.584
 1534SOL     OW 5344   0.638   1.985   1.964
 1534SOL    HW1 5345   0.702   1.916   1.982
 1534SOL    HW2 5346   0.588   1.952   1.889
 1535SOL     OW 5347   0.766   2.140   3.617
 1535SOL    HW1 5348   0.843   2.085   3.615
 1535SOL    HW2 5349   0.718   2.114   3.696
 1536SOL     OW 5350   0.877   3.385   3.056
 1536SOL    HW1 5351   0.860   3.348   2.969
 1536SOL    HW2 5352   0.946   3.330   3.092
 1537SOL     OW 5353   1.340   2.451   3.295
 1537SOL    HW1 5354   1.371   2.419   3.379
 1537SOL    HW2 5355   1.377   2.539   3.287
 1538SOL     OW 5356   0.817   3.256   2.804
 1538SOL    HW1 5357   0.901   3.244   2.760
 1538SOL    HW2 5358   0.752   3.258   2.733
 1539SOL     OW 5359   0.928   2.371   2.765
 1539SOL    HW1 5360   0.904   2.363   2.672
 1539SOL    HW2 5361   0.959   2.284   2.789
 1540SOL     OW 5362   0.554   1.924   2.361
 1540SOL    HW1 5363   0.474   1.922   2.413
 1540SOL    HW2 5364   0.546   2.002   2.306
 1541SOL     OW 5365   1.428   3.061   1.903
 1541SOL    HW1 5366   1.457   2.985   1.953
 1541SOL    HW2 5367   1.342   3.082   1.939
 1542SOL     OW 5368   0.295   1.907   2.039
 1542SOL    HW1 5369   0.359   1.974   2.012
 1542SOL    HW2 5370   0.348   1.841   2.085
 1543SOL     OW 5371   0.940   2.110   2.321
 1543SOL    HW1 5372   0.914   2.150   2.238
 1543SOL    HW2 5373   1.034   2.124   2.326
 1544SOL     OW 5374   1.080   2.544   3.321
 1544SOL    HW1 5375   1.013   2.476   3.325
 1544SOL    HW2 5376   1.163   2.496   3.314
 1545SOL     OW 5377   1.223   3.432   2.656
 1545SOL    HW1 5378   1.238   3.499   2.589
 1545SOL    HW2 5379   1.291   3.448   2.721
 1546SOL     OW 5380   0.467   3.013   2.596
 1546SOL    HW1 5381   0.398   2.994   2.659
 1546SOL    HW2 5382   0.427   2.998   2.510
 1547SOL     OW 5383   1.268   3.655   2.472
 1547SOL    HW1 5384   1.315   3.716   2.415
 1547SOL    HW2 5385   1.200   3.708   2.514
 1548SOL     OW 5386   1.023   2.402   1.886
 1548SOL    HW1 5387   0.979   2.485   1.866
 1548SOL    HW2 5388   1.088   2.424   1.952
 1549SOL     OW 5389   0.083   2.386   3.273
 1549SOL    HW1 5390   0.145   2.381   3.200
 1549SOL    HW2 5391   0.067   2.480   3.284
 1550SOL     OW 5392   0.560   2.090   3.029
 1550SOL    HW1 5393   0.604   2.013   3.065
 1550SOL    HW2 5394   0.468   2.080   3.055
 1551SOL     OW 5395   0.868   2.321   2.502
 1551SOL    HW1 5396   0.822   2.375   2.438
 1551SOL    HW2 5397   0.889   2.241   2.454
 1552SOL     OW 5398   1.015   1.916   2.613
 1552SOL    HW1 5399   0.957   1.908   2.537
 1552SOL    HW2 5400   0.993   1.841   2.667
 1553SOL     OW 5401   1.437   3.024   2.718
 1553SOL    HW1 5402   1.367   2.959   2.720
 1553SOL    HW2 5403   1.459   3.034   2.626
 1554SOL     OW 5404   1.461   2.472   2.840
 1554SOL    HW1 5405   1.414   2.389   2.836
 1554SOL    HW2 5406   1.521   2.462   2.913
 1555SOL     OW 5407   1.845   2.675   2.243
 1555SOL    HW1 5408   1.904   2.626   2.301
 1555SOL    HW2 5409   1.822   2.612   2.175
 1556SOL     OW 5410   0.491   3.281   2.019
 1556SOL    HW1 5411   0.414   3.253   2.068
 1556SOL    HW2 5412   0.477   3.249   1.930
 1557SOL     OW 5413   1.672   3.127   2.505
 1557SOL    HW1 5414   1.766   3.129   2.520
 1557SOL    HW2 5415   1.641   3.215   2.528
 1558SOL     OW 5416   1.394   2.434   1.933
 1558SOL    HW1 5417   1.332   2.415   2.004
 1558SOL    HW2 5418   1.476   2.396   1.963
 1559SOL     OW 5419   0.524   2.122   2.176
 1559SOL    HW1 5420   0.573   2.077   2.107
 1559SOL    HW2 5421   0.503   2.207   2.139
 1560SOL     OW 5422   1.751   3.103   3.431
 1560SOL    HW1 5423   1.838   3.063   3.429
 1560SOL    HW2 5424   1.766   3.193   3.460
 1561SOL     OW 5425   1.057   3.216   3.195
 1561SOL    HW1 5426   0.982   3.185   3.246
 1561SOL    HW2 5427   1.133   3.174   3.237
 1562SOL     OW 5428   1.609   3.489   3.518
 1562SOL    HW1 5429   1.602   3.522   3.428
 1562SOL    HW2 5430   1.691   3.440   3.519
 1563SOL     OW 5431   1.131   3.068   2.966
 1563SOL    HW1 5432   1.071   3.104   3.031
 1563SOL    HW2 5433   1.099   3.100   2.882
 1564SOL     OW 5434   1.628   2.960   2.938
 1564SOL    HW1 5435   1.623   3.022   3.011
 1564SOL    HW2 5436   1.549   2.977   2.887
 1565SOL     OW 5437   0.917   1.959   3.257
 1565SOL    HW1 5438   0.941   1.939   3.166
 1565SOL    HW2 5439   0.997   1.998   3.294
 1566SOL     OW 5440   0.984   2.977   3.585
 1566SOL    HW1 5441   0.893   2.992   3.608
 1566SOL    HW2 5442   0.982   2.898   3.530
 1567SOL     OW 5443   0.709   2.924   2.234
 1567SOL    HW1 5444   0.696   2.906   2.327
 1567SOL    HW2 5445   0.784   2.870   2.210
 1568SOL     OW 5446   0.431   2.690   3.106
 1568SOL    HW1 5447   0.501   2.702   3.170
 1568SOL    HW2 5448   0.375   2.623   3.145
 1569SOL     OW 5449   1.265   2.238   3.140
 1569SOL    HW1 5450   1.298   2.315   3.185
 1569SOL    HW2 5451   1.175   2.260   3.116
 1570SOL     OW 5452   0.063   3.438   3.206
 1570SOL    HW1 5453   0.037   3.528   3.189
 1570SOL    HW2 5454   0.159   3.442   3.211
 1571SOL     OW 5455   0.343   2.972   2.355
 1571SOL    HW1 5456   0.353   3.046   2.295
 1571SOL    HW2 5457   0.342   2.895   2.298
 1572SOL     OW 5458   0.560   2.393   2.716
 1572SOL    HW1 5459   0.573   2.453   2.643
 1572SOL    HW2 5460   0.622   2.422   2.783
 1573SOL     OW 5461   1.248   3.211   2.252
 1573SOL    HW1 5462   1.304   3.282   2.283
 1573SOL    HW2 5463   1.161   3.232   2.285
 1574SOL     OW 5464   1.283   3.321   3.009
 1574SOL    HW1 5465   1.338   3.323   3.087
 1574SOL    HW2 5466   1.227   3.244   3.021
 1575SOL     OW 5467   1.584   2.488   2.340
 1575SOL    HW1 5468   1.532   2.531   2.407
 1575SOL    HW2 5469   1.622   2.560   2.290
 1576SOL     OW 5470   0.346   3.397   3.175
 1576SOL    HW1 5471   0.332   3.348   3.093
 1576SOL    HW2 5472   0.441   3.405   3.182
 1577SOL     OW 5473   0.485   2.619   3.532
 1577SOL    HW1 5474   0.515   2.657   3.449
 1577SOL    HW2 5475   0.538   2.539   3.542
 1578SOL     OW 5476   1.600   2.649   3.540
 1578SOL    HW1 5477   1.514   2.691   3.533
 1578SOL    HW2 5478   1.653   2.691   3.472
 1579SOL     OW 5479   0.996   1.989   3.616
 1579SOL    HW1 5480   1.054   2.060   3.590
 1579SOL    HW2 5481   1.043   1.909   3.591
 1580SOL     OW 5482   0.497   1.904   3.610
 1580SOL    HW1 5483   0.454   1.847   3.545
 1580SOL    HW2 5484   0.439   1.979   3.618
 1581SOL     OW 5485   0.591   2.736   2.887
 1581SOL    HW1 5486   0.620   2.827   2.889
 1581SOL    HW2 5487   0.534   2.728   2.964
 1582SOL     OW 5488   1.355   2.722   2.888
 1582SOL    HW1 5489   1.270   2.710   2.846
 1582SOL    HW2 5490   1.397   2.636   2.883
 1583SOL     OW 5491   1.204   2.391   2.128
 1583SOL    HW1 5492   1.211   2.312   2.182
 1583SOL    HW2 5493   1.160   2.455   2.184
 1584SOL     OW 5494   0.301   2.051   3.104
 1584SOL    HW1 5495   0.262   2.084   3.185
 1584SOL    HW2 5496   0.285   1.957   3.106
 1585SOL     OW 5497   0.031   3.174   3.149
 1585SOL    HW1 5498   0.072   3.127   3.221
 1585SOL    HW2 5499   0.040   3.267   3.172
 1586SOL     OW 5500   0.724   2.492   2.919
 1586SOL    HW1 5501   0.800   2.475   2.862
 1586SOL    HW2 5502   0.697   2.581   2.896
 1587SOL     OW 5503   1.734   2.823   3.714
 1587SOL    HW1 5504   1.690   2.758   3.660
 1587SOL    HW2 5505   1.674   2.837   3.788
 1588SOL     OW 5506   0.313   1.931   2.480
 1588SOL    HW1 5507   0.287   2.020   2.506
 1588SOL    HW2 5508   0.312   1.881   2.562
 1589SOL     OW 5509   1.630   2.238   2.233
 1589SOL    HW1 5510   1.634   2.170   2.300
 1589SOL    HW2 5511   1.602   2.316   2.280
 1590SOL     OW 5512   1.028   2.621   2.822
 1590SOL    HW1 5513   1.023   2.638   2.916
 1590SOL    HW2 5514   1.002   2.529   2.813
 1591SOL     OW 5515   0.983   3.429   3.580
 1591SOL    HW1 5516   0.967   3.472   3.496
 1591SOL    HW2 5517   1.025   3.346   3.557
 1592SOL     OW 5518   1.854   3.366   3.467
 1592SOL    HW1 5519   1.873   3.393   3.377
 1592SOL    HW2 5520   1.935   3.383   3.515
 1593SOL     OW 5521   0.347   2.797   3.679
 1593SOL    HW1 5522   0.418   2.827   3.735
 1593SOL    HW2 5523   0.386   2.729   3.625
 1594SOL     OW 5524   1.527   2.137   1.993
 1594SOL    HW1 5525   1.463   2.070   2.017
 1594SOL    HW2 5526   1.560   2.170   2.077
 1595SOL     OW 5527   1.291   2.688   1.892
 1595SOL    HW1 5528   1.333   2.602   1.896
 1595SOL    HW2 5529   1.322   2.726   1.811
 1596SOL     OW 5530   1.067   3.198   2.716
 1596SOL    HW1 5531   1.070   3.126   2.654
 1596SOL    HW2 5532   1.127   3.264   2.681
 1597SOL     OW 5533   0.318   2.673   2.807
 1597SOL    HW1 5534   0.413   2.690   2.806
 1597SOL    HW2 5535   0.311   2.581   2.834
 1598SOL     OW 5536   0.328   2.388   2.849
 1598SOL    HW1 5537   0.291   2.301   2.834
 1598SOL    HW2 5538   0.407   2.390   2.796
 1599SOL     OW 5539   1.134   2.237   3.545
 1599SOL    HW1 5540   1.086   2.292   3.608
 1599SOL    HW2 5541   1.221   2.276   3.542
 1600SOL     OW 5542   1.160   2.064   3.332
 1600SOL    HW1 5543   1.150   2.127   3.404
 1600SOL    HW2 5544   1.202   2.113   3.262
 1601SOL     OW 5545   4.491   3.183   2.070
 1601SOL    HW1 5546   4.399   3.200   2.051
 1601SOL    HW2 5547   4.495   3.090   2.090
 1602SOL     OW 5548   0.100   3.635   2.803
 1602SOL    HW1 5549   0.060   3.587   2.730
 1602SOL    HW2 5550   0.188   3.657   2.772
 1603SOL     OW 5551   0.495   3.436   2.769
 1603SOL    HW1 5552   0.563   3.499   2.793
 1603SOL    HW2 5553   0.539   3.374   2.711
 1604SOL     OW 5554   0.981   2.653   3.087
 1604SOL    HW1 5555   1.038   2.631   3.161
 1604SOL    HW2 5556   0.896   2.615   3.111
 1605SOL     OW 5557   0.031   2.425   2.961
 1605SOL    HW1 5558   0.118   2.396   2.934
 1605SOL    HW2 5559   0.014   2.376   3.042
 1606SOL     OW 5560   0.179   2.385   3.578
 1606SOL    HW1 5561   0.260   2.355   3.537
 1606SOL    HW2 5562   0.157   2.465   3.530
 1607SOL     OW 5563   1.374   2.802   3.519
 1607SOL    HW1 5564   1.396   2.895   3.516
 1607SOL    HW2 5565   1.371   2.775   3.427
 1608SOL     OW 5566   0.818   2.432   2.224
 1608SOL    HW1 5567   0.822   2.357   2.164
 1608SOL    HW2 5568   0.744   2.484   2.192
 1609SOL     OW 5569   1.643   2.466   3.047
 1609SOL    HW1 5570   1.635   2.405   3.120
 1609SOL    HW2 5571   1.731   2.451   3.012
 1610SOL     OW 5572   0.274   3.424   3.602
 1610SOL    HW1 5573   0.215   3.475   3.657
 1610SOL    HW2 5574   0.255   3.333   3.626
 1611SOL     OW 5575   0.697   2.314   3.122
 1611SOL    HW1 5576   0.648   2.238   3.090
 1611SOL    HW2 5577   0.695   2.376   3.049
 1612SOL     OW 5578   0.927   3.541   3.330
 1612SOL    HW1 5579   0.901   3.504   3.246
 1612SOL    HW2 5580   0.920   3.636   3.318
 1613SOL     OW 5581   0.471   2.352   2.044
 1613SOL    HW1 5582   0.532   2.421   2.069
 1613SOL    HW2 5583   0.388   2.397   2.029
 1614SOL     OW 5584   0.162   3.003   3.321
 1614SOL    HW1 5585   0.144   2.960   3.404
 1614SOL    HW2 5586   0.168   2.932   3.257
 1615SOL     OW 5587   1.325   2.908   3.083
 1615SOL    HW1 5588   1.347   2.844   3.016
 1615SOL    HW2 5589   1.256   2.962   3.045
 1616SOL     OW 5590   1.314   2.719   2.168
 1616SOL    HW1 5591   1.239   2.689   2.219
 1616SOL    HW2 5592   1.287   2.705   2.077
 1617SOL     OW 5593   1.774   3.604   3.014
 1617SOL    HW1 5594   1.834   3.630   2.944
 1617SOL    HW2 5595   1.749   3.514   2.992
 1618SOL     OW 5596   1.241   3.595   2.973
 1618SOL    HW1 5597   1.323   3.617   2.929
 1618SOL    HW2 5598   1.247   3.502   2.992
 1619SOL     OW 5599   0.067   3.046   2.912
 1619SOL    HW1 5600   0.060   3.077   3.003
 1619SOL    HW2 5601   0.031   3.118   2.860
 1620SOL     OW 5602   0.679   3.530   3.595
 1620SOL    HW1 5603   0.621   3.605   3.587
 1620SOL    HW2 5604   0.744   3.542   3.525
 1621SOL     OW 5605   1.668   1.997   2.377
 1621SOL    HW1 5606   1.743   1.989   2.318
 1621SOL    HW2 5607   1.667   1.915   2.426
 1622SOL     OW 5608   1.391   3.430   2.349
 1622SOL    HW1 5609   1.451   3.463   2.281
 1622SOL    HW2 5610   1.342   3.506   2.377
 1623SOL     OW 5611   0.118   3.669   3.710
 1623SOL    HW1 5612   0.077   3.597   3.758
 1623SOL    HW2 5613   0.181   3.706   3.771
 1624SOL     OW 5614   1.278   2.788   2.533
 1624SOL    HW1 5615   1.352   2.727   2.540
 1624SOL    HW2 5616   1.312   2.860   2.481
 1625SOL     OW 5617   0.811   3.137   3.290
 1625SOL    HW1 5618   0.784   3.176   3.373
 1625SOL    HW2 5619   0.741   3.157   3.229
 1626SOL     OW 5620   0.672   3.484   2.017
 1626SOL    HW1 5621   0.683   3.496   1.923
 1626SOL    HW2 5622   0.617   3.406   2.025
 1627SOL     OW 5623   1.624   3.589   3.253
 1627SOL    HW1 5624   1.675   3.595   3.172
 1627SOL    HW2 5625   1.610   3.679   3.280
 1628SOL     OW 5626   1.803   2.012   2.842
 1628SOL    HW1 5627   1.847   1.934   2.809
 1628SOL    HW2 5628   1.725   2.020   2.788
 1629SOL     OW 5629   0.263   2.181   2.580
 1629SOL    HW1 5630   0.180   2.220   2.553
 1629SOL    HW2 5631   0.254   2.168   2.674
 1630SOL     OW 5632   1.208   3.467   1.894
 1630SOL    HW1 5633   1.197   3.375   1.921
 1630SOL    HW2 5634   1.142   3.479   1.825
 1631SOL     OW 5635   0.826   2.869   3.235
 1631SOL    HW1 5636   0.869   2.865   3.149
 1631SOL    HW2 5637   0.824   2.963   3.256
 1632SOL     OW 5638   0.916   2.773   2.152
 1632SOL    HW1 5639   0.977   2.805   2.086
 1632SOL    HW2 5640   0.964   2.704   2.197
 1633SOL     OW 5641   1.491   3.488   1.905
 1633SOL    HW1 5642   1.396   3.480   1.891
 1633SOL    HW2 5643   1.528   3.494   1.817
 1634SOL     OW 5644   0.373   3.171   3.352
 1634SOL    HW1 5645   0.355   3.250   3.301
 1634SOL    HW2 5646   0.299   3.113   3.335
 1635SOL     OW 5647   1.612   3.146   3.143
 1635SOL    HW1 5648   1.668   3.132   3.219
 1635SOL    HW2 5649   1.550   3.213   3.171
 1636SOL     OW 5650   1.055   2.970   2.569
 1636SOL    HW1 5651   0.984   2.920   2.608
 1636SOL    HW2 5652   1.118   2.904   2.540
 1637SOL     OW 5653   1.021   2.103   2.829
 1637SOL    HW1 5654   1.017   2.055   2.746
 1637SOL    HW2 5655   1.017   2.034   2.895
 1638SOL     OW 5656   0.606   3.351   2.344
 1638SOL    HW1 5657   0.649   3.302   2.275
 1638SOL    HW2 5658   0.528   3.389   2.302
 1639SOL     OW 5659   1.724   2.261   3.241
 1639SOL    HW1 5660   1.803   2.315   3.240
 1639SOL    HW2 5661   1.747   2.185   3.188
 1640SOL     OW 5662   0.252   3.205   2.137
 1640SOL    HW1 5663   0.157   3.203   2.124
 1640SOL    HW2 5664   0.263   3.237   2.227
 1641SOL     OW 5665   0.116   2.869   3.555
 1641SOL    HW1 5666   0.052   2.913   3.612
 1641SOL    HW2 5667   0.194   2.860   3.609
 1642SOL     OW 5668   0.675   2.061   3.361
 1642SOL    HW1 5669   0.759   2.038   3.321
 1642SOL    HW2 5670   0.698   2.090   3.449
 1643SOL     OW 5671   0.072   2.187   1.893
 1643SOL    HW1 5672   4.478   2.201   1.905
 1643SOL    HW2 5673   0.103   2.269   1.853
 1644SOL     OW 5674   1.429   2.721   3.262
 1644SOL    HW1 5675   1.380   2.782   3.206
 1644SOL    HW2 5676   1.518   2.723   3.227
 1645SOL     OW 5677   0.086   2.037   2.165
 1645SOL    HW1 5678   0.080   2.111   2.104
 1645SOL    HW2 5679   0.162   1.987   2.134
 1646SOL     OW 5680   1.178   3.200   1.979
 1646SOL    HW1 5681   1.087   3.170   1.980
 1646SOL    HW2 5682   1.205   3.200   2.071
 1647SOL     OW 5683   0.625   2.693   3.295
 1647SOL    HW1 5684   0.682   2.769   3.280
 1647SOL    HW2 5685   0.686   2.619   3.301
 1648SOL     OW 5686   1.483   3.640   2.842
 1648SOL    HW1 5687   1.505   3.702   2.772
 1648SOL    HW2 5688   1.567   3.620   2.884
 1649SOL     OW 5689   0.712   2.425   3.566
 1649SOL    HW1 5690   0.758   2.486   3.624
 1649SOL    HW2 5691   0.739   2.339   3.596
 1650SOL     OW 5692   1.472   3.061   3.493
 1650SOL    HW1 5693   1.460   3.074   3.587
 1650SOL    HW2 5694   1.566   3.077   3.479
 1651SOL     OW 5695   0.379   3.606   3.427
 1651SOL    HW1 5696   0.294   3.647   3.409
 1651SOL    HW2 5697   0.357   3.527   3.476
 1652SOL     OW 5698   1.669   2.743   3.116
 1652SOL    HW1 5699   1.660   2.658   3.075
 1652SOL    HW2 5700   1.658   2.806   3.044
 1653SOL     OW 5701   1.217   2.182   2.319
 1653SOL    HW1 5702   1.278   2.109   2.312
 1653SOL    HW2 5703   1.245   2.230   2.396
 1654SOL     OW 5704   0.589   2.599   2.532
 1654SOL    HW1 5705   0.627   2.685   2.517
 1654SOL    HW2 5706   0.522   2.590   2.464
 1655SOL     OW 5707   1.749   2.239   3.515
 1655SOL    HW1 5708   1.741   2.248   3.420
 1655SOL    HW2 5709   1.680   2.177   3.539
 1656SOL     OW 5710   1.748   2.799   3.371
 1656SOL    HW1 5711   1.740   2.893   3.384
 1656SOL    HW2 5712   1.731   2.785   3.278
 1657SOL     OW 5713   0.865   3.228   1.899
 1657SOL    HW1 5714   0.825   3.255   1.982
 1657SOL    HW2 5715   0.880   3.310   1.852
 1658SOL     OW 5716   0.662   3.651   2.806
 1658SOL    HW1 5717   0.642   3.742   2.782
 1658SOL    HW2 5718   0.757   3.645   2.797
 1659SOL     OW 5719   0.869   2.831   2.716
 1659SOL    HW1 5720   0.918   2.758   2.755
 1659SOL    HW2 5721   0.832   2.877   2.791
 1660SOL     OW 5722   1.080   2.852   1.951
 1660SOL    HW1 5723   1.057   2.902   1.873
 1660SOL    HW2 5724   1.153   2.797   1.924
 1661SOL     OW 5725   1.852   3.415   2.706
 1661SOL    HW1 5726   1.773   3.405   2.652
 1661SOL    HW2 5727   1.842   3.351   2.776
 1662SOL     OW 5728   0.232   3.166   3.721
 1662SOL    HW1 5729   0.154   3.115   3.701
 1662SOL    HW2 5730   0.230   3.177   3.816
 1663SOL     OW 5731   0.112   3.094   2.530
 1663SOL    HW1 5732   0.128   3.051   2.615
 1663SOL    HW2 5733   0.169   3.049   2.469
 1664SOL     OW 5734   0.684   3.267   3.492
 1664SOL    HW1 5735   0.604   3.222   3.520
 1664SOL    HW2 5736   0.677   3.354   3.529
 1665SOL     OW 5737   1.787   2.041   3.104
 1665SOL    HW1 5738   1.819   1.954   3.128
 1665SOL    HW2 5739   1.796   2.045   3.009
 1666SOL     OW 5740   0.435   2.295   2.387
 1666SOL    HW1 5741   0.461   2.221   2.332
 1666SOL    HW2 5742   0.384   2.255   2.458
 1667SOL     OW 5743   1.700   3.350   2.956
 1667SOL    HW1 5744   1.619   3.329   2.909
 1667SOL    HW2 5745   1.708   3.281   3.022
 1668SOL     OW 5746   0.297   2.350   3.113
 1668SOL    HW1 5747   0.371   2.308   3.156
 1668SOL    HW2 5748   0.327   2.366   3.023
 1669SOL     OW 5749   0.829   3.440   2.539
 1669SOL    HW1 5750   0.812   3.497   2.464
 1669SOL    HW2 5751   0.753   3.381   2.542
 1670SOL     OW 5752   1.432   2.090   2.977
 1670SOL    HW1 5753   1.463   2.012   3.022
 1670SOL    HW2 5754   1.380   2.137   3.043
 1671SOL     OW 5755   1.009   1.880   3.003
 1671SOL    HW1 5756   0.955   1.812   2.961
 1671SOL    HW2 5757   1.097   1.842   3.005
 1672SOL     OW 5758   0.773   3.195   2.178
 1672SOL    HW1 5759   0.743   3.105   2.184
 1672SOL    HW2 5760   0.854   3.197   2.228
 1673SOL     OW 5761   0.621   3.417   3.148
 1673SOL    HW1 5762   0.623   3.499   3.198
 1673SOL    HW2 5763   0.708   3.411   3.110
 1674SOL     OW 5764   1.355   1.916   2.028
 1674SOL    HW1 5765   1.383   1.849   1.965
 1674SOL    HW2 5766   1.267   1.888   2.054
 1675SOL     OW 5767   1.295   2.325   2.541
 1675SOL    HW1 5768   1.240   2.403   2.549
 1675SOL    HW2 5769   1.291   2.285   2.628
 1676SOL     OW 5770   1.565   2.054   2.727
 1676SOL    HW1 5771   1.516   2.082   2.805
 1676SOL    HW2 5772   1.574   2.133   2.675
 1677SOL     OW 5773   0.041   2.912   2.152
 1677SOL    HW1 5774   0.133   2.892   2.140
 1677SOL    HW2 5775   0.021   2.884   2.241
 1678SOL     OW 5776   0.887   3.517   2.203
 1678SOL    HW1 5777   0.813   3.500   2.144
 1678SOL    HW2 5778   0.857   3.591   2.256
 1679SOL     OW 5779   0.246   2.492   3.846
 1679SOL    HW1 5780   0.173   2.468   3.901
 1679SOL    HW2 5781   0.216   2.474   3.757
 1680SOL     OW 5782   0.212   2.137   4.715
 1680SOL    HW1 5783   0.248   2.110   4.800
 1680SOL    HW2 5784   0.137   2.079   4.702
 1681SOL     OW 5785   0.007   2.256   4.364
 1681SOL    HW1 5786   4.426   2.289   4.403
 1681SOL    HW2 5787   4.481   2.176   4.318
 1682SOL     OW 5788   0.568   3.153   4.902
 1682SOL    HW1 5789   0.481   3.157   4.862
 1682SOL    HW2 5790   0.584   3.240   4.937
 1683SOL     OW 5791   1.562   3.375   4.432
 1683SOL    HW1 5792   1.520   3.354   4.515
 1683SOL    HW2 5793   1.490   3.380   4.369
 1684SOL     OW 5794   1.131   2.559   4.422
 1684SOL    HW1 5795   1.177   2.642   4.408
 1684SOL    HW2 5796   1.084   2.573   4.505
 1685SOL     OW 5797   1.769   2.472   3.951
 1685SOL    HW1 5798   1.744   2.465   3.859
 1685SOL    HW2 5799   1.746   2.387   3.989
 1686SOL     OW 5800   0.753   3.003   4.766
 1686SOL    HW1 5801   0.685   3.038   4.823
 1686SOL    HW2 5802   0.789   3.080   4.722
 1687SOL     OW 5803   0.869   2.631   5.546
 1687SOL    HW1 5804   0.852   2.701   5.608
 1687SOL    HW2 5805   0.892   2.676   5.464
 1688SOL     OW 5806   0.685   2.864   4.370
 1688SOL    HW1 5807   0.751   2.853   4.439
 1688SOL    HW2 5808   0.616   2.916   4.411
 1689SOL     OW 5809   0.712   3.012   5.539
 1689SOL    HW1 5810   0.759   3.091   5.567
 1689SOL    HW2 5811   0.631   3.044   5.501
 1690SOL     OW 5812   0.334   3.281   4.793
 1690SOL    HW1 5813   0.253   3.262   4.747
 1690SOL    HW2 5814   0.384   3.336   4.732
 1691SOL     OW 5815   1.459   3.363   5.082
 1691SOL    HW1 5816   1.511   3.442   5.089
 1691SOL    HW2 5817   1.393   3.370   5.151
 1692SOL     OW 5818   0.447   2.266   5.212
 1692SOL    HW1 5819   0.526   2.211   5.218
 1692SOL    HW2 5820   0.374   2.203   5.220
 1693SOL     OW 5821   1.596   2.317   4.443
 1693SOL    HW1 5822   1.512   2.328   4.399
 1693SOL    HW2 5823   1.604   2.394   4.500
 1694SOL     OW 5824   0.246   3.553   4.200
 1694SOL    HW1 5825   0.230   3.638   4.240
 1694SOL    HW2 5826   0.316   3.570   4.136
 1695SOL     OW 5827   1.137   3.204   5.417
 1695SOL    HW1 5828   1.176   3.199   5.504
 1695SOL    HW2 5829   1.084   3.124   5.410
 1696SOL     OW 5830   0.253   3.288   4.251
 1696SOL    HW1 5831   0.242   3.383   4.253
 1696SOL    HW2 5832   0.191   3.255   4.316
 1697SOL     OW 5833   0.251   2.945   4.610
 1697SOL    HW1 5834   0.265   2.853   4.635
 1697SOL    HW2 5835   0.189   2.978   4.675
 1698SOL     OW 5836   0.612   3.653   5.155
 1698SOL    HW1 5837   0.528   3.635   5.198
 1698SOL    HW2 5838   0.632   3.743   5.179
 1699SOL     OW 5839   0.576   2.850   3.864
 1699SOL    HW1 5840   0.625   2.891   3.793
 1699SOL    HW2 5841   0.620   2.880   3.944
 1700SOL     OW 5842   0.137   2.510   4.298
 1700SOL    HW1 5843   0.090   2.429   4.317
 1700SOL    HW2 5844   0.106   2.572   4.364
 1701SOL     OW 5845   1.843   3.620   4.057
 1701SOL    HW1 5846   1.908   3.592   4.121
 1701SOL    HW2 5847   1.865   3.711   4.038
 1702SOL     OW 5848   0.032   3.465   3.868
 1702SOL    HW1 5849   0.020   3.370   3.863
 1702SOL    HW2 5850   0.029   3.484   3.962
 1703SOL     OW 5851   1.686   2.776   4.365
 1703SOL    HW1 5852   1.769   2.734   4.340
 1703SOL    HW2 5853   1.662   2.828   4.288
 1704SOL     OW 5854   1.647   2.964   4.154
 1704SOL    HW1 5855   1.732   2.969   4.111
 1704SOL    HW2 5856   1.651   3.030   4.223
 1705SOL     OW 5857   0.110   2.628   5.302
 1705SOL    HW1 5858   0.200   2.622   5.268
 1705SOL    HW2 5859   0.100   2.720   5.327
 1706SOL     OW 5860   0.614   3.249   4.460
 1706SOL    HW1 5861   0.568   3.166   4.470
 1706SOL    HW2 5862   0.598   3.276   4.370
 1707SOL     OW 5863   1.287   3.099   5.145
 1707SOL    HW1 5864   1.322   3.034   5.083
 1707SOL    HW2 5865   1.345   3.094   5.221
 1708SOL     OW 5866   0.819   1.863   4.235
 1708SOL    HW1 5867   0.858   1.947   4.214
 1708SOL    HW2 5868   0.725   1.881   4.242
 1709SOL     OW 5869   0.177   2.801   5.003
 1709SOL    HW1 5870   0.269   2.782   4.983
 1709SOL    HW2 5871   0.132   2.792   4.919
 1710SOL     OW 5872   1.531   2.857   3.923
 1710SOL    HW1 5873   1.461   2.799   3.954
 1710SOL    HW2 5874   1.572   2.890   4.003
 1711SOL     OW 5875   1.187   3.671   5.348
 1711SOL    HW1 5876   1.193   3.729   5.272
 1711SOL    HW2 5877   1.202   3.583   5.311
 1712SOL     OW 5878   0.333   2.118   5.526
 1712SOL    HW1 5879   0.379   2.193   5.564
 1712SOL    HW2 5880   0.244   2.124   5.561
 1713SOL     OW 5881   1.466   3.282   4.674
 1713SOL    HW1 5882   1.399   3.298   4.740
 1713SOL    HW2 5883   1.451   3.192   4.644
 1714SOL     OW 5884   1.657   3.605   4.302
 1714SOL    HW1 5885   1.638   3.574   4.213
 1714SOL    HW2 5886   1.635   3.532   4.358
 1715SOL     OW 5887   0.598   2.581   3.992
 1715SOL    HW1 5888   0.599   2.663   3.942
 1715SOL    HW2 5889   0.532   2.595   4.060
 1716SOL     OW 5890   1.264   2.213   4.649
 1716SOL    HW1 5891   1.182   2.172   4.676
 1716SOL    HW2 5892   1.327   2.188   4.716
 1717SOL     OW 5893   1.580   3.533   4.034
 1717SOL    HW1 5894   1.670   3.563   4.026
 1717SOL    HW2 5895   1.552   3.517   3.943
 1718SOL     OW 5896   0.790   2.478   5.175
 1718SOL    HW1 5897   0.764   2.452   5.263
 1718SOL    HW2 5898   0.750   2.411   5.118
 1719SOL     OW 5899   1.395   2.342   5.411
 1719SOL    HW1 5900   1.390   2.383   5.497
 1719SOL    HW2 5901   1.462   2.274   5.421
 1720SOL     OW 5902   0.951   2.751   5.309
 1720SOL    HW1 5903   1.003   2.680   5.272
 1720SOL    HW2 5904   0.904   2.788   5.233
 1721SOL     OW 5905   0.979   2.277   4.959
 1721SOL    HW1 5906   0.891   2.296   4.992
 1721SOL    HW2 5907   0.965   2.231   4.876
 1722SOL     OW 5908   1.052   2.560   4.150
 1722SOL    HW1 5909   1.068   2.553   4.243
 1722SOL    HW2 5910   0.969   2.514   4.136
 1723SOL     OW 5911   0.094   2.692   4.510
 1723SOL    HW1 5912   0.180   2.678   4.547
 1723SOL    HW2 5913   0.037   2.706   4.586
 1724SOL     OW 5914   0.123   3.718   5.301
 1724SOL    HW1 5915   0.116   3.696   5.394
 1724SOL    HW2 5916   0.044   3.682   5.261
 1725SOL     OW 5917   0.896   2.211   3.919
 1725SOL    HW1 5918   0.935   2.274   3.858
 1725SOL    HW2 5919   0.910   2.126   3.878
 1726SOL     OW 5920   1.729   2.439   5.568
 1726SOL    HW1 5921   1.696   2.527   5.549
 1726SOL    HW2 5922   1.720   2.392   5.485
 1727SOL     OW 5923   1.379   3.005   4.266
 1727SOL    HW1 5924   1.456   2.991   4.211
 1727SOL    HW2 5925   1.325   3.066   4.216
 1728SOL     OW 5926   0.553   2.042   4.618
 1728SOL    HW1 5927   0.554   2.074   4.708
 1728SOL    HW2 5928   0.553   2.121   4.564
 1729SOL     OW 5929   1.004   3.306   4.195
 1729SOL    HW1 5930   0.969   3.380   4.145
 1729SOL    HW2 5931   0.983   3.326   4.286
 1730SOL     OW 5932   0.357   3.674   4.583
 1730SOL    HW1 5933   0.398   3.588   4.594
 1730SOL    HW2 5934   0.427   3.737   4.601
 1731SOL     OW 5935   1.800   2.947   4.561
 1731SOL    HW1 5936   1.736   2.912   4.499
 1731SOL    HW2 5937   1.754   2.948   4.645
 1732SOL     OW 5938   1.228   3.400   5.237
 1732SOL    HW1 5939   1.214   3.328   5.298
 1732SOL    HW2 5940   1.163   3.387   5.168
 1733SOL     OW 5941   0.314   2.815   3.980
 1733SOL    HW1 5942   0.397   2.839   3.939
 1733SOL    HW2 5943   0.300   2.724   3.955
 1734SOL     OW 5944   1.477   2.614   4.446
 1734SOL    HW1 5945   1.483   2.573   4.532
 1734SOL    HW2 5946   1.557   2.667   4.439
 1735SOL     OW 5947   0.469   3.125   5.459
 1735SOL    HW1 5948   0.442   3.132   5.367
 1735SOL    HW2 5949   0.387   3.128   5.508
 1736SOL     OW 5950   1.122   3.640   3.954
 1736SOL    HW1 5951   1.048   3.599   3.999
 1736SOL    HW2 5952   1.146   3.578   3.885
 1737SOL     OW 5953   0.198   2.138   5.209
 1737SOL    HW1 5954   0.141   2.215   5.215
 1737SOL    HW2 5955   0.181   2.089   5.289
 1738SOL     OW 5956   1.629   3.243   3.812
 1738SOL    HW1 5957   1.587   3.328   3.798
 1738SOL    HW2 5958   1.560   3.179   3.793
 1739SOL     OW 5959   0.469   3.605   4.037
 1739SOL    HW1 5960   0.513   3.658   4.103
 1739SOL    HW2 5961   0.540   3.568   3.985
 1740SOL     OW 5962   1.401   1.968   4.160
 1740SOL    HW1 5963   1.393   1.944   4.068
 1740SOL    HW2 5964   1.495   1.980   4.173
 1741SOL     OW 5965   0.260   3.655   4.952
 1741SOL    HW1 5966   0.304   3.578   4.989
 1741SOL    HW2 5967   0.222   3.623   4.870
 1742SOL     OW 5968   0.938   3.561   4.622
 1742SOL    HW1 5969   1.016   3.509   4.644
 1742SOL    HW2 5970   0.895   3.511   4.552
 1743SOL     OW 5971   0.396   2.556   4.196
 1743SOL    HW1 5972   0.418   2.464   4.208
 1743SOL    HW2 5973   0.304   2.562   4.221
 1744SOL     OW 5974   0.638   1.985   3.826
 1744SOL    HW1 5975   0.703   1.916   3.843
 1744SOL    HW2 5976   0.588   1.952   3.751
 1745SOL     OW 5977   0.766   2.141   5.479
 1745SOL    HW1 5978   0.843   2.084   5.477
 1745SOL    HW2 5979   0.718   2.113   5.557
 1746SOL     OW 5980   0.877   3.385   4.918
 1746SOL    HW1 5981   0.860   3.348   4.831
 1746SOL    HW2 5982   0.946   3.330   4.954
 1747SOL     OW 5983   1.321   2.451   5.170
 1747SOL    HW1 5984   1.358   2.420   5.252
 1747SOL    HW2 5985   1.360   2.537   5.156
 1748SOL     OW 5986   0.817   3.255   4.666
 1748SOL    HW1 5987   0.901   3.244   4.622
 1748SOL    HW2 5988   0.752   3.258   4.595
 1749SOL     OW 5989   0.928   2.373   4.626
 1749SOL    HW1 5990   0.904   2.364   4.534
 1749SOL    HW2 5991   0.961   2.287   4.651
 1750SOL     OW 5992   0.555   1.924   4.223
 1750SOL    HW1 5993   0.474   1.922   4.275
 1750SOL    HW2 5994   0.546   2.002   4.168
 1751SOL     OW 5995   1.428   3.061   3.765
 1751SOL    HW1 5996   1.458   2.985   3.814
 1751SOL    HW2 5997   1.342   3.082   3.801
 1752SOL     OW 5998   0.295   1.908   3.901
 1752SOL    HW1 5999   0.359   1.974   3.874
 1752SOL    HW2 6000   0.348   1.841   3.947
 1753SOL     OW 6001   0.940   2.110   4.183
 1753SOL    HW1 6002   0.914   2.150   4.100
 1753SOL    HW2 6003   1.035   2.124   4.188
 1754SOL     OW 6004   1.070   2.547   5.184
 1754SOL    HW1 6005   1.004   2.478   5.186
 1754SOL    HW2 6006   1.154   2.499   5.182
 1755SOL     OW 6007   1.223   3.432   4.518
 1755SOL    HW1 6008   1.238   3.499   4.451
 1755SOL    HW2 6009   1.291   3.448   4.583
 1756SOL     OW 6010   0.468   3.013   4.458
 1756SOL    HW1 6011   0.398   2.994   4.521
 1756SOL    HW2 6012   0.427   2.998   4.372
 1757SOL     OW 6013   1.268   3.655   4.334
 1757SOL    HW1 6014   1.315   3.716   4.277
 1757SOL    HW2 6015   1.200   3.708   4.376
 1758SOL     OW 6016   1.023   2.401   3.748
 1758SOL    HW1 6017   0.980   2.485   3.729
 1758SOL    HW2 6018   1.089   2.423   3.814
 1759SOL     OW 6019   0.084   2.385   5.136
 1759SOL    HW1 6020   0.145   2.381   5.062
 1759SOL    HW2 6021   0.065   2.479   5.146
 1760SOL     OW 6022   0.559   2.090   4.891
 1760SOL    HW1 6023   0.603   2.012   4.926
 1760SOL    HW2 6024   0.468   2.080   4.917
 1761SOL     OW 6025   0.867   2.321   4.363
 1761SOL    HW1 6026   0.822   2.375   4.299
 1761SOL    HW2 6027   0.890   2.241   4.316
 1762SOL     OW 6028   1.015   1.916   4.476
 1762SOL    HW1 6029   0.958   1.910   4.399
 1762SOL    HW2 6030   0.992   1.839   4.528
 1763SOL     OW 6031   1.424   3.028   4.574
 1763SOL    HW1 6032   1.361   2.956   4.581
 1763SOL    HW2 6033   1.442   3.035   4.480
 1764SOL     OW 6034   1.845   2.676   4.113
 1764SOL    HW1 6035   1.903   2.623   4.167
 1764SOL    HW2 6036   1.816   2.617   4.044
 1765SOL     OW 6037   0.491   3.282   3.881
 1765SOL    HW1 6038   0.414   3.253   3.930
 1765SOL    HW2 6039   0.477   3.249   3.792
 1766SOL     OW 6040   1.671   3.134   4.358
 1766SOL    HW1 6041   1.764   3.141   4.377
 1766SOL    HW2 6042   1.634   3.219   4.384
 1767SOL     OW 6043   1.393   2.435   3.794
 1767SOL    HW1 6044   1.335   2.413   3.867
 1767SOL    HW2 6045   1.480   2.408   3.824
 1768SOL     OW 6046   0.525   2.122   4.039
 1768SOL    HW1 6047   0.573   2.077   3.969
 1768SOL    HW2 6048   0.504   2.207   4.001
 1769SOL     OW 6049   1.766   3.098   5.303
 1769SOL    HW1 6050   1.827   3.047   5.356
 1769SOL    HW2 6051   1.784   3.189   5.326
 1770SOL     OW 6052   1.056   3.218   5.059
 1770SOL    HW1 6053   0.981   3.186   5.109
 1770SOL    HW2 6054   1.132   3.175   5.099
 1771SOL     OW 6055   1.611   3.487   5.380
 1771SOL    HW1 6056   1.603   3.521   5.291
 1771SOL    HW2 6057   1.692   3.437   5.379
 1772SOL     OW 6058   1.131   3.070   4.830
 1772SOL    HW1 6059   1.069   3.107   4.893
 1772SOL    HW2 6060   1.099   3.101   4.745
 1773SOL     OW 6061   1.612   2.979   4.780
 1773SOL    HW1 6062   1.599   3.027   4.862
 1773SOL    HW2 6063   1.532   2.996   4.729
 1774SOL     OW 6064   0.917   1.958   5.120
 1774SOL    HW1 6065   0.939   1.940   5.029
 1774SOL    HW2 6066   0.997   1.997   5.156
 1775SOL     OW 6067   0.984   2.977   5.448
 1775SOL    HW1 6068   0.893   2.994   5.471
 1775SOL    HW2 6069   0.982   2.899   5.393
 1776SOL     OW 6070   0.709   2.924   4.096
 1776SOL    HW1 6071   0.696   2.906   4.189
 1776SOL    HW2 6072   0.785   2.870   4.072
 1777SOL     OW 6073   0.431   2.689   4.968
 1777SOL    HW1 6074   0.500   2.702   5.032
 1777SOL    HW2 6075   0.374   2.622   5.007
 1778SOL     OW 6076   1.244   2.244   5.007
 1778SOL    HW1 6077   1.272   2.321   5.057
 1778SOL    HW2 6078   1.153   2.263   4.983
 1779SOL     OW 6079   0.063   3.438   5.068
 1779SOL    HW1 6080   0.037   3.528   5.051
 1779SOL    HW2 6081   0.159   3.442   5.073
 1780SOL     OW 6082   0.343   2.972   4.217
 1780SOL    HW1 6083   0.353   3.046   4.157
 1780SOL    HW2 6084   0.342   2.895   4.160
 1781SOL     OW 6085   0.560   2.393   4.578
 1781SOL    HW1 6086   0.572   2.453   4.505
 1781SOL    HW2 6087   0.622   2.423   4.645
 1782SOL     OW 6088   1.248   3.210   4.114
 1782SOL    HW1 6089   1.304   3.282   4.145
 1782SOL    HW2 6090   1.161   3.232   4.147
 1783SOL     OW 6091   1.283   3.321   4.871
 1783SOL    HW1 6092   1.338   3.323   4.949
 1783SOL    HW2 6093   1.228   3.243   4.882
 1784SOL     OW 6094   1.577   2.487   4.194
 1784SOL    HW1 6095   1.528   2.542   4.256
 1784SOL    HW2 6096   1.623   2.548   4.138
 1785SOL     OW 6097   0.346   3.397   5.037
 1785SOL    HW1 6098   0.332   3.348   4.955
 1785SOL    HW2 6099   0.441   3.405   5.044
 1786SOL     OW 6100   0.486   2.620   5.394
 1786SOL    HW1 6101   0.515   2.658   5.311
 1786SOL    HW2 6102   0.536   2.539   5.403
 1787SOL     OW 6103   0.995   1.988   5.477
 1787SOL    HW1 6104   1.054   2.060   5.454
 1787SOL    HW2 6105   1.043   1.909   5.454
 1788SOL     OW 6106   0.497   1.904   5.472
 1788SOL    HW1 6107   0.454   1.848   5.407
 1788SOL    HW2 6108   0.438   1.979   5.480
 1789SOL     OW 6109   0.591   2.735   4.750
 1789SOL    HW1 6110   0.620   2.827   4.751
 1789SOL    HW2 6111   0.534   2.727   4.826
 1790SOL     OW 6112   1.328   2.733   4.728
 1790SOL    HW1 6113   1.240   2.720   4.693
 1790SOL    HW2 6114   1.367   2.646   4.727
 1791SOL     OW 6115   1.203   2.390   3.990
 1791SOL    HW1 6116   1.212   2.312   4.045
 1791SOL    HW2 6117   1.160   2.454   4.046
 1792SOL     OW 6118   0.301   2.051   4.966
 1792SOL    HW1 6119   0.262   2.084   5.047
 1792SOL    HW2 6120   0.285   1.957   4.968
 1793SOL     OW 6121   0.032   3.174   5.011
 1793SOL    HW1 6122   0.072   3.127   5.083
 1793SOL    HW2 6123   0.040   3.267   5.035
 1794SOL     OW 6124   0.724   2.492   4.781
 1794SOL    HW1 6125   0.799   2.475   4.724
 1794SOL    HW2 6126   0.697   2.581   4.759
 1795SOL     OW 6127   1.703   2.795   5.556
 1795SOL    HW1 6128   1.618   2.800   5.513
 1795SOL    HW2 6129   1.684   2.803   5.649
 1796SOL     OW 6130   0.314   1.932   4.342
 1796SOL    HW1 6131   0.287   2.020   4.368
 1796SOL    HW2 6132   0.311   1.881   4.424
 1797SOL     OW 6133   1.614   2.234   4.092
 1797SOL    HW1 6134   1.646   2.173   4.158
 1797SOL    HW2 6135   1.595   2.314   4.140
 1798SOL     OW 6136   1.034   2.621   4.685
 1798SOL    HW1 6137   1.025   2.638   4.778
 1798SOL    HW2 6138   1.005   2.530   4.674
 1799SOL     OW 6139   0.984   3.430   5.442
 1799SOL    HW1 6140   0.967   3.473   5.358
 1799SOL    HW2 6141   1.025   3.347   5.418
 1800SOL     OW 6142   1.858   3.362   5.325
 1800SOL    HW1 6143   1.874   3.404   5.241
 1800SOL    HW2 6144   1.936   3.381   5.376
 1801SOL     OW 6145   0.347   2.797   5.542
 1801SOL    HW1 6146   0.418   2.828   5.598
 1801SOL    HW2 6147   0.386   2.729   5.487
 1802SOL     OW 6148   1.530   2.133   3.851
 1802SOL    HW1 6149   1.464   2.069   3.879
 1802SOL    HW2 6150   1.563   2.170   3.933
 1803SOL     OW 6151   1.291   2.688   3.755
 1803SOL    HW1 6152   1.333   2.602   3.758
 1803SOL    HW2 6153   1.321   2.727   3.673
 1804SOL     OW 6154   1.067   3.198   4.579
 1804SOL    HW1 6155   1.070   3.126   4.516
 1804SOL    HW2 6156   1.127   3.264   4.544
 1805SOL     OW 6157   0.318   2.673   4.669
 1805SOL    HW1 6158   0.413   2.689   4.667
 1805SOL    HW2 6159   0.311   2.581   4.696
 1806SOL     OW 6160   0.328   2.388   4.711
 1806SOL    HW1 6161   0.291   2.301   4.696
 1806SOL    HW2 6162   0.408   2.389   4.657
 1807SOL     OW 6163   1.133   2.238   5.405
 1807SOL    HW1 6164   1.085   2.291   5.468
 1807SOL    HW2 6165   1.221   2.277   5.403
 1808SOL     OW 6166   1.162   2.060   5.195
 1808SOL    HW1 6167   1.150   2.123   5.266
 1808SOL    HW2 6168   1.198   2.110   5.123
 1809SOL     OW 6169   4.491   3.183   3.932
 1809SOL    HW1 6170   4.399   3.200   3.913
 1809SOL    HW2 6171   4.495   3.090   3.952
 1810SOL     OW 6172   0.100   3.635   4.665
 1810SOL    HW1 6173   0.060   3.587   4.593
 1810SOL    HW2 6174   0.188   3.657   4.634
 1811SOL     OW 6175   0.495   3.436   4.631
 1811SOL    HW1 6176   0.563   3.499   4.655
 1811SOL    HW2 6177   0.539   3.374   4.573
 1812SOL     OW 6178   0.980   2.653   4.948
 1812SOL    HW1 6179   1.035   2.633   5.023
 1812SOL    HW2 6180   0.894   2.616   4.970
 1813SOL     OW 6181   0.032   2.426   4.825
 1813SOL    HW1 6182   0.118   2.396   4.796
 1813SOL    HW2 6183   0.013   2.375   4.904
 1814SOL     OW 6184   0.179   2.385   5.440
 1814SOL    HW1 6185   0.260   2.355   5.398
 1814SOL    HW2 6186   0.157   2.465   5.392
 1815SOL     OW 6187   1.389   2.801   5.397
 1815SOL    HW1 6188   1.404   2.895   5.381
 1815SOL    HW2 6189   1.378   2.764   5.310
 1816SOL     OW 6190   0.817   2.431   4.086
 1816SOL    HW1 6191   0.822   2.357   4.026
 1816SOL    HW2 6192   0.744   2.484   4.055
 1817SOL     OW 6193   0.275   3.424   5.465
 1817SOL    HW1 6194   0.215   3.476   5.518
 1817SOL    HW2 6195   0.255   3.333   5.488
 1818SOL     OW 6196   0.696   2.313   4.983
 1818SOL    HW1 6197   0.646   2.238   4.952
 1818SOL    HW2 6198   0.693   2.376   4.910
 1819SOL     OW 6199   0.927   3.541   5.192
 1819SOL    HW1 6200   0.901   3.504   5.108
 1819SOL    HW2 6201   0.919   3.636   5.180
 1820SOL     OW 6202   0.471   2.352   3.906
 1820SOL    HW1 6203   0.532   2.421   3.932
 1820SOL    HW2 6204   0.388   2.397   3.891
 1821SOL     OW 6205   0.162   3.003   5.183
 1821SOL    HW1 6206   0.144   2.959   5.267
 1821SOL    HW2 6207   0.169   2.932   5.120
 1822SOL     OW 6208   1.327   2.909   4.940
 1822SOL    HW1 6209   1.345   2.850   4.867
 1822SOL    HW2 6210   1.256   2.965   4.909
 1823SOL     OW 6211   1.312   2.720   4.030
 1823SOL    HW1 6212   1.237   2.687   4.081
 1823SOL    HW2 6213   1.288   2.705   3.939
 1824SOL     OW 6214   1.779   3.607   4.879
 1824SOL    HW1 6215   1.836   3.631   4.806
 1824SOL    HW2 6216   1.748   3.519   4.857
 1825SOL     OW 6217   1.241   3.596   4.836
 1825SOL    HW1 6218   1.322   3.617   4.791
 1825SOL    HW2 6219   1.247   3.502   4.854
 1826SOL     OW 6220   0.068   3.046   4.774
 1826SOL    HW1 6221   0.061   3.077   4.865
 1826SOL    HW2 6222   0.031   3.117   4.722
 1827SOL     OW 6223   0.679   3.530   5.457
 1827SOL    HW1 6224   0.620   3.605   5.449
 1827SOL    HW2 6225   0.743   3.542   5.387
 1828SOL     OW 6226   1.698   1.998   4.228
 1828SOL    HW1 6227   1.771   1.967   4.175
 1828SOL    HW2 6228   1.678   1.925   4.287
 1829SOL     OW 6229   1.391   3.430   4.211
 1829SOL    HW1 6230   1.451   3.463   4.143
 1829SOL    HW2 6231   1.342   3.507   4.239
 1830SOL     OW 6232   0.118   3.669   5.572
 1830SOL    HW1 6233   0.077   3.597   5.620
 1830SOL    HW2 6234   0.181   3.706   5.633
 1831SOL     OW 6235   1.273   2.790   4.392
 1831SOL    HW1 6236   1.346   2.729   4.402
 1831SOL    HW2 6237   1.308   2.862   4.340
 1832SOL     OW 6238   0.811   3.137   5.152
 1832SOL    HW1 6239   0.783   3.176   5.235
 1832SOL    HW2 6240   0.740   3.158   5.091
 1833SOL     OW 6241   0.672   3.484   3.879
 1833SOL    HW1 6242   0.683   3.496   3.785
 1833SOL    HW2 6243   0.617   3.406   3.887
 1834SOL     OW 6244   1.624   3.588   5.117
 1834SOL    HW1 6245   1.675   3.594   5.036
 1834SOL    HW2 6246   1.610   3.679   5.143
 1835SOL     OW 6247   1.814   2.030   4.559
 1835SOL    HW1 6248   1.869   1.953   4.575
 1835SOL    HW2 6249   1.728   2.004   4.590
 1836SOL     OW 6250   0.263   2.181   4.442
 1836SOL    HW1 6251   0.180   2.220   4.415
 1836SOL    HW2 6252   0.253   2.168   4.536
 1837SOL     OW 6253   1.208   3.467   3.756
 1837SOL    HW1 6254   1.197   3.375   3.783
 1837SOL    HW2 6255   1.142   3.479   3.687
 1838SOL     OW 6256   0.826   2.870   5.096
 1838SOL    HW1 6257   0.868   2.866   5.011
 1838SOL    HW2 6258   0.823   2.963   5.117
 1839SOL     OW 6259   0.916   2.773   4.014
 1839SOL    HW1 6260   0.977   2.805   3.948
 1839SOL    HW2 6261   0.964   2.704   4.059
 1840SOL     OW 6262   1.490   3.488   3.767
 1840SOL    HW1 6263   1.396   3.480   3.753
 1840SOL    HW2 6264   1.528   3.494   3.679
 1841SOL     OW 6265   0.373   3.171   5.214
 1841SOL    HW1 6266   0.355   3.250   5.163
 1841SOL    HW2 6267   0.299   3.113   5.197
 1842SOL     OW 6268   1.591   3.135   5.006
 1842SOL    HW1 6269   1.667   3.137   5.065
 1842SOL    HW2 6270   1.537   3.209   5.034
 1843SOL     OW 6271   1.054   2.971   4.431
 1843SOL    HW1 6272   0.982   2.920   4.470
 1843SOL    HW2 6273   1.117   2.905   4.402
 1844SOL     OW 6274   1.015   2.100   4.696
 1844SOL    HW1 6275   1.014   2.055   4.611
 1844SOL    HW2 6276   1.010   2.030   4.760
 1845SOL     OW 6277   0.606   3.351   4.206
 1845SOL    HW1 6278   0.649   3.302   4.137
 1845SOL    HW2 6279   0.528   3.388   4.164
 1846SOL     OW 6280   0.252   3.205   3.999
 1846SOL    HW1 6281   0.157   3.203   3.986
 1846SOL    HW2 6282   0.263   3.237   4.089
 1847SOL     OW 6283   0.116   2.869   5.417
 1847SOL    HW1 6284   0.052   2.913   5.474
 1847SOL    HW2 6285   0.194   2.860   5.472
 1848SOL     OW 6286   0.675   2.061   5.223
 1848SOL    HW1 6287   0.759   2.038   5.183
 1848SOL    HW2 6288   0.698   2.090   5.312
 1849SOL     OW 6289   0.072   2.187   3.755
 1849SOL    HW1 6290   4.478   2.201   3.767
 1849SOL    HW2 6291   0.103   2.269   3.715
 1850SOL     OW 6292   1.405   2.722   5.133
 1850SOL    HW1 6293   1.380   2.789   5.070
 1850SOL    HW2 6294   1.499   2.737   5.148
 1851SOL     OW 6295   0.087   2.037   4.027
 1851SOL    HW1 6296   0.080   2.110   3.966
 1851SOL    HW2 6297   0.162   1.987   3.996
 1852SOL     OW 6298   1.178   3.200   3.841
 1852SOL    HW1 6299   1.087   3.170   3.843
 1852SOL    HW2 6300   1.205   3.200   3.933
 1853SOL     OW 6301   0.625   2.694   5.156
 1853SOL    HW1 6302   0.682   2.769   5.142
 1853SOL    HW2 6303   0.685   2.619   5.162
 1854SOL     OW 6304   1.482   3.642   4.704
 1854SOL    HW1 6305   1.505   3.702   4.634
 1854SOL    HW2 6306   1.565   3.615   4.742
 1855SOL     OW 6307   0.712   2.424   5.428
 1855SOL    HW1 6308   0.757   2.485   5.486
 1855SOL    HW2 6309   0.739   2.338   5.459
 1856SOL     OW 6310   1.473   3.061   5.351
 1856SOL    HW1 6311   1.458   3.081   5.443
 1856SOL    HW2 6312   1.565   3.081   5.336
 1857SOL     OW 6313   0.379   3.606   5.289
 1857SOL    HW1 6314   0.294   3.647   5.271
 1857SOL    HW2 6315   0.357   3.527   5.338
 1858SOL     OW 6316   1.217   2.181   4.184
 1858SOL    HW1 6317   1.280   2.109   4.175
 1858SOL    HW2 6318   1.248   2.231   4.260
 1859SOL     OW 6319   0.589   2.599   4.394
 1859SOL    HW1 6320   0.627   2.685   4.379
 1859SOL    HW2 6321   0.522   2.590   4.327
 1860SOL     OW 6322   0.864   3.229   3.761
 1860SOL    HW1 6323   0.825   3.256   3.844
 1860SOL    HW2 6324   0.880   3.310   3.714
 1861SOL     OW 6325   0.662   3.651   4.668
 1861SOL    HW1 6326   0.642   3.742   4.644
 1861SOL    HW2 6327   0.757   3.645   4.659
 1862SOL     OW 6328   0.869   2.830   4.579
 1862SOL    HW1 6329   0.918   2.758   4.618
 1862SOL    HW2 6330   0.832   2.878   4.653
 1863SOL     OW 6331   1.079   2.851   3.813
 1863SOL    HW1 6332   1.057   2.901   3.734
 1863SOL    HW2 6333   1.153   2.797   3.787
 1864SOL     OW 6334   1.854   3.419   4.567
 1864SOL    HW1 6335   1.772   3.400   4.521
 1864SOL    HW2 6336   1.870   3.341   4.620
 1865SOL     OW 6337   0.232   3.166   5.583
 1865SOL    HW1 6338   0.153   3.116   5.563
 1865SOL    HW2 6339   0.229   3.177   5.678
 1866SOL     OW 6340   0.112   3.095   4.392
 1866SOL    HW1 6341   0.128   3.051   4.476
 1866SOL    HW2 6342   0.169   3.049   4.331
 1867SOL     OW 6343   0.684   3.266   5.355
 1867SOL    HW1 6344   0.604   3.222   5.382
 1867SOL    HW2 6345   0.677   3.355   5.391
 1868SOL     OW 6346   0.435   2.295   4.250
 1868SOL    HW1 6347   0.461   2.222   4.194
 1868SOL    HW2 6348   0.384   2.255   4.320
 1869SOL     OW 6349   1.690   3.358   4.828
 1869SOL    HW1 6350   1.615   3.329   4.776
 1869SOL    HW2 6351   1.710   3.284   4.885
 1870SOL     OW 6352   0.298   2.350   4.974
 1870SOL    HW1 6353   0.372   2.308   5.017
 1870SOL    HW2 6354   0.327   2.367   4.885
 1871SOL     OW 6355   0.829   3.440   4.401
 1871SOL    HW1 6356   0.812   3.497   4.326
 1871SOL    HW2 6357   0.753   3.381   4.404
 1872SOL     OW 6358   1.006   1.877   4.865
 1872SOL    HW1 6359   0.953   1.810   4.823
 1872SOL    HW2 6360   1.093   1.839   4.872
 1873SOL     OW 6361   0.773   3.195   4.040
 1873SOL    HW1 6362   0.743   3.105   4.046
 1873SOL    HW2 6363   0.854   3.197   4.090
 1874SOL     OW 6364   0.621   3.417   5.010
 1874SOL    HW1 6365   0.623   3.499   5.060
 1874SOL    HW2 6366   0.708   3.411   4.972
 1875SOL     OW 6367   1.353   1.915   3.891
 1875SOL    HW1 6368   1.382   1.849   3.828
 1875SOL    HW2 6369   1.265   1.886   3.916
 1876SOL     OW 6370   1.301   2.328   4.406
 1876SOL    HW1 6371   1.243   2.403   4.411
 1876SOL    HW2 6372   1.291   2.283   4.490
 1877SOL     OW 6373   0.041   2.913   4.014
 1877SOL    HW1 6374   0.133   2.892   4.002
 1877SOL    HW2 6375   0.021   2.884   4.103
 1878SOL     OW 6376   0.887   3.517   4.065
 1878SOL    HW1 6377   0.813   3.500   4.006
 1878SOL    HW2 6378   0.857   3.591   4.118
 1879SOL     OW 6379   0.247   2.491   5.708
 1879SOL    HW1 6380   0.173   2.467   5.764
 1879SOL    HW2 6381   0.216   2.475   5.619
 1880SOL     OW 6382   0.213   2.137   6.577
 1880SOL    HW1 6383   0.249   2.110   6.662
 1880SOL    HW2 6384   0.137   2.079   6.564
 1881SOL     OW 6385   0.007   2.256   6.226
 1881SOL    HW1 6386   4.426   2.289   6.264
 1881SOL    HW2 6387   4.481   2.177   6.179
 1882SOL     OW 6388   0.568   3.153   6.764
 1882SOL    HW1 6389   0.481   3.157   6.725
 1882SOL    HW2 6390   0.583   3.240   6.799
 1883SOL     OW 6391   1.556   3.377   6.294
 1883SOL    HW1 6392   1.514   3.355   6.378
 1883SOL    HW2 6393   1.484   3.383   6.232
 1884SOL     OW 6394   1.131   2.563   6.287
 1884SOL    HW1 6395   1.178   2.646   6.274
 1884SOL    HW2 6396   1.085   2.575   6.370
 1885SOL     OW 6397   0.752   3.003   6.628
 1885SOL    HW1 6398   0.684   3.038   6.685
 1885SOL    HW2 6399   0.789   3.080   6.584
 1886SOL     OW 6400   0.869   2.631   7.407
 1886SOL    HW1 6401   0.854   2.701   7.470
 1886SOL    HW2 6402   0.892   2.676   7.326
 1887SOL     OW 6403   0.685   2.864   6.232
 1887SOL    HW1 6404   0.750   2.853   6.301
 1887SOL    HW2 6405   0.616   2.916   6.273
 1888SOL     OW 6406   0.712   3.011   7.401
 1888SOL    HW1 6407   0.759   3.090   7.429
 1888SOL    HW2 6408   0.631   3.044   7.363
 1889SOL     OW 6409   0.334   3.281   6.655
 1889SOL    HW1 6410   0.253   3.262   6.609
 1889SOL    HW2 6411   0.384   3.336   6.594
 1890SOL     OW 6412   1.460   3.362   6.942
 1890SOL    HW1 6413   1.512   3.442   6.952
 1890SOL    HW2 6414   1.395   3.367   7.013
 1891SOL     OW 6415   0.446   2.266   7.074
 1891SOL    HW1 6416   0.526   2.213   7.080
 1891SOL    HW2 6417   0.375   2.203   7.082
 1892SOL     OW 6418   0.246   3.553   6.062
 1892SOL    HW1 6419   0.229   3.638   6.102
 1892SOL    HW2 6420   0.316   3.570   5.998
 1893SOL     OW 6421   1.137   3.204   7.279
 1893SOL    HW1 6422   1.177   3.199   7.366
 1893SOL    HW2 6423   1.084   3.124   7.272
 1894SOL     OW 6424   0.253   3.288   6.113
 1894SOL    HW1 6425   0.242   3.383   6.115
 1894SOL    HW2 6426   0.191   3.255   6.178
 1895SOL     OW 6427   0.251   2.945   6.472
 1895SOL    HW1 6428   0.265   2.853   6.496
 1895SOL    HW2 6429   0.189   2.978   6.537
 1896SOL     OW 6430   0.611   3.653   7.016
 1896SOL    HW1 6431   0.528   3.635   7.060
 1896SOL    HW2 6432   0.632   3.743   7.041
 1897SOL     OW 6433   0.576   2.850   5.726
 1897SOL    HW1 6434   0.625   2.892   5.655
 1897SOL    HW2 6435   0.620   2.880   5.806
 1898SOL     OW 6436   1.593   1.982   7.058
 1898SOL    HW1 6437   1.611   2.059   7.003
 1898SOL    HW2 6438   1.576   2.018   7.145
 1899SOL     OW 6439   0.137   2.510   6.160
 1899SOL    HW1 6440   0.090   2.429   6.179
 1899SOL    HW2 6441   0.107   2.572   6.226
 1900SOL     OW 6442   1.844   3.619   5.919
 1900SOL    HW1 6443   1.907   3.591   5.986
 1900SOL    HW2 6444   1.867   3.710   5.902
 1901SOL     OW 6445   0.032   3.465   5.730
 1901SOL    HW1 6446   0.020   3.370   5.725
 1901SOL    HW2 6447   0.029   3.484   5.824
 1902SOL     OW 6448   1.627   2.989   6.011
 1902SOL    HW1 6449   1.715   2.971   5.977
 1902SOL    HW2 6450   1.641   3.047   6.085
 1903SOL     OW 6451   0.111   2.628   7.164
 1903SOL    HW1 6452   0.200   2.622   7.130
 1903SOL    HW2 6453   0.100   2.719   7.189
 1904SOL     OW 6454   0.615   3.249   6.322
 1904SOL    HW1 6455   0.568   3.166   6.332
 1904SOL    HW2 6456   0.598   3.276   6.232
 1905SOL     OW 6457   1.288   3.100   7.008
 1905SOL    HW1 6458   1.320   3.032   6.948
 1905SOL    HW2 6459   1.346   3.094   7.084
 1906SOL     OW 6460   0.818   1.862   6.097
 1906SOL    HW1 6461   0.857   1.947   6.075
 1906SOL    HW2 6462   0.724   1.880   6.104
 1907SOL     OW 6463   0.178   2.801   6.865
 1907SOL    HW1 6464   0.270   2.782   6.845
 1907SOL    HW2 6465   0.133   2.792   6.781
 1908SOL     OW 6466   1.504   2.872   5.775
 1908SOL    HW1 6467   1.438   2.811   5.808
 1908SOL    HW2 6468   1.555   2.896   5.853
 1909SOL     OW 6469   1.186   3.671   7.209
 1909SOL    HW1 6470   1.194   3.729   7.134
 1909SOL    HW2 6471   1.202   3.583   7.174
 1910SOL     OW 6472   0.332   2.119   7.387
 1910SOL    HW1 6473   0.379   2.192   7.426
 1910SOL    HW2 6474   0.244   2.124   7.423
 1911SOL     OW 6475   1.467   3.282   6.537
 1911SOL    HW1 6476   1.399   3.297   6.603
 1911SOL    HW2 6477   1.454   3.191   6.510
 1912SOL     OW 6478   1.659   3.603   6.163
 1912SOL    HW1 6479   1.638   3.573   6.075
 1912SOL    HW2 6480   1.633   3.530   6.220
 1913SOL     OW 6481   0.598   2.582   5.854
 1913SOL    HW1 6482   0.598   2.664   5.805
 1913SOL    HW2 6483   0.532   2.595   5.922
 1914SOL     OW 6484   1.281   2.204   6.516
 1914SOL    HW1 6485   1.193   2.171   6.535
 1914SOL    HW2 6486   1.338   2.151   6.571
 1915SOL     OW 6487   1.580   3.533   5.896
 1915SOL    HW1 6488   1.671   3.564   5.887
 1915SOL    HW2 6489   1.552   3.518   5.805
 1916SOL     OW 6490   0.793   2.478   7.036
 1916SOL    HW1 6491   0.767   2.453   7.125
 1916SOL    HW2 6492   0.752   2.412   6.980
 1917SOL     OW 6493   1.393   2.337   7.264
 1917SOL    HW1 6494   1.396   2.381   7.349
 1917SOL    HW2 6495   1.452   2.262   7.274
 1918SOL     OW 6496   0.953   2.748   7.169
 1918SOL    HW1 6497   1.008   2.679   7.133
 1918SOL    HW2 6498   0.906   2.784   7.094
 1919SOL     OW 6499   0.992   2.275   6.824
 1919SOL    HW1 6500   0.906   2.295   6.860
 1919SOL    HW2 6501   0.974   2.229   6.742
 1920SOL     OW 6502   1.051   2.561   6.014
 1920SOL    HW1 6503   1.066   2.554   6.108
 1920SOL    HW2 6504   0.969   2.515   5.999
 1921SOL     OW 6505   0.094   2.692   6.372
 1921SOL    HW1 6506   0.181   2.678   6.409
 1921SOL    HW2 6507   0.037   2.705   6.447
 1922SOL     OW 6508   0.124   3.718   7.163
 1922SOL    HW1 6509   0.116   3.696   7.256
 1922SOL    HW2 6510   0.044   3.682   7.123
 1923SOL     OW 6511   0.895   2.211   5.780
 1923SOL    HW1 6512   0.935   2.273   5.719
 1923SOL    HW2 6513   0.908   2.125   5.740
 1924SOL     OW 6514   1.691   2.447   7.414
 1924SOL    HW1 6515   1.658   2.520   7.363
 1924SOL    HW2 6516   1.718   2.382   7.349
 1925SOL     OW 6517   1.376   3.006   6.129
 1925SOL    HW1 6518   1.454   2.995   6.075
 1925SOL    HW2 6519   1.321   3.067   6.079
 1926SOL     OW 6520   0.553   2.043   6.480
 1926SOL    HW1 6521   0.555   2.074   6.570
 1926SOL    HW2 6522   0.552   2.123   6.427
 1927SOL     OW 6523   1.004   3.306   6.058
 1927SOL    HW1 6524   0.969   3.380   6.008
 1927SOL    HW2 6525   0.982   3.327   6.149
 1928SOL     OW 6526   0.357   3.674   6.445
 1928SOL    HW1 6527   0.398   3.588   6.456
 1928SOL    HW2 6528   0.427   3.737   6.463
 1929SOL     OW 6529   1.228   3.401   7.099
 1929SOL    HW1 6530   1.214   3.328   7.160
 1929SOL    HW2 6531   1.163   3.386   7.030
 1930SOL     OW 6532   0.314   2.815   5.842
 1930SOL    HW1 6533   0.397   2.839   5.801
 1930SOL    HW2 6534   0.300   2.724   5.817
 1931SOL     OW 6535   0.469   3.126   7.321
 1931SOL    HW1 6536   0.442   3.132   7.229
 1931SOL    HW2 6537   0.387   3.128   7.370
 1932SOL     OW 6538   1.123   3.640   5.817
 1932SOL    HW1 6539   1.048   3.599   5.861
 1932SOL    HW2 6540   1.146   3.577   5.748
 1933SOL     OW 6541   0.197   2.138   7.071
 1933SOL    HW1 6542   0.140   2.215   7.078
 1933SOL    HW2 6543   0.182   2.090   7.152
 1934SOL     OW 6544   1.629   3.245   5.672
 1934SOL    HW1 6545   1.590   3.332   5.659
 1934SOL    HW2 6546   1.558   3.184   5.654
 1935SOL     OW 6547   0.469   3.605   5.899
 1935SOL    HW1 6548   0.512   3.659   5.965
 1935SOL    HW2 6549   0.541   3.568   5.847
 1936SOL     OW 6550   0.260   3.655   6.814
 1936SOL    HW1 6551   0.304   3.578   6.851
 1936SOL    HW2 6552   0.222   3.623   6.732
 1937SOL     OW 6553   0.938   3.562   6.484
 1937SOL    HW1 6554   1.014   3.509   6.508
 1937SOL    HW2 6555   0.895   3.511   6.414
 1938SOL     OW 6556   0.396   2.556   6.058
 1938SOL    HW1 6557   0.418   2.463   6.070
 1938SOL    HW2 6558   0.304   2.562   6.083
 1939SOL     OW 6559   1.530   2.087   7.311
 1939SOL    HW1 6560   1.540   2.106   7.404
 1939SOL    HW2 6561   1.461   2.020   7.307
 1940SOL     OW 6562   0.639   1.985   5.687
 1940SOL    HW1 6563   0.702   1.915   5.705
 1940SOL    HW2 6564   0.588   1.953   5.613
 1941SOL     OW 6565   0.766   2.140   7.341
 1941SOL    HW1 6566   0.843   2.084   7.339
 1941SOL    HW2 6567   0.718   2.113   7.419
 1942SOL     OW 6568   0.877   3.385   6.779
 1942SOL    HW1 6569   0.860   3.348   6.693
 1942SOL    HW2 6570   0.946   3.330   6.816
 1943SOL     OW 6571   1.339   2.452   7.019
 1943SOL    HW1 6572   1.371   2.421   7.104
 1943SOL    HW2 6573   1.378   2.539   7.010
 1944SOL     OW 6574   0.817   3.256   6.528
 1944SOL    HW1 6575   0.900   3.244   6.484
 1944SOL    HW2 6576   0.752   3.258   6.457
 1945SOL     OW 6577   0.929   2.371   6.489
 1945SOL    HW1 6578   0.905   2.362   6.396
 1945SOL    HW2 6579   0.961   2.284   6.513
 1946SOL     OW 6580   0.554   1.924   6.085
 1946SOL    HW1 6581   0.474   1.922   6.137
 1946SOL    HW2 6582   0.546   2.002   6.030
 1947SOL     OW 6583   1.422   3.075   5.620
 1947SOL    HW1 6584   1.447   2.998   5.671
 1947SOL    HW2 6585   1.337   3.101   5.654
 1948SOL     OW 6586   0.295   1.908   5.763
 1948SOL    HW1 6587   0.358   1.974   5.736
 1948SOL    HW2 6588   0.348   1.842   5.809
 1949SOL     OW 6589   0.936   2.109   6.044
 1949SOL    HW1 6590   0.909   2.149   5.961
 1949SOL    HW2 6591   1.030   2.124   6.049
 1950SOL     OW 6592   1.080   2.544   7.044
 1950SOL    HW1 6593   1.014   2.476   7.049
 1950SOL    HW2 6594   1.163   2.497   7.038
 1951SOL     OW 6595   1.225   3.431   6.379
 1951SOL    HW1 6596   1.239   3.499   6.313
 1951SOL    HW2 6597   1.290   3.448   6.446
 1952SOL     OW 6598   0.468   3.013   6.320
 1952SOL    HW1 6599   0.398   2.994   6.383
 1952SOL    HW2 6600   0.427   2.998   6.234
 1953SOL     OW 6601   1.268   3.655   6.196
 1953SOL    HW1 6602   1.314   3.717   6.139
 1953SOL    HW2 6603   1.200   3.708   6.238
 1954SOL     OW 6604   1.023   2.402   5.608
 1954SOL    HW1 6605   0.980   2.485   5.589
 1954SOL    HW2 6606   1.085   2.423   5.679
 1955SOL     OW 6607   0.083   2.386   6.997
 1955SOL    HW1 6608   0.145   2.381   6.924
 1955SOL    HW2 6609   0.067   2.479   7.008
 1956SOL     OW 6610   0.560   2.090   6.753
 1956SOL    HW1 6611   0.603   2.013   6.790
 1956SOL    HW2 6612   0.468   2.080   6.779
 1957SOL     OW 6613   0.869   2.322   6.225
 1957SOL    HW1 6614   0.821   2.376   6.163
 1957SOL    HW2 6615   0.889   2.242   6.177
 1958SOL     OW 6616   1.023   1.911   6.331
 1958SOL    HW1 6617   0.959   1.908   6.260
 1958SOL    HW2 6618   0.998   1.838   6.389
 1959SOL     OW 6619   1.436   3.027   6.441
 1959SOL    HW1 6620   1.375   2.956   6.458
 1959SOL    HW2 6621   1.442   3.031   6.345
 1960SOL     OW 6622   1.433   2.449   6.606
 1960SOL    HW1 6623   1.388   2.366   6.619
 1960SOL    HW2 6624   1.502   2.451   6.673
 1961SOL     OW 6625   0.491   3.281   5.743
 1961SOL    HW1 6626   0.414   3.253   5.792
 1961SOL    HW2 6627   0.477   3.250   5.654
 1962SOL     OW 6628   1.679   3.144   6.227
 1962SOL    HW1 6629   1.746   3.145   6.295
 1962SOL    HW2 6630   1.629   3.225   6.242
 1963SOL     OW 6631   1.397   2.433   5.666
 1963SOL    HW1 6632   1.326   2.417   5.728
 1963SOL    HW2 6633   1.475   2.398   5.709
 1964SOL     OW 6634   0.525   2.122   5.900
 1964SOL    HW1 6635   0.573   2.077   5.831
 1964SOL    HW2 6636   0.504   2.207   5.863
 1965SOL     OW 6637   1.751   3.103   7.156
 1965SOL    HW1 6638   1.838   3.064   7.150
 1965SOL    HW2 6639   1.766   3.192   7.186
 1966SOL     OW 6640   1.057   3.216   6.919
 1966SOL    HW1 6641   0.982   3.185   6.970
 1966SOL    HW2 6642   1.133   3.174   6.960
 1967SOL     OW 6643   1.609   3.489   7.242
 1967SOL    HW1 6644   1.602   3.522   7.152
 1967SOL    HW2 6645   1.691   3.440   7.243
 1968SOL     OW 6646   1.131   3.068   6.690
 1968SOL    HW1 6647   1.071   3.105   6.755
 1968SOL    HW2 6648   1.098   3.101   6.606
 1969SOL     OW 6649   1.650   2.961   6.662
 1969SOL    HW1 6650   1.634   3.025   6.731
 1969SOL    HW2 6651   1.577   2.973   6.601
 1970SOL     OW 6652   0.918   1.959   6.981
 1970SOL    HW1 6653   0.941   1.939   6.890
 1970SOL    HW2 6654   0.997   1.998   7.018
 1971SOL     OW 6655   0.984   2.977   7.309
 1971SOL    HW1 6656   0.893   2.993   7.332
 1971SOL    HW2 6657   0.982   2.898   7.254
 1972SOL     OW 6658   0.709   2.925   5.958
 1972SOL    HW1 6659   0.695   2.906   6.051
 1972SOL    HW2 6660   0.784   2.871   5.934
 1973SOL     OW 6661   0.431   2.690   6.830
 1973SOL    HW1 6662   0.501   2.702   6.894
 1973SOL    HW2 6663   0.375   2.623   6.869
 1974SOL     OW 6664   1.265   2.240   6.863
 1974SOL    HW1 6665   1.297   2.317   6.909
 1974SOL    HW2 6666   1.174   2.261   6.841
 1975SOL     OW 6667   0.063   3.438   6.930
 1975SOL    HW1 6668   0.036   3.528   6.913
 1975SOL    HW2 6669   0.159   3.442   6.935
 1976SOL     OW 6670   0.343   2.972   6.079
 1976SOL    HW1 6671   0.352   3.046   6.019
 1976SOL    HW2 6672   0.342   2.895   6.022
 1977SOL     OW 6673   0.560   2.393   6.440
 1977SOL    HW1 6674   0.573   2.453   6.367
 1977SOL    HW2 6675   0.622   2.422   6.507
 1978SOL     OW 6676   1.247   3.211   5.976
 1978SOL    HW1 6677   1.303   3.282   6.007
 1978SOL    HW2 6678   1.160   3.233   6.010
 1979SOL     OW 6679   1.283   3.321   6.733
 1979SOL    HW1 6680   1.339   3.323   6.811
 1979SOL    HW2 6681   1.228   3.243   6.745
 1980SOL     OW 6682   0.346   3.397   6.899
 1980SOL    HW1 6683   0.332   3.348   6.817
 1980SOL    HW2 6684   0.441   3.405   6.906
 1981SOL     OW 6685   0.485   2.619   7.256
 1981SOL    HW1 6686   0.515   2.657   7.173
 1981SOL    HW2 6687   0.538   2.539   7.266
 1982SOL     OW 6688   1.601   2.649   7.264
 1982SOL    HW1 6689   1.515   2.690   7.257
 1982SOL    HW2 6690   1.653   2.689   7.195
 1983SOL     OW 6691   0.996   1.989   7.340
 1983SOL    HW1 6692   1.054   2.060   7.314
 1983SOL    HW2 6693   1.044   1.909   7.315
 1984SOL     OW 6694   0.497   1.904   7.334
 1984SOL    HW1 6695   0.454   1.847   7.269
 1984SOL    HW2 6696   0.439   1.979   7.342
 1985SOL     OW 6697   0.591   2.736   6.611
 1985SOL    HW1 6698   0.621   2.827   6.613
 1985SOL    HW2 6699   0.534   2.728   6.688
 1986SOL     OW 6700   1.355   2.720   6.609
 1986SOL    HW1 6701   1.268   2.702   6.573
 1986SOL    HW2 6702   1.401   2.636   6.606
 1987SOL     OW 6703   1.194   2.396   5.846
 1987SOL    HW1 6704   1.204   2.315   5.897
 1987SOL    HW2 6705   1.154   2.458   5.906
 1988SOL     OW 6706   0.301   2.051   6.828
 1988SOL    HW1 6707   0.262   2.084   6.909
 1988SOL    HW2 6708   0.285   1.957   6.830
 1989SOL     OW 6709   0.032   3.174   6.872
 1989SOL    HW1 6710   0.072   3.127   6.945
 1989SOL    HW2 6711   0.040   3.267   6.896
 1990SOL     OW 6712   0.724   2.492   6.642
 1990SOL    HW1 6713   0.800   2.476   6.586
 1990SOL    HW2 6714   0.697   2.581   6.621
 1991SOL     OW 6715   1.735   2.822   7.438
 1991SOL    HW1 6716   1.690   2.759   7.383
 1991SOL    HW2 6717   1.676   2.837   7.512
 1992SOL     OW 6718   0.314   1.932   6.204
 1992SOL    HW1 6719   0.287   2.020   6.230
 1992SOL    HW2 6720   0.312   1.882   6.286
 1993SOL     OW 6721   1.027   2.621   6.546
 1993SOL    HW1 6722   1.023   2.639   6.639
 1993SOL    HW2 6723   1.002   2.529   6.538
 1994SOL     OW 6724   0.983   3.429   7.304
 1994SOL    HW1 6725   0.967   3.472   7.220
 1994SOL    HW2 6726   1.025   3.347   7.281
 1995SOL     OW 6727   1.854   3.366   7.192
 1995SOL    HW1 6728   1.873   3.393   7.102
 1995SOL    HW2 6729   1.935   3.383   7.240
 1996SOL     OW 6730   0.347   2.797   7.403
 1996SOL    HW1 6731   0.418   2.827   7.459
 1996SOL    HW2 6732   0.386   2.729   7.349
 1997SOL     OW 6733   1.290   2.685   5.619
 1997SOL    HW1 6734   1.333   2.599   5.622
 1997SOL    HW2 6735   1.326   2.726   5.540
 1998SOL     OW 6736   1.066   3.199   6.440
 1998SOL    HW1 6737   1.070   3.127   6.377
 1998SOL    HW2 6738   1.127   3.264   6.405
 1999SOL     OW 6739   0.318   2.673   6.531
 1999SOL    HW1 6740   0.413   2.690   6.530
 1999SOL    HW2 6741   0.311   2.581   6.558
 2000SOL     OW 6742   0.329   2.388   6.573
 2000SOL    HW1 6743   0.291   2.301   6.558
 2000SOL    HW2 6744   0.408   2.389   6.519
 2001SOL     OW 6745   1.134   2.237   7.269
 2001SOL    HW1 6746   1.086   2.291   7.332
 2001SOL    HW2 6747   1.221   2.276   7.265
 2002SOL     OW 6748   1.160   2.064   7.056
 2002SOL    HW1 6749   1.150   2.127   7.128
 2002SOL    HW2 6750   1.201   2.114   6.986
 2003SOL     OW 6751   4.491   3.183   5.794
 2003SOL    HW1 6752   4.399   3.200   5.775
 2003SOL    HW2 6753   4.495   3.090   5.814
 2004SOL     OW 6754   0.100   3.635   6.527
 2004SOL    HW1 6755   0.060   3.587   6.454
 2004SOL    HW2 6756   0.188   3.657   6.495
 2005SOL     OW 6757   0.495   3.436   6.493
 2005SOL    HW1 6758   0.563   3.499   6.517
 2005SOL    HW2 6759   0.539   3.374   6.435
 2006SOL     OW 6760   0.980   2.653   6.811
 2006SOL    HW1 6761   1.038   2.632   6.884
 2006SOL    HW2 6762   0.896   2.616   6.836
 2007SOL     OW 6763   0.031   2.425   6.686
 2007SOL    HW1 6764   0.118   2.396   6.658
 2007SOL    HW2 6765   0.014   2.376   6.766
 2008SOL     OW 6766   0.179   2.385   7.302
 2008SOL    HW1 6767   0.260   2.355   7.262
 2008SOL    HW2 6768   0.157   2.466   7.254
 2009SOL     OW 6769   1.375   2.801   7.243
 2009SOL    HW1 6770   1.396   2.894   7.240
 2009SOL    HW2 6771   1.372   2.775   7.151
 2010SOL     OW 6772   0.818   2.432   5.947
 2010SOL    HW1 6773   0.821   2.357   5.887
 2010SOL    HW2 6774   0.744   2.485   5.916
 2011SOL     OW 6775   1.643   2.463   6.780
 2011SOL    HW1 6776   1.643   2.400   6.852
 2011SOL    HW2 6777   1.727   2.451   6.737
 2012SOL     OW 6778   0.274   3.424   7.326
 2012SOL    HW1 6779   0.215   3.476   7.381
 2012SOL    HW2 6780   0.255   3.333   7.350
 2013SOL     OW 6781   0.697   2.314   6.845
 2013SOL    HW1 6782   0.647   2.238   6.814
 2013SOL    HW2 6783   0.694   2.376   6.772
 2014SOL     OW 6784   0.927   3.541   7.054
 2014SOL    HW1 6785   0.901   3.504   6.970
 2014SOL    HW2 6786   0.919   3.636   7.042
 2015SOL     OW 6787   0.472   2.352   5.769
 2015SOL    HW1 6788   0.532   2.422   5.794
 2015SOL    HW2 6789   0.388   2.396   5.753
 2016SOL     OW 6790   0.162   3.003   7.045
 2016SOL    HW1 6791   0.144   2.959   7.128
 2016SOL    HW2 6792   0.168   2.932   6.982
 2017SOL     OW 6793   1.324   2.907   6.807
 2017SOL    HW1 6794   1.348   2.844   6.739
 2017SOL    HW2 6795   1.256   2.961   6.768
 2018SOL     OW 6796   1.308   2.714   5.894
 2018SOL    HW1 6797   1.232   2.685   5.945
 2018SOL    HW2 6798   1.283   2.699   5.803
 2019SOL     OW 6799   1.775   3.606   6.739
 2019SOL    HW1 6800   1.834   3.631   6.668
 2019SOL    HW2 6801   1.748   3.517   6.717
 2020SOL     OW 6802   1.240   3.595   6.696
 2020SOL    HW1 6803   1.323   3.616   6.653
 2020SOL    HW2 6804   1.247   3.502   6.716
 2021SOL     OW 6805   0.067   3.046   6.636
 2021SOL    HW1 6806   0.061   3.077   6.726
 2021SOL    HW2 6807   0.030   3.118   6.584
 2022SOL     OW 6808   0.679   3.530   7.319
 2022SOL    HW1 6809   0.621   3.605   7.311
 2022SOL    HW2 6810   0.744   3.542   7.250
 2023SOL     OW 6811   1.390   3.430   6.072
 2023SOL    HW1 6812   1.450   3.463   6.005
 2023SOL    HW2 6813   1.341   3.507   6.100
 2024SOL     OW 6814   0.118   3.669   7.434
 2024SOL    HW1 6815   0.077   3.597   7.482
 2024SOL    HW2 6816   0.181   3.706   7.495
 2025SOL     OW 6817   1.281   2.788   6.254
 2025SOL    HW1 6818   1.362   2.738   6.265
 2025SOL    HW2 6819   1.307   2.865   6.204
 2026SOL     OW 6820   0.811   3.137   7.014
 2026SOL    HW1 6821   0.784   3.176   7.097
 2026SOL    HW2 6822   0.740   3.157   6.953
 2027SOL     OW 6823   0.672   3.483   5.741
 2027SOL    HW1 6824   0.682   3.496   5.647
 2027SOL    HW2 6825   0.617   3.406   5.749
 2028SOL     OW 6826   1.624   3.589   6.978
 2028SOL    HW1 6827   1.675   3.595   6.897
 2028SOL    HW2 6828   1.610   3.680   7.004
 2029SOL     OW 6829   1.810   2.027   6.564
 2029SOL    HW1 6830   1.860   1.949   6.542
 2029SOL    HW2 6831   1.732   2.023   6.507
 2030SOL     OW 6832   0.263   2.181   6.304
 2030SOL    HW1 6833   0.180   2.220   6.277
 2030SOL    HW2 6834   0.254   2.168   6.398
 2031SOL     OW 6835   1.209   3.466   5.618
 2031SOL    HW1 6836   1.197   3.375   5.645
 2031SOL    HW2 6837   1.143   3.479   5.549
 2032SOL     OW 6838   0.826   2.869   6.959
 2032SOL    HW1 6839   0.870   2.865   6.874
 2032SOL    HW2 6840   0.824   2.962   6.980
 2033SOL     OW 6841   0.916   2.773   5.876
 2033SOL    HW1 6842   0.977   2.805   5.810
 2033SOL    HW2 6843   0.964   2.704   5.921
 2034SOL     OW 6844   1.491   3.488   5.629
 2034SOL    HW1 6845   1.397   3.480   5.616
 2034SOL    HW2 6846   1.528   3.494   5.541
 2035SOL     OW 6847   0.373   3.171   7.076
 2035SOL    HW1 6848   0.355   3.250   7.025
 2035SOL    HW2 6849   0.299   3.113   7.059
 2036SOL     OW 6850   1.611   3.147   6.864
 2036SOL    HW1 6851   1.668   3.132   6.940
 2036SOL    HW2 6852   1.550   3.214   6.893
 2037SOL     OW 6853   1.054   2.970   6.293
 2037SOL    HW1 6854   0.983   2.922   6.334
 2037SOL    HW2 6855   1.114   2.903   6.261
 2038SOL     OW 6856   1.021   2.101   6.553
 2038SOL    HW1 6857   1.019   2.054   6.470
 2038SOL    HW2 6858   1.016   2.032   6.619
 2039SOL     OW 6859   0.606   3.352   6.068
 2039SOL    HW1 6860   0.649   3.302   5.998
 2039SOL    HW2 6861   0.528   3.389   6.026
 2040SOL     OW 6862   1.727   2.260   6.966
 2040SOL    HW1 6863   1.807   2.312   6.963
 2040SOL    HW2 6864   1.746   2.184   6.911
 2041SOL     OW 6865   0.252   3.205   5.862
 2041SOL    HW1 6866   0.158   3.203   5.848
 2041SOL    HW2 6867   0.263   3.237   5.951
 2042SOL     OW 6868   0.116   2.869   7.279
 2042SOL    HW1 6869   0.052   2.913   7.336
 2042SOL    HW2 6870   0.194   2.860   7.333
 2043SOL     OW 6871   0.675   2.061   7.085
 2043SOL    HW1 6872   0.759   2.038   7.045
 2043SOL    HW2 6873   0.698   2.090   7.173
 2044SOL     OW 6874   0.072   2.187   5.617
 2044SOL    HW1 6875   4.478   2.201   5.628
 2044SOL    HW2 6876   0.103   2.269   5.578
 2045SOL     OW 6877   1.430   2.721   6.985
 2045SOL    HW1 6878   1.380   2.781   6.930
 2045SOL    HW2 6879   1.518   2.721   6.948
 2046SOL     OW 6880   0.087   2.037   5.890
 2046SOL    HW1 6881   0.080   2.110   5.829
 2046SOL    HW2 6882   0.162   1.987   5.858
 2047SOL     OW 6883   1.178   3.200   5.703
 2047SOL    HW1 6884   1.087   3.171   5.704
 2047SOL    HW2 6885   1.204   3.199   5.795
 2048SOL     OW 6886   0.625   2.693   7.019
 2048SOL    HW1 6887   0.682   2.769   7.004
 2048SOL    HW2 6888   0.686   2.619   7.025
 2049SOL     OW 6889   1.483   3.641   6.565
 2049SOL    HW1 6890   1.506   3.703   6.497
 2049SOL    HW2 6891   1.566   3.620   6.608
 2050SOL     OW 6892   0.712   2.425   7.290
 2050SOL    HW1 6893   0.758   2.486   7.347
 2050SOL    HW2 6894   0.739   2.339   7.320
 2051SOL     OW 6895   1.472   3.061   7.217
 2051SOL    HW1 6896   1.460   3.074   7.311
 2051SOL    HW2 6897   1.565   3.077   7.202
 2052SOL     OW 6898   0.379   3.606   7.151
 2052SOL    HW1 6899   0.294   3.647   7.133
 2052SOL    HW2 6900   0.357   3.527   7.200
 2053SOL     OW 6901   1.669   2.744   6.839
 2053SOL    HW1 6902   1.660   2.659   6.796
 2053SOL    HW2 6903   1.664   2.808   6.768
 2054SOL     OW 6904   1.206   2.180   6.039
 2054SOL    HW1 6905   1.289   2.142   6.009
 2054SOL    HW2 6906   1.228   2.227   6.119
 2055SOL     OW 6907   0.590   2.598   6.255
 2055SOL    HW1 6908   0.627   2.685   6.241
 2055SOL    HW2 6909   0.522   2.590   6.188
 2056SOL     OW 6910   1.749   2.236   7.238
 2056SOL    HW1 6911   1.743   2.247   7.143
 2056SOL    HW2 6912   1.679   2.175   7.260
 2057SOL     OW 6913   1.753   2.794   7.094
 2057SOL    HW1 6914   1.742   2.888   7.108
 2057SOL    HW2 6915   1.733   2.782   7.001
 2058SOL     OW 6916   0.866   3.229   5.624
 2058SOL    HW1 6917   0.825   3.255   5.706
 2058SOL    HW2 6918   0.880   3.311   5.576
 2059SOL     OW 6919   0.662   3.651   6.529
 2059SOL    HW1 6920   0.642   3.742   6.506
 2059SOL    HW2 6921   0.757   3.645   6.521
 2060SOL     OW 6922   0.869   2.831   6.440
 2060SOL    HW1 6923   0.917   2.758   6.479
 2060SOL    HW2 6924   0.832   2.878   6.515
 2061SOL     OW 6925   1.080   2.851   5.676
 2061SOL    HW1 6926   1.057   2.901   5.598
 2061SOL    HW2 6927   1.154   2.797   5.648
 2062SOL     OW 6928   1.856   3.405   6.426
 2062SOL    HW1 6929   1.767   3.405   6.391
 2062SOL    HW2 6930   1.855   3.342   6.497
 2063SOL     OW 6931   0.232   3.166   7.445
 2063SOL    HW1 6932   0.154   3.115   7.425
 2063SOL    HW2 6933   0.230   3.177   7.540
 2064SOL     OW 6934   0.112   3.095   6.254
 2064SOL    HW1 6935   0.127   3.052   6.339
 2064SOL    HW2 6936   0.169   3.049   6.193
 2065SOL     OW 6937   0.684   3.267   7.216
 2065SOL    HW1 6938   0.604   3.223   7.244
 2065SOL    HW2 6939   0.677   3.354   7.253
 2066SOL     OW 6940   1.773   2.037   6.824
 2066SOL    HW1 6941   1.802   1.948   6.842
 2066SOL    HW2 6942   1.788   2.050   6.731
 2067SOL     OW 6943   0.436   2.295   6.112
 2067SOL    HW1 6944   0.460   2.221   6.056
 2067SOL    HW2 6945   0.384   2.256   6.182
 2068SOL     OW 6946   1.695   3.357   6.681
 2068SOL    HW1 6947   1.616   3.331   6.634
 2068SOL    HW2 6948   1.713   3.284   6.741
 2069SOL     OW 6949   0.297   2.350   6.836
 2069SOL    HW1 6950   0.371   2.308   6.880
 2069SOL    HW2 6951   0.327   2.366   6.747
 2070SOL     OW 6952   0.829   3.439   6.262
 2070SOL    HW1 6953   0.812   3.497   6.188
 2070SOL    HW2 6954   0.753   3.381   6.266
 2071SOL     OW 6955   1.424   2.077   6.710
 2071SOL    HW1 6956   1.472   2.016   6.766
 2071SOL    HW2 6957   1.373   2.131   6.771
 2072SOL     OW 6958   1.008   1.879   6.727
 2072SOL    HW1 6959   0.954   1.811   6.687
 2072SOL    HW2 6960   1.096   1.842   6.729
 2073SOL     OW 6961   0.773   3.195   5.902
 2073SOL    HW1 6962   0.742   3.105   5.908
 2073SOL    HW2 6963   0.854   3.197   5.952
 2074SOL     OW 6964   0.621   3.417   6.872
 2074SOL    HW1 6965   0.623   3.499   6.922
 2074SOL    HW2 6966   0.709   3.411   6.834
 2075SOL     OW 6967   1.342   1.930   5.757
 2075SOL    HW1 6968   1.371   1.873   5.686
 2075SOL    HW2 6969   1.262   1.888   5.790
 2076SOL     OW 6970   1.268   2.316   6.266
 2076SOL    HW1 6971   1.218   2.397   6.278
 2076SOL    HW2 6972   1.280   2.282   6.354
 2077SOL     OW 6973   0.041   2.913   5.876
 2077SOL    HW1 6974   0.133   2.892   5.864
 2077SOL    HW2 6975   0.021   2.884   5.965
 2078SOL     OW 6976   0.887   3.518   5.926
 2078SOL    HW1 6977   0.813   3.500   5.868
 2078SOL    HW2 6978   0.857   3.591   5.980
 2079SOL     OW 6979   0.246   2.491   7.570
 2079SOL    HW1 6980   0.173   2.467   7.625
 2079SOL    HW2 6981   0.216   2.475   7.481
 2080SOL     OW 6982   0.213   2.137   8.439
 2080SOL    HW1 6983   0.249   2.110   8.524
 2080SOL    HW2 6984   0.137   2.079   8.426
 2081SOL     OW 6985   0.007   2.257   8.088
 2081SOL    HW1 6986   4.426   2.289   8.127
 2081SOL    HW2 6987   4.481   2.177   8.042
 2082SOL     OW 6988   0.568   3.153   8.626
 2082SOL    HW1 6989   0.481   3.157   8.587
 2082SOL    HW2 6990   0.584   3.240   8.661
 2083SOL     OW 6991   1.564   3.374   8.156
 2083SOL    HW1 6992   1.521   3.353   8.239
 2083SOL    HW2 6993   1.492   3.378   8.092
 2084SOL     OW 6994   1.131   2.560   8.147
 2084SOL    HW1 6995   1.179   2.642   8.134
 2084SOL    HW2 6996   1.084   2.573   8.229
 2085SOL     OW 6997   1.769   2.471   7.674
 2085SOL    HW1 6998   1.744   2.464   7.582
 2085SOL    HW2 6999   1.745   2.385   7.711
 2086SOL     OW 7000   0.752   3.003   8.490
 2086SOL    HW1 7001   0.684   3.038   8.548
 2086SOL    HW2 7002   0.789   3.079   8.446
 2087SOL     OW 7003   0.869   2.631   9.269
 2087SOL    HW1 7004   0.854   2.701   9.332
 2087SOL    HW2 7005   0.892   2.676   9.188
 2088SOL     OW 7006   0.685   2.864   8.094
 2088SOL    HW1 7007   0.751   2.853   8.163
 2088SOL    HW2 7008   0.616   2.916   8.135
 2089SOL     OW 7009   0.712   3.011   9.263
 2089SOL    HW1 7010   0.759   3.090   9.291
 2089SOL    HW2 7011   0.631   3.044   9.225
 2090SOL     OW 7012   0.334   3.281   8.517
 2090SOL    HW1 7013   0.253   3.262   8.471
 2090SOL    HW2 7014   0.384   3.336   8.456
 2091SOL     OW 7015   1.460   3.362   8.804
 2091SOL    HW1 7016   1.512   3.442   8.814
 2091SOL    HW2 7017   1.395   3.367   8.874
 2092SOL     OW 7018   0.446   2.266   8.936
 2092SOL    HW1 7019   0.526   2.213   8.942
 2092SOL    HW2 7020   0.375   2.203   8.944
 2093SOL     OW 7021   1.598   2.312   8.193
 2093SOL    HW1 7022   1.524   2.334   8.137
 2093SOL    HW2 7023   1.612   2.391   8.246
 2094SOL     OW 7024   0.246   3.553   7.924
 2094SOL    HW1 7025   0.230   3.638   7.964
 2094SOL    HW2 7026   0.316   3.570   7.860
 2095SOL     OW 7027   1.137   3.204   9.141
 2095SOL    HW1 7028   1.177   3.199   9.228
 2095SOL    HW2 7029   1.084   3.124   9.134
 2096SOL     OW 7030   0.253   3.288   7.975
 2096SOL    HW1 7031   0.242   3.383   7.977
 2096SOL    HW2 7032   0.191   3.255   8.040
 2097SOL     OW 7033   0.251   2.945   8.333
 2097SOL    HW1 7034   0.265   2.853   8.358
 2097SOL    HW2 7035   0.189   2.978   8.399
 2098SOL     OW 7036   0.612   3.653   8.879
 2098SOL    HW1 7037   0.528   3.635   8.922
 2098SOL    HW2 7038   0.632   3.743   8.903
 2099SOL     OW 7039   0.576   2.850   7.588
 2099SOL    HW1 7040   0.625   2.891   7.517
 2099SOL    HW2 7041   0.620   2.880   7.668
 2100SOL     OW 7042   1.589   1.980   8.922
 2100SOL    HW1 7043   1.612   2.053   8.864
 2100SOL    HW2 7044   1.576   2.022   9.008
 2101SOL     OW 7045   0.136   2.510   8.021
 2101SOL    HW1 7046   0.090   2.429   8.041
 2101SOL    HW2 7047   0.107   2.572   8.088
 2102SOL     OW 7048   1.843   3.620   7.781
 2102SOL    HW1 7049   1.908   3.592   7.845
 2102SOL    HW2 7050   1.865   3.711   7.762
 2103SOL     OW 7051   0.032   3.465   7.592
 2103SOL    HW1 7052   0.020   3.370   7.587
 2103SOL    HW2 7053   0.029   3.484   7.686
 2104SOL     OW 7054   1.691   2.781   8.090
 2104SOL    HW1 7055   1.771   2.735   8.064
 2104SOL    HW2 7056   1.666   2.832   8.013
 2105SOL     OW 7057   1.646   2.967   7.877
 2105SOL    HW1 7058   1.732   2.971   7.836
 2105SOL    HW2 7059   1.651   3.030   7.950
 2106SOL     OW 7060   0.111   2.628   9.026
 2106SOL    HW1 7061   0.200   2.622   8.992
 2106SOL    HW2 7062   0.100   2.719   9.051
 2107SOL     OW 7063   0.615   3.249   8.184
 2107SOL    HW1 7064   0.568   3.166   8.194
 2107SOL    HW2 7065   0.598   3.276   8.094
 2108SOL     OW 7066   1.288   3.100   8.870
 2108SOL    HW1 7067   1.320   3.032   8.811
 2108SOL    HW2 7068   1.346   3.094   8.946
 2109SOL     OW 7069   0.818   1.863   7.958
 2109SOL    HW1 7070   0.858   1.947   7.937
 2109SOL    HW2 7071   0.725   1.881   7.966
 2110SOL     OW 7072   0.178   2.801   8.727
 2110SOL    HW1 7073   0.269   2.782   8.707
 2110SOL    HW2 7074   0.133   2.792   8.643
 2111SOL     OW 7075   1.532   2.857   7.647
 2111SOL    HW1 7076   1.462   2.799   7.678
 2111SOL    HW2 7077   1.573   2.891   7.726
 2112SOL     OW 7078   1.186   3.670   9.071
 2112SOL    HW1 7079   1.194   3.729   8.996
 2112SOL    HW2 7080   1.202   3.583   9.035
 2113SOL     OW 7081   0.332   2.119   9.249
 2113SOL    HW1 7082   0.379   2.192   9.288
 2113SOL    HW2 7083   0.244   2.124   9.285
 2114SOL     OW 7084   1.468   3.281   8.399
 2114SOL    HW1 7085   1.399   3.297   8.464
 2114SOL    HW2 7086   1.454   3.190   8.372
 2115SOL     OW 7087   1.658   3.605   8.026
 2115SOL    HW1 7088   1.638   3.574   7.937
 2115SOL    HW2 7089   1.633   3.531   8.082
 2116SOL     OW 7090   0.598   2.581   7.716
 2116SOL    HW1 7091   0.599   2.663   7.667
 2116SOL    HW2 7092   0.532   2.595   7.784
 2117SOL     OW 7093   1.277   2.219   8.382
 2117SOL    HW1 7094   1.188   2.185   8.390
 2117SOL    HW2 7095   1.330   2.165   8.441
 2118SOL     OW 7096   1.580   3.534   7.757
 2118SOL    HW1 7097   1.671   3.563   7.750
 2118SOL    HW2 7098   1.552   3.517   7.667
 2119SOL     OW 7099   0.793   2.478   8.898
 2119SOL    HW1 7100   0.767   2.453   8.987
 2119SOL    HW2 7101   0.752   2.412   8.842
 2120SOL     OW 7102   1.393   2.336   9.125
 2120SOL    HW1 7103   1.396   2.380   9.210
 2120SOL    HW2 7104   1.454   2.263   9.134
 2121SOL     OW 7105   0.953   2.749   9.031
 2121SOL    HW1 7106   1.008   2.679   8.995
 2121SOL    HW2 7107   0.906   2.784   8.956
 2122SOL     OW 7108   0.993   2.276   8.685
 2122SOL    HW1 7109   0.907   2.295   8.722
 2122SOL    HW2 7110   0.974   2.229   8.604
 2123SOL     OW 7111   1.052   2.560   7.874
 2123SOL    HW1 7112   1.068   2.553   7.968
 2123SOL    HW2 7113   0.969   2.514   7.860
 2124SOL     OW 7114   0.094   2.692   8.234
 2124SOL    HW1 7115   0.181   2.678   8.271
 2124SOL    HW2 7116   0.037   2.705   8.309
 2125SOL     OW 7117   0.124   3.717   9.025
 2125SOL    HW1 7118   0.116   3.696   9.118
 2125SOL    HW2 7119   0.044   3.682   8.985
 2126SOL     OW 7120   0.895   2.211   7.643
 2126SOL    HW1 7121   0.935   2.274   7.582
 2126SOL    HW2 7122   0.909   2.126   7.602
 2127SOL     OW 7123   1.707   2.439   9.280
 2127SOL    HW1 7124   1.669   2.510   9.228
 2127SOL    HW2 7125   1.733   2.373   9.216
 2128SOL     OW 7126   1.378   3.004   7.989
 2128SOL    HW1 7127   1.456   2.992   7.936
 2128SOL    HW2 7128   1.325   3.066   7.940
 2129SOL     OW 7129   0.553   2.043   8.342
 2129SOL    HW1 7130   0.555   2.074   8.432
 2129SOL    HW2 7131   0.553   2.123   8.289
 2130SOL     OW 7132   1.004   3.306   7.919
 2130SOL    HW1 7133   0.969   3.380   7.869
 2130SOL    HW2 7134   0.983   3.326   8.010
 2131SOL     OW 7135   0.357   3.674   8.307
 2131SOL    HW1 7136   0.398   3.588   8.318
 2131SOL    HW2 7137   0.427   3.737   8.325
 2132SOL     OW 7138   1.800   2.917   8.316
 2132SOL    HW1 7139   1.747   2.896   8.239
 2132SOL    HW2 7140   1.737   2.923   8.388
 2133SOL     OW 7141   1.228   3.401   8.961
 2133SOL    HW1 7142   1.214   3.328   9.022
 2133SOL    HW2 7143   1.162   3.387   8.892
 2134SOL     OW 7144   0.314   2.815   7.704
 2134SOL    HW1 7145   0.397   2.839   7.663
 2134SOL    HW2 7146   0.300   2.724   7.679
 2135SOL     OW 7147   1.480   2.607   8.174
 2135SOL    HW1 7148   1.471   2.566   8.260
 2135SOL    HW2 7149   1.558   2.662   8.182
 2136SOL     OW 7150   0.469   3.125   9.183
 2136SOL    HW1 7151   0.442   3.132   9.091
 2136SOL    HW2 7152   0.387   3.128   9.232
 2137SOL     OW 7153   1.122   3.640   7.678
 2137SOL    HW1 7154   1.048   3.599   7.723
 2137SOL    HW2 7155   1.146   3.578   7.609
 2138SOL     OW 7156   0.197   2.138   8.933
 2138SOL    HW1 7157   0.140   2.215   8.940
 2138SOL    HW2 7158   0.182   2.089   9.013
 2139SOL     OW 7159   1.629   3.243   7.536
 2139SOL    HW1 7160   1.587   3.328   7.521
 2139SOL    HW2 7161   1.560   3.179   7.517
 2140SOL     OW 7162   0.469   3.605   7.761
 2140SOL    HW1 7163   0.512   3.659   7.827
 2140SOL    HW2 7164   0.541   3.568   7.709
 2141SOL     OW 7165   1.399   1.969   7.882
 2141SOL    HW1 7166   1.388   1.944   7.790
 2141SOL    HW2 7167   1.493   1.981   7.893
 2142SOL     OW 7168   0.260   3.655   8.676
 2142SOL    HW1 7169   0.304   3.578   8.713
 2142SOL    HW2 7170   0.222   3.623   8.594
 2143SOL     OW 7171   0.938   3.561   8.346
 2143SOL    HW1 7172   1.015   3.509   8.369
 2143SOL    HW2 7173   0.895   3.511   8.276
 2144SOL     OW 7174   0.396   2.556   7.920
 2144SOL    HW1 7175   0.418   2.464   7.932
 2144SOL    HW2 7176   0.304   2.562   7.945
 2145SOL     OW 7177   1.533   2.089   9.175
 2145SOL    HW1 7178   1.544   2.109   9.268
 2145SOL    HW2 7179   1.467   2.020   9.172
 2146SOL     OW 7180   0.638   1.985   7.550
 2146SOL    HW1 7181   0.702   1.916   7.568
 2146SOL    HW2 7182   0.588   1.952   7.475
 2147SOL     OW 7183   0.766   2.141   9.203
 2147SOL    HW1 7184   0.844   2.085   9.201
 2147SOL    HW2 7185   0.718   2.113   9.281
 2148SOL     OW 7186   0.877   3.385   8.642
 2148SOL    HW1 7187   0.860   3.348   8.555
 2148SOL    HW2 7188   0.946   3.330   8.678
 2149SOL     OW 7189   1.339   2.451   8.880
 2149SOL    HW1 7190   1.371   2.419   8.965
 2149SOL    HW2 7191   1.377   2.539   8.873
 2150SOL     OW 7192   0.817   3.256   8.390
 2150SOL    HW1 7193   0.901   3.244   8.346
 2150SOL    HW2 7194   0.752   3.258   8.319
 2151SOL     OW 7195   0.928   2.371   8.351
 2151SOL    HW1 7196   0.904   2.363   8.258
 2151SOL    HW2 7197   0.959   2.284   8.375
 2152SOL     OW 7198   0.554   1.924   7.947
 2152SOL    HW1 7199   0.474   1.922   7.999
 2152SOL    HW2 7200   0.546   2.002   7.892
 2153SOL     OW 7201   1.428   3.061   7.489
 2153SOL    HW1 7202   1.458   2.985   7.539
 2153SOL    HW2 7203   1.343   3.082   7.526
 2154SOL     OW 7204   0.295   1.908   7.625
 2154SOL    HW1 7205   0.359   1.974   7.599
 2154SOL    HW2 7206   0.348   1.841   7.671
 2155SOL     OW 7207   0.939   2.110   7.907
 2155SOL    HW1 7208   0.914   2.150   7.824
 2155SOL    HW2 7209   1.034   2.124   7.912
 2156SOL     OW 7210   1.080   2.544   8.907
 2156SOL    HW1 7211   1.013   2.476   8.911
 2156SOL    HW2 7212   1.163   2.495   8.900
 2157SOL     OW 7213   1.223   3.432   8.242
 2157SOL    HW1 7214   1.238   3.499   8.175
 2157SOL    HW2 7215   1.291   3.448   8.307
 2158SOL     OW 7216   0.468   3.013   8.182
 2158SOL    HW1 7217   0.398   2.994   8.245
 2158SOL    HW2 7218   0.427   2.998   8.096
 2159SOL     OW 7219   1.268   3.655   8.058
 2159SOL    HW1 7220   1.315   3.716   8.001
 2159SOL    HW2 7221   1.200   3.708   8.100
 2160SOL     OW 7222   1.023   2.401   7.472
 2160SOL    HW1 7223   0.979   2.485   7.452
 2160SOL    HW2 7224   1.088   2.424   7.538
 2161SOL     OW 7225   0.083   2.386   8.859
 2161SOL    HW1 7226   0.146   2.381   8.786
 2161SOL    HW2 7227   0.067   2.479   8.870
 2162SOL     OW 7228   0.560   2.090   8.615
 2162SOL    HW1 7229   0.603   2.013   8.651
 2162SOL    HW2 7230   0.468   2.080   8.641
 2163SOL     OW 7231   0.868   2.321   8.088
 2163SOL    HW1 7232   0.822   2.375   8.024
 2163SOL    HW2 7233   0.889   2.241   8.040
 2164SOL     OW 7234   1.016   1.916   8.198
 2164SOL    HW1 7235   0.957   1.909   8.123
 2164SOL    HW2 7236   0.994   1.840   8.253
 2165SOL     OW 7237   1.438   3.024   8.305
 2165SOL    HW1 7238   1.367   2.959   8.305
 2165SOL    HW2 7239   1.461   3.034   8.212
 2166SOL     OW 7240   1.465   2.469   8.423
 2166SOL    HW1 7241   1.412   2.389   8.425
 2166SOL    HW2 7242   1.523   2.462   8.499
 2167SOL     OW 7243   1.847   2.676   7.834
 2167SOL    HW1 7244   1.902   2.623   7.891
 2167SOL    HW2 7245   1.817   2.616   7.767
 2168SOL     OW 7246   0.491   3.282   7.605
 2168SOL    HW1 7247   0.414   3.253   7.654
 2168SOL    HW2 7248   0.477   3.249   7.516
 2169SOL     OW 7249   1.672   3.127   8.092
 2169SOL    HW1 7250   1.766   3.129   8.106
 2169SOL    HW2 7251   1.642   3.215   8.114
 2170SOL     OW 7252   1.393   2.435   7.518
 2170SOL    HW1 7253   1.334   2.414   7.591
 2170SOL    HW2 7254   1.480   2.410   7.550
 2171SOL     OW 7255   0.524   2.122   7.762
 2171SOL    HW1 7256   0.573   2.077   7.693
 2171SOL    HW2 7257   0.503   2.207   7.725
 2172SOL     OW 7258   1.751   3.103   9.018
 2172SOL    HW1 7259   1.838   3.064   9.011
 2172SOL    HW2 7260   1.766   3.192   9.047
 2173SOL     OW 7261   1.057   3.216   8.781
 2173SOL    HW1 7262   0.982   3.185   8.832
 2173SOL    HW2 7263   1.133   3.174   8.823
 2174SOL     OW 7264   1.609   3.488   9.104
 2174SOL    HW1 7265   1.602   3.522   9.014
 2174SOL    HW2 7266   1.691   3.440   9.104
 2175SOL     OW 7267   1.131   3.068   8.552
 2175SOL    HW1 7268   1.071   3.104   8.617
 2175SOL    HW2 7269   1.099   3.100   8.468
 2176SOL     OW 7270   1.627   2.960   8.524
 2176SOL    HW1 7271   1.622   3.022   8.597
 2176SOL    HW2 7272   1.549   2.977   8.472
 2177SOL     OW 7273   0.917   1.959   8.843
 2177SOL    HW1 7274   0.940   1.939   8.752
 2177SOL    HW2 7275   0.997   1.998   8.880
 2178SOL     OW 7276   0.984   2.977   9.171
 2178SOL    HW1 7277   0.893   2.993   9.194
 2178SOL    HW2 7278   0.982   2.898   9.116
 2179SOL     OW 7279   0.709   2.924   7.820
 2179SOL    HW1 7280   0.696   2.906   7.913
 2179SOL    HW2 7281   0.784   2.870   7.796
 2180SOL     OW 7282   0.431   2.690   8.692
 2180SOL    HW1 7283   0.501   2.702   8.756
 2180SOL    HW2 7284   0.375   2.623   8.731
 2181SOL     OW 7285   1.265   2.238   8.724
 2181SOL    HW1 7286   1.298   2.315   8.770
 2181SOL    HW2 7287   1.175   2.260   8.702
 2182SOL     OW 7288   0.063   3.438   8.792
 2182SOL    HW1 7289   0.036   3.528   8.776
 2182SOL    HW2 7290   0.159   3.442   8.797
 2183SOL     OW 7291   0.343   2.972   7.941
 2183SOL    HW1 7292   0.353   3.046   7.881
 2183SOL    HW2 7293   0.342   2.895   7.884
 2184SOL     OW 7294   0.560   2.393   8.302
 2184SOL    HW1 7295   0.573   2.453   8.229
 2184SOL    HW2 7296   0.622   2.422   8.369
 2185SOL     OW 7297   1.248   3.211   7.838
 2185SOL    HW1 7298   1.304   3.282   7.869
 2185SOL    HW2 7299   1.161   3.232   7.871
 2186SOL     OW 7300   1.283   3.321   8.595
 2186SOL    HW1 7301   1.338   3.323   8.673
 2186SOL    HW2 7302   1.227   3.244   8.607
 2187SOL     OW 7303   1.579   2.481   7.927
 2187SOL    HW1 7304   1.533   2.535   7.991
 2187SOL    HW2 7305   1.625   2.544   7.871
 2188SOL     OW 7306   0.346   3.397   8.761
 2188SOL    HW1 7307   0.332   3.348   8.679
 2188SOL    HW2 7308   0.441   3.405   8.768
 2189SOL     OW 7309   0.485   2.619   9.118
 2189SOL    HW1 7310   0.515   2.657   9.035
 2189SOL    HW2 7311   0.537   2.539   9.127
 2190SOL     OW 7312   1.604   2.642   9.131
 2190SOL    HW1 7313   1.518   2.683   9.124
 2190SOL    HW2 7314   1.656   2.684   9.062
 2191SOL     OW 7315   0.996   1.989   9.201
 2191SOL    HW1 7316   1.054   2.060   9.176
 2191SOL    HW2 7317   1.043   1.909   9.177
 2192SOL     OW 7318   0.497   1.904   9.196
 2192SOL    HW1 7319   0.454   1.847   9.131
 2192SOL    HW2 7320   0.439   1.979   9.204
 2193SOL     OW 7321   0.591   2.736   8.473
 2193SOL    HW1 7322   0.620   2.827   8.475
 2193SOL    HW2 7323   0.534   2.728   8.550
 2194SOL     OW 7324   1.355   2.721   8.475
 2194SOL    HW1 7325   1.271   2.710   8.432
 2194SOL    HW2 7326   1.397   2.635   8.469
 2195SOL     OW 7327   1.204   2.390   7.714
 2195SOL    HW1 7328   1.211   2.312   7.769
 2195SOL    HW2 7329   1.160   2.454   7.770
 2196SOL     OW 7330   0.301   2.051   8.690
 2196SOL    HW1 7331   0.262   2.084   8.771
 2196SOL    HW2 7332   0.285   1.957   8.692
 2197SOL     OW 7333   0.032   3.174   8.735
 2197SOL    HW1 7334   0.072   3.127   8.807
 2197SOL    HW2 7335   0.040   3.267   8.758
 2198SOL     OW 7336   0.724   2.492   8.504
 2198SOL    HW1 7337   0.800   2.476   8.448
 2198SOL    HW2 7338   0.697   2.581   8.482
 2199SOL     OW 7339   1.736   2.821   9.302
 2199SOL    HW1 7340   1.691   2.757   9.247
 2199SOL    HW2 7341   1.676   2.837   9.375
 2200SOL     OW 7342   0.313   1.931   8.066
 2200SOL    HW1 7343   0.287   2.020   8.092
 2200SOL    HW2 7344   0.312   1.881   8.148
 2201SOL     OW 7345   1.612   2.232   7.818
 2201SOL    HW1 7346   1.647   2.175   7.886
 2201SOL    HW2 7347   1.593   2.314   7.862
 2202SOL     OW 7348   1.028   2.621   8.408
 2202SOL    HW1 7349   1.023   2.638   8.502
 2202SOL    HW2 7350   1.002   2.529   8.399
 2203SOL     OW 7351   0.983   3.429   9.166
 2203SOL    HW1 7352   0.967   3.473   9.082
 2203SOL    HW2 7353   1.025   3.346   9.143
 2204SOL     OW 7354   1.854   3.366   9.053
 2204SOL    HW1 7355   1.873   3.393   8.963
 2204SOL    HW2 7356   1.935   3.383   9.101
 2205SOL     OW 7357   0.347   2.797   9.265
 2205SOL    HW1 7358   0.418   2.827   9.321
 2205SOL    HW2 7359   0.386   2.729   9.211
 2206SOL     OW 7360   1.531   2.131   7.576
 2206SOL    HW1 7361   1.463   2.069   7.602
 2206SOL    HW2 7362   1.562   2.170   7.658
 2207SOL     OW 7363   1.290   2.688   7.478
 2207SOL    HW1 7364   1.332   2.602   7.482
 2207SOL    HW2 7365   1.321   2.727   7.396
 2208SOL     OW 7366   1.067   3.198   8.303
 2208SOL    HW1 7367   1.070   3.126   8.240
 2208SOL    HW2 7368   1.127   3.264   8.267
 2209SOL     OW 7369   0.318   2.673   8.393
 2209SOL    HW1 7370   0.413   2.690   8.392
 2209SOL    HW2 7371   0.311   2.581   8.420
 2210SOL     OW 7372   0.328   2.388   8.435
 2210SOL    HW1 7373   0.291   2.301   8.420
 2210SOL    HW2 7374   0.407   2.389   8.381
 2211SOL     OW 7375   1.134   2.237   9.131
 2211SOL    HW1 7376   1.086   2.292   9.194
 2211SOL    HW2 7377   1.221   2.276   9.127
 2212SOL     OW 7378   1.160   2.064   8.918
 2212SOL    HW1 7379   1.150   2.127   8.989
 2212SOL    HW2 7380   1.202   2.113   8.848
 2213SOL     OW 7381   4.491   3.183   7.656
 2213SOL    HW1 7382   4.399   3.200   7.637
 2213SOL    HW2 7383   4.495   3.090   7.676
 2214SOL     OW 7384   0.100   3.635   8.389
 2214SOL    HW1 7385   0.060   3.587   8.316
 2214SOL    HW2 7386   0.188   3.657   8.357
 2215SOL     OW 7387   0.495   3.436   8.355
 2215SOL    HW1 7388   0.563   3.499   8.379
 2215SOL    HW2 7389   0.539   3.374   8.297
 2216SOL     OW 7390   0.981   2.653   8.673
 2216SOL    HW1 7391   1.038   2.631   8.747
 2216SOL    HW2 7392   0.896   2.616   8.697
 2217SOL     OW 7393   0.031   2.425   8.548
 2217SOL    HW1 7394   0.118   2.396   8.520
 2217SOL    HW2 7395   0.014   2.376   8.628
 2218SOL     OW 7396   0.179   2.385   9.164
 2218SOL    HW1 7397   0.260   2.355   9.123
 2218SOL    HW2 7398   0.157   2.466   9.116
 2219SOL     OW 7399   1.378   2.799   9.106
 2219SOL    HW1 7400   1.399   2.893   9.103
 2219SOL    HW2 7401   1.374   2.773   9.014
 2220SOL     OW 7402   0.818   2.431   7.810
 2220SOL    HW1 7403   0.821   2.357   7.750
 2220SOL    HW2 7404   0.744   2.484   7.779
 2221SOL     OW 7405   1.642   2.465   8.633
 2221SOL    HW1 7406   1.634   2.405   8.707
 2221SOL    HW2 7407   1.728   2.448   8.596
 2222SOL     OW 7408   0.274   3.424   9.188
 2222SOL    HW1 7409   0.215   3.476   9.243
 2222SOL    HW2 7410   0.255   3.333   9.212
 2223SOL     OW 7411   0.697   2.314   8.708
 2223SOL    HW1 7412   0.648   2.238   8.676
 2223SOL    HW2 7413   0.695   2.376   8.635
 2224SOL     OW 7414   0.927   3.541   8.916
 2224SOL    HW1 7415   0.901   3.504   8.832
 2224SOL    HW2 7416   0.920   3.636   8.904
 2225SOL     OW 7417   0.471   2.352   7.630
 2225SOL    HW1 7418   0.532   2.421   7.656
 2225SOL    HW2 7419   0.388   2.396   7.615
 2226SOL     OW 7420   0.162   3.003   8.907
 2226SOL    HW1 7421   0.144   2.959   8.991
 2226SOL    HW2 7422   0.169   2.932   8.844
 2227SOL     OW 7423   1.325   2.908   8.670
 2227SOL    HW1 7424   1.347   2.844   8.602
 2227SOL    HW2 7425   1.256   2.962   8.631
 2228SOL     OW 7426   1.313   2.719   7.754
 2228SOL    HW1 7427   1.238   2.688   7.805
 2228SOL    HW2 7428   1.287   2.705   7.662
 2229SOL     OW 7429   1.774   3.604   8.600
 2229SOL    HW1 7430   1.834   3.630   8.530
 2229SOL    HW2 7431   1.749   3.514   8.578
 2230SOL     OW 7432   1.241   3.595   8.559
 2230SOL    HW1 7433   1.323   3.617   8.515
 2230SOL    HW2 7434   1.247   3.502   8.578
 2231SOL     OW 7435   0.067   3.046   8.498
 2231SOL    HW1 7436   0.061   3.077   8.589
 2231SOL    HW2 7437   0.030   3.117   8.446
 2232SOL     OW 7438   0.679   3.530   9.181
 2232SOL    HW1 7439   0.620   3.605   9.173
 2232SOL    HW2 7440   0.743   3.542   9.111
 2233SOL     OW 7441   1.720   2.001   7.966
 2233SOL    HW1 7442   1.769   1.957   7.897
 2233SOL    HW2 7443   1.688   1.931   8.022
 2234SOL     OW 7444   1.391   3.430   7.935
 2234SOL    HW1 7445   1.451   3.463   7.867
 2234SOL    HW2 7446   1.342   3.506   7.963
 2235SOL     OW 7447   0.118   3.669   9.296
 2235SOL    HW1 7448   0.077   3.597   9.344
 2235SOL    HW2 7449   0.181   3.706   9.357
 2236SOL     OW 7450   1.277   2.788   8.119
 2236SOL    HW1 7451   1.351   2.728   8.127
 2236SOL    HW2 7452   1.311   2.861   8.066
 2237SOL     OW 7453   0.811   3.137   8.876
 2237SOL    HW1 7454   0.784   3.176   8.959
 2237SOL    HW2 7455   0.741   3.157   8.815
 2238SOL     OW 7456   0.672   3.484   7.603
 2238SOL    HW1 7457   0.683   3.496   7.509
 2238SOL    HW2 7458   0.617   3.406   7.611
 2239SOL     OW 7459   1.624   3.589   8.839
 2239SOL    HW1 7460   1.675   3.595   8.758
 2239SOL    HW2 7461   1.610   3.679   8.866
 2240SOL     OW 7462   1.792   1.999   8.436
 2240SOL    HW1 7463   1.844   1.930   8.393
 2240SOL    HW2 7464   1.721   2.017   8.374
 2241SOL     OW 7465   0.263   2.181   8.166
 2241SOL    HW1 7466   0.180   2.220   8.139
 2241SOL    HW2 7467   0.254   2.168   8.260
 2242SOL     OW 7468   1.208   3.467   7.480
 2242SOL    HW1 7469   1.197   3.375   7.507
 2242SOL    HW2 7470   1.142   3.479   7.411
 2243SOL     OW 7471   0.826   2.869   8.821
 2243SOL    HW1 7472   0.869   2.865   8.735
 2243SOL    HW2 7473   0.824   2.963   8.842
 2244SOL     OW 7474   0.916   2.773   7.738
 2244SOL    HW1 7475   0.977   2.805   7.672
 2244SOL    HW2 7476   0.964   2.704   7.783
 2245SOL     OW 7477   1.490   3.488   7.491
 2245SOL    HW1 7478   1.396   3.480   7.477
 2245SOL    HW2 7479   1.528   3.494   7.403
 2246SOL     OW 7480   0.373   3.171   8.938
 2246SOL    HW1 7481   0.355   3.250   8.887
 2246SOL    HW2 7482   0.299   3.113   8.921
 2247SOL     OW 7483   1.611   3.146   8.728
 2247SOL    HW1 7484   1.669   3.132   8.803
 2247SOL    HW2 7485   1.550   3.213   8.757
 2248SOL     OW 7486   1.055   2.970   8.155
 2248SOL    HW1 7487   0.983   2.920   8.194
 2248SOL    HW2 7488   1.118   2.904   8.126
 2249SOL     OW 7489   1.021   2.102   8.414
 2249SOL    HW1 7490   1.017   2.055   8.331
 2249SOL    HW2 7491   1.017   2.034   8.481
 2250SOL     OW 7492   0.606   3.351   7.930
 2250SOL    HW1 7493   0.649   3.302   7.860
 2250SOL    HW2 7494   0.528   3.388   7.888
 2251SOL     OW 7495   1.722   2.261   8.828
 2251SOL    HW1 7496   1.801   2.314   8.825
 2251SOL    HW2 7497   1.743   2.184   8.776
 2252SOL     OW 7498   0.252   3.205   7.723
 2252SOL    HW1 7499   0.157   3.203   7.710
 2252SOL    HW2 7500   0.263   3.237   7.813
 2253SOL     OW 7501   0.116   2.869   9.141
 2253SOL    HW1 7502   0.052   2.913   9.198
 2253SOL    HW2 7503   0.194   2.860   9.195
 2254SOL     OW 7504   0.675   2.061   8.947
 2254SOL    HW1 7505   0.759   2.038   8.907
 2254SOL    HW2 7506   0.698   2.090   9.035
 2255SOL     OW 7507   0.072   2.187   7.479
 2255SOL    HW1 7508   4.478   2.201   7.491
 2255SOL    HW2 7509   0.103   2.269   7.439
 2256SOL     OW 7510   1.429   2.721   8.848
 2256SOL    HW1 7511   1.380   2.781   8.792
 2256SOL    HW2 7512   1.518   2.722   8.812
 2257SOL     OW 7513   0.086   2.037   7.751
 2257SOL    HW1 7514   0.080   2.111   7.690
 2257SOL    HW2 7515   0.162   1.987   7.720
 2258SOL     OW 7516   1.178   3.200   7.565
 2258SOL    HW1 7517   1.088   3.170   7.567
 2258SOL    HW2 7518   1.205   3.200   7.657
 2259SOL     OW 7519   0.625   2.693   8.880
 2259SOL    HW1 7520   0.682   2.769   8.866
 2259SOL    HW2 7521   0.686   2.619   8.887
 2260SOL     OW 7522   1.483   3.640   8.428
 2260SOL    HW1 7523   1.505   3.702   8.358
 2260SOL    HW2 7524   1.567   3.620   8.470
 2261SOL     OW 7525   0.713   2.425   9.152
 2261SOL    HW1 7526   0.758   2.486   9.210
 2261SOL    HW2 7527   0.739   2.338   9.182
 2262SOL     OW 7528   1.472   3.060   9.079
 2262SOL    HW1 7529   1.460   3.074   9.173
 2262SOL    HW2 7530   1.565   3.077   9.065
 2263SOL     OW 7531   0.379   3.606   9.013
 2263SOL    HW1 7532   0.294   3.647   8.995
 2263SOL    HW2 7533   0.357   3.527   9.062
 2264SOL     OW 7534   1.669   2.743   8.703
 2264SOL    HW1 7535   1.661   2.657   8.661
 2264SOL    HW2 7536   1.658   2.806   8.632
 2265SOL     OW 7537   1.216   2.181   7.906
 2265SOL    HW1 7538   1.278   2.109   7.899
 2265SOL    HW2 7539   1.245   2.231   7.983
 2266SOL     OW 7540   0.589   2.598   8.118
 2266SOL    HW1 7541   0.627   2.685   8.103
 2266SOL    HW2 7542   0.522   2.590   8.051
 2267SOL     OW 7543   1.755   2.240   9.100
 2267SOL    HW1 7544   1.741   2.248   9.006
 2267SOL    HW2 7545   1.690   2.177   9.130
 2268SOL     OW 7546   1.752   2.793   8.958
 2268SOL    HW1 7547   1.742   2.887   8.974
 2268SOL    HW2 7548   1.732   2.782   8.865
 2269SOL     OW 7549   0.864   3.228   7.485
 2269SOL    HW1 7550   0.825   3.255   7.568
 2269SOL    HW2 7551   0.880   3.310   7.438
 2270SOL     OW 7552   0.662   3.651   8.391
 2270SOL    HW1 7553   0.642   3.742   8.368
 2270SOL    HW2 7554   0.757   3.645   8.383
 2271SOL     OW 7555   0.869   2.831   8.302
 2271SOL    HW1 7556   0.918   2.758   8.341
 2271SOL    HW2 7557   0.832   2.877   8.377
 2272SOL     OW 7558   1.079   2.851   7.537
 2272SOL    HW1 7559   1.057   2.902   7.459
 2272SOL    HW2 7560   1.153   2.797   7.511
 2273SOL     OW 7561   1.852   3.416   8.292
 2273SOL    HW1 7562   1.773   3.405   8.238
 2273SOL    HW2 7563   1.842   3.351   8.361
 2274SOL     OW 7564   0.232   3.166   9.307
 2274SOL    HW1 7565   0.153   3.115   9.287
 2274SOL    HW2 7566   0.230   3.177   9.402
 2275SOL     OW 7567   0.112   3.094   8.116
 2275SOL    HW1 7568   0.128   3.052   8.201
 2275SOL    HW2 7569   0.170   3.049   8.055
 2276SOL     OW 7570   0.684   3.267   9.078
 2276SOL    HW1 7571   0.604   3.223   9.106
 2276SOL    HW2 7572   0.677   3.354   9.115
 2277SOL     OW 7573   1.771   2.032   8.698
 2277SOL    HW1 7574   1.808   1.948   8.724
 2277SOL    HW2 7575   1.774   2.032   8.603
 2278SOL     OW 7576   0.435   2.295   7.974
 2278SOL    HW1 7577   0.460   2.221   7.918
 2278SOL    HW2 7578   0.384   2.255   8.044
 2279SOL     OW 7579   1.700   3.350   8.542
 2279SOL    HW1 7580   1.619   3.329   8.495
 2279SOL    HW2 7581   1.708   3.281   8.608
 2280SOL     OW 7582   0.297   2.350   8.698
 2280SOL    HW1 7583   0.371   2.308   8.741
 2280SOL    HW2 7584   0.327   2.366   8.609
 2281SOL     OW 7585   0.829   3.440   8.125
 2281SOL    HW1 7586   0.812   3.497   8.050
 2281SOL    HW2 7587   0.753   3.381   8.128
 2282SOL     OW 7588   1.433   2.090   8.563
 2282SOL    HW1 7589   1.465   2.012   8.609
 2282SOL    HW2 7590   1.381   2.137   8.628
 2283SOL     OW 7591   1.009   1.880   8.589
 2283SOL    HW1 7592   0.954   1.812   8.548
 2283SOL    HW2 7593   1.097   1.842   8.591
 2284SOL     OW 7594   0.773   3.195   7.764
 2284SOL    HW1 7595   0.743   3.105   7.770
 2284SOL    HW2 7596   0.854   3.197   7.814
 2285SOL     OW 7597   0.621   3.417   8.734
 2285SOL    HW1 7598   0.623   3.499   8.784
 2285SOL    HW2 7599   0.708   3.411   8.696
 2286SOL     OW 7600   1.352   1.915   7.614
 2286SOL    HW1 7601   1.381   1.850   7.550
 2286SOL    HW2 7602   1.265   1.886   7.640
 2287SOL     OW 7603   1.297   2.324   8.128
 2287SOL    HW1 7604   1.243   2.403   8.134
 2287SOL    HW2 7605   1.291   2.285   8.215
 2288SOL     OW 7606   1.564   2.060   8.310
 2288SOL    HW1 7607   1.515   2.081   8.389
 2288SOL    HW2 7608   1.571   2.143   8.262
 2289SOL     OW 7609   0.041   2.912   7.738
 2289SOL    HW1 7610   0.133   2.892   7.726
 2289SOL    HW2 7611   0.021   2.884   7.827
 2290SOL     OW 7612   0.887   3.517   7.789
 2290SOL    HW1 7613   0.813   3.500   7.730
 2290SOL    HW2 7614   0.857   3.591   7.842
 2291SOL     OW 7615   0.246   2.492   9.432
 2291SOL    HW1 7616   0.173   2.467   9.487
 2291SOL    HW2 7617   0.216   2.475   9.343
 2292SOL     OW 7618   0.214   2.136  10.301
 2292SOL    HW1 7619   0.249   2.111  10.386
 2292SOL    HW2 7620   0.137   2.081  10.289
 2293SOL     OW 7621   0.007   2.257   9.950
 2293SOL    HW1 7622   4.426   2.289   9.989
 2293SOL    HW2 7623   4.481   2.177   9.904
 2294SOL     OW 7624   0.568   3.153  10.489
 2294SOL    HW1 7625   0.482   3.156  10.448
 2294SOL    HW2 7626   0.583   3.241  10.523
 2295SOL     OW 7627   1.564   3.374  10.017
 2295SOL    HW1 7628   1.521   3.353  10.101
 2295SOL    HW2 7629   1.492   3.378   9.954
 2296SOL     OW 7630   1.131   2.560  10.009
 2296SOL    HW1 7631   1.180   2.641   9.996
 2296SOL    HW2 7632   1.084   2.573  10.091
 2297SOL     OW 7633   1.784   2.459   9.534
 2297SOL    HW1 7634   1.752   2.455   9.444
 2297SOL    HW2 7635   1.733   2.393   9.581
 2298SOL     OW 7636   0.753   3.004  10.354
 2298SOL    HW1 7637   0.685   3.039  10.410
 2298SOL    HW2 7638   0.789   3.080  10.308
 2299SOL     OW 7639   0.854   2.638   0.022
 2299SOL    HW1 7640   0.864   2.692   0.101
 2299SOL    HW2 7641   0.889   2.692  11.052
 2300SOL     OW 7642   0.685   2.864   9.956
 2300SOL    HW1 7643   0.751   2.853  10.025
 2300SOL    HW2 7644   0.616   2.916   9.997
 2301SOL     OW 7645   0.335   3.280  10.378
 2301SOL    HW1 7646   0.253   3.261  10.332
 2301SOL    HW2 7647   0.384   3.335  10.316
 2302SOL     OW 7648   1.463   3.361  10.662
 2302SOL    HW1 7649   1.521   3.437  10.670
 2302SOL    HW2 7650   1.401   3.371  10.735
 2303SOL     OW 7651   0.451   2.262  10.783
 2303SOL    HW1 7652   0.529   2.208  10.794
 2303SOL    HW2 7653   0.378   2.207  10.811
 2304SOL     OW 7654   1.593   2.312  10.057
 2304SOL    HW1 7655   1.514   2.330  10.007
 2304SOL    HW2 7656   1.605   2.390  10.111
 2305SOL     OW 7657   0.246   3.553   9.786
 2305SOL    HW1 7658   0.230   3.638   9.826
 2305SOL    HW2 7659   0.316   3.570   9.722
 2306SOL     OW 7660   0.253   3.288   9.837
 2306SOL    HW1 7661   0.242   3.383   9.839
 2306SOL    HW2 7662   0.191   3.255   9.901
 2307SOL     OW 7663   0.252   2.945  10.196
 2307SOL    HW1 7664   0.265   2.853  10.221
 2307SOL    HW2 7665   0.189   2.978  10.261
 2308SOL     OW 7666   0.610   3.652  10.738
 2308SOL    HW1 7667   0.529   3.633  10.787
 2308SOL    HW2 7668   0.632   3.741  10.762
 2309SOL     OW 7669   0.576   2.850   9.450
 2309SOL    HW1 7670   0.625   2.892   9.379
 2309SOL    HW2 7671   0.620   2.880   9.530
 2310SOL     OW 7672   1.586   1.977  10.782
 2310SOL    HW1 7673   1.607   2.045  10.719
 2310SOL    HW2 7674   1.614   2.012  10.867
 2311SOL     OW 7675   0.137   2.510   9.883
 2311SOL    HW1 7676   0.090   2.429   9.903
 2311SOL    HW2 7677   0.106   2.572   9.950
 2312SOL     OW 7678   1.843   3.619   9.643
 2312SOL    HW1 7679   1.908   3.592   9.707
 2312SOL    HW2 7680   1.865   3.711   9.624
 2313SOL     OW 7681   0.032   3.465   9.454
 2313SOL    HW1 7682   0.020   3.370   9.449
 2313SOL    HW2 7683   0.029   3.484   9.548
 2314SOL     OW 7684   1.689   2.780   9.952
 2314SOL    HW1 7685   1.771   2.736   9.930
 2314SOL    HW2 7686   1.667   2.831   9.874
 2315SOL     OW 7687   1.646   2.967   9.739
 2315SOL    HW1 7688   1.732   2.971   9.698
 2315SOL    HW2 7689   1.651   3.029   9.812
 2316SOL     OW 7690   0.102   2.625  10.910
 2316SOL    HW1 7691   0.188   2.608  10.873
 2316SOL    HW2 7692   0.096   2.721  10.914
 2317SOL     OW 7693   0.614   3.249  10.046
 2317SOL    HW1 7694   0.567   3.166  10.056
 2317SOL    HW2 7695   0.598   3.276   9.956
 2318SOL     OW 7696   1.291   3.098  10.753
 2318SOL    HW1 7697   1.317   3.038  10.683
 2318SOL    HW2 7698   1.348   3.075  10.826
 2319SOL     OW 7699   0.818   1.863   9.820
 2319SOL    HW1 7700   0.858   1.947   9.800
 2319SOL    HW2 7701   0.725   1.881   9.828
 2320SOL     OW 7702   0.175   2.800  10.590
 2320SOL    HW1 7703   0.267   2.781  10.571
 2320SOL    HW2 7704   0.131   2.791  10.505
 2321SOL     OW 7705   1.532   2.857   9.509
 2321SOL    HW1 7706   1.462   2.800   9.541
 2321SOL    HW2 7707   1.573   2.891   9.589
 2322SOL     OW 7708   1.198   3.669  10.928
 2322SOL    HW1 7709   1.193   3.734  10.858
 2322SOL    HW2 7710   1.207   3.585  10.883
 2323SOL     OW 7711   0.341   2.126   0.007
 2323SOL    HW1 7712   0.387   2.200   0.047
 2323SOL    HW2 7713   0.248   2.149   0.015
 2324SOL     OW 7714   1.468   3.281  10.260
 2324SOL    HW1 7715   1.399   3.298  10.325
 2324SOL    HW2 7716   1.454   3.190  10.233
 2325SOL     OW 7717   1.658   3.605   9.888
 2325SOL    HW1 7718   1.638   3.574   9.799
 2325SOL    HW2 7719   1.634   3.531   9.944
 2326SOL     OW 7720   0.598   2.581   9.578
 2326SOL    HW1 7721   0.599   2.663   9.529
 2326SOL    HW2 7722   0.532   2.595   9.646
 2327SOL     OW 7723   1.277   2.219  10.243
 2327SOL    HW1 7724   1.189   2.184  10.252
 2327SOL    HW2 7725   1.330   2.165  10.302
 2328SOL     OW 7726   1.580   3.533   9.619
 2328SOL    HW1 7727   1.671   3.563   9.612
 2328SOL    HW2 7728   1.552   3.517   9.529
 2329SOL     OW 7729   0.795   2.477  10.760
 2329SOL    HW1 7730   0.767   2.452  10.848
 2329SOL    HW2 7731   0.755   2.411  10.703
 2330SOL     OW 7732   0.966   2.763  10.904
 2330SOL    HW1 7733   1.015   2.691  10.863
 2330SOL    HW2 7734   0.916   2.801  10.832
 2331SOL     OW 7735   0.993   2.276  10.547
 2331SOL    HW1 7736   0.906   2.295  10.582
 2331SOL    HW2 7737   0.976   2.229  10.465
 2332SOL     OW 7738   1.052   2.560   9.736
 2332SOL    HW1 7739   1.068   2.553   9.830
 2332SOL    HW2 7740   0.969   2.514   9.722
 2333SOL     OW 7741   0.094   2.693  10.096
 2333SOL    HW1 7742   0.180   2.678  10.133
 2333SOL    HW2 7743   0.036   2.705  10.171
 2334SOL     OW 7744   0.118   3.710  10.900
 2334SOL    HW1 7745   0.112   3.650  10.974
 2334SOL    HW2 7746   0.050   3.681  10.839
 2335SOL     OW 7747   0.896   2.211   9.505
 2335SOL    HW1 7748   0.935   2.273   9.443
 2335SOL    HW2 7749   0.908   2.126   9.463
 2336SOL     OW 7750   1.378   3.004   9.851
 2336SOL    HW1 7751   1.456   2.992   9.798
 2336SOL    HW2 7752   1.325   3.066   9.801
 2337SOL     OW 7753   0.553   2.042  10.204
 2337SOL    HW1 7754   0.554   2.073  10.295
 2337SOL    HW2 7755   0.552   2.122  10.151
 2338SOL     OW 7756   1.004   3.306   9.781
 2338SOL    HW1 7757   0.969   3.380   9.731
 2338SOL    HW2 7758   0.983   3.327   9.872
 2339SOL     OW 7759   0.356   3.674  10.170
 2339SOL    HW1 7760   0.398   3.589  10.180
 2339SOL    HW2 7761   0.426   3.737  10.187
 2340SOL     OW 7762   1.800   2.916  10.178
 2340SOL    HW1 7763   1.745   2.898  10.102
 2340SOL    HW2 7764   1.738   2.923  10.251
 2341SOL     OW 7765   1.231   3.398  10.821
 2341SOL    HW1 7766   1.238   3.310  10.857
 2341SOL    HW2 7767   1.163   3.391  10.754
 2342SOL     OW 7768   0.314   2.815   9.566
 2342SOL    HW1 7769   0.397   2.839   9.525
 2342SOL    HW2 7770   0.300   2.724   9.541
 2343SOL     OW 7771   1.480   2.605  10.035
 2343SOL    HW1 7772   1.471   2.567  10.122
 2343SOL    HW2 7773   1.558   2.661  10.041
 2344SOL     OW 7774   0.456   3.129  11.052
 2344SOL    HW1 7775   0.426   3.144  10.962
 2344SOL    HW2 7776   0.390   3.069  11.089
 2345SOL     OW 7777   1.122   3.640   9.540
 2345SOL    HW1 7778   1.048   3.599   9.585
 2345SOL    HW2 7779   1.146   3.578   9.471
 2346SOL     OW 7780   0.194   2.138  10.797
 2346SOL    HW1 7781   0.141   2.217  10.804
 2346SOL    HW2 7782   0.186   2.095  10.882
 2347SOL     OW 7783   1.629   3.243   9.398
 2347SOL    HW1 7784   1.587   3.328   9.383
 2347SOL    HW2 7785   1.560   3.179   9.379
 2348SOL     OW 7786   0.469   3.605   9.623
 2348SOL    HW1 7787   0.512   3.659   9.689
 2348SOL    HW2 7788   0.541   3.568   9.571
 2349SOL     OW 7789   1.399   1.970   9.745
 2349SOL    HW1 7790   1.391   1.944   9.653
 2349SOL    HW2 7791   1.493   1.972   9.761
 2350SOL     OW 7792   0.256   3.654  10.541
 2350SOL    HW1 7793   0.303   3.579  10.579
 2350SOL    HW2 7794   0.224   3.621  10.457
 2351SOL     OW 7795   0.938   3.561  10.208
 2351SOL    HW1 7796   1.017   3.510  10.229
 2351SOL    HW2 7797   0.895   3.511  10.139
 2352SOL     OW 7798   0.396   2.556   9.782
 2352SOL    HW1 7799   0.418   2.464   9.794
 2352SOL    HW2 7800   0.304   2.562   9.807
 2353SOL     OW 7801   0.639   1.985   9.412
 2353SOL    HW1 7802   0.702   1.915   9.429
 2353SOL    HW2 7803   0.588   1.952   9.337
 2354SOL     OW 7804   0.768   2.139  11.047
 2354SOL    HW1 7805   0.833   2.080  11.086
 2354SOL    HW2 7806   0.705   2.155   0.016
 2355SOL     OW 7807   0.876   3.384  10.504
 2355SOL    HW1 7808   0.859   3.349  10.416
 2355SOL    HW2 7809   0.948   3.332  10.538
 2356SOL     OW 7810   1.343   2.453  10.755
 2356SOL    HW1 7811   1.396   2.432  10.832
 2356SOL    HW2 7812   1.369   2.541  10.730
 2357SOL     OW 7813   0.817   3.255  10.252
 2357SOL    HW1 7814   0.901   3.244  10.207
 2357SOL    HW2 7815   0.752   3.258  10.181
 2358SOL     OW 7816   0.928   2.371  10.212
 2358SOL    HW1 7817   0.904   2.363  10.120
 2358SOL    HW2 7818   0.959   2.284  10.237
 2359SOL     OW 7819   0.554   1.924   9.809
 2359SOL    HW1 7820   0.474   1.922   9.861
 2359SOL    HW2 7821   0.546   2.002   9.754
 2360SOL     OW 7822   1.428   3.061   9.351
 2360SOL    HW1 7823   1.458   2.985   9.401
 2360SOL    HW2 7824   1.342   3.082   9.388
 2361SOL     OW 7825   0.295   1.908   9.487
 2361SOL    HW1 7826   0.359   1.974   9.460
 2361SOL    HW2 7827   0.348   1.841   9.533
 2362SOL     OW 7828   0.939   2.110   9.769
 2362SOL    HW1 7829   0.914   2.150   9.686
 2362SOL    HW2 7830   1.034   2.124   9.774
 2363SOL     OW 7831   1.079   2.550  10.771
 2363SOL    HW1 7832   1.009   2.485  10.775
 2363SOL    HW2 7833   1.160   2.499  10.771
 2364SOL     OW 7834   1.222   3.433  10.104
 2364SOL    HW1 7835   1.238   3.498  10.037
 2364SOL    HW2 7836   1.291   3.449  10.169
 2365SOL     OW 7837   0.468   3.013  10.044
 2365SOL    HW1 7838   0.398   2.994  10.107
 2365SOL    HW2 7839   0.427   2.998   9.958
 2366SOL     OW 7840   1.268   3.655   9.920
 2366SOL    HW1 7841   1.315   3.716   9.863
 2366SOL    HW2 7842   1.200   3.708   9.962
 2367SOL     OW 7843   1.023   2.402   9.334
 2367SOL    HW1 7844   0.979   2.485   9.314
 2367SOL    HW2 7845   1.088   2.424   9.400
 2368SOL     OW 7846   0.075   2.385  10.718
 2368SOL    HW1 7847   0.145   2.384  10.652
 2368SOL    HW2 7848   0.070   2.477  10.744
 2369SOL     OW 7849   0.559   2.090  10.477
 2369SOL    HW1 7850   0.602   2.013  10.515
 2369SOL    HW2 7851   0.468   2.082  10.504
 2370SOL     OW 7852   0.868   2.321   9.949
 2370SOL    HW1 7853   0.821   2.375   9.886
 2370SOL    HW2 7854   0.889   2.241   9.902
 2371SOL     OW 7855   1.015   1.916  10.060
 2371SOL    HW1 7856   0.957   1.909   9.985
 2371SOL    HW2 7857   0.993   1.840  10.115
 2372SOL     OW 7858   1.437   3.024  10.167
 2372SOL    HW1 7859   1.368   2.958  10.167
 2372SOL    HW2 7860   1.461   3.034  10.074
 2373SOL     OW 7861   1.464   2.471  10.285
 2373SOL    HW1 7862   1.412   2.390  10.287
 2373SOL    HW2 7863   1.523   2.463  10.360
 2374SOL     OW 7864   1.844   2.675   9.693
 2374SOL    HW1 7865   1.900   2.625   9.752
 2374SOL    HW2 7866   1.822   2.613   9.623
 2375SOL     OW 7867   0.491   3.281   9.467
 2375SOL    HW1 7868   0.414   3.253   9.516
 2375SOL    HW2 7869   0.477   3.249   9.378
 2376SOL     OW 7870   1.671   3.127   9.954
 2376SOL    HW1 7871   1.766   3.129   9.968
 2376SOL    HW2 7872   1.642   3.215   9.976
 2377SOL     OW 7873   1.393   2.434   9.381
 2377SOL    HW1 7874   1.332   2.415   9.452
 2377SOL    HW2 7875   1.477   2.399   9.411
 2378SOL     OW 7876   0.524   2.122   9.624
 2378SOL    HW1 7877   0.573   2.077   9.555
 2378SOL    HW2 7878   0.504   2.207   9.587
 2379SOL     OW 7879   1.758   3.091  10.862
 2379SOL    HW1 7880   1.850   3.064  10.863
 2379SOL    HW2 7881   1.757   3.177  10.904
 2380SOL     OW 7882   1.062   3.216  10.649
 2380SOL    HW1 7883   0.983   3.183  10.693
 2380SOL    HW2 7884   1.134   3.168  10.689
 2381SOL     OW 7885   1.132   3.071  10.414
 2381SOL    HW1 7886   1.065   3.104  10.475
 2381SOL    HW2 7887   1.102   3.100  10.328
 2382SOL     OW 7888   1.628   2.960  10.387
 2382SOL    HW1 7889   1.624   3.022  10.460
 2382SOL    HW2 7890   1.549   2.978  10.336
 2383SOL     OW 7891   0.918   1.961  10.703
 2383SOL    HW1 7892   0.942   1.941  10.612
 2383SOL    HW2 7893   0.996   2.001  10.740
 2384SOL     OW 7894   0.709   2.924   9.682
 2384SOL    HW1 7895   0.696   2.906   9.775
 2384SOL    HW2 7896   0.785   2.870   9.658
 2385SOL     OW 7897   0.429   2.688  10.555
 2385SOL    HW1 7898   0.498   2.697  10.620
 2385SOL    HW2 7899   0.370   2.621  10.592
 2386SOL     OW 7900   1.266   2.240  10.590
 2386SOL    HW1 7901   1.298   2.318  10.636
 2386SOL    HW2 7902   1.176   2.263  10.566
 2387SOL     OW 7903   0.065   3.441  10.660
 2387SOL    HW1 7904   0.041   3.528  10.628
 2387SOL    HW2 7905   0.160   3.441  10.660
 2388SOL     OW 7906   0.343   2.972   9.803
 2388SOL    HW1 7907   0.353   3.046   9.743
 2388SOL    HW2 7908   0.342   2.895   9.746
 2389SOL     OW 7909   0.560   2.393  10.164
 2389SOL    HW1 7910   0.573   2.453  10.091
 2389SOL    HW2 7911   0.622   2.422  10.231
 2390SOL     OW 7912   1.248   3.211   9.700
 2390SOL    HW1 7913   1.304   3.282   9.730
 2390SOL    HW2 7914   1.161   3.232   9.733
 2391SOL     OW 7915   1.282   3.322  10.455
 2391SOL    HW1 7916   1.340   3.325  10.532
 2391SOL    HW2 7917   1.229   3.244  10.468
 2392SOL     OW 7918   1.579   2.487   9.783
 2392SOL    HW1 7919   1.531   2.530   9.853
 2392SOL    HW2 7920   1.629   2.557   9.741
 2393SOL     OW 7921   0.345   3.393  10.622
 2393SOL    HW1 7922   0.333   3.346  10.539
 2393SOL    HW2 7923   0.440   3.405  10.629
 2394SOL     OW 7924   0.492   2.607  10.972
 2394SOL    HW1 7925   0.529   2.643  10.892
 2394SOL    HW2 7926   0.540   2.525  10.985
 2395SOL     OW 7927   1.598   2.618  10.961
 2395SOL    HW1 7928   1.521   2.675  10.964
 2395SOL    HW2 7929   1.667   2.672  10.921
 2396SOL     OW 7930   0.590   2.735  10.336
 2396SOL    HW1 7931   0.619   2.827  10.338
 2396SOL    HW2 7932   0.533   2.727  10.413
 2397SOL     OW 7933   1.355   2.724  10.342
 2397SOL    HW1 7934   1.271   2.713  10.297
 2397SOL    HW2 7935   1.398   2.638  10.335
 2398SOL     OW 7936   1.204   2.390   9.576
 2398SOL    HW1 7937   1.211   2.312   9.630
 2398SOL    HW2 7938   1.160   2.455   9.632
 2399SOL     OW 7939   0.300   2.052  10.552
 2399SOL    HW1 7940   0.263   2.086  10.633
 2399SOL    HW2 7941   0.283   1.958  10.555
 2400SOL     OW 7942   0.033   3.177  10.596
 2400SOL    HW1 7943   0.072   3.128  10.668
 2400SOL    HW2 7944   0.039   3.269  10.624
 2401SOL     OW 7945   0.724   2.493  10.366
 2401SOL    HW1 7946   0.799   2.476  10.309
 2401SOL    HW2 7947   0.696   2.582  10.344
 2402SOL     OW 7948   0.313   1.931   9.928
 2402SOL    HW1 7949   0.287   2.020   9.954
 2402SOL    HW2 7950   0.312   1.881  10.010
 2403SOL     OW 7951   1.624   2.236   9.679
 2403SOL    HW1 7952   1.642   2.174   9.750
 2403SOL    HW2 7953   1.598   2.317   9.723
 2404SOL     OW 7954   1.028   2.621  10.270
 2404SOL    HW1 7955   1.023   2.638  10.364
 2404SOL    HW2 7956   1.002   2.529  10.261
 2405SOL     OW 7957   0.974   3.435  11.003
 2405SOL    HW1 7958   0.960   3.485  10.923
 2405SOL    HW2 7959   0.999   3.348  10.974
 2406SOL     OW 7960   1.855   3.353  10.911
 2406SOL    HW1 7961   1.873   3.389  10.824
 2406SOL    HW2 7962   1.920   3.393  10.968
 2407SOL     OW 7963   0.348   2.797  11.090
 2407SOL    HW1 7964   0.419   2.826   0.048
 2407SOL    HW2 7965   0.385   2.724  11.041
 2408SOL     OW 7966   1.527   2.135   9.441
 2408SOL    HW1 7967   1.462   2.070   9.465
 2408SOL    HW2 7968   1.558   2.170   9.524
 2409SOL     OW 7969   1.290   2.688   9.340
 2409SOL    HW1 7970   1.333   2.602   9.344
 2409SOL    HW2 7971   1.322   2.727   9.259
 2410SOL     OW 7972   1.068   3.198  10.165
 2410SOL    HW1 7973   1.071   3.126  10.102
 2410SOL    HW2 7974   1.127   3.264  10.129
 2411SOL     OW 7975   0.318   2.672  10.255
 2411SOL    HW1 7976   0.412   2.689  10.253
 2411SOL    HW2 7977   0.311   2.581  10.282
 2412SOL     OW 7978   0.329   2.388  10.298
 2412SOL    HW1 7979   0.291   2.301  10.283
 2412SOL    HW2 7980   0.408   2.389  10.244
 2413SOL     OW 7981   1.156   2.069  10.783
 2413SOL    HW1 7982   1.172   2.123  10.860
 2413SOL    HW2 7983   1.198   2.116  10.711
 2414SOL     OW 7984   4.491   3.183   9.518
 2414SOL    HW1 7985   4.399   3.200   9.499
 2414SOL    HW2 7986   4.495   3.090   9.538
 2415SOL     OW 7987   0.099   3.633  10.250
 2415SOL    HW1 7988   0.060   3.586  10.177
 2415SOL    HW2 7989   0.187   3.657  10.220
 2416SOL     OW 7990   0.495   3.436  10.217
 2416SOL    HW1 7991   0.564   3.499  10.240
 2416SOL    HW2 7992   0.539   3.374  10.159
 2417SOL     OW 7993   0.980   2.655  10.535
 2417SOL    HW1 7994   1.037   2.634  10.610
 2417SOL    HW2 7995   0.896   2.615  10.558
 2418SOL     OW 7996   0.030   2.422  10.408
 2418SOL    HW1 7997   0.119   2.396  10.384
 2418SOL    HW2 7998   0.016   2.384  10.494
 2419SOL     OW 7999   0.818   2.431   9.672
 2419SOL    HW1 8000   0.822   2.357   9.612
 2419SOL    HW2 8001   0.744   2.484   9.641
 2420SOL     OW 8002   1.642   2.466  10.493
 2420SOL    HW1 8003   1.636   2.407  10.568
 2420SOL    HW2 8004   1.730   2.453  10.459
 2421SOL     OW 8005   0.263   3.437  11.053
 2421SOL    HW1 8006   0.208   3.458   0.029
 2421SOL    HW2 8007   0.246   3.344  11.037
 2422SOL     OW 8008   0.703   2.312  10.568
 2422SOL    HW1 8009   0.649   2.238  10.540
 2422SOL    HW2 8010   0.698   2.375  10.496
 2423SOL     OW 8011   0.939   3.544  10.756
 2423SOL    HW1 8012   0.904   3.508  10.674
 2423SOL    HW2 8013   0.922   3.638  10.751
 2424SOL     OW 8014   0.471   2.352   9.492
 2424SOL    HW1 8015   0.532   2.422   9.518
 2424SOL    HW2 8016   0.388   2.396   9.477
 2425SOL     OW 8017   0.164   3.005  10.766
 2425SOL    HW1 8018   0.137   2.967  10.849
 2425SOL    HW2 8019   0.168   2.931  10.706
 2426SOL     OW 8020   1.323   2.914  10.538
 2426SOL    HW1 8021   1.348   2.849  10.473
 2426SOL    HW2 8022   1.254   2.965  10.494
 2427SOL     OW 8023   1.313   2.720   9.615
 2427SOL    HW1 8024   1.238   2.688   9.667
 2427SOL    HW2 8025   1.287   2.705   9.524
 2428SOL     OW 8026   1.776   3.605  10.462
 2428SOL    HW1 8027   1.835   3.630  10.391
 2428SOL    HW2 8028   1.750   3.515  10.441
 2429SOL     OW 8029   1.240   3.596  10.420
 2429SOL    HW1 8030   1.322   3.618  10.377
 2429SOL    HW2 8031   1.247   3.502  10.439
 2430SOL     OW 8032   0.068   3.047  10.360
 2430SOL    HW1 8033   0.061   3.078  10.451
 2430SOL    HW2 8034   0.030   3.117  10.308
 2431SOL     OW 8035   1.708   2.009   9.835
 2431SOL    HW1 8036   1.766   1.991   9.761
 2431SOL    HW2 8037   1.692   1.923   9.875
 2432SOL     OW 8038   1.391   3.430   9.796
 2432SOL    HW1 8039   1.451   3.463   9.729
 2432SOL    HW2 8040   1.342   3.507   9.825
 2433SOL     OW 8041   1.278   2.788   9.981
 2433SOL    HW1 8042   1.352   2.727   9.988
 2433SOL    HW2 8043   1.312   2.861   9.929
 2434SOL     OW 8044   0.815   3.137  10.737
 2434SOL    HW1 8045   0.784   3.172  10.820
 2434SOL    HW2 8046   0.745   3.159  10.675
 2435SOL     OW 8047   0.672   3.483   9.465
 2435SOL    HW1 8048   0.683   3.496   9.371
 2435SOL    HW2 8049   0.617   3.406   9.473
 2436SOL     OW 8050   1.619   3.583  10.693
 2436SOL    HW1 8051   1.676   3.597  10.617
 2436SOL    HW2 8052   1.604   3.671  10.728
 2437SOL     OW 8053   1.820   2.036  10.283
 2437SOL    HW1 8054   1.865   1.954  10.260
 2437SOL    HW2 8055   1.739   2.034  10.232
 2438SOL     OW 8056   0.263   2.181  10.028
 2438SOL    HW1 8057   0.180   2.220  10.001
 2438SOL    HW2 8058   0.254   2.168  10.122
 2439SOL     OW 8059   1.208   3.467   9.342
 2439SOL    HW1 8060   1.197   3.375   9.369
 2439SOL    HW2 8061   1.142   3.479   9.273
 2440SOL     OW 8062   0.827   2.868  10.687
 2440SOL    HW1 8063   0.869   2.860  10.602
 2440SOL    HW2 8064   0.825   2.963  10.705
 2441SOL     OW 8065   0.916   2.773   9.600
 2441SOL    HW1 8066   0.977   2.805   9.534
 2441SOL    HW2 8067   0.964   2.704   9.645
 2442SOL     OW 8068   1.491   3.488   9.353
 2442SOL    HW1 8069   1.396   3.480   9.339
 2442SOL    HW2 8070   1.528   3.494   9.265
 2443SOL     OW 8071   0.366   3.178  10.807
 2443SOL    HW1 8072   0.353   3.252  10.747
 2443SOL    HW2 8073   0.297   3.116  10.785
 2444SOL     OW 8074   1.614   3.144  10.593
 2444SOL    HW1 8075   1.668   3.127  10.670
 2444SOL    HW2 8076   1.556   3.215  10.620
 2445SOL     OW 8077   1.055   2.970  10.018
 2445SOL    HW1 8078   0.983   2.920  10.056
 2445SOL    HW2 8079   1.117   2.904   9.987
 2446SOL     OW 8080   1.022   2.103  10.277
 2446SOL    HW1 8081   1.017   2.055  10.193
 2446SOL    HW2 8082   1.017   2.034  10.343
 2447SOL     OW 8083   0.606   3.351   9.792
 2447SOL    HW1 8084   0.649   3.302   9.723
 2447SOL    HW2 8085   0.528   3.389   9.750
 2448SOL     OW 8086   1.724   2.262  10.688
 2448SOL    HW1 8087   1.805   2.313  10.689
 2448SOL    HW2 8088   1.743   2.186  10.633
 2449SOL     OW 8089   0.252   3.205   9.585
 2449SOL    HW1 8090   0.157   3.203   9.572
 2449SOL    HW2 8091   0.263   3.237   9.675
 2450SOL     OW 8092   0.111   2.883  11.001
 2450SOL    HW1 8093   0.055   2.890  11.078
 2450SOL    HW2 8094   0.198   2.863  11.036
 2451SOL     OW 8095   0.676   2.058  10.802
 2451SOL    HW1 8096   0.758   2.035  10.758
 2451SOL    HW2 8097   0.703   2.093  10.887
 2452SOL     OW 8098   0.072   2.187   9.341
 2452SOL    HW1 8099   4.478   2.201   9.353
 2452SOL    HW2 8100   0.103   2.269   9.302
 2453SOL     OW 8101   1.427   2.712  10.709
 2453SOL    HW1 8102   1.379   2.781  10.663
 2453SOL    HW2 8103   1.517   2.720  10.677
 2454SOL     OW 8104   0.086   2.037   9.613
 2454SOL    HW1 8105   0.080   2.111   9.552
 2454SOL    HW2 8106   0.162   1.987   9.582
 2455SOL     OW 8107   1.178   3.200   9.427
 2455SOL    HW1 8108   1.087   3.170   9.429
 2455SOL    HW2 8109   1.205   3.200   9.519
 2456SOL     OW 8110   0.626   2.690  10.741
 2456SOL    HW1 8111   0.682   2.767  10.728
 2456SOL    HW2 8112   0.688   2.616  10.746
 2457SOL     OW 8113   1.483   3.640  10.290
 2457SOL    HW1 8114   1.506   3.702  10.221
 2457SOL    HW2 8115   1.566   3.619  10.333
 2458SOL     OW 8116   0.714   2.428  11.013
 2458SOL    HW1 8117   0.753   2.498  11.065
 2458SOL    HW2 8118   0.761   2.349  11.041
 2459SOL     OW 8119   0.383   3.603  10.875
 2459SOL    HW1 8120   0.306   3.659  10.865
 2459SOL    HW2 8121   0.355   3.534  10.936
 2460SOL     OW 8122   1.670   2.744  10.568
 2460SOL    HW1 8123   1.661   2.659  10.526
 2460SOL    HW2 8124   1.660   2.808  10.497
 2461SOL     OW 8125   1.216   2.182   9.768
 2461SOL    HW1 8126   1.278   2.109   9.760
 2461SOL    HW2 8127   1.246   2.231   9.845
 2462SOL     OW 8128   0.590   2.599   9.980
 2462SOL    HW1 8129   0.627   2.685   9.965
 2462SOL    HW2 8130   0.522   2.590   9.913
 2463SOL     OW 8131   1.726   2.163  10.950
 2463SOL    HW1 8132   1.723   2.211  10.867
 2463SOL    HW2 8133   1.654   2.200  11.001
 2464SOL     OW 8134   1.756   2.798  10.825
 2464SOL    HW1 8135   1.743   2.891  10.840
 2464SOL    HW2 8136   1.734   2.785  10.732
 2465SOL     OW 8137   0.864   3.228   9.347
 2465SOL    HW1 8138   0.825   3.255   9.430
 2465SOL    HW2 8139   0.880   3.310   9.300
 2466SOL     OW 8140   0.662   3.651  10.254
 2466SOL    HW1 8141   0.641   3.742  10.231
 2466SOL    HW2 8142   0.757   3.645  10.245
 2467SOL     OW 8143   0.868   2.831  10.164
 2467SOL    HW1 8144   0.918   2.758  10.203
 2467SOL    HW2 8145   0.832   2.877  10.240
 2468SOL     OW 8146   1.079   2.851   9.399
 2468SOL    HW1 8147   1.057   2.902   9.321
 2468SOL    HW2 8148   1.153   2.797   9.373
 2469SOL     OW 8149   1.853   3.415  10.153
 2469SOL    HW1 8150   1.773   3.404  10.101
 2469SOL    HW2 8151   1.843   3.351  10.224
 2470SOL     OW 8152   0.112   3.095   9.979
 2470SOL    HW1 8153   0.127   3.052  10.063
 2470SOL    HW2 8154   0.169   3.049   9.917
 2471SOL     OW 8155   0.681   3.259  10.942
 2471SOL    HW1 8156   0.611   3.207  10.981
 2471SOL    HW2 8157   0.641   3.344  10.924
 2472SOL     OW 8158   1.771   2.037  10.545
 2472SOL    HW1 8159   1.796   1.945  10.560
 2472SOL    HW2 8160   1.791   2.052  10.453
 2473SOL     OW 8161   0.435   2.295   9.836
 2473SOL    HW1 8162   0.460   2.221   9.780
 2473SOL    HW2 8163   0.384   2.256   9.906
 2474SOL     OW 8164   1.701   3.351  10.404
 2474SOL    HW1 8165   1.620   3.328  10.358
 2474SOL    HW2 8166   1.712   3.282  10.470
 2475SOL     OW 8167   0.295   2.351  10.563
 2475SOL    HW1 8168   0.367   2.311  10.611
 2475SOL    HW2 8169   0.329   2.365  10.475
 2476SOL     OW 8170   0.829   3.440   9.987
 2476SOL    HW1 8171   0.813   3.497   9.912
 2476SOL    HW2 8172   0.753   3.381   9.989
 2477SOL     OW 8173   1.432   2.089  10.426
 2477SOL    HW1 8174   1.463   2.011  10.471
 2477SOL    HW2 8175   1.381   2.136  10.493
 2478SOL     OW 8176   1.009   1.880  10.451
 2478SOL    HW1 8177   0.955   1.813  10.408
 2478SOL    HW2 8178   1.097   1.842  10.452
 2479SOL     OW 8179   0.773   3.195   9.626
 2479SOL    HW1 8180   0.743   3.105   9.632
 2479SOL    HW2 8181   0.854   3.197   9.676
 2480SOL     OW 8182   0.620   3.416  10.599
 2480SOL    HW1 8183   0.620   3.500  10.644
 2480SOL    HW2 8184   0.707   3.410  10.558
 2481SOL     OW 8185   1.353   1.915   9.476
 2481SOL    HW1 8186   1.383   1.849   9.413
 2481SOL    HW2 8187   1.265   1.887   9.501
 2482SOL     OW 8188   1.298   2.325   9.991
 2482SOL    HW1 8189   1.243   2.403   9.996
 2482SOL    HW2 8190   1.291   2.285  10.078
 2483SOL     OW 8191   1.572   2.057  10.181
 2483SOL    HW1 8192   1.521   2.079  10.259
 2483SOL    HW2 8193   1.575   2.138  10.130
 2484SOL     OW 8194   0.041   2.913   9.600
 2484SOL    HW1 8195   0.133   2.892   9.588
 2484SOL    HW2 8196   0.021   2.884   9.689
 2485SOL     OW 8197   0.887   3.517   9.651
 2485SOL    HW1 8198   0.813   3.500   9.592
 2485SOL    HW2 8199   0.857   3.591   9.704
 2486SOL     OW 8200   0.203   4.283   0.087
 2486SOL    HW1 8201   0.145   4.307   0.160
 2486SOL    HW2 8202   0.229   4.366   0.048
 2487SOL     OW 8203   0.208   3.993   0.991
 2487SOL    HW1 8204   0.244   3.967   1.076
 2487SOL    HW2 8205   0.134   3.935   0.977
 2488SOL     OW 8206   4.498   4.102   0.629
 2488SOL    HW1 8207   4.414   4.128   0.668
 2488SOL    HW2 8208   4.482   4.015   0.593
 2489SOL     OW 8209   1.728   4.331   0.232
 2489SOL    HW1 8210   1.751   4.310   0.142
 2489SOL    HW2 8211   1.721   4.246   0.276
 2490SOL     OW 8212   0.737   0.274   0.687
 2490SOL    HW1 8213   0.721   0.206   0.752
 2490SOL    HW2 8214   0.651   0.289   0.647
 2491SOL     OW 8215   0.447   4.118   1.488
 2491SOL    HW1 8216   0.528   4.067   1.488
 2491SOL    HW2 8217   0.378   4.053   1.497
 2492SOL     OW 8218   1.615   4.170   0.742
 2492SOL    HW1 8219   1.552   4.197   0.674
 2492SOL    HW2 8220   1.607   4.238   0.809
 2493SOL     OW 8221   1.596   3.848   1.467
 2493SOL    HW1 8222   1.607   3.929   1.417
 2493SOL    HW2 8223   1.580   3.878   1.557
 2494SOL     OW 8224   0.160   4.321   0.637
 2494SOL    HW1 8225   0.100   4.248   0.625
 2494SOL    HW2 8226   0.115   4.395   0.595
 2495SOL     OW 8227   0.127   0.004   1.587
 2495SOL    HW1 8228   0.221   4.485   1.583
 2495SOL    HW2 8229   0.119   0.091   1.549
 2496SOL     OW 8230   0.819   3.727   0.511
 2496SOL    HW1 8231   0.857   3.813   0.492
 2496SOL    HW2 8232   0.725   3.743   0.518
 2497SOL     OW 8233   0.330   3.979   1.801
 2497SOL    HW1 8234   0.371   4.059   1.834
 2497SOL    HW2 8235   0.239   3.985   1.833
 2498SOL     OW 8236   1.277   4.076   0.933
 2498SOL    HW1 8237   1.188   4.043   0.943
 2498SOL    HW2 8238   1.329   4.023   0.993
 2499SOL     OW 8239   0.831   4.299   1.445
 2499SOL    HW1 8240   0.792   4.304   1.532
 2499SOL    HW2 8241   0.761   4.265   1.389
 2500SOL     OW 8242   1.395   4.200   1.676
 2500SOL    HW1 8243   1.398   4.245   1.761
 2500SOL    HW2 8244   1.452   4.124   1.687
 2501SOL     OW 8245   0.999   4.153   1.232
 2501SOL    HW1 8246   0.930   4.175   1.294
 2501SOL    HW2 8247   0.958   4.094   1.170
 2502SOL     OW 8248   1.060   4.404   0.420
 2502SOL    HW1 8249   1.055   4.463   0.495
 2502SOL    HW2 8250   0.968   4.382   0.401
 2503SOL     OW 8251   0.055   0.068   0.853
 2503SOL    HW1 8252   0.141   0.027   0.863
 2503SOL    HW2 8253   0.051   0.094   0.761
 2504SOL     OW 8254   0.890   4.074   0.210
 2504SOL    HW1 8255   0.933   4.133   0.148
 2504SOL    HW2 8256   0.903   3.987   0.172
 2505SOL     OW 8257   1.710   4.299   1.831
 2505SOL    HW1 8258   1.726   4.387   1.795
 2505SOL    HW2 8259   1.731   4.240   1.759
 2506SOL     OW 8260   0.553   3.902   0.894
 2506SOL    HW1 8261   0.555   3.934   0.984
 2506SOL    HW2 8262   0.547   3.982   0.840
 2507SOL     OW 8263   1.489   4.467   0.741
 2507SOL    HW1 8264   1.476   4.411   0.818
 2507SOL    HW2 8265   1.530   0.046   0.775
 2508SOL     OW 8266   0.189   4.001   1.484
 2508SOL    HW1 8267   0.141   4.083   1.495
 2508SOL    HW2 8268   0.182   3.958   1.569
 2509SOL     OW 8269   1.402   3.829   0.433
 2509SOL    HW1 8270   1.395   3.808   0.340
 2509SOL    HW2 8271   1.496   3.839   0.448
 2510SOL     OW 8272   0.346   4.377   0.402
 2510SOL    HW1 8273   0.390   4.303   0.443
 2510SOL    HW2 8274   0.302   4.422   0.474
 2511SOL     OW 8275   1.533   3.949   1.725
 2511SOL    HW1 8276   1.542   3.970   1.818
 2511SOL    HW2 8277   1.464   3.882   1.722
 2512SOL     OW 8278   0.618   3.833   0.122
 2512SOL    HW1 8279   0.706   3.794   0.120
 2512SOL    HW2 8280   0.579   3.809   0.039
 2513SOL     OW 8281   0.765   4.002   1.755
 2513SOL    HW1 8282   0.843   3.947   1.753
 2513SOL    HW2 8283   0.718   3.973   1.833
 2514SOL     OW 8284   1.340   4.313   1.430
 2514SOL    HW1 8285   1.363   4.276   1.516
 2514SOL    HW2 8286   1.388   4.396   1.427
 2515SOL     OW 8287   0.926   4.234   0.899
 2515SOL    HW1 8288   0.902   4.218   0.807
 2515SOL    HW2 8289   0.965   4.151   0.927
 2516SOL     OW 8290   0.555   3.786   0.502
 2516SOL    HW1 8291   0.473   3.783   0.551
 2516SOL    HW2 8292   0.547   3.865   0.447
 2517SOL     OW 8293   0.284   3.772   0.191
 2517SOL    HW1 8294   0.331   3.823   0.125
 2517SOL    HW2 8295   0.349   3.708   0.222
 2518SOL     OW 8296   0.940   3.975   0.464
 2518SOL    HW1 8297   0.915   4.014   0.380
 2518SOL    HW2 8298   1.035   3.988   0.468
 2519SOL     OW 8299   1.074   4.395   1.529
 2519SOL    HW1 8300   0.992   4.365   1.489
 2519SOL    HW2 8301   1.142   4.360   1.473
 2520SOL     OW 8302   1.009   4.262   0.041
 2520SOL    HW1 8303   1.026   4.313  11.063
 2520SOL    HW2 8304   1.088   4.270   0.094
 2521SOL     OW 8305   0.081   4.255   1.405
 2521SOL    HW1 8306   0.159   4.268   1.351
 2521SOL    HW2 8307   0.051   4.344   1.425
 2522SOL     OW 8308   0.559   3.951   1.166
 2522SOL    HW1 8309   0.601   3.873   1.203
 2522SOL    HW2 8310   0.468   3.945   1.194
 2523SOL     OW 8311   0.867   4.189   0.639
 2523SOL    HW1 8312   0.842   4.255   0.574
 2523SOL    HW2 8313   0.887   4.111   0.588
 2524SOL     OW 8314   1.015   3.778   0.750
 2524SOL    HW1 8315   0.957   3.770   0.675
 2524SOL    HW2 8316   0.993   3.702   0.805
 2525SOL     OW 8317   1.477   4.310   0.963
 2525SOL    HW1 8318   1.414   4.240   0.982
 2525SOL    HW2 8319   1.527   4.320   1.044
 2526SOL     OW 8320   1.402   4.292   0.073
 2526SOL    HW1 8321   1.335   4.275   0.139
 2526SOL    HW2 8322   1.465   4.220   0.083
 2527SOL     OW 8323   0.528   3.990   0.325
 2527SOL    HW1 8324   0.556   3.930   0.256
 2527SOL    HW2 8325   0.509   4.072   0.279
 2528SOL     OW 8326   0.917   3.822   1.394
 2528SOL    HW1 8327   0.941   3.800   1.304
 2528SOL    HW2 8328   0.997   3.859   1.431
 2529SOL     OW 8329   0.446   0.004   1.267
 2529SOL    HW1 8330   0.502   4.497   1.345
 2529SOL    HW2 8331   0.409   4.416   1.257
 2530SOL     OW 8332   1.265   4.099   1.277
 2530SOL    HW1 8333   1.298   4.177   1.322
 2530SOL    HW2 8334   1.176   4.123   1.251
 2531SOL     OW 8335   0.554   4.251   0.864
 2531SOL    HW1 8336   0.574   4.285   0.777
 2531SOL    HW2 8337   0.621   4.289   0.921
 2532SOL     OW 8338   1.575   4.335   0.483
 2532SOL    HW1 8339   1.537   4.402   0.540
 2532SOL    HW2 8340   1.620   4.385   0.416
 2533SOL     OW 8341   0.996   3.851   1.754
 2533SOL    HW1 8342   1.054   3.923   1.731
 2533SOL    HW2 8343   1.043   3.772   1.729
 2534SOL     OW 8344   0.496   3.766   1.748
 2534SOL    HW1 8345   0.454   3.710   1.684
 2534SOL    HW2 8346   0.438   3.841   1.757
 2535SOL     OW 8347   1.208   4.248   0.261
 2535SOL    HW1 8348   1.220   4.170   0.314
 2535SOL    HW2 8349   1.161   4.309   0.318
 2536SOL     OW 8350   0.298   3.921   1.244
 2536SOL    HW1 8351   0.257   3.949   1.326
 2536SOL    HW2 8352   0.286   3.826   1.242
 2537SOL     OW 8353   0.735   4.360   1.041
 2537SOL    HW1 8354   0.808   4.321   0.993
 2537SOL    HW2 8355   0.747   4.454   1.031
 2538SOL     OW 8356   1.753   0.130   1.852
 2538SOL    HW1 8357   1.684   0.148   1.788
 2538SOL    HW2 8358   1.712   0.151   1.936
 2539SOL     OW 8359   0.314   3.793   0.619
 2539SOL    HW1 8360   0.288   3.881   0.645
 2539SOL    HW2 8361   0.311   3.742   0.700
 2540SOL     OW 8362   1.617   4.092   0.365
 2540SOL    HW1 8363   1.647   4.028   0.431
 2540SOL    HW2 8364   1.592   4.169   0.416
 2541SOL     OW 8365   1.532   4.018   0.113
 2541SOL    HW1 8366   1.474   3.944   0.129
 2541SOL    HW2 8367   1.567   4.039   0.200
 2542SOL     OW 8368   0.319   0.014   0.908
 2542SOL    HW1 8369   0.398   0.067   0.917
 2542SOL    HW2 8370   0.335   4.437   0.962
 2543SOL     OW 8371   0.331   4.237   1.012
 2543SOL    HW1 8372   0.288   4.155   0.988
 2543SOL    HW2 8373   0.407   4.241   0.953
 2544SOL     OW 8374   1.137   4.091   1.687
 2544SOL    HW1 8375   1.084   4.150   1.740
 2544SOL    HW2 8376   1.221   4.136   1.679
 2545SOL     OW 8377   1.160   3.925   1.469
 2545SOL    HW1 8378   1.150   3.986   1.542
 2545SOL    HW2 8379   1.202   3.976   1.400
 2546SOL     OW 8380   0.019   4.275   1.101
 2546SOL    HW1 8381   0.108   4.263   1.068
 2546SOL    HW2 8382   0.021   4.235   1.188
 2547SOL     OW 8383   0.173   4.236   1.688
 2547SOL    HW1 8384   0.264   4.220   1.661
 2547SOL    HW2 8385   0.150   4.318   1.645
 2548SOL     OW 8386   0.813   4.311   0.327
 2548SOL    HW1 8387   0.826   4.224   0.288
 2548SOL    HW2 8388   0.721   4.314   0.350
 2549SOL     OW 8389   1.635   4.316   1.185
 2549SOL    HW1 8390   1.632   4.258   1.261
 2549SOL    HW2 8391   1.723   4.305   1.150
 2550SOL     OW 8392   0.673   4.189   1.255
 2550SOL    HW1 8393   0.637   4.107   1.221
 2550SOL    HW2 8394   0.684   4.244   1.177
 2551SOL     OW 8395   0.471   4.215   0.179
 2551SOL    HW1 8396   0.518   4.298   0.188
 2551SOL    HW2 8397   0.379   4.240   0.183
 2552SOL     OW 8398   0.920   3.814   0.101
 2552SOL    HW1 8399   0.968   3.776   0.028
 2552SOL    HW2 8400   0.958   3.773   0.179
 2553SOL     OW 8401   1.721   3.872   0.510
 2553SOL    HW1 8402   1.792   3.859   0.447
 2553SOL    HW2 8403   1.706   3.786   0.548
 2554SOL     OW 8404   1.277   0.135   0.681
 2554SOL    HW1 8405   1.334   0.060   0.698
 2554SOL    HW2 8406   1.326   0.188   0.618
 2555SOL     OW 8407   1.840   3.895   0.967
 2555SOL    HW1 8408   1.868   3.808   0.940
 2555SOL    HW2 8409   1.754   3.906   0.926
 2556SOL     OW 8410   0.268   4.041   0.721
 2556SOL    HW1 8411   0.192   4.091   0.693
 2556SOL    HW2 8412   0.254   4.027   0.815
 2557SOL     OW 8413   1.061   0.295   0.736
 2557SOL    HW1 8414   0.984   0.270   0.685
 2557SOL    HW2 8415   1.129   0.233   0.709
 2558SOL     OW 8416   1.021   3.964   0.965
 2558SOL    HW1 8417   1.017   3.916   0.882
 2558SOL    HW2 8418   1.016   3.896   1.032
 2559SOL     OW 8419   1.723   4.114   1.380
 2559SOL    HW1 8420   1.794   4.178   1.378
 2559SOL    HW2 8421   1.753   4.043   1.323
 2560SOL     OW 8422   0.675   3.923   1.499
 2560SOL    HW1 8423   0.758   3.900   1.458
 2560SOL    HW2 8424   0.698   3.953   1.587
 2561SOL     OW 8425   0.061   4.062   0.003
 2561SOL    HW1 8426   4.470   4.074   0.032
 2561SOL    HW2 8427   0.103   4.146   0.022
 2562SOL     OW 8428   0.081   3.896   0.311
 2562SOL    HW1 8429   0.077   3.971   0.252
 2562SOL    HW2 8430   0.155   3.844   0.279
 2563SOL     OW 8431   0.726   4.279   1.697
 2563SOL    HW1 8432   0.727   4.327   1.779
 2563SOL    HW2 8433   0.745   4.188   1.722
 2564SOL     OW 8434   1.216   4.038   0.455
 2564SOL    HW1 8435   1.280   3.967   0.447
 2564SOL    HW2 8436   1.245   4.088   0.532
 2565SOL     OW 8437   1.757   4.092   1.650
 2565SOL    HW1 8438   1.742   4.103   1.556
 2565SOL    HW2 8439   1.687   4.033   1.679
 2566SOL     OW 8440   1.100   0.205   0.050
 2566SOL    HW1 8441   1.094   0.292   0.013
 2566SOL    HW2 8442   1.190   0.177   0.031
 2567SOL     OW 8443   1.814   3.907   1.237
 2567SOL    HW1 8444   1.821   3.812   1.251
 2567SOL    HW2 8445   1.822   3.918   1.143
 2568SOL     OW 8446   0.450   4.158   0.535
 2568SOL    HW1 8447   0.471   4.084   0.479
 2568SOL    HW2 8448   0.392   4.122   0.603
 2569SOL     OW 8449   0.322   4.262   1.278
 2569SOL    HW1 8450   0.375   4.194   1.320
 2569SOL    HW2 8451   0.330   4.244   1.185
 2570SOL     OW 8452   1.431   3.950   1.117
 2570SOL    HW1 8453   1.453   3.868   1.162
 2570SOL    HW2 8454   1.380   3.999   1.182
 2571SOL     OW 8455   1.009   3.742   1.141
 2571SOL    HW1 8456   0.954   3.675   1.100
 2571SOL    HW2 8457   1.097   3.704   1.143
 2572SOL     OW 8458   1.350   3.780   0.164
 2572SOL    HW1 8459   1.372   3.726   0.087
 2572SOL    HW2 8460   1.264   3.749   0.191
 2573SOL     OW 8461   1.299   4.173   0.679
 2573SOL    HW1 8462   1.267   4.263   0.691
 2573SOL    HW2 8463   1.298   4.135   0.767
 2574SOL     OW 8464   1.586   3.924   0.879
 2574SOL    HW1 8465   1.527   3.947   0.951
 2574SOL    HW2 8466   1.586   4.002   0.823
 2575SOL     OW 8467   0.226   4.275   1.971
 2575SOL    HW1 8468   0.162   4.305   2.036
 2575SOL    HW2 8469   0.211   4.332   1.896
 2576SOL     OW 8470   0.209   3.993   2.853
 2576SOL    HW1 8471   0.244   3.966   2.938
 2576SOL    HW2 8472   0.133   3.937   2.839
 2577SOL     OW 8473   4.498   4.102   2.493
 2577SOL    HW1 8474   4.415   4.131   2.529
 2577SOL    HW2 8475   4.478   4.019   2.451
 2578SOL     OW 8476   1.725   4.335   2.101
 2578SOL    HW1 8477   1.728   4.325   2.006
 2578SOL    HW2 8478   1.730   4.246   2.135
 2579SOL     OW 8479   0.730   0.275   2.547
 2579SOL    HW1 8480   0.717   0.210   2.617
 2579SOL    HW2 8481   0.642   0.290   2.512
 2580SOL     OW 8482   0.447   4.118   3.350
 2580SOL    HW1 8483   0.528   4.067   3.350
 2580SOL    HW2 8484   0.378   4.053   3.359
 2581SOL     OW 8485   1.614   4.171   2.603
 2581SOL    HW1 8486   1.549   4.196   2.537
 2581SOL    HW2 8487   1.607   4.237   2.671
 2582SOL     OW 8488   1.596   3.848   3.329
 2582SOL    HW1 8489   1.607   3.930   3.279
 2582SOL    HW2 8490   1.580   3.877   3.419
 2583SOL     OW 8491   0.160   4.324   2.500
 2583SOL    HW1 8492   0.101   4.250   2.485
 2583SOL    HW2 8493   0.116   4.398   2.458
 2584SOL     OW 8494   0.127   0.004   3.449
 2584SOL    HW1 8495   0.221   4.485   3.445
 2584SOL    HW2 8496   0.118   0.091   3.411
 2585SOL     OW 8497   0.818   3.726   2.372
 2585SOL    HW1 8498   0.858   3.810   2.352
 2585SOL    HW2 8499   0.725   3.744   2.380
 2586SOL     OW 8500   0.329   3.979   3.663
 2586SOL    HW1 8501   0.371   4.059   3.696
 2586SOL    HW2 8502   0.239   3.985   3.695
 2587SOL     OW 8503   1.277   4.075   2.795
 2587SOL    HW1 8504   1.188   4.042   2.805
 2587SOL    HW2 8505   1.329   4.023   2.855
 2588SOL     OW 8506   0.831   4.299   3.307
 2588SOL    HW1 8507   0.792   4.304   3.394
 2588SOL    HW2 8508   0.761   4.265   3.251
 2589SOL     OW 8509   1.395   4.199   3.538
 2589SOL    HW1 8510   1.398   4.245   3.623
 2589SOL    HW2 8511   1.452   4.124   3.549
 2590SOL     OW 8512   0.999   4.153   3.094
 2590SOL    HW1 8513   0.930   4.176   3.156
 2590SOL    HW2 8514   0.957   4.094   3.032
 2591SOL     OW 8515   1.056   4.411   2.276
 2591SOL    HW1 8516   1.051   4.457   2.360
 2591SOL    HW2 8517   0.970   4.370   2.266
 2592SOL     OW 8518   0.058   0.078   2.716
 2592SOL    HW1 8519   0.141   0.031   2.726
 2592SOL    HW2 8520   0.046   0.086   2.622
 2593SOL     OW 8521   0.895   4.065   2.051
 2593SOL    HW1 8522   0.935   4.128   1.991
 2593SOL    HW2 8523   0.910   3.980   2.010
 2594SOL     OW 8524   1.710   4.300   3.693
 2594SOL    HW1 8525   1.726   4.387   3.657
 2594SOL    HW2 8526   1.731   4.240   3.621
 2595SOL     OW 8527   0.553   3.903   2.756
 2595SOL    HW1 8528   0.555   3.934   2.846
 2595SOL    HW2 8529   0.547   3.983   2.703
 2596SOL     OW 8530   1.492   4.468   2.601
 2596SOL    HW1 8531   1.477   4.412   2.677
 2596SOL    HW2 8532   1.532   0.047   2.637
 2597SOL     OW 8533   0.189   4.001   3.346
 2597SOL    HW1 8534   0.141   4.084   3.357
 2597SOL    HW2 8535   0.182   3.958   3.431
 2598SOL     OW 8536   1.401   3.830   2.296
 2598SOL    HW1 8537   1.392   3.805   2.204
 2598SOL    HW2 8538   1.495   3.839   2.309
 2599SOL     OW 8539   0.346   4.381   2.263
 2599SOL    HW1 8540   0.389   4.305   2.304
 2599SOL    HW2 8541   0.302   4.425   2.336
 2600SOL     OW 8542   1.533   3.949   3.587
 2600SOL    HW1 8543   1.542   3.970   3.680
 2600SOL    HW2 8544   1.464   3.882   3.584
 2601SOL     OW 8545   0.638   3.847   1.963
 2601SOL    HW1 8546   0.701   3.777   1.982
 2601SOL    HW2 8547   0.588   3.815   1.889
 2602SOL     OW 8548   0.765   4.002   3.617
 2602SOL    HW1 8549   0.843   3.947   3.615
 2602SOL    HW2 8550   0.718   3.973   3.695
 2603SOL     OW 8551   1.340   4.313   3.292
 2603SOL    HW1 8552   1.363   4.276   3.378
 2603SOL    HW2 8553   1.388   4.396   3.289
 2604SOL     OW 8554   0.925   4.234   2.758
 2604SOL    HW1 8555   0.902   4.218   2.667
 2604SOL    HW2 8556   0.964   4.152   2.788
 2605SOL     OW 8557   0.554   3.787   2.361
 2605SOL    HW1 8558   0.474   3.784   2.412
 2605SOL    HW2 8559   0.545   3.865   2.305
 2606SOL     OW 8560   0.294   3.769   2.039
 2606SOL    HW1 8561   0.356   3.836   2.010
 2606SOL    HW2 8562   0.348   3.704   2.084
 2607SOL     OW 8563   0.939   3.974   2.321
 2607SOL    HW1 8564   0.914   4.010   2.236
 2607SOL    HW2 8565   1.034   3.987   2.326
 2608SOL     OW 8566   1.074   4.395   3.392
 2608SOL    HW1 8567   0.992   4.365   3.351
 2608SOL    HW2 8568   1.142   4.360   3.335
 2609SOL     OW 8569   1.025   4.264   1.890
 2609SOL    HW1 8570   1.010   4.351   1.855
 2609SOL    HW2 8571   1.089   4.276   1.960
 2610SOL     OW 8572   0.081   4.255   3.267
 2610SOL    HW1 8573   0.159   4.268   3.213
 2610SOL    HW2 8574   0.051   4.344   3.287
 2611SOL     OW 8575   0.559   3.951   3.028
 2611SOL    HW1 8576   0.601   3.873   3.065
 2611SOL    HW2 8577   0.468   3.945   3.056
 2612SOL     OW 8578   0.869   4.190   2.498
 2612SOL    HW1 8579   0.837   4.250   2.431
 2612SOL    HW2 8580   0.888   4.109   2.450
 2613SOL     OW 8581   1.015   3.778   2.612
 2613SOL    HW1 8582   0.957   3.770   2.536
 2613SOL    HW2 8583   0.993   3.702   2.666
 2614SOL     OW 8584   1.478   4.309   2.823
 2614SOL    HW1 8585   1.414   4.241   2.843
 2614SOL    HW2 8586   1.527   4.320   2.904
 2615SOL     OW 8587   1.404   4.296   1.935
 2615SOL    HW1 8588   1.341   4.267   2.001
 2615SOL    HW2 8589   1.487   4.255   1.961
 2616SOL     OW 8590   0.525   3.985   2.175
 2616SOL    HW1 8591   0.571   3.938   2.106
 2616SOL    HW2 8592   0.510   4.073   2.139
 2617SOL     OW 8593   0.917   3.822   3.256
 2617SOL    HW1 8594   0.941   3.800   3.166
 2617SOL    HW2 8595   0.997   3.859   3.294
 2618SOL     OW 8596   0.446   0.004   3.129
 2618SOL    HW1 8597   0.502   4.497   3.206
 2618SOL    HW2 8598   0.409   4.416   3.119
 2619SOL     OW 8599   1.265   4.099   3.139
 2619SOL    HW1 8600   1.298   4.177   3.184
 2619SOL    HW2 8601   1.176   4.123   3.113
 2620SOL     OW 8602   0.554   4.250   2.726
 2620SOL    HW1 8603   0.573   4.286   2.639
 2620SOL    HW2 8604   0.621   4.289   2.783
 2621SOL     OW 8605   1.567   4.335   2.343
 2621SOL    HW1 8606   1.543   4.402   2.408
 2621SOL    HW2 8607   1.627   4.380   2.284
 2622SOL     OW 8608   0.996   3.851   3.616
 2622SOL    HW1 8609   1.054   3.923   3.593
 2622SOL    HW2 8610   1.043   3.772   3.591
 2623SOL     OW 8611   0.496   3.766   3.610
 2623SOL    HW1 8612   0.454   3.710   3.546
 2623SOL    HW2 8613   0.437   3.841   3.619
 2624SOL     OW 8614   1.209   4.252   2.123
 2624SOL    HW1 8615   1.219   4.173   2.176
 2624SOL    HW2 8616   1.160   4.313   2.180
 2625SOL     OW 8617   0.298   3.921   3.106
 2625SOL    HW1 8618   0.257   3.949   3.188
 2625SOL    HW2 8619   0.286   3.826   3.104
 2626SOL     OW 8620   0.735   4.360   2.903
 2626SOL    HW1 8621   0.808   4.321   2.855
 2626SOL    HW2 8622   0.747   4.454   2.894
 2627SOL     OW 8623   1.752   0.129   3.714
 2627SOL    HW1 8624   1.684   0.148   3.649
 2627SOL    HW2 8625   1.712   0.151   3.798
 2628SOL     OW 8626   0.313   3.792   2.480
 2628SOL    HW1 8627   0.287   3.881   2.506
 2628SOL    HW2 8628   0.311   3.742   2.561
 2629SOL     OW 8629   1.615   4.090   2.229
 2629SOL    HW1 8630   1.645   4.030   2.296
 2629SOL    HW2 8631   1.589   4.169   2.277
 2630SOL     OW 8632   1.525   3.999   1.989
 2630SOL    HW1 8633   1.462   3.932   2.015
 2630SOL    HW2 8634   1.561   4.031   2.071
 2631SOL     OW 8635   0.321   0.013   2.771
 2631SOL    HW1 8636   0.400   0.066   2.779
 2631SOL    HW2 8637   0.338   4.436   2.826
 2632SOL     OW 8638   0.332   4.236   2.874
 2632SOL    HW1 8639   0.288   4.154   2.851
 2632SOL    HW2 8640   0.407   4.241   2.815
 2633SOL     OW 8641   1.137   4.091   3.549
 2633SOL    HW1 8642   1.084   4.150   3.602
 2633SOL    HW2 8643   1.221   4.136   3.541
 2634SOL     OW 8644   1.160   3.925   3.331
 2634SOL    HW1 8645   1.150   3.986   3.404
 2634SOL    HW2 8646   1.202   3.977   3.262
 2635SOL     OW 8647   0.019   4.275   2.962
 2635SOL    HW1 8648   0.109   4.264   2.929
 2635SOL    HW2 8649   0.021   4.235   3.050
 2636SOL     OW 8650   0.173   4.236   3.550
 2636SOL    HW1 8651   0.264   4.220   3.524
 2636SOL    HW2 8652   0.150   4.318   3.507
 2637SOL     OW 8653   0.820   4.280   2.216
 2637SOL    HW1 8654   0.823   4.207   2.154
 2637SOL    HW2 8655   0.732   4.315   2.206
 2638SOL     OW 8656   1.635   4.316   3.046
 2638SOL    HW1 8657   1.632   4.259   3.123
 2638SOL    HW2 8658   1.723   4.304   3.012
 2639SOL     OW 8659   0.673   4.189   3.116
 2639SOL    HW1 8660   0.636   4.107   3.083
 2639SOL    HW2 8661   0.684   4.244   3.039
 2640SOL     OW 8662   0.484   4.224   2.049
 2640SOL    HW1 8663   0.510   4.309   2.085
 2640SOL    HW2 8664   0.391   4.235   2.028
 2641SOL     OW 8665   1.722   3.872   2.373
 2641SOL    HW1 8666   1.793   3.857   2.310
 2641SOL    HW2 8667   1.705   3.786   2.411
 2642SOL     OW 8668   1.279   0.136   2.541
 2642SOL    HW1 8669   1.337   0.061   2.557
 2642SOL    HW2 8670   1.330   0.194   2.484
 2643SOL     OW 8671   1.840   3.895   2.829
 2643SOL    HW1 8672   1.868   3.808   2.802
 2643SOL    HW2 8673   1.754   3.906   2.788
 2644SOL     OW 8674   0.268   4.040   2.582
 2644SOL    HW1 8675   0.190   4.088   2.554
 2644SOL    HW2 8676   0.255   4.027   2.676
 2645SOL     OW 8677   0.903   0.090   2.073
 2645SOL    HW1 8678   0.984   0.128   2.040
 2645SOL    HW2 8679   0.925   0.056   2.159
 2646SOL     OW 8680   1.065   0.294   2.609
 2646SOL    HW1 8681   0.994   0.288   2.545
 2646SOL    HW2 8682   1.131   0.231   2.578
 2647SOL     OW 8683   1.021   3.964   2.826
 2647SOL    HW1 8684   1.017   3.915   2.744
 2647SOL    HW2 8685   1.016   3.897   2.894
 2648SOL     OW 8686   1.723   4.114   3.242
 2648SOL    HW1 8687   1.794   4.178   3.240
 2648SOL    HW2 8688   1.753   4.044   3.185
 2649SOL     OW 8689   0.675   3.923   3.361
 2649SOL    HW1 8690   0.759   3.900   3.320
 2649SOL    HW2 8691   0.698   3.953   3.449
 2650SOL     OW 8692   0.066   4.045   1.902
 2650SOL    HW1 8693   4.474   4.067   1.890
 2650SOL    HW2 8694   0.112   4.129   1.897
 2651SOL     OW 8695   0.087   3.901   2.165
 2651SOL    HW1 8696   0.076   3.967   2.098
 2651SOL    HW2 8697   0.162   3.849   2.136
 2652SOL     OW 8698   0.726   4.279   3.559
 2652SOL    HW1 8699   0.727   4.327   3.641
 2652SOL    HW2 8700   0.745   4.188   3.584
 2653SOL     OW 8701   1.218   4.042   2.316
 2653SOL    HW1 8702   1.279   3.969   2.309
 2653SOL    HW2 8703   1.246   4.090   2.393
 2654SOL     OW 8704   1.757   4.092   3.512
 2654SOL    HW1 8705   1.742   4.103   3.418
 2654SOL    HW2 8706   1.687   4.033   3.541
 2655SOL     OW 8707   1.112   0.225   1.963
 2655SOL    HW1 8708   1.104   0.269   1.879
 2655SOL    HW2 8709   1.200   0.186   1.961
 2656SOL     OW 8710   1.814   3.907   3.099
 2656SOL    HW1 8711   1.821   3.813   3.113
 2656SOL    HW2 8712   1.822   3.918   3.005
 2657SOL     OW 8713   0.449   4.157   2.395
 2657SOL    HW1 8714   0.466   4.081   2.339
 2657SOL    HW2 8715   0.392   4.123   2.464
 2658SOL     OW 8716   0.322   4.262   3.140
 2658SOL    HW1 8717   0.375   4.194   3.182
 2658SOL    HW2 8718   0.330   4.244   3.047
 2659SOL     OW 8719   1.431   3.949   2.979
 2659SOL    HW1 8720   1.453   3.868   3.025
 2659SOL    HW2 8721   1.380   3.999   3.043
 2660SOL     OW 8722   1.009   3.742   3.003
 2660SOL    HW1 8723   0.954   3.675   2.962
 2660SOL    HW2 8724   1.097   3.704   3.005
 2661SOL     OW 8725   1.353   3.777   2.028
 2661SOL    HW1 8726   1.383   3.711   1.965
 2661SOL    HW2 8727   1.265   3.749   2.053
 2662SOL     OW 8728   1.299   4.174   2.542
 2662SOL    HW1 8729   1.266   4.263   2.556
 2662SOL    HW2 8730   1.297   4.134   2.629
 2663SOL     OW 8731   1.586   3.924   2.741
 2663SOL    HW1 8732   1.527   3.947   2.813
 2663SOL    HW2 8733   1.586   4.002   2.685
 2664SOL     OW 8734   0.226   4.276   3.833
 2664SOL    HW1 8735   0.162   4.305   3.898
 2664SOL    HW2 8736   0.211   4.332   3.758
 2665SOL     OW 8737   0.209   3.993   4.715
 2665SOL    HW1 8738   0.244   3.966   4.800
 2665SOL    HW2 8739   0.133   3.936   4.701
 2666SOL     OW 8740   4.498   4.102   4.355
 2666SOL    HW1 8741   4.414   4.131   4.391
 2666SOL    HW2 8742   4.478   4.019   4.312
 2667SOL     OW 8743   1.725   4.335   3.964
 2667SOL    HW1 8744   1.727   4.325   3.868
 2667SOL    HW2 8745   1.730   4.245   3.997
 2668SOL     OW 8746   0.730   0.275   4.410
 2668SOL    HW1 8747   0.716   0.210   4.478
 2668SOL    HW2 8748   0.643   0.289   4.373
 2669SOL     OW 8749   0.447   4.118   5.212
 2669SOL    HW1 8750   0.528   4.067   5.212
 2669SOL    HW2 8751   0.378   4.053   5.221
 2670SOL     OW 8752   1.614   4.171   4.465
 2670SOL    HW1 8753   1.550   4.196   4.399
 2670SOL    HW2 8754   1.607   4.238   4.533
 2671SOL     OW 8755   1.597   3.848   5.192
 2671SOL    HW1 8756   1.607   3.929   5.141
 2671SOL    HW2 8757   1.580   3.878   5.281
 2672SOL     OW 8758   0.160   4.324   4.362
 2672SOL    HW1 8759   0.101   4.250   4.347
 2672SOL    HW2 8760   0.116   4.398   4.320
 2673SOL     OW 8761   0.127   0.004   5.312
 2673SOL    HW1 8762   0.221   4.485   5.307
 2673SOL    HW2 8763   0.119   0.092   5.273
 2674SOL     OW 8764   0.819   3.726   4.235
 2674SOL    HW1 8765   0.858   3.811   4.214
 2674SOL    HW2 8766   0.725   3.744   4.242
 2675SOL     OW 8767   0.330   3.979   5.526
 2675SOL    HW1 8768   0.371   4.060   5.558
 2675SOL    HW2 8769   0.239   3.985   5.557
 2676SOL     OW 8770   1.277   4.076   4.657
 2676SOL    HW1 8771   1.188   4.043   4.667
 2676SOL    HW2 8772   1.329   4.023   4.717
 2677SOL     OW 8773   0.831   4.299   5.169
 2677SOL    HW1 8774   0.792   4.304   5.256
 2677SOL    HW2 8775   0.762   4.265   5.113
 2678SOL     OW 8776   1.395   4.200   5.400
 2678SOL    HW1 8777   1.398   4.245   5.485
 2678SOL    HW2 8778   1.452   4.124   5.411
 2679SOL     OW 8779   0.999   4.153   4.956
 2679SOL    HW1 8780   0.929   4.175   5.018
 2679SOL    HW2 8781   0.957   4.094   4.893
 2680SOL     OW 8782   1.056   4.411   4.138
 2680SOL    HW1 8783   1.051   4.456   4.222
 2680SOL    HW2 8784   0.970   4.370   4.128
 2681SOL     OW 8785   0.059   0.079   4.578
 2681SOL    HW1 8786   0.141   0.031   4.588
 2681SOL    HW2 8787   0.046   0.085   4.484
 2682SOL     OW 8788   0.895   4.065   3.913
 2682SOL    HW1 8789   0.935   4.128   3.853
 2682SOL    HW2 8790   0.910   3.980   3.872
 2683SOL     OW 8791   1.710   4.299   5.554
 2683SOL    HW1 8792   1.726   4.387   5.518
 2683SOL    HW2 8793   1.731   4.239   5.483
 2684SOL     OW 8794   0.552   3.903   4.617
 2684SOL    HW1 8795   0.555   3.934   4.708
 2684SOL    HW2 8796   0.547   3.982   4.564
 2685SOL     OW 8797   1.492   4.468   4.463
 2685SOL    HW1 8798   1.477   4.412   4.540
 2685SOL    HW2 8799   1.532   0.047   4.499
 2686SOL     OW 8800   0.189   4.001   5.208
 2686SOL    HW1 8801   0.142   4.084   5.219
 2686SOL    HW2 8802   0.181   3.958   5.293
 2687SOL     OW 8803   1.400   3.830   4.158
 2687SOL    HW1 8804   1.392   3.805   4.066
 2687SOL    HW2 8805   1.495   3.839   4.172
 2688SOL     OW 8806   0.347   4.381   4.126
 2688SOL    HW1 8807   0.389   4.305   4.166
 2688SOL    HW2 8808   0.302   4.425   4.198
 2689SOL     OW 8809   1.532   3.949   5.449
 2689SOL    HW1 8810   1.542   3.970   5.542
 2689SOL    HW2 8811   1.463   3.883   5.446
 2690SOL     OW 8812   0.638   3.847   3.825
 2690SOL    HW1 8813   0.701   3.777   3.843
 2690SOL    HW2 8814   0.588   3.814   3.751
 2691SOL     OW 8815   0.765   4.002   5.479
 2691SOL    HW1 8816   0.843   3.947   5.477
 2691SOL    HW2 8817   0.717   3.973   5.557
 2692SOL     OW 8818   1.340   4.313   5.154
 2692SOL    HW1 8819   1.363   4.276   5.239
 2692SOL    HW2 8820   1.388   4.396   5.151
 2693SOL     OW 8821   0.925   4.234   4.620
 2693SOL    HW1 8822   0.902   4.218   4.529
 2693SOL    HW2 8823   0.964   4.151   4.650
 2694SOL     OW 8824   0.554   3.787   4.223
 2694SOL    HW1 8825   0.474   3.784   4.274
 2694SOL    HW2 8826   0.545   3.865   4.167
 2695SOL     OW 8827   0.294   3.769   3.901
 2695SOL    HW1 8828   0.356   3.836   3.872
 2695SOL    HW2 8829   0.348   3.704   3.946
 2696SOL     OW 8830   0.939   3.974   4.183
 2696SOL    HW1 8831   0.914   4.010   4.098
 2696SOL    HW2 8832   1.034   3.987   4.188
 2697SOL     OW 8833   1.074   4.395   5.254
 2697SOL    HW1 8834   0.992   4.365   5.214
 2697SOL    HW2 8835   1.142   4.360   5.197
 2698SOL     OW 8836   1.025   4.264   3.752
 2698SOL    HW1 8837   1.010   4.351   3.717
 2698SOL    HW2 8838   1.089   4.276   3.822
 2699SOL     OW 8839   0.082   4.255   5.131
 2699SOL    HW1 8840   0.159   4.268   5.075
 2699SOL    HW2 8841   0.050   4.343   5.148
 2700SOL     OW 8842   0.559   3.951   4.890
 2700SOL    HW1 8843   0.601   3.873   4.927
 2700SOL    HW2 8844   0.468   3.945   4.918
 2701SOL     OW 8845   0.869   4.190   4.360
 2701SOL    HW1 8846   0.837   4.250   4.293
 2701SOL    HW2 8847   0.888   4.109   4.312
 2702SOL     OW 8848   1.015   3.778   4.474
 2702SOL    HW1 8849   0.957   3.770   4.398
 2702SOL    HW2 8850   0.993   3.702   4.528
 2703SOL     OW 8851   1.478   4.309   4.685
 2703SOL    HW1 8852   1.415   4.240   4.705
 2703SOL    HW2 8853   1.527   4.320   4.767
 2704SOL     OW 8854   1.404   4.296   3.797
 2704SOL    HW1 8855   1.341   4.267   3.863
 2704SOL    HW2 8856   1.487   4.255   3.823
 2705SOL     OW 8857   0.525   3.985   4.037
 2705SOL    HW1 8858   0.571   3.938   3.968
 2705SOL    HW2 8859   0.510   4.073   4.001
 2706SOL     OW 8860   0.917   3.822   5.118
 2706SOL    HW1 8861   0.941   3.800   5.028
 2706SOL    HW2 8862   0.997   3.859   5.155
 2707SOL     OW 8863   0.446   0.004   4.991
 2707SOL    HW1 8864   0.502   4.497   5.068
 2707SOL    HW2 8865   0.409   4.416   4.981
 2708SOL     OW 8866   1.265   4.099   5.001
 2708SOL    HW1 8867   1.298   4.177   5.046
 2708SOL    HW2 8868   1.176   4.122   4.975
 2709SOL     OW 8869   0.554   4.250   4.588
 2709SOL    HW1 8870   0.573   4.286   4.501
 2709SOL    HW2 8871   0.621   4.289   4.645
 2710SOL     OW 8872   1.567   4.335   4.205
 2710SOL    HW1 8873   1.543   4.402   4.270
 2710SOL    HW2 8874   1.627   4.379   4.145
 2711SOL     OW 8875   0.996   3.851   5.478
 2711SOL    HW1 8876   1.054   3.923   5.455
 2711SOL    HW2 8877   1.043   3.772   5.454
 2712SOL     OW 8878   0.496   3.766   5.472
 2712SOL    HW1 8879   0.454   3.710   5.408
 2712SOL    HW2 8880   0.437   3.841   5.481
 2713SOL     OW 8881   1.209   4.252   3.985
 2713SOL    HW1 8882   1.219   4.173   4.038
 2713SOL    HW2 8883   1.160   4.313   4.042
 2714SOL     OW 8884   0.298   3.921   4.968
 2714SOL    HW1 8885   0.257   3.949   5.050
 2714SOL    HW2 8886   0.286   3.826   4.966
 2715SOL     OW 8887   0.735   4.360   4.765
 2715SOL    HW1 8888   0.808   4.321   4.717
 2715SOL    HW2 8889   0.747   4.454   4.755
 2716SOL     OW 8890   1.753   0.131   5.576
 2716SOL    HW1 8891   1.685   0.148   5.511
 2716SOL    HW2 8892   1.712   0.152   5.660
 2717SOL     OW 8893   0.313   3.793   4.342
 2717SOL    HW1 8894   0.287   3.881   4.368
 2717SOL    HW2 8895   0.311   3.742   4.423
 2718SOL     OW 8896   1.615   4.090   4.091
 2718SOL    HW1 8897   1.645   4.030   4.158
 2718SOL    HW2 8898   1.589   4.169   4.139
 2719SOL     OW 8899   1.525   3.999   3.850
 2719SOL    HW1 8900   1.462   3.931   3.876
 2719SOL    HW2 8901   1.560   4.031   3.933
 2720SOL     OW 8902   0.321   0.013   4.633
 2720SOL    HW1 8903   0.400   0.066   4.642
 2720SOL    HW2 8904   0.338   4.436   4.688
 2721SOL     OW 8905   0.332   4.236   4.736
 2721SOL    HW1 8906   0.288   4.154   4.712
 2721SOL    HW2 8907   0.407   4.241   4.677
 2722SOL     OW 8908   1.137   4.091   5.411
 2722SOL    HW1 8909   1.084   4.150   5.464
 2722SOL    HW2 8910   1.221   4.136   5.402
 2723SOL     OW 8911   1.160   3.925   5.193
 2723SOL    HW1 8912   1.150   3.986   5.266
 2723SOL    HW2 8913   1.202   3.976   5.124
 2724SOL     OW 8914   0.020   4.275   4.825
 2724SOL    HW1 8915   0.109   4.264   4.791
 2724SOL    HW2 8916   0.021   4.234   4.911
 2725SOL     OW 8917   0.174   4.236   5.413
 2725SOL    HW1 8918   0.264   4.220   5.385
 2725SOL    HW2 8919   0.149   4.318   5.369
 2726SOL     OW 8920   0.820   4.280   4.078
 2726SOL    HW1 8921   0.824   4.207   4.016
 2726SOL    HW2 8922   0.732   4.315   4.068
 2727SOL     OW 8923   1.635   4.316   4.909
 2727SOL    HW1 8924   1.631   4.258   4.985
 2727SOL    HW2 8925   1.723   4.304   4.874
 2728SOL     OW 8926   0.673   4.189   4.978
 2728SOL    HW1 8927   0.637   4.107   4.945
 2728SOL    HW2 8928   0.684   4.244   4.901
 2729SOL     OW 8929   0.484   4.224   3.911
 2729SOL    HW1 8930   0.510   4.309   3.946
 2729SOL    HW2 8931   0.391   4.235   3.890
 2730SOL     OW 8932   1.722   3.872   4.235
 2730SOL    HW1 8933   1.793   3.857   4.172
 2730SOL    HW2 8934   1.705   3.786   4.273
 2731SOL     OW 8935   1.280   0.136   4.404
 2731SOL    HW1 8936   1.337   0.061   4.420
 2731SOL    HW2 8937   1.330   0.193   4.345
 2732SOL     OW 8938   1.840   3.896   4.691
 2732SOL    HW1 8939   1.868   3.809   4.664
 2732SOL    HW2 8940   1.754   3.907   4.650
 2733SOL     OW 8941   0.267   4.040   4.444
 2733SOL    HW1 8942   0.189   4.088   4.416
 2733SOL    HW2 8943   0.255   4.027   4.538
 2734SOL     OW 8944   0.903   0.090   3.935
 2734SOL    HW1 8945   0.985   0.128   3.902
 2734SOL    HW2 8946   0.925   0.056   4.021
 2735SOL     OW 8947   1.065   0.294   4.471
 2735SOL    HW1 8948   0.995   0.288   4.407
 2735SOL    HW2 8949   1.131   0.232   4.441
 2736SOL     OW 8950   1.021   3.964   4.688
 2736SOL    HW1 8951   1.017   3.915   4.606
 2736SOL    HW2 8952   1.016   3.896   4.756
 2737SOL     OW 8953   1.723   4.114   5.104
 2737SOL    HW1 8954   1.794   4.178   5.102
 2737SOL    HW2 8955   1.753   4.043   5.047
 2738SOL     OW 8956   0.675   3.923   5.223
 2738SOL    HW1 8957   0.758   3.900   5.182
 2738SOL    HW2 8958   0.698   3.953   5.311
 2739SOL     OW 8959   0.066   4.045   3.764
 2739SOL    HW1 8960   4.474   4.068   3.751
 2739SOL    HW2 8961   0.112   4.129   3.759
 2740SOL     OW 8962   0.087   3.901   4.027
 2740SOL    HW1 8963   0.075   3.967   3.960
 2740SOL    HW2 8964   0.162   3.849   3.998
 2741SOL     OW 8965   0.726   4.279   5.421
 2741SOL    HW1 8966   0.726   4.327   5.503
 2741SOL    HW2 8967   0.745   4.188   5.446
 2742SOL     OW 8968   1.218   4.042   4.178
 2742SOL    HW1 8969   1.279   3.969   4.170
 2742SOL    HW2 8970   1.246   4.090   4.255
 2743SOL     OW 8971   1.757   4.091   5.374
 2743SOL    HW1 8972   1.742   4.103   5.281
 2743SOL    HW2 8973   1.686   4.033   5.403
 2744SOL     OW 8974   1.112   0.225   3.825
 2744SOL    HW1 8975   1.104   0.269   3.741
 2744SOL    HW2 8976   1.200   0.186   3.823
 2745SOL     OW 8977   1.815   3.906   4.962
 2745SOL    HW1 8978   1.819   3.811   4.973
 2745SOL    HW2 8979   1.822   3.919   4.867
 2746SOL     OW 8980   0.449   4.157   4.258
 2746SOL    HW1 8981   0.466   4.081   4.201
 2746SOL    HW2 8982   0.392   4.123   4.326
 2747SOL     OW 8983   0.322   4.262   5.002
 2747SOL    HW1 8984   0.376   4.194   5.044
 2747SOL    HW2 8985   0.330   4.244   4.908
 2748SOL     OW 8986   1.432   3.950   4.841
 2748SOL    HW1 8987   1.452   3.867   4.885
 2748SOL    HW2 8988   1.380   3.999   4.906
 2749SOL     OW 8989   1.009   3.742   4.865
 2749SOL    HW1 8990   0.954   3.675   4.824
 2749SOL    HW2 8991   1.096   3.704   4.867
 2750SOL     OW 8992   1.353   3.777   3.890
 2750SOL    HW1 8993   1.383   3.710   3.828
 2750SOL    HW2 8994   1.265   3.749   3.915
 2751SOL     OW 8995   1.299   4.174   4.404
 2751SOL    HW1 8996   1.266   4.263   4.418
 2751SOL    HW2 8997   1.297   4.134   4.491
 2752SOL     OW 8998   1.586   3.925   4.602
 2752SOL    HW1 8999   1.527   3.947   4.675
 2752SOL    HW2 9000   1.586   4.002   4.546
 2753SOL     OW 9001   0.226   4.276   5.696
 2753SOL    HW1 9002   0.162   4.305   5.760
 2753SOL    HW2 9003   0.211   4.332   5.620
 2754SOL     OW 9004   0.209   3.993   6.577
 2754SOL    HW1 9005   0.244   3.966   6.662
 2754SOL    HW2 9006   0.133   3.937   6.563
 2755SOL     OW 9007   4.498   4.102   6.217
 2755SOL    HW1 9008   4.415   4.131   6.253
 2755SOL    HW2 9009   4.478   4.019   6.175
 2756SOL     OW 9010   1.725   4.335   5.825
 2756SOL    HW1 9011   1.728   4.325   5.730
 2756SOL    HW2 9012   1.730   4.246   5.859
 2757SOL     OW 9013   0.730   0.275   6.271
 2757SOL    HW1 9014   0.717   0.210   6.341
 2757SOL    HW2 9015   0.642   0.289   6.235
 2758SOL     OW 9016   0.447   4.118   7.074
 2758SOL    HW1 9017   0.528   4.067   7.074
 2758SOL    HW2 9018   0.378   4.053   7.083
 2759SOL     OW 9019   1.614   4.171   6.327
 2759SOL    HW1 9020   1.549   4.196   6.262
 2759SOL    HW2 9021   1.606   4.236   6.396
 2760SOL     OW 9022   1.596   3.849   7.053
 2760SOL    HW1 9023   1.607   3.930   7.004
 2760SOL    HW2 9024   1.580   3.877   7.143
 2761SOL     OW 9025   0.160   4.324   6.223
 2761SOL    HW1 9026   0.101   4.250   6.209
 2761SOL    HW2 9027   0.116   4.398   6.182
 2762SOL     OW 9028   0.127   0.004   7.173
 2762SOL    HW1 9029   0.221   4.485   7.169
 2762SOL    HW2 9030   0.119   0.092   7.135
 2763SOL     OW 9031   0.818   3.725   6.096
 2763SOL    HW1 9032   0.858   3.810   6.076
 2763SOL    HW2 9033   0.725   3.743   6.104
 2764SOL     OW 9034   0.329   3.980   7.387
 2764SOL    HW1 9035   0.371   4.059   7.420
 2764SOL    HW2 9036   0.239   3.985   7.418
 2765SOL     OW 9037   1.277   4.075   6.519
 2765SOL    HW1 9038   1.188   4.042   6.529
 2765SOL    HW2 9039   1.329   4.023   6.579
 2766SOL     OW 9040   0.831   4.299   7.031
 2766SOL    HW1 9041   0.792   4.304   7.118
 2766SOL    HW2 9042   0.762   4.265   6.975
 2767SOL     OW 9043   1.395   4.199   7.262
 2767SOL    HW1 9044   1.398   4.244   7.347
 2767SOL    HW2 9045   1.452   4.123   7.273
 2768SOL     OW 9046   0.999   4.153   6.818
 2768SOL    HW1 9047   0.930   4.176   6.880
 2768SOL    HW2 9048   0.957   4.094   6.756
 2769SOL     OW 9049   1.056   4.411   6.000
 2769SOL    HW1 9050   1.051   4.456   6.084
 2769SOL    HW2 9051   0.970   4.370   5.990
 2770SOL     OW 9052   0.059   0.078   6.440
 2770SOL    HW1 9053   0.141   0.031   6.450
 2770SOL    HW2 9054   0.046   0.086   6.346
 2771SOL     OW 9055   0.895   4.065   5.776
 2771SOL    HW1 9056   0.935   4.128   5.716
 2771SOL    HW2 9057   0.909   3.980   5.734
 2772SOL     OW 9058   1.710   4.299   7.416
 2772SOL    HW1 9059   1.726   4.387   7.381
 2772SOL    HW2 9060   1.731   4.240   7.345
 2773SOL     OW 9061   0.553   3.903   6.480
 2773SOL    HW1 9062   0.555   3.934   6.570
 2773SOL    HW2 9063   0.547   3.983   6.427
 2774SOL     OW 9064   1.492   4.468   6.325
 2774SOL    HW1 9065   1.477   4.412   6.401
 2774SOL    HW2 9066   1.532   0.047   6.361
 2775SOL     OW 9067   0.189   4.001   7.070
 2775SOL    HW1 9068   0.141   4.084   7.081
 2775SOL    HW2 9069   0.182   3.958   7.156
 2776SOL     OW 9070   1.401   3.830   6.020
 2776SOL    HW1 9071   1.392   3.805   5.928
 2776SOL    HW2 9072   1.495   3.840   6.033
 2777SOL     OW 9073   0.347   4.381   5.988
 2777SOL    HW1 9074   0.389   4.305   6.028
 2777SOL    HW2 9075   0.302   4.425   6.060
 2778SOL     OW 9076   1.533   3.949   7.311
 2778SOL    HW1 9077   1.542   3.970   7.404
 2778SOL    HW2 9078   1.464   3.882   7.308
 2779SOL     OW 9079   0.639   3.847   5.687
 2779SOL    HW1 9080   0.701   3.777   5.705
 2779SOL    HW2 9081   0.588   3.815   5.613
 2780SOL     OW 9082   0.765   4.002   7.341
 2780SOL    HW1 9083   0.843   3.947   7.339
 2780SOL    HW2 9084   0.718   3.973   7.419
 2781SOL     OW 9085   1.340   4.313   7.016
 2781SOL    HW1 9086   1.363   4.275   7.102
 2781SOL    HW2 9087   1.387   4.396   7.013
 2782SOL     OW 9088   0.925   4.234   6.482
 2782SOL    HW1 9089   0.902   4.218   6.391
 2782SOL    HW2 9090   0.964   4.152   6.512
 2783SOL     OW 9091   0.554   3.787   6.085
 2783SOL    HW1 9092   0.474   3.784   6.136
 2783SOL    HW2 9093   0.545   3.865   6.029
 2784SOL     OW 9094   0.294   3.769   5.763
 2784SOL    HW1 9095   0.356   3.836   5.734
 2784SOL    HW2 9096   0.348   3.704   5.808
 2785SOL     OW 9097   0.939   3.974   6.045
 2785SOL    HW1 9098   0.914   4.010   5.960
 2785SOL    HW2 9099   1.034   3.987   6.050
 2786SOL     OW 9100   1.074   4.395   7.115
 2786SOL    HW1 9101   0.992   4.365   7.075
 2786SOL    HW2 9102   1.142   4.360   7.058
 2787SOL     OW 9103   1.025   4.264   5.614
 2787SOL    HW1 9104   1.010   4.351   5.579
 2787SOL    HW2 9105   1.089   4.277   5.685
 2788SOL     OW 9106   0.081   4.255   6.991
 2788SOL    HW1 9107   0.159   4.268   6.937
 2788SOL    HW2 9108   0.051   4.344   7.011
 2789SOL     OW 9109   0.559   3.951   6.752
 2789SOL    HW1 9110   0.601   3.873   6.790
 2789SOL    HW2 9111   0.468   3.945   6.780
 2790SOL     OW 9112   0.869   4.190   6.222
 2790SOL    HW1 9113   0.837   4.250   6.155
 2790SOL    HW2 9114   0.888   4.109   6.174
 2791SOL     OW 9115   1.016   3.777   6.335
 2791SOL    HW1 9116   0.957   3.770   6.260
 2791SOL    HW2 9117   0.994   3.702   6.390
 2792SOL     OW 9118   1.479   4.309   6.547
 2792SOL    HW1 9119   1.414   4.241   6.567
 2792SOL    HW2 9120   1.527   4.320   6.628
 2793SOL     OW 9121   1.404   4.296   5.659
 2793SOL    HW1 9122   1.341   4.267   5.725
 2793SOL    HW2 9123   1.487   4.255   5.685
 2794SOL     OW 9124   0.525   3.985   5.899
 2794SOL    HW1 9125   0.571   3.938   5.829
 2794SOL    HW2 9126   0.510   4.073   5.863
 2795SOL     OW 9127   0.917   3.822   6.980
 2795SOL    HW1 9128   0.941   3.800   6.890
 2795SOL    HW2 9129   0.997   3.859   7.018
 2796SOL     OW 9130   0.446   0.004   6.853
 2796SOL    HW1 9131   0.502   4.497   6.931
 2796SOL    HW2 9132   0.409   4.416   6.843
 2797SOL     OW 9133   1.265   4.099   6.862
 2797SOL    HW1 9134   1.298   4.177   6.908
 2797SOL    HW2 9135   1.176   4.123   6.837
 2798SOL     OW 9136   0.554   4.249   6.450
 2798SOL    HW1 9137   0.573   4.286   6.363
 2798SOL    HW2 9138   0.621   4.289   6.507
 2799SOL     OW 9139   1.567   4.335   6.067
 2799SOL    HW1 9140   1.543   4.401   6.132
 2799SOL    HW2 9141   1.627   4.380   6.008
 2800SOL     OW 9142   0.995   3.851   7.340
 2800SOL    HW1 9143   1.055   3.923   7.317
 2800SOL    HW2 9144   1.043   3.772   7.316
 2801SOL     OW 9145   0.496   3.766   7.334
 2801SOL    HW1 9146   0.454   3.710   7.270
 2801SOL    HW2 9147   0.437   3.841   7.343
 2802SOL     OW 9148   1.209   4.253   5.847
 2802SOL    HW1 9149   1.219   4.173   5.900
 2802SOL    HW2 9150   1.161   4.313   5.904
 2803SOL     OW 9151   0.298   3.921   6.830
 2803SOL    HW1 9152   0.257   3.949   6.912
 2803SOL    HW2 9153   0.286   3.826   6.828
 2804SOL     OW 9154   0.735   4.360   6.627
 2804SOL    HW1 9155   0.808   4.322   6.579
 2804SOL    HW2 9156   0.747   4.454   6.618
 2805SOL     OW 9157   1.753   0.130   7.438
 2805SOL    HW1 9158   1.684   0.148   7.374
 2805SOL    HW2 9159   1.713   0.151   7.522
 2806SOL     OW 9160   0.313   3.793   6.204
 2806SOL    HW1 9161   0.287   3.881   6.230
 2806SOL    HW2 9162   0.311   3.742   6.285
 2807SOL     OW 9163   1.615   4.090   5.953
 2807SOL    HW1 9164   1.645   4.030   6.021
 2807SOL    HW2 9165   1.589   4.169   6.001
 2808SOL     OW 9166   1.525   3.998   5.713
 2808SOL    HW1 9167   1.462   3.931   5.739
 2808SOL    HW2 9168   1.561   4.031   5.795
 2809SOL     OW 9169   0.321   0.013   6.495
 2809SOL    HW1 9170   0.400   0.066   6.504
 2809SOL    HW2 9171   0.337   4.436   6.550
 2810SOL     OW 9172   0.332   4.236   6.598
 2810SOL    HW1 9173   0.288   4.154   6.575
 2810SOL    HW2 9174   0.407   4.241   6.539
 2811SOL     OW 9175   1.137   4.092   7.273
 2811SOL    HW1 9176   1.084   4.150   7.326
 2811SOL    HW2 9177   1.222   4.136   7.265
 2812SOL     OW 9178   1.160   3.925   7.055
 2812SOL    HW1 9179   1.150   3.986   7.128
 2812SOL    HW2 9180   1.202   3.977   6.986
 2813SOL     OW 9181   0.019   4.275   6.686
 2813SOL    HW1 9182   0.109   4.264   6.654
 2813SOL    HW2 9183   0.021   4.235   6.774
 2814SOL     OW 9184   0.173   4.236   7.274
 2814SOL    HW1 9185   0.264   4.220   7.248
 2814SOL    HW2 9186   0.149   4.318   7.231
 2815SOL     OW 9187   0.820   4.280   5.940
 2815SOL    HW1 9188   0.823   4.207   5.878
 2815SOL    HW2 9189   0.731   4.315   5.931
 2816SOL     OW 9190   1.635   4.316   6.770
 2816SOL    HW1 9191   1.631   4.259   6.847
 2816SOL    HW2 9192   1.724   4.304   6.736
 2817SOL     OW 9193   0.673   4.189   6.840
 2817SOL    HW1 9194   0.637   4.107   6.807
 2817SOL    HW2 9195   0.684   4.244   6.763
 2818SOL     OW 9196   0.484   4.225   5.773
 2818SOL    HW1 9197   0.510   4.309   5.809
 2818SOL    HW2 9198   0.391   4.234   5.752
 2819SOL     OW 9199   1.722   3.871   6.097
 2819SOL    HW1 9200   1.793   3.857   6.034
 2819SOL    HW2 9201   1.705   3.785   6.135
 2820SOL     OW 9202   1.279   0.136   6.265
 2820SOL    HW1 9203   1.337   0.061   6.281
 2820SOL    HW2 9204   1.330   0.193   6.208
 2821SOL     OW 9205   1.840   3.894   6.552
 2821SOL    HW1 9206   1.868   3.806   6.524
 2821SOL    HW2 9207   1.754   3.906   6.513
 2822SOL     OW 9208   0.267   4.040   6.306
 2822SOL    HW1 9209   0.189   4.088   6.278
 2822SOL    HW2 9210   0.255   4.027   6.400
 2823SOL     OW 9211   0.903   0.090   5.797
 2823SOL    HW1 9212   0.985   0.128   5.764
 2823SOL    HW2 9213   0.925   0.056   5.883
 2824SOL     OW 9214   1.065   0.294   6.333
 2824SOL    HW1 9215   0.994   0.288   6.269
 2824SOL    HW2 9216   1.131   0.231   6.302
 2825SOL     OW 9217   1.021   3.964   6.550
 2825SOL    HW1 9218   1.017   3.915   6.468
 2825SOL    HW2 9219   1.016   3.897   6.618
 2826SOL     OW 9220   1.723   4.114   6.966
 2826SOL    HW1 9221   1.794   4.178   6.964
 2826SOL    HW2 9222   1.753   4.044   6.909
 2827SOL     OW 9223   0.675   3.923   7.085
 2827SOL    HW1 9224   0.759   3.900   7.044
 2827SOL    HW2 9225   0.698   3.953   7.173
 2828SOL     OW 9226   0.066   4.045   5.626
 2828SOL    HW1 9227   4.474   4.067   5.613
 2828SOL    HW2 9228   0.112   4.129   5.621
 2829SOL     OW 9229   0.087   3.901   5.890
 2829SOL    HW1 9230   0.075   3.967   5.822
 2829SOL    HW2 9231   0.162   3.849   5.860
 2830SOL     OW 9232   0.726   4.279   7.283
 2830SOL    HW1 9233   0.726   4.327   7.365
 2830SOL    HW2 9234   0.745   4.188   7.308
 2831SOL     OW 9235   1.218   4.042   6.040
 2831SOL    HW1 9236   1.279   3.969   6.033
 2831SOL    HW2 9237   1.246   4.090   6.118
 2832SOL     OW 9238   1.757   4.092   7.236
 2832SOL    HW1 9239   1.741   4.103   7.142
 2832SOL    HW2 9240   1.687   4.033   7.265
 2833SOL     OW 9241   1.112   0.225   5.687
 2833SOL    HW1 9242   1.103   0.268   5.602
 2833SOL    HW2 9243   1.200   0.186   5.685
 2834SOL     OW 9244   1.814   3.907   6.823
 2834SOL    HW1 9245   1.820   3.813   6.837
 2834SOL    HW2 9246   1.823   3.918   6.728
 2835SOL     OW 9247   0.449   4.157   6.119
 2835SOL    HW1 9248   0.466   4.081   6.063
 2835SOL    HW2 9249   0.392   4.123   6.188
 2836SOL     OW 9250   0.322   4.262   6.864
 2836SOL    HW1 9251   0.375   4.194   6.906
 2836SOL    HW2 9252   0.330   4.244   6.771
 2837SOL     OW 9253   1.431   3.949   6.704
 2837SOL    HW1 9254   1.453   3.868   6.749
 2837SOL    HW2 9255   1.380   3.999   6.767
 2838SOL     OW 9256   1.009   3.742   6.727
 2838SOL    HW1 9257   0.954   3.675   6.687
 2838SOL    HW2 9258   1.097   3.704   6.729
 2839SOL     OW 9259   1.353   3.777   5.752
 2839SOL    HW1 9260   1.381   3.712   5.688
 2839SOL    HW2 9261   1.265   3.749   5.778
 2840SOL     OW 9262   1.299   4.174   6.266
 2840SOL    HW1 9263   1.266   4.263   6.280
 2840SOL    HW2 9264   1.298   4.134   6.353
 2841SOL     OW 9265   1.586   3.924   6.465
 2841SOL    HW1 9266   1.528   3.947   6.537
 2841SOL    HW2 9267   1.586   4.002   6.409
 2842SOL     OW 9268   0.226   4.275   7.557
 2842SOL    HW1 9269   0.162   4.305   7.622
 2842SOL    HW2 9270   0.211   4.332   7.482
 2843SOL     OW 9271   0.209   3.993   8.439
 2843SOL    HW1 9272   0.244   3.966   8.524
 2843SOL    HW2 9273   0.133   3.937   8.425
 2844SOL     OW 9274   4.498   4.102   8.079
 2844SOL    HW1 9275   4.415   4.131   8.116
 2844SOL    HW2 9276   4.478   4.018   8.037
 2845SOL     OW 9277   1.726   4.335   7.687
 2845SOL    HW1 9278   1.728   4.324   7.592
 2845SOL    HW2 9279   1.730   4.246   7.721
 2846SOL     OW 9280   0.730   0.275   8.133
 2846SOL    HW1 9281   0.717   0.210   8.203
 2846SOL    HW2 9282   0.642   0.289   8.097
 2847SOL     OW 9283   0.447   4.118   8.936
 2847SOL    HW1 9284   0.528   4.067   8.936
 2847SOL    HW2 9285   0.378   4.053   8.945
 2848SOL     OW 9286   1.614   4.171   8.189
 2848SOL    HW1 9287   1.549   4.196   8.124
 2848SOL    HW2 9288   1.607   4.237   8.258
 2849SOL     OW 9289   1.596   3.848   8.915
 2849SOL    HW1 9290   1.607   3.929   8.865
 2849SOL    HW2 9291   1.580   3.877   9.005
 2850SOL     OW 9292   0.160   4.324   8.085
 2850SOL    HW1 9293   0.101   4.250   8.071
 2850SOL    HW2 9294   0.116   4.398   8.044
 2851SOL     OW 9295   0.127   0.004   9.035
 2851SOL    HW1 9296   0.221   4.485   9.031
 2851SOL    HW2 9297   0.119   0.092   8.997
 2852SOL     OW 9298   0.818   3.726   7.958
 2852SOL    HW1 9299   0.858   3.811   7.938
 2852SOL    HW2 9300   0.725   3.744   7.966
 2853SOL     OW 9301   0.330   3.980   9.249
 2853SOL    HW1 9302   0.371   4.059   9.282
 2853SOL    HW2 9303   0.239   3.985   9.280
 2854SOL     OW 9304   1.277   4.075   8.381
 2854SOL    HW1 9305   1.188   4.042   8.391
 2854SOL    HW2 9306   1.329   4.023   8.441
 2855SOL     OW 9307   0.831   4.299   8.893
 2855SOL    HW1 9308   0.792   4.304   8.980
 2855SOL    HW2 9309   0.761   4.265   8.837
 2856SOL     OW 9310   1.395   4.199   9.124
 2856SOL    HW1 9311   1.398   4.245   9.209
 2856SOL    HW2 9312   1.452   4.124   9.135
 2857SOL     OW 9313   0.999   4.153   8.680
 2857SOL    HW1 9314   0.930   4.176   8.742
 2857SOL    HW2 9315   0.957   4.094   8.618
 2858SOL     OW 9316   1.056   4.411   7.862
 2858SOL    HW1 9317   1.051   4.456   7.946
 2858SOL    HW2 9318   0.970   4.370   7.852
 2859SOL     OW 9319   0.058   0.078   8.302
 2859SOL    HW1 9320   0.141   0.031   8.312
 2859SOL    HW2 9321   0.047   0.086   8.208
 2860SOL     OW 9322   0.895   4.065   7.637
 2860SOL    HW1 9323   0.935   4.128   7.577
 2860SOL    HW2 9324   0.909   3.980   7.596
 2861SOL     OW 9325   1.710   4.299   9.278
 2861SOL    HW1 9326   1.726   4.387   9.243
 2861SOL    HW2 9327   1.731   4.240   9.207
 2862SOL     OW 9328   0.553   3.903   8.342
 2862SOL    HW1 9329   0.555   3.934   8.432
 2862SOL    HW2 9330   0.547   3.983   8.289
 2863SOL     OW 9331   1.492   4.468   8.187
 2863SOL    HW1 9332   1.477   4.412   8.263
 2863SOL    HW2 9333   1.532   0.047   8.223
 2864SOL     OW 9334   0.189   4.001   8.932
 2864SOL    HW1 9335   0.141   4.084   8.943
 2864SOL    HW2 9336   0.182   3.958   9.018
 2865SOL     OW 9337   1.401   3.830   7.882
 2865SOL    HW1 9338   1.392   3.805   7.790
 2865SOL    HW2 9339   1.495   3.839   7.896
 2866SOL     OW 9340   0.347   4.381   7.849
 2866SOL    HW1 9341   0.389   4.305   7.890
 2866SOL    HW2 9342   0.302   4.425   7.922
 2867SOL     OW 9343   1.533   3.949   9.173
 2867SOL    HW1 9344   1.542   3.970   9.266
 2867SOL    HW2 9345   1.464   3.882   9.170
 2868SOL     OW 9346   0.639   3.847   7.549
 2868SOL    HW1 9347   0.701   3.777   7.568
 2868SOL    HW2 9348   0.588   3.814   7.475
 2869SOL     OW 9349   0.765   4.002   9.203
 2869SOL    HW1 9350   0.843   3.947   9.201
 2869SOL    HW2 9351   0.718   3.974   9.281
 2870SOL     OW 9352   1.340   4.313   8.878
 2870SOL    HW1 9353   1.363   4.276   8.964
 2870SOL    HW2 9354   1.388   4.396   8.875
 2871SOL     OW 9355   0.925   4.234   8.344
 2871SOL    HW1 9356   0.902   4.218   8.253
 2871SOL    HW2 9357   0.964   4.152   8.374
 2872SOL     OW 9358   0.554   3.787   7.947
 2872SOL    HW1 9359   0.474   3.784   7.998
 2872SOL    HW2 9360   0.545   3.865   7.891
 2873SOL     OW 9361   0.294   3.769   7.625
 2873SOL    HW1 9362   0.356   3.836   7.596
 2873SOL    HW2 9363   0.348   3.704   7.670
 2874SOL     OW 9364   0.939   3.974   7.907
 2874SOL    HW1 9365   0.914   4.010   7.822
 2874SOL    HW2 9366   1.034   3.987   7.912
 2875SOL     OW 9367   1.074   4.395   8.977
 2875SOL    HW1 9368   0.992   4.365   8.937
 2875SOL    HW2 9369   1.142   4.360   8.920
 2876SOL     OW 9370   1.025   4.263   7.476
 2876SOL    HW1 9371   1.010   4.351   7.442
 2876SOL    HW2 9372   1.089   4.276   7.547
 2877SOL     OW 9373   0.081   4.255   8.853
 2877SOL    HW1 9374   0.159   4.268   8.799
 2877SOL    HW2 9375   0.051   4.344   8.873
 2878SOL     OW 9376   0.559   3.951   8.614
 2878SOL    HW1 9377   0.601   3.873   8.652
 2878SOL    HW2 9378   0.468   3.945   8.642
 2879SOL     OW 9379   0.869   4.190   8.084
 2879SOL    HW1 9380   0.837   4.250   8.017
 2879SOL    HW2 9381   0.888   4.109   8.036
 2880SOL     OW 9382   1.015   3.778   8.198
 2880SOL    HW1 9383   0.957   3.770   8.122
 2880SOL    HW2 9384   0.993   3.702   8.253
 2881SOL     OW 9385   1.478   4.309   8.409
 2881SOL    HW1 9386   1.414   4.241   8.429
 2881SOL    HW2 9387   1.527   4.320   8.490
 2882SOL     OW 9388   1.404   4.296   7.521
 2882SOL    HW1 9389   1.341   4.267   7.587
 2882SOL    HW2 9390   1.487   4.255   7.547
 2883SOL     OW 9391   0.525   3.985   7.761
 2883SOL    HW1 9392   0.571   3.938   7.692
 2883SOL    HW2 9393   0.510   4.073   7.725
 2884SOL     OW 9394   0.917   3.822   8.842
 2884SOL    HW1 9395   0.941   3.800   8.752
 2884SOL    HW2 9396   0.997   3.859   8.880
 2885SOL     OW 9397   0.446   0.004   8.715
 2885SOL    HW1 9398   0.502   4.497   8.793
 2885SOL    HW2 9399   0.409   4.416   8.705
 2886SOL     OW 9400   1.265   4.099   8.725
 2886SOL    HW1 9401   1.298   4.177   8.770
 2886SOL    HW2 9402   1.176   4.123   8.699
 2887SOL     OW 9403   0.554   4.250   8.312
 2887SOL    HW1 9404   0.573   4.286   8.225
 2887SOL    HW2 9405   0.621   4.289   8.369
 2888SOL     OW 9406   1.566   4.336   7.929
 2888SOL    HW1 9407   1.543   4.402   7.994
 2888SOL    HW2 9408   1.627   4.380   7.870
 2889SOL     OW 9409   0.996   3.851   9.202
 2889SOL    HW1 9410   1.054   3.923   9.179
 2889SOL    HW2 9411   1.043   3.772   9.177
 2890SOL     OW 9412   0.496   3.766   9.196
 2890SOL    HW1 9413   0.454   3.710   9.132
 2890SOL    HW2 9414   0.438   3.841   9.205
 2891SOL     OW 9415   1.209   4.252   7.709
 2891SOL    HW1 9416   1.219   4.173   7.762
 2891SOL    HW2 9417   1.160   4.313   7.766
 2892SOL     OW 9418   0.298   3.921   8.692
 2892SOL    HW1 9419   0.257   3.949   8.774
 2892SOL    HW2 9420   0.286   3.826   8.690
 2893SOL     OW 9421   0.735   4.360   8.489
 2893SOL    HW1 9422   0.808   4.321   8.441
 2893SOL    HW2 9423   0.747   4.454   8.480
 2894SOL     OW 9424   1.753   0.130   9.300
 2894SOL    HW1 9425   1.684   0.148   9.236
 2894SOL    HW2 9426   1.713   0.151   9.384
 2895SOL     OW 9427   0.313   3.792   8.066
 2895SOL    HW1 9428   0.287   3.881   8.092
 2895SOL    HW2 9429   0.311   3.742   8.147
 2896SOL     OW 9430   1.615   4.091   7.815
 2896SOL    HW1 9431   1.645   4.030   7.882
 2896SOL    HW2 9432   1.589   4.169   7.863
 2897SOL     OW 9433   1.525   3.999   7.574
 2897SOL    HW1 9434   1.462   3.932   7.600
 2897SOL    HW2 9435   1.561   4.031   7.657
 2898SOL     OW 9436   0.321   0.013   8.357
 2898SOL    HW1 9437   0.400   0.066   8.366
 2898SOL    HW2 9438   0.337   4.436   8.412
 2899SOL     OW 9439   0.332   4.236   8.460
 2899SOL    HW1 9440   0.288   4.154   8.437
 2899SOL    HW2 9441   0.407   4.241   8.401
 2900SOL     OW 9442   1.137   4.091   9.135
 2900SOL    HW1 9443   1.084   4.150   9.188
 2900SOL    HW2 9444   1.222   4.136   9.127
 2901SOL     OW 9445   1.160   3.925   8.917
 2901SOL    HW1 9446   1.150   3.986   8.990
 2901SOL    HW2 9447   1.202   3.977   8.848
 2902SOL     OW 9448   0.019   4.274   8.548
 2902SOL    HW1 9449   0.109   4.264   8.516
 2902SOL    HW2 9450   0.021   4.236   8.636
 2903SOL     OW 9451   0.173   4.236   9.136
 2903SOL    HW1 9452   0.264   4.220   9.110
 2903SOL    HW2 9453   0.150   4.318   9.093
 2904SOL     OW 9454   0.820   4.280   7.802
 2904SOL    HW1 9455   0.823   4.207   7.740
 2904SOL    HW2 9456   0.731   4.315   7.793
 2905SOL     OW 9457   1.635   4.316   8.632
 2905SOL    HW1 9458   1.631   4.259   8.709
 2905SOL    HW2 9459   1.723   4.305   8.598
 2906SOL     OW 9460   0.673   4.189   8.702
 2906SOL    HW1 9461   0.636   4.107   8.669
 2906SOL    HW2 9462   0.684   4.244   8.625
 2907SOL     OW 9463   0.484   4.225   7.634
 2907SOL    HW1 9464   0.510   4.309   7.671
 2907SOL    HW2 9465   0.391   4.235   7.614
 2908SOL     OW 9466   1.722   3.872   7.959
 2908SOL    HW1 9467   1.793   3.857   7.896
 2908SOL    HW2 9468   1.705   3.786   7.997
 2909SOL     OW 9469   1.279   0.136   8.127
 2909SOL    HW1 9470   1.337   0.061   8.143
 2909SOL    HW2 9471   1.330   0.193   8.070
 2910SOL     OW 9472   1.840   3.895   8.415
 2910SOL    HW1 9473   1.868   3.808   8.388
 2910SOL    HW2 9474   1.754   3.906   8.374
 2911SOL     OW 9475   0.268   4.040   8.168
 2911SOL    HW1 9476   0.190   4.088   8.140
 2911SOL    HW2 9477   0.255   4.027   8.262
 2912SOL     OW 9478   0.903   0.090   7.659
 2912SOL    HW1 9479   0.984   0.128   7.626
 2912SOL    HW2 9480   0.925   0.056   7.745
 2913SOL     OW 9481   1.065   0.294   8.195
 2913SOL    HW1 9482   0.994   0.288   8.131
 2913SOL    HW2 9483   1.131   0.231   8.164
 2914SOL     OW 9484   1.021   3.964   8.412
 2914SOL    HW1 9485   1.017   3.915   8.330
 2914SOL    HW2 9486   1.016   3.897   8.480
 2915SOL     OW 9487   1.723   4.114   8.828
 2915SOL    HW1 9488   1.794   4.178   8.826
 2915SOL    HW2 9489   1.753   4.044   8.771
 2916SOL     OW 9490   0.675   3.923   8.947
 2916SOL    HW1 9491   0.759   3.900   8.906
 2916SOL    HW2 9492   0.698   3.953   9.035
 2917SOL     OW 9493   0.066   4.045   7.488
 2917SOL    HW1 9494   4.474   4.067   7.476
 2917SOL    HW2 9495   0.112   4.129   7.483
 2918SOL     OW 9496   0.087   3.901   7.751
 2918SOL    HW1 9497   0.076   3.967   7.684
 2918SOL    HW2 9498   0.162   3.849   7.721
 2919SOL     OW 9499   0.726   4.279   9.145
 2919SOL    HW1 9500   0.726   4.327   9.227
 2919SOL    HW2 9501   0.745   4.189   9.170
 2920SOL     OW 9502   1.218   4.042   7.902
 2920SOL    HW1 9503   1.279   3.969   7.895
 2920SOL    HW2 9504   1.246   4.090   7.979
 2921SOL     OW 9505   1.757   4.092   9.098
 2921SOL    HW1 9506   1.742   4.103   9.004
 2921SOL    HW2 9507   1.687   4.033   9.127
 2922SOL     OW 9508   1.112   0.225   7.549
 2922SOL    HW1 9509   1.103   0.268   7.465
 2922SOL    HW2 9510   1.200   0.186   7.547
 2923SOL     OW 9511   1.814   3.907   8.685
 2923SOL    HW1 9512   1.821   3.813   8.699
 2923SOL    HW2 9513   1.822   3.918   8.591
 2924SOL     OW 9514   0.449   4.157   7.981
 2924SOL    HW1 9515   0.466   4.081   7.925
 2924SOL    HW2 9516   0.392   4.123   8.050
 2925SOL     OW 9517   0.322   4.262   8.726
 2925SOL    HW1 9518   0.375   4.194   8.768
 2925SOL    HW2 9519   0.330   4.244   8.633
 2926SOL     OW 9520   1.431   3.949   8.565
 2926SOL    HW1 9521   1.453   3.868   8.610
 2926SOL    HW2 9522   1.380   3.999   8.629
 2927SOL     OW 9523   1.009   3.742   8.589
 2927SOL    HW1 9524   0.954   3.675   8.548
 2927SOL    HW2 9525   1.097   3.704   8.591
 2928SOL     OW 9526   1.353   3.777   7.614
 2928SOL    HW1 9527   1.383   3.710   7.552
 2928SOL    HW2 9528   1.266   3.749   7.639
 2929SOL     OW 9529   1.299   4.174   8.128
 2929SOL    HW1 9530   1.266   4.263   8.142
 2929SOL    HW2 9531   1.298   4.134   8.215
 2930SOL     OW 9532   1.586   3.924   8.327
 2930SOL    HW1 9533   1.527   3.947   8.399
 2930SOL    HW2 9534   1.586   4.002   8.271
 2931SOL     OW 9535   0.225   4.275   9.419
 2931SOL    HW1 9536   0.162   4.305   9.484
 2931SOL    HW2 9537   0.211   4.332   9.344
 2932SOL     OW 9538   0.211   3.993  10.300
 2932SOL    HW1 9539   0.245   3.968  10.385
 2932SOL    HW2 9540   0.133   3.938  10.288
 2933SOL     OW 9541   4.498   4.102   9.940
 2933SOL    HW1 9542   4.414   4.131   9.978
 2933SOL    HW2 9543   4.478   4.019   9.899
 2934SOL     OW 9544   1.726   4.335   9.549
 2934SOL    HW1 9545   1.728   4.324   9.454
 2934SOL    HW2 9546   1.730   4.246   9.583
 2935SOL     OW 9547   0.730   0.274   9.995
 2935SOL    HW1 9548   0.717   0.211  10.065
 2935SOL    HW2 9549   0.642   0.290   9.960
 2936SOL     OW 9550   0.448   4.122  10.785
 2936SOL    HW1 9551   0.528   4.069  10.793
 2936SOL    HW2 9552   0.378   4.064  10.813
 2937SOL     OW 9553   1.614   4.171  10.051
 2937SOL    HW1 9554   1.549   4.196   9.986
 2937SOL    HW2 9555   1.607   4.237  10.119
 2938SOL     OW 9556   1.589   3.841  10.777
 2938SOL    HW1 9557   1.609   3.922  10.729
 2938SOL    HW2 9558   1.592   3.867  10.869
 2939SOL     OW 9559   0.160   4.323   9.947
 2939SOL    HW1 9560   0.100   4.249   9.933
 2939SOL    HW2 9561   0.116   4.397   9.906
 2940SOL     OW 9562   0.102   4.496  10.932
 2940SOL    HW1 9563   0.196   4.479  10.942
 2940SOL    HW2 9564   0.097   0.082  10.890
 2941SOL     OW 9565   0.818   3.725   9.821
 2941SOL    HW1 9566   0.858   3.810   9.800
 2941SOL    HW2 9567   0.725   3.744   9.828
 2942SOL     OW 9568   0.341   3.985   0.009
 2942SOL    HW1 9569   0.384   4.066   0.038
 2942SOL    HW2 9570   0.247   4.005   0.013
 2943SOL     OW 9571   1.277   4.076  10.244
 2943SOL    HW1 9572   1.188   4.043  10.253
 2943SOL    HW2 9573   1.329   4.022  10.303
 2944SOL     OW 9574   0.826   4.297  10.760
 2944SOL    HW1 9575   0.780   4.309  10.843
 2944SOL    HW2 9576   0.760   4.262  10.701
 2945SOL     OW 9577   0.999   4.153  10.544
 2945SOL    HW1 9578   0.926   4.175  10.602
 2945SOL    HW2 9579   0.960   4.096  10.478
 2946SOL     OW 9580   1.056   4.411   9.724
 2946SOL    HW1 9581   1.051   4.456   9.809
 2946SOL    HW2 9582   0.970   4.370   9.714
 2947SOL     OW 9583   0.058   0.076  10.164
 2947SOL    HW1 9584   0.141   0.031  10.175
 2947SOL    HW2 9585   0.048   0.088  10.070
 2948SOL     OW 9586   0.894   4.065   9.499
 2948SOL    HW1 9587   0.935   4.128   9.440
 2948SOL    HW2 9588   0.910   3.980   9.458
 2949SOL     OW 9589   0.553   3.903  10.204
 2949SOL    HW1 9590   0.554   3.934  10.294
 2949SOL    HW2 9591   0.549   3.983  10.151
 2950SOL     OW 9592   1.492   4.468  10.049
 2950SOL    HW1 9593   1.477   4.412  10.125
 2950SOL    HW2 9594   1.532   0.047  10.085
 2951SOL     OW 9595   0.191   4.000  10.796
 2951SOL    HW1 9596   0.145   4.084  10.804
 2951SOL    HW2 9597   0.182   3.960  10.883
 2952SOL     OW 9598   1.401   3.830   9.744
 2952SOL    HW1 9599   1.392   3.805   9.652
 2952SOL    HW2 9600   1.495   3.839   9.758
 2953SOL     OW 9601   0.346   4.381   9.711
 2953SOL    HW1 9602   0.389   4.305   9.751
 2953SOL    HW2 9603   0.302   4.425   9.784
 2954SOL     OW 9604   0.638   3.847   9.411
 2954SOL    HW1 9605   0.701   3.777   9.429
 2954SOL    HW2 9606   0.588   3.814   9.337
 2955SOL     OW 9607   0.768   4.005  11.046
 2955SOL    HW1 9608   0.834   3.944  11.081
 2955SOL    HW2 9609   0.704   4.014   0.016
 2956SOL     OW 9610   1.351   4.310  10.743
 2956SOL    HW1 9611   1.367   4.293  10.836
 2956SOL    HW2 9612   1.380   4.400  10.729
 2957SOL     OW 9613   0.926   4.235  10.206
 2957SOL    HW1 9614   0.902   4.219  10.115
 2957SOL    HW2 9615   0.964   4.152  10.236
 2958SOL     OW 9616   0.554   3.787   9.809
 2958SOL    HW1 9617   0.474   3.784   9.860
 2958SOL    HW2 9618   0.545   3.864   9.753
 2959SOL     OW 9619   0.294   3.769   9.487
 2959SOL    HW1 9620   0.356   3.836   9.458
 2959SOL    HW2 9621   0.348   3.704   9.532
 2960SOL     OW 9622   0.939   3.973   9.769
 2960SOL    HW1 9623   0.914   4.010   9.684
 2960SOL    HW2 9624   1.034   3.987   9.774
 2961SOL     OW 9625   1.078   4.369  10.836
 2961SOL    HW1 9626   0.991   4.361  10.798
 2961SOL    HW2 9627   1.138   4.349  10.764
 2962SOL     OW 9628   1.025   4.263   9.338
 2962SOL    HW1 9629   1.010   4.351   9.304
 2962SOL    HW2 9630   1.089   4.276   9.409
 2963SOL     OW 9631   0.087   4.253  10.724
 2963SOL    HW1 9632   0.158   4.261  10.661
 2963SOL    HW2 9633   0.051   4.341  10.731
 2964SOL     OW 9634   0.558   3.950  10.476
 2964SOL    HW1 9635   0.600   3.874  10.515
 2964SOL    HW2 9636   0.467   3.945  10.504
 2965SOL     OW 9637   0.870   4.190   9.946
 2965SOL    HW1 9638   0.837   4.250   9.879
 2965SOL    HW2 9639   0.888   4.109   9.898
 2966SOL     OW 9640   1.015   3.778  10.060
 2966SOL    HW1 9641   0.957   3.770   9.984
 2966SOL    HW2 9642   0.993   3.702  10.115
 2967SOL     OW 9643   1.478   4.309  10.271
 2967SOL    HW1 9644   1.415   4.240  10.290
 2967SOL    HW2 9645   1.527   4.320  10.352
 2968SOL     OW 9646   1.404   4.296   9.383
 2968SOL    HW1 9647   1.341   4.267   9.449
 2968SOL    HW2 9648   1.487   4.255   9.409
 2969SOL     OW 9649   0.524   3.985   9.623
 2969SOL    HW1 9650   0.571   3.938   9.553
 2969SOL    HW2 9651   0.510   4.073   9.587
 2970SOL     OW 9652   0.918   3.823  10.702
 2970SOL    HW1 9653   0.943   3.802  10.612
 2970SOL    HW2 9654   0.997   3.863  10.740
 2971SOL     OW 9655   0.446   4.496  10.563
 2971SOL    HW1 9656   0.498   4.498  10.644
 2971SOL    HW2 9657   0.397   4.414  10.569
 2972SOL     OW 9658   1.266   4.098  10.589
 2972SOL    HW1 9659   1.302   4.175  10.633
 2972SOL    HW2 9660   1.177   4.124  10.563
 2973SOL     OW 9661   0.560   4.246  10.170
 2973SOL    HW1 9662   0.577   4.287  10.086
 2973SOL    HW2 9663   0.622   4.286  10.230
 2974SOL     OW 9664   1.566   4.336   9.791
 2974SOL    HW1 9665   1.543   4.402   9.856
 2974SOL    HW2 9666   1.627   4.380   9.732
 2975SOL     OW 9667   0.495   0.003  11.006
 2975SOL    HW1 9668   0.483   0.054  10.926
 2975SOL    HW2 9669   0.497   4.412  10.977
 2976SOL     OW 9670   1.208   4.252   9.571
 2976SOL    HW1 9671   1.219   4.173   9.624
 2976SOL    HW2 9672   1.160   4.313   9.628
 2977SOL     OW 9673   0.298   3.920  10.554
 2977SOL    HW1 9674   0.261   3.950  10.637
 2977SOL    HW2 9675   0.284   3.825  10.554
 2978SOL     OW 9676   0.734   4.359  10.350
 2978SOL    HW1 9677   0.808   4.323  10.302
 2978SOL    HW2 9678   0.745   4.454  10.342
 2979SOL     OW 9679   0.313   3.792   9.928
 2979SOL    HW1 9680   0.287   3.881   9.953
 2979SOL    HW2 9681   0.311   3.742  10.009
 2980SOL     OW 9682   1.615   4.091   9.677
 2980SOL    HW1 9683   1.645   4.030   9.744
 2980SOL    HW2 9684   1.589   4.169   9.725
 2981SOL     OW 9685   1.525   3.999   9.436
 2981SOL    HW1 9686   1.462   3.932   9.462
 2981SOL    HW2 9687   1.561   4.031   9.519
 2982SOL     OW 9688   0.320   0.013  10.219
 2982SOL    HW1 9689   0.399   0.066  10.230
 2982SOL    HW2 9690   0.336   4.435  10.273
 2983SOL     OW 9691   0.332   4.238  10.309
 2983SOL    HW1 9692   0.289   4.155  10.288
 2983SOL    HW2 9693   0.409   4.240  10.252
 2984SOL     OW 9694   1.157   3.930  10.782
 2984SOL    HW1 9695   1.166   3.989  10.857
 2984SOL    HW2 9696   1.199   3.977  10.710
 2985SOL     OW 9697   0.019   4.272  10.408
 2985SOL    HW1 9698   0.110   4.268  10.376
 2985SOL    HW2 9699   0.023   4.235  10.496
 2986SOL     OW 9700   1.342   0.203  10.981
 2986SOL    HW1 9701   1.415   0.253  11.018
 2986SOL    HW2 9702   1.379   0.158  10.906
 2987SOL     OW 9703   0.820   4.280   9.664
 2987SOL    HW1 9704   0.823   4.207   9.602
 2987SOL    HW2 9705   0.732   4.316   9.655
 2988SOL     OW 9706   1.635   4.315  10.494
 2988SOL    HW1 9707   1.632   4.257  10.570
 2988SOL    HW2 9708   1.724   4.306  10.460
 2989SOL     OW 9709   0.682   4.185  10.562
 2989SOL    HW1 9710   0.638   4.106  10.530
 2989SOL    HW2 9711   0.685   4.243  10.487
 2990SOL     OW 9712   0.484   4.224   9.496
 2990SOL    HW1 9713   0.510   4.309   9.533
 2990SOL    HW2 9714   0.391   4.235   9.476
 2991SOL     OW 9715   1.722   3.872   9.821
 2991SOL    HW1 9716   1.793   3.857   9.758
 2991SOL    HW2 9717   1.705   3.786   9.859
 2992SOL     OW 9718   1.279   0.136   9.989
 2992SOL    HW1 9719   1.337   0.061  10.005
 2992SOL    HW2 9720   1.330   0.193   9.932
 2993SOL     OW 9721   1.840   3.896  10.277
 2993SOL    HW1 9722   1.868   3.808  10.250
 2993SOL    HW2 9723   1.754   3.906  10.236
 2994SOL     OW 9724   0.268   4.040  10.029
 2994SOL    HW1 9725   0.190   4.089  10.002
 2994SOL    HW2 9726   0.255   4.026  10.123
 2995SOL     OW 9727   0.902   0.090   9.521
 2995SOL    HW1 9728   0.984   0.128   9.488
 2995SOL    HW2 9729   0.924   0.056   9.607
 2996SOL     OW 9730   1.065   0.294  10.056
 2996SOL    HW1 9731   0.994   0.287   9.993
 2996SOL    HW2 9732   1.131   0.231  10.026
 2997SOL     OW 9733   1.021   3.964  10.275
 2997SOL    HW1 9734   1.017   3.916  10.192
 2997SOL    HW2 9735   1.016   3.897  10.342
 2998SOL     OW 9736   1.718   4.115  10.692
 2998SOL    HW1 9737   1.790   4.178  10.695
 2998SOL    HW2 9738   1.749   4.046  10.635
 2999SOL     OW 9739   0.675   3.919  10.802
 2999SOL    HW1 9740   0.757   3.897  10.758
 2999SOL    HW2 9741   0.703   3.957  10.886
 3000SOL     OW 9742   0.066   4.045   9.350
 3000SOL    HW1 9743   4.474   4.067   9.338
 3000SOL    HW2 9744   0.112   4.129   9.345
 3001SOL     OW 9745   0.087   3.900   9.613
 3001SOL    HW1 9746   0.076   3.967   9.546
 3001SOL    HW2 9747   0.162   3.849   9.583
 3002SOL     OW 9748   0.723   4.290  11.019
 3002SOL    HW1 9749   0.763   4.342  11.088
 3002SOL    HW2 9750   0.762   4.203  11.028
 3003SOL     OW 9751   1.218   4.042   9.764
 3003SOL    HW1 9752   1.280   3.969   9.757
 3003SOL    HW2 9753   1.246   4.090   9.841
 3004SOL     OW 9754   1.751   4.052  10.960
 3004SOL    HW1 9755   1.729   4.082  10.872
 3004SOL    HW2 9756   1.669   4.060  11.009
 3005SOL     OW 9757   1.112   0.225   9.411
 3005SOL    HW1 9758   1.104   0.268   9.327
 3005SOL    HW2 9759   1.200   0.186   9.409
 3006SOL     OW 9760   1.808   3.907  10.548
 3006SOL    HW1 9761   1.819   3.813  10.560
 3006SOL    HW2 9762   1.819   3.920  10.454
 3007SOL     OW 9763   0.449   4.157   9.842
 3007SOL    HW1 9764   0.466   4.081   9.787
 3007SOL    HW2 9765   0.392   4.123   9.912
 3008SOL     OW 9766   0.312   4.244  10.573
 3008SOL    HW1 9767   0.371   4.181  10.615
 3008SOL    HW2 9768   0.330   4.234  10.479
 3009SOL     OW 9769   1.431   3.948  10.427
 3009SOL    HW1 9770   1.457   3.869  10.473
 3009SOL    HW2 9771   1.381   3.998  10.492
 3010SOL     OW 9772   1.009   3.742  10.451
 3010SOL    HW1 9773   0.955   3.676  10.408
 3010SOL    HW2 9774   1.096   3.704  10.453
 3011SOL     OW 9775   1.353   3.777   9.476
 3011SOL    HW1 9776   1.383   3.710   9.414
 3011SOL    HW2 9777   1.265   3.749   9.501
 3012SOL     OW 9778   1.299   4.174   9.990
 3012SOL    HW1 9779   1.266   4.263  10.004
 3012SOL    HW2 9780   1.297   4.135  10.077
 3013SOL     OW 9781   1.585   3.924  10.188
 3013SOL    HW1 9782   1.527   3.947  10.261
 3013SOL    HW2 9783   1.586   4.002  10.133
 3014SOL     OW 9784   2.080   0.609   0.112
 3014SOL    HW1 9785   1.998   0.619   0.160
 3014SOL    HW2 9786   2.064   0.652   0.028
 3015SOL     OW 9787   2.069   0.301   0.990
 3015SOL    HW1 9788   2.100   0.270   1.075
 3015SOL    HW2 9789   1.987   0.253   0.976
 3016SOL     OW 9790   1.868   0.388   0.636
 3016SOL    HW1 9791   1.782   0.407   0.674
 3016SOL    HW2 9792   1.852   0.313   0.578
 3017SOL     OW 9793   2.430   1.290   1.177
 3017SOL    HW1 9794   2.342   1.294   1.138
 3017SOL    HW2 9795   2.445   1.379   1.210
 3018SOL     OW 9796   3.426   1.512   0.708
 3018SOL    HW1 9797   3.383   1.490   0.790
 3018SOL    HW2 9798   3.354   1.515   0.644
 3019SOL     OW 9799   2.999   0.698   0.696
 3019SOL    HW1 9800   3.044   0.782   0.688
 3019SOL    HW2 9801   2.947   0.706   0.776
 3020SOL     OW 9802   3.641   0.600   0.213
 3020SOL    HW1 9803   3.580   0.612   0.140
 3020SOL    HW2 9804   3.602   0.531   0.266
 3021SOL     OW 9805   2.616   1.141   1.043
 3021SOL    HW1 9806   2.547   1.177   1.100
 3021SOL    HW2 9807   2.652   1.218   0.999
 3022SOL     OW 9808   2.731   0.771   1.823
 3022SOL    HW1 9809   2.717   0.841   1.886
 3022SOL    HW2 9810   2.754   0.816   1.741
 3023SOL     OW 9811   2.548   1.001   0.646
 3023SOL    HW1 9812   2.614   0.990   0.715
 3023SOL    HW2 9813   2.479   1.053   0.686
 3024SOL     OW 9814   2.574   1.150   1.814
 3024SOL    HW1 9815   2.621   1.229   1.842
 3024SOL    HW2 9816   2.492   1.184   1.778
 3025SOL     OW 9817   2.193   1.422   1.069
 3025SOL    HW1 9818   2.118   1.385   1.021
 3025SOL    HW2 9819   2.241   1.473   1.003
 3026SOL     OW 9820   3.322   1.500   1.357
 3026SOL    HW1 9821   3.374   1.580   1.366
 3026SOL    HW2 9822   3.257   1.505   1.427
 3027SOL     OW 9823   2.305   0.394   1.486
 3027SOL    HW1 9824   2.387   0.345   1.489
 3027SOL    HW2 9825   2.237   0.328   1.501
 3028SOL     OW 9826   3.471   0.444   0.739
 3028SOL    HW1 9827   3.388   0.462   0.693
 3028SOL    HW2 9828   3.486   0.522   0.792
 3029SOL     OW 9829   2.082   1.717   0.474
 3029SOL    HW1 9830   2.122   1.752   0.554
 3029SOL    HW2 9831   2.155   1.707   0.413
 3030SOL     OW 9832   2.999   1.342   1.693
 3030SOL    HW1 9833   3.039   1.337   1.780
 3030SOL    HW2 9834   2.947   1.262   1.686
 3031SOL     OW 9835   2.085   1.442   0.534
 3031SOL    HW1 9836   2.062   1.534   0.541
 3031SOL    HW2 9837   2.029   1.398   0.598
 3032SOL     OW 9838   2.123   1.091   0.892
 3032SOL    HW1 9839   2.118   1.004   0.931
 3032SOL    HW2 9840   2.064   1.145   0.945
 3033SOL     OW 9841   2.469   1.791   1.424
 3033SOL    HW1 9842   2.388   1.773   1.473
 3033SOL    HW2 9843   2.493   1.880   1.450
 3034SOL     OW 9844   2.443   0.990   0.144
 3034SOL    HW1 9845   2.486   1.042   0.077
 3034SOL    HW2 9846   2.485   1.017   0.226
 3035SOL     OW 9847   3.442   0.117   1.469
 3035SOL    HW1 9848   3.471   0.184   1.408
 3035SOL    HW2 9849   3.431   0.162   1.552
 3036SOL     OW 9850   1.979   0.654   0.560
 3036SOL    HW1 9851   1.948   0.566   0.582
 3036SOL    HW2 9852   1.970   0.703   0.641
 3037SOL     OW 9853   3.705   1.758   0.332
 3037SOL    HW1 9854   3.770   1.729   0.395
 3037SOL    HW2 9855   3.728   1.849   0.314
 3038SOL     OW 9856   1.895   1.599   0.118
 3038SOL    HW1 9857   1.879   1.507   0.138
 3038SOL    HW2 9858   1.870   1.645   0.198
 3039SOL     OW 9859   3.552   0.919   0.643
 3039SOL    HW1 9860   3.635   0.878   0.622
 3039SOL    HW2 9861   3.530   0.971   0.566
 3040SOL     OW 9862   3.509   1.104   0.431
 3040SOL    HW1 9863   3.592   1.114   0.384
 3040SOL    HW2 9864   3.515   1.167   0.503
 3041SOL     OW 9865   1.984   0.746   1.583
 3041SOL    HW1 9866   2.075   0.774   1.590
 3041SOL    HW2 9867   1.933   0.827   1.590
 3042SOL     OW 9868   2.478   1.387   0.735
 3042SOL    HW1 9869   2.432   1.304   0.745
 3042SOL    HW2 9870   2.460   1.414   0.644
 3043SOL     OW 9871   3.150   1.238   1.422
 3043SOL    HW1 9872   3.181   1.170   1.362
 3043SOL    HW2 9873   3.208   1.232   1.498
 3044SOL     OW 9874   2.681   0.012   0.554
 3044SOL    HW1 9875   2.720   0.089   0.512
 3044SOL    HW2 9876   2.587   0.026   0.547
 3045SOL     OW 9877   2.051   0.964   1.275
 3045SOL    HW1 9878   2.136   0.923   1.259
 3045SOL    HW2 9879   1.990   0.913   1.221
 3046SOL     OW 9880   3.376   1.004   0.205
 3046SOL    HW1 9881   3.312   0.943   0.242
 3046SOL    HW2 9882   3.427   1.033   0.280
 3047SOL     OW 9883   3.050   1.807   1.622
 3047SOL    HW1 9884   3.058   1.865   1.546
 3047SOL    HW2 9885   3.065   1.719   1.587
 3048SOL     OW 9886   2.177   0.253   1.779
 3048SOL    HW1 9887   2.241   0.317   1.812
 3048SOL    HW2 9888   2.104   0.259   1.840
 3049SOL     OW 9889   3.329   1.419   0.950
 3049SOL    HW1 9890   3.261   1.435   1.016
 3049SOL    HW2 9891   3.316   1.328   0.923
 3050SOL     OW 9892   3.518   1.744   0.579
 3050SOL    HW1 9893   3.500   1.714   0.490
 3050SOL    HW2 9894   3.495   1.670   0.635
 3051SOL     OW 9895   2.452   0.717   0.263
 3051SOL    HW1 9896   2.460   0.801   0.219
 3051SOL    HW2 9897   2.390   0.733   0.334
 3052SOL     OW 9898   3.151   0.366   0.934
 3052SOL    HW1 9899   3.061   0.336   0.924
 3052SOL    HW2 9900   3.191   0.303   0.994
 3053SOL     OW 9901   3.444   1.671   0.313
 3053SOL    HW1 9902   3.535   1.699   0.305
 3053SOL    HW2 9903   3.416   1.653   0.223
 3054SOL     OW 9904   2.657   0.620   1.454
 3054SOL    HW1 9905   2.629   0.594   1.541
 3054SOL    HW2 9906   2.620   0.554   1.395
 3055SOL     OW 9907   3.250   0.481   1.676
 3055SOL    HW1 9908   3.254   0.525   1.761
 3055SOL    HW2 9909   3.316   0.412   1.682
 3056SOL     OW 9910   2.816   0.887   1.584
 3056SOL    HW1 9911   2.869   0.817   1.548
 3056SOL    HW2 9912   2.767   0.921   1.509
 3057SOL     OW 9913   2.859   0.417   1.234
 3057SOL    HW1 9914   2.770   0.425   1.269
 3057SOL    HW2 9915   2.849   0.367   1.153
 3058SOL     OW 9916   2.912   0.701   0.427
 3058SOL    HW1 9917   2.931   0.692   0.520
 3058SOL    HW2 9918   2.829   0.655   0.415
 3059SOL     OW 9919   1.951   0.822   0.776
 3059SOL    HW1 9920   2.031   0.815   0.828
 3059SOL    HW2 9921   1.906   0.898   0.811
 3060SOL     OW 9922   1.978   1.805   1.574
 3060SOL    HW1 9923   1.972   1.799   1.670
 3060SOL    HW2 9924   1.912   1.869   1.550
 3061SOL     OW 9925   2.736   0.362   0.197
 3061SOL    HW1 9926   2.791   0.417   0.142
 3061SOL    HW2 9927   2.773   0.274   0.190
 3062SOL     OW 9928   3.565   0.572   1.828
 3062SOL    HW1 9929   3.530   0.646   1.780
 3062SOL    HW2 9930   3.601   0.514   1.761
 3063SOL     OW 9931   3.241   1.142   0.541
 3063SOL    HW1 9932   3.319   1.129   0.487
 3063SOL    HW2 9933   3.187   1.204   0.491
 3064SOL     OW 9934   2.400   0.206   0.901
 3064SOL    HW1 9935   2.421   0.224   0.992
 3064SOL    HW2 9936   2.393   0.292   0.860
 3065SOL     OW 9937   2.865   1.443   0.473
 3065SOL    HW1 9938   2.830   1.517   0.423
 3065SOL    HW2 9939   2.845   1.464   0.564
 3066SOL     OW 9940   2.215   1.794   0.835
 3066SOL    HW1 9941   2.262   1.714   0.857
 3066SOL    HW2 9942   2.278   1.864   0.854
 3067SOL     OW 9943   3.661   1.057   0.870
 3067SOL    HW1 9944   3.607   1.038   0.793
 3067SOL    HW2 9945   3.598   1.062   0.942
 3068SOL     OW 9946   3.090   1.539   1.513
 3068SOL    HW1 9947   3.076   1.466   1.574
 3068SOL    HW2 9948   3.025   1.524   1.444
 3069SOL     OW 9949   2.176   0.959   0.277
 3069SOL    HW1 9950   2.255   0.984   0.228
 3069SOL    HW2 9951   2.150   0.875   0.241
 3070SOL     OW 9952   3.343   0.742   0.722
 3070SOL    HW1 9953   3.333   0.702   0.808
 3070SOL    HW2 9954   3.419   0.799   0.731
 3071SOL     OW 9955   2.329   1.265   1.739
 3071SOL    HW1 9956   2.303   1.269   1.647
 3071SOL    HW2 9957   2.247   1.262   1.788
 3072SOL     OW 9958   2.968   1.781   0.226
 3072SOL    HW1 9959   2.908   1.730   0.280
 3072SOL    HW2 9960   3.011   1.716   0.170
 3073SOL     OW 9961   2.049   0.268   1.514
 3073SOL    HW1 9962   1.983   0.336   1.501
 3073SOL    HW2 9963   2.068   0.270   1.608
 3074SOL     OW 9964   3.490   1.374   0.089
 3074SOL    HW1 9965   3.447   1.459   0.078
 3074SOL    HW2 9966   3.424   1.310   0.060
 3075SOL     OW 9967   2.335   1.733   0.338
 3075SOL    HW1 9968   2.375   1.802   0.392
 3075SOL    HW2 9969   2.405   1.706   0.279
 3076SOL     OW 9970   3.285   0.142   0.425
 3076SOL    HW1 9971   3.265   0.105   0.339
 3076SOL    HW2 9972   3.380   0.135   0.433
 3077SOL     OW 9973   2.107   1.756   1.222
 3077SOL    HW1 9974   2.166   1.693   1.262
 3077SOL    HW2 9975   2.114   1.738   1.128
 3078SOL     OW 9976   2.803   1.697   0.898
 3078SOL    HW1 9977   2.880   1.646   0.919
 3078SOL    HW2 9978   2.759   1.648   0.828
 3079SOL     OW 9979   2.255   0.692   0.472
 3079SOL    HW1 9980   2.277   0.600   0.488
 3079SOL    HW2 9981   2.163   0.699   0.494
 3080SOL     OW 9982   3.386   0.233   1.723
 3080SOL    HW1 9983   3.386   0.255   1.816
 3080SOL    HW2 9984   3.307   0.181   1.711
 3081SOL     OW 9985   2.463   0.091   0.125
 3081SOL    HW1 9986   2.558   0.078   0.131
 3081SOL    HW2 9987   2.447   0.102   0.031
 3082SOL     OW 9988   2.630   0.271   1.755
 3082SOL    HW1 9989   2.697   0.203   1.759
 3082SOL    HW2 9990   2.589   0.270   1.842
 3083SOL     OW 9991   2.740   1.523   1.193
 3083SOL    HW1 9992   2.722   1.486   1.107
 3083SOL    HW2 9993   2.809   1.468   1.230
 3084SOL     OW 9994   3.202   0.589   1.428
 3084SOL    HW1 9995   3.230   0.561   1.515
 3084SOL    HW2 9996   3.237   0.678   1.420
 3085SOL     OW 9997   2.679   1.394   0.942
 3085SOL    HW1 9998   2.763   1.381   0.898
 3085SOL    HW2 9999   2.615   1.396   0.871
 3086SOL     OW10000   2.788   0.520   0.898
 3086SOL    HW110001   2.771   0.520   0.804
 3086SOL    HW210002   2.823   0.432   0.915
 3087SOL     OW10003   2.419   0.077   0.526
 3087SOL    HW110004   2.331   0.050   0.553
 3087SOL    HW210005   2.404   0.139   0.454
 3088SOL     OW10006   3.286   1.197   0.029
 3088SOL    HW110007   3.316   1.125   0.084
 3088SOL    HW210008   3.203   1.224   0.067
 3089SOL     OW10009   2.146   0.053   0.201
 3089SOL    HW110010   2.218   0.099   0.157
 3089SOL    HW210011   2.189   0.004   0.270
 3090SOL     OW10012   2.816   0.225   0.442
 3090SOL    HW110013   2.767   0.293   0.396
 3090SOL    HW210014   2.904   0.260   0.450
 3091SOL     OW10015   2.942   0.682   1.460
 3091SOL    HW110016   2.872   0.617   1.459
 3091SOL    HW210017   3.022   0.631   1.449
 3092SOL     OW10018   3.084   1.571   0.795
 3092SOL    HW110019   3.100   1.636   0.727
 3092SOL    HW210020   3.153   1.585   0.859
 3093SOL     OW10021   2.334   1.151   0.735
 3093SOL    HW110022   2.266   1.131   0.799
 3093SOL    HW210023   2.292   1.139   0.650
 3094SOL     OW10024   3.130   1.794   0.608
 3094SOL    HW110025   3.177   1.856   0.552
 3094SOL    HW210026   3.063   1.847   0.651
 3095SOL     OW10027   2.882   0.529   0.038
 3095SOL    HW110028   2.845   0.615   0.018
 3095SOL    HW210029   2.955   0.548   0.097
 3096SOL     OW10030   1.946   0.549   1.396
 3096SOL    HW110031   2.037   0.554   1.366
 3096SOL    HW210032   1.938   0.621   1.459
 3097SOL     OW10033   2.423   0.245   1.168
 3097SOL    HW110034   2.449   0.163   1.210
 3097SOL    HW210035   2.331   0.257   1.191
 3098SOL     OW10036   2.722   0.512   0.630
 3098SOL    HW110037   2.685   0.543   0.548
 3098SOL    HW210038   2.686   0.424   0.641
 3099SOL     OW10039   2.816   0.027   0.789
 3099SOL    HW110040   2.770   0.023   0.706
 3099SOL    HW210041   2.840   4.437   0.808
 3100SOL     OW10042   3.300   1.162   0.857
 3100SOL    HW110043   3.230   1.096   0.856
 3100SOL    HW210044   3.324   1.172   0.765
 3101SOL     OW10045   3.327   0.606   0.972
 3101SOL    HW110046   3.272   0.528   0.973
 3101SOL    HW210047   3.384   0.598   1.048
 3102SOL     OW10048   3.711   0.812   0.377
 3102SOL    HW110049   3.763   0.762   0.441
 3102SOL    HW210050   3.684   0.747   0.313
 3103SOL     OW10051   2.356   1.423   0.173
 3103SOL    HW110052   2.279   1.397   0.223
 3103SOL    HW210053   2.351   1.371   0.093
 3104SOL     OW10054   3.534   1.264   0.645
 3104SOL    HW110055   3.629   1.266   0.659
 3104SOL    HW210056   3.505   1.353   0.666
 3105SOL     OW10057   3.253   0.572   0.078
 3105SOL    HW110058   3.190   0.556   0.148
 3105SOL    HW210059   3.317   0.500   0.087
 3106SOL     OW10060   2.384   0.261   0.325
 3106SOL    HW110061   2.416   0.201   0.257
 3106SOL    HW210062   2.366   0.343   0.278
 3107SOL     OW10063   3.613   1.240   1.570
 3107SOL    HW110064   3.700   1.201   1.566
 3107SOL    HW210065   3.629   1.330   1.599
 3108SOL     OW10066   2.919   1.355   1.334
 3108SOL    HW110067   2.844   1.323   1.384
 3108SOL    HW210068   2.995   1.312   1.375
 3109SOL     OW10069   3.471   1.627   1.656
 3109SOL    HW110070   3.464   1.660   1.566
 3109SOL    HW210071   3.553   1.578   1.656
 3110SOL     OW10072   2.994   1.207   1.105
 3110SOL    HW110073   2.932   1.242   1.169
 3110SOL    HW210074   2.961   1.238   1.020
 3111SOL     OW10075   3.488   1.097   1.077
 3111SOL    HW110076   3.483   1.160   1.150
 3111SOL    HW210077   3.410   1.114   1.025
 3112SOL     OW10078   2.762   0.135   1.386
 3112SOL    HW110079   2.785   0.090   1.305
 3112SOL    HW210080   2.846   0.152   1.428
 3113SOL     OW10081   2.846   1.115   1.723
 3113SOL    HW110082   2.755   1.131   1.745
 3113SOL    HW210083   2.844   1.037   1.668
 3114SOL     OW10084   2.573   1.060   0.374
 3114SOL    HW110085   2.559   1.042   0.467
 3114SOL    HW210086   2.648   1.005   0.350
 3115SOL     OW10087   2.282   0.817   1.251
 3115SOL    HW110088   2.351   0.826   1.318
 3115SOL    HW210089   2.247   0.729   1.265
 3116SOL     OW10090   3.130   0.375   1.274
 3116SOL    HW110091   3.162   0.453   1.318
 3116SOL    HW210092   3.040   0.396   1.249
 3117SOL     OW10093   1.927   1.568   1.350
 3117SOL    HW110094   1.895   1.644   1.302
 3117SOL    HW210095   2.021   1.580   1.355
 3118SOL     OW10096   2.206   1.122   0.497
 3118SOL    HW110097   2.207   1.195   0.435
 3118SOL    HW210098   2.201   1.044   0.442
 3119SOL     OW10099   2.417   0.527   0.857
 3119SOL    HW110100   2.429   0.587   0.784
 3119SOL    HW210101   2.482   0.554   0.922
 3120SOL     OW10102   3.109   1.346   0.396
 3120SOL    HW110103   3.165   1.419   0.424
 3120SOL    HW210104   3.022   1.369   0.427
 3121SOL     OW10105   3.145   1.459   1.147
 3121SOL    HW110106   3.200   1.461   1.225
 3121SOL    HW210107   3.090   1.381   1.159
 3122SOL     OW10108   3.446   0.628   0.476
 3122SOL    HW110109   3.395   0.665   0.548
 3122SOL    HW210110   3.479   0.703   0.428
 3123SOL     OW10111   2.215   1.517   1.318
 3123SOL    HW110112   2.199   1.477   1.233
 3123SOL    HW210113   2.310   1.531   1.321
 3124SOL     OW10114   2.279   0.742   1.603
 3124SOL    HW110115   2.338   0.789   1.544
 3124SOL    HW210116   2.323   0.660   1.622
 3125SOL     OW10117   3.465   0.779   1.683
 3125SOL    HW110118   3.380   0.821   1.676
 3125SOL    HW210119   3.518   0.821   1.614
 3126SOL     OW10120   2.864   0.086   1.716
 3126SOL    HW110121   2.900   0.166   1.679
 3126SOL    HW210122   2.887   0.017   1.654
 3127SOL     OW10123   2.361   0.043   1.762
 3127SOL    HW110124   2.366   0.009   1.673
 3127SOL    HW210125   2.294   0.112   1.758
 3128SOL     OW10126   2.445   0.874   1.031
 3128SOL    HW110127   2.476   0.964   1.032
 3128SOL    HW210128   2.389   0.867   1.108
 3129SOL     OW10129   3.217   0.858   1.027
 3129SOL    HW110130   3.132   0.847   0.984
 3129SOL    HW210131   3.259   0.773   1.019
 3130SOL     OW10132   3.058   0.532   0.263
 3130SOL    HW110133   3.069   0.454   0.319
 3130SOL    HW210134   3.017   0.596   0.321
 3131SOL     OW10135   2.152   0.232   1.242
 3131SOL    HW110136   2.106   0.248   1.324
 3131SOL    HW210137   2.190   0.145   1.252
 3132SOL     OW10138   1.907   1.308   1.275
 3132SOL    HW110139   1.941   1.255   1.347
 3132SOL    HW210140   1.913   1.398   1.306
 3133SOL     OW10141   2.584   0.630   1.054
 3133SOL    HW110142   2.659   0.613   0.998
 3133SOL    HW210143   2.557   0.719   1.032
 3134SOL     OW10144   3.597   0.959   1.854
 3134SOL    HW110145   3.552   0.896   1.798
 3134SOL    HW210146   3.538   0.974   1.927
 3135SOL     OW10147   2.162   0.054   0.653
 3135SOL    HW110148   2.148   0.149   0.654
 3135SOL    HW210149   2.171   0.030   0.745
 3136SOL     OW10150   3.484   0.381   0.359
 3136SOL    HW110151   3.508   0.314   0.423
 3136SOL    HW210152   3.458   0.457   0.411
 3137SOL     OW10153   2.892   0.762   0.960
 3137SOL    HW110154   2.886   0.778   1.055
 3137SOL    HW210155   2.863   0.672   0.949
 3138SOL     OW10156   2.845   1.567   1.718
 3138SOL    HW110157   2.829   1.610   1.634
 3138SOL    HW210158   2.887   1.484   1.695
 3139SOL     OW10159   3.716   1.504   1.605
 3139SOL    HW110160   3.735   1.531   1.515
 3139SOL    HW210161   3.797   1.522   1.653
 3140SOL     OW10162   2.216   0.916   1.809
 3140SOL    HW110163   2.297   0.935   1.855
 3140SOL    HW210164   2.241   0.853   1.741
 3141SOL     OW10165   3.392   0.300   0.108
 3141SOL    HW110166   3.336   0.224   0.124
 3141SOL    HW210167   3.429   0.322   0.193
 3142SOL     OW10168   3.148   0.819   0.032
 3142SOL    HW110169   3.192   0.735   0.041
 3142SOL    HW210170   3.183   0.856  11.051
 3143SOL     OW10171   2.928   1.336   0.854
 3143SOL    HW110172   2.932   1.264   0.791
 3143SOL    HW210173   2.989   1.401   0.819
 3144SOL     OW10174   2.170   0.809   0.946
 3144SOL    HW110175   2.263   0.832   0.940
 3144SOL    HW210176   2.169   0.720   0.980
 3145SOL     OW10177   2.198   0.534   1.014
 3145SOL    HW110178   2.155   0.450   0.995
 3145SOL    HW210179   2.274   0.535   0.956
 3146SOL     OW10180   2.998   0.372   1.699
 3146SOL    HW110181   2.947   0.435   1.748
 3146SOL    HW210182   3.083   0.415   1.685
 3147SOL     OW10183   3.017   0.214   1.474
 3147SOL    HW110184   3.012   0.278   1.545
 3147SOL    HW210185   3.059   0.261   1.402
 3148SOL     OW10186   1.871   1.327   0.195
 3148SOL    HW110187   1.784   1.339   0.157
 3148SOL    HW210188   1.871   1.237   0.226
 3149SOL     OW10189   1.953   1.784   0.928
 3149SOL    HW110190   1.924   1.702   0.888
 3149SOL    HW210191   2.039   1.800   0.890
 3150SOL     OW10192   2.357   1.570   0.906
 3150SOL    HW110193   2.426   1.632   0.930
 3150SOL    HW210194   2.402   1.507   0.849
 3151SOL     OW10195   2.842   0.792   1.226
 3151SOL    HW110196   2.899   0.770   1.300
 3151SOL    HW210197   2.758   0.751   1.248
 3152SOL     OW10198   1.895   0.544   1.119
 3152SOL    HW110199   1.972   0.526   1.065
 3152SOL    HW210200   1.928   0.547   1.208
 3153SOL     OW10201   2.047   0.521   1.722
 3153SOL    HW110202   2.123   0.502   1.669
 3153SOL    HW210203   2.006   0.597   1.681
 3154SOL     OW10204   3.241   0.937   1.658
 3154SOL    HW110205   3.261   1.031   1.655
 3154SOL    HW210206   3.237   0.911   1.566
 3155SOL     OW10207   2.672   0.576   0.360
 3155SOL    HW110208   2.680   0.502   0.301
 3155SOL    HW210209   2.599   0.627   0.326
 3156SOL     OW10210   3.501   0.602   1.184
 3156SOL    HW110211   3.491   0.543   1.259
 3156SOL    HW210212   3.589   0.583   1.150
 3157SOL     OW10213   2.111   1.547   1.729
 3157SOL    HW110214   2.079   1.608   1.795
 3157SOL    HW210215   2.110   1.462   1.773
 3158SOL     OW10216   2.567   0.458   1.262
 3158SOL    HW110217   2.517   0.381   1.232
 3158SOL    HW210218   2.564   0.519   1.188
 3159SOL     OW10219   2.788   1.679   1.469
 3159SOL    HW110220   2.763   1.642   1.384
 3159SOL    HW210221   2.784   1.773   1.456
 3160SOL     OW10222   2.322   0.484   0.177
 3160SOL    HW110223   2.382   0.556   0.199
 3160SOL    HW210224   2.237   0.526   0.166
 3161SOL     OW10225   2.006   1.141   1.474
 3161SOL    HW110226   2.008   1.090   1.555
 3161SOL    HW210227   2.023   1.076   1.405
 3162SOL     OW10228   3.186   1.046   1.222
 3162SOL    HW110229   3.209   0.982   1.154
 3162SOL    HW210230   3.118   1.100   1.183
 3163SOL     OW10231   3.171   0.851   0.310
 3163SOL    HW110232   3.096   0.820   0.360
 3163SOL    HW210233   3.147   0.837   0.218
 3164SOL     OW10234   3.638   1.741   1.153
 3164SOL    HW110235   3.697   1.768   1.082
 3164SOL    HW210236   3.611   1.652   1.130
 3165SOL     OW10237   3.103   1.733   1.112
 3165SOL    HW110238   3.185   1.755   1.067
 3165SOL    HW210239   3.110   1.639   1.130
 3166SOL     OW10240   1.948   1.265   1.012
 3166SOL    HW110241   1.933   1.279   1.105
 3166SOL    HW210242   1.873   1.213   0.983
 3167SOL     OW10243   2.541   1.666   1.731
 3167SOL    HW110244   2.486   1.744   1.728
 3167SOL    HW210245   2.606   1.680   1.663
 3168SOL     OW10246   2.741   0.065   0.129
 3168SOL    HW110247   2.826   0.094   0.097
 3168SOL    HW210248   2.760   0.008   0.203
 3169SOL     OW10249   3.581   0.134   0.492
 3169SOL    HW110250   3.652   0.142   0.429
 3169SOL    HW210251   3.606   0.059   0.546
 3170SOL     OW10252   3.253   1.568   0.487
 3170SOL    HW110253   3.313   1.600   0.421
 3170SOL    HW210254   3.205   1.646   0.516
 3171SOL     OW10255   1.988   1.784   1.849
 3171SOL    HW110256   1.937   1.714   1.890
 3171SOL    HW210257   2.046   1.815   1.919
 3172SOL     OW10258   3.141   0.929   0.674
 3172SOL    HW110259   3.214   0.867   0.678
 3172SOL    HW210260   3.175   1.001   0.620
 3173SOL     OW10261   2.673   1.274   1.428
 3173SOL    HW110262   2.645   1.314   1.510
 3173SOL    HW210263   2.603   1.295   1.366
 3174SOL     OW10264   2.534   1.623   0.171
 3174SOL    HW110265   2.549   1.634   0.077
 3174SOL    HW210266   2.477   1.546   0.178
 3175SOL     OW10267   3.486   1.727   1.391
 3175SOL    HW110268   3.537   1.733   1.310
 3175SOL    HW210269   3.472   1.818   1.418
 3176SOL     OW10270   3.701   0.153   0.965
 3176SOL    HW110271   3.732   0.074   0.921
 3176SOL    HW210272   3.615   0.170   0.929
 3177SOL     OW10273   2.124   0.321   0.715
 3177SOL    HW110274   2.038   0.355   0.689
 3177SOL    HW210275   2.119   0.314   0.811
 3178SOL     OW10276   3.085   1.600   0.054
 3178SOL    HW110277   3.073   1.508   0.074
 3178SOL    HW210278   3.020   1.619  11.087
 3179SOL     OW10279   2.685   1.006   1.373
 3179SOL    HW110280   2.729   1.000   1.288
 3179SOL    HW210281   2.684   1.100   1.394
 3180SOL     OW10282   2.776   0.905   0.281
 3180SOL    HW110283   2.842   0.946   0.225
 3180SOL    HW210284   2.825   0.843   0.334
 3181SOL     OW10285   3.360   1.622   0.048
 3181SOL    HW110286   3.264   1.616   0.047
 3181SOL    HW210287   3.384   1.636  11.056
 3182SOL     OW10288   2.232   1.300   1.493
 3182SOL    HW110289   2.220   1.377   1.438
 3182SOL    HW210290   2.153   1.247   1.477
 3183SOL     OW10291   3.472   1.283   1.280
 3183SOL    HW110292   3.531   1.270   1.355
 3183SOL    HW210293   3.411   1.351   1.309
 3184SOL     OW10294   2.916   1.108   0.707
 3184SOL    HW110295   2.845   1.057   0.746
 3184SOL    HW210296   2.980   1.042   0.679
 3185SOL     OW10297   2.873   0.243   1.002
 3185SOL    HW110298   2.872   0.216   0.910
 3185SOL    HW210299   2.862   0.161   1.051
 3186SOL     OW10300   2.465   1.490   0.481
 3186SOL    HW110301   2.508   1.438   0.414
 3186SOL    HW210302   2.398   1.539   0.434
 3187SOL     OW10303   3.585   0.394   1.376
 3187SOL    HW110304   3.658   0.456   1.376
 3187SOL    HW210305   3.613   0.323   1.319
 3188SOL     OW10306   2.129   1.335   0.294
 3188SOL    HW110307   2.042   1.337   0.253
 3188SOL    HW210308   2.117   1.377   0.379
 3189SOL     OW10309   1.975   1.023   1.720
 3189SOL    HW110310   1.899   1.000   1.773
 3189SOL    HW210311   2.049   0.985   1.767
 3190SOL     OW10312   2.519   0.205   1.501
 3190SOL    HW110313   2.598   0.180   1.453
 3190SOL    HW210314   2.550   0.228   1.588
 3191SOL     OW10315   1.938   0.337   0.054
 3191SOL    HW110316   1.866   0.312  11.097
 3191SOL    HW210317   1.955   0.429   0.033
 3192SOL     OW10318   3.290   0.858   1.399
 3192SOL    HW110319   3.241   0.919   1.344
 3192SOL    HW210320   3.379   0.860   1.364
 3193SOL     OW10321   1.927   0.185   0.321
 3193SOL    HW110322   1.921   0.249   0.251
 3193SOL    HW210323   1.998   0.126   0.295
 3194SOL     OW10324   3.046   1.338   0.122
 3194SOL    HW110325   2.952   1.323   0.114
 3194SOL    HW210326   3.063   1.329   0.216
 3195SOL     OW10327   2.482   0.830   1.434
 3195SOL    HW110328   2.538   0.906   1.419
 3195SOL    HW210329   2.543   0.757   1.443
 3196SOL     OW10330   3.345   1.779   0.980
 3196SOL    HW110331   3.368   1.839   0.910
 3196SOL    HW210332   3.429   1.756   1.021
 3197SOL     OW10333   2.578   0.562   1.705
 3197SOL    HW110334   2.619   0.625   1.763
 3197SOL    HW210335   2.606   0.477   1.738
 3198SOL     OW10336   3.334   1.198   1.631
 3198SOL    HW110337   3.322   1.212   1.725
 3198SOL    HW210338   3.427   1.215   1.617
 3199SOL     OW10339   2.242   1.740   1.568
 3199SOL    HW110340   2.156   1.775   1.545
 3199SOL    HW210341   2.224   1.655   1.608
 3200SOL     OW10342   3.530   0.881   1.255
 3200SOL    HW110343   3.523   0.795   1.212
 3200SOL    HW210344   3.520   0.944   1.185
 3201SOL     OW10345   3.079   0.328   0.447
 3201SOL    HW110346   3.147   0.262   0.435
 3201SOL    HW210347   3.105   0.375   0.526
 3202SOL     OW10348   2.446   0.737   0.673
 3202SOL    HW110349   2.489   0.821   0.658
 3202SOL    HW210350   2.381   0.730   0.603
 3203SOL     OW10351   3.622   0.369   1.644
 3203SOL    HW110352   3.606   0.382   1.550
 3203SOL    HW210353   3.545   0.321   1.675
 3204SOL     OW10354   3.609   0.933   1.512
 3204SOL    HW110355   3.602   1.028   1.525
 3204SOL    HW210356   3.593   0.920   1.418
 3205SOL     OW10357   2.770   1.357   0.074
 3205SOL    HW110358   2.700   1.352   0.139
 3205SOL    HW210359   2.752   1.436   0.025
 3206SOL     OW10360   2.531   1.773   0.940
 3206SOL    HW110361   2.514   1.864   0.916
 3206SOL    HW210362   2.626   1.765   0.939
 3207SOL     OW10363   2.730   0.968   0.854
 3207SOL    HW110364   2.780   0.896   0.892
 3207SOL    HW210365   2.694   1.015   0.930
 3208SOL     OW10366   2.940   0.989   0.084
 3208SOL    HW110367   2.914   1.020  11.098
 3208SOL    HW210368   3.016   0.933   0.067
 3209SOL     OW10369   3.714   1.555   0.845
 3209SOL    HW110370   3.637   1.542   0.790
 3209SOL    HW210371   3.708   1.487   0.911
 3210SOL     OW10372   2.087   1.300   1.856
 3210SOL    HW110373   2.020   1.239   1.824
 3210SOL    HW210374   2.067   1.312   1.949
 3211SOL     OW10375   1.949   1.231   0.665
 3211SOL    HW110376   1.953   1.186   0.749
 3211SOL    HW210377   2.018   1.191   0.612
 3212SOL     OW10378   2.544   1.404   1.629
 3212SOL    HW110379   2.464   1.361   1.660
 3212SOL    HW210380   2.539   1.492   1.666
 3213SOL     OW10381   3.667   0.179   1.238
 3213SOL    HW110382   3.666   0.086   1.258
 3213SOL    HW210383   3.685   0.184   1.144
 3214SOL     OW10384   2.298   0.432   0.530
 3214SOL    HW110385   2.320   0.362   0.468
 3214SOL    HW210386   2.242   0.390   0.595
 3215SOL     OW10387   3.560   1.489   1.096
 3215SOL    HW110388   3.481   1.467   1.047
 3215SOL    HW210389   3.569   1.418   1.160
 3216SOL     OW10390   2.194   0.559   1.292
 3216SOL    HW110391   2.248   0.502   1.346
 3216SOL    HW210392   2.212   0.532   1.202
 3217SOL     OW10393   2.690   1.577   0.677
 3217SOL    HW110394   2.673   1.629   0.599
 3217SOL    HW210395   2.615   1.518   0.684
 3218SOL     OW10396   3.294   0.217   1.117
 3218SOL    HW110397   3.328   0.145   1.169
 3218SOL    HW210398   3.243   0.270   1.178
 3219SOL     OW10399   2.857   0.006   1.151
 3219SOL    HW110400   2.816   4.420   1.146
 3219SOL    HW210401   2.951   4.488   1.163
 3220SOL     OW10402   2.631   1.327   0.320
 3220SOL    HW110403   2.602   1.237   0.334
 3220SOL    HW210404   2.715   1.333   0.365
 3221SOL     OW10405   2.484   1.555   1.285
 3221SOL    HW110406   2.484   1.637   1.333
 3221SOL    HW210407   2.572   1.549   1.247
 3222SOL     OW10408   3.215   0.057   0.170
 3222SOL    HW110409   3.250   4.494   0.108
 3222SOL    HW210410   3.133   0.018   0.201
 3223SOL     OW10411   3.178   0.463   0.676
 3223SOL    HW110412   3.119   0.539   0.676
 3223SOL    HW210413   3.164   0.422   0.761
 3224SOL     OW10414   3.448   0.198   0.868
 3224SOL    HW110415   3.389   0.214   0.942
 3224SOL    HW210416   3.450   0.282   0.821
 3225SOL     OW10417   1.904   1.070   0.301
 3225SOL    HW110418   1.999   1.064   0.297
 3225SOL    HW210419   1.876   0.981   0.326
 3226SOL     OW10420   2.748   1.656   0.348
 3226SOL    HW110421   2.676   1.636   0.288
 3226SOL    HW210422   2.716   1.730   0.399
 3227SOL     OW10423   2.089   0.625   1.984
 3227SOL    HW110424   2.003   0.619   2.024
 3227SOL    HW210425   2.077   0.597   1.894
 3228SOL     OW10426   2.069   0.300   2.852
 3228SOL    HW110427   2.100   0.270   2.937
 3228SOL    HW210428   1.987   0.253   2.838
 3229SOL     OW10429   1.869   0.388   2.499
 3229SOL    HW110430   1.782   0.407   2.536
 3229SOL    HW210431   1.854   0.315   2.439
 3230SOL     OW10432   2.430   1.291   3.039
 3230SOL    HW110433   2.342   1.294   3.001
 3230SOL    HW210434   2.445   1.379   3.072
 3231SOL     OW10435   3.426   1.513   2.570
 3231SOL    HW110436   3.383   1.491   2.653
 3231SOL    HW210437   3.355   1.516   2.506
 3232SOL     OW10438   2.999   0.697   2.558
 3232SOL    HW110439   3.044   0.782   2.549
 3232SOL    HW210440   2.948   0.706   2.639
 3233SOL     OW10441   3.633   0.605   2.088
 3233SOL    HW110442   3.610   0.597   1.996
 3233SOL    HW210443   3.597   0.526   2.129
 3234SOL     OW10444   2.616   1.141   2.905
 3234SOL    HW110445   2.547   1.177   2.962
 3234SOL    HW210446   2.652   1.218   2.861
 3235SOL     OW10447   2.730   0.770   3.685
 3235SOL    HW110448   2.717   0.840   3.749
 3235SOL    HW210449   2.754   0.816   3.604
 3236SOL     OW10450   2.548   1.001   2.507
 3236SOL    HW110451   2.613   0.990   2.577
 3236SOL    HW210452   2.479   1.053   2.548
 3237SOL     OW10453   2.574   1.150   3.675
 3237SOL    HW110454   2.621   1.228   3.704
 3237SOL    HW210455   2.491   1.184   3.640
 3238SOL     OW10456   2.194   1.420   2.930
 3238SOL    HW110457   2.118   1.384   2.884
 3238SOL    HW210458   2.240   1.472   2.864
 3239SOL     OW10459   3.322   1.500   3.218
 3239SOL    HW110460   3.374   1.580   3.229
 3239SOL    HW210461   3.256   1.505   3.288
 3240SOL     OW10462   2.305   0.394   3.348
 3240SOL    HW110463   2.387   0.345   3.351
 3240SOL    HW210464   2.237   0.328   3.363
 3241SOL     OW10465   3.471   0.444   2.601
 3241SOL    HW110466   3.391   0.464   2.553
 3241SOL    HW210467   3.487   0.521   2.654
 3242SOL     OW10468   2.083   1.723   2.340
 3242SOL    HW110469   2.121   1.760   2.420
 3242SOL    HW210470   2.157   1.712   2.281
 3243SOL     OW10471   2.999   1.341   3.555
 3243SOL    HW110472   3.039   1.337   3.642
 3243SOL    HW210473   2.947   1.262   3.549
 3244SOL     OW10474   2.089   1.443   2.398
 3244SOL    HW110475   2.064   1.535   2.407
 3244SOL    HW210476   2.032   1.397   2.460
 3245SOL     OW10477   2.123   1.090   2.753
 3245SOL    HW110478   2.118   1.003   2.793
 3245SOL    HW210479   2.065   1.144   2.807
 3246SOL     OW10480   2.472   1.780   3.293
 3246SOL    HW110481   2.388   1.768   3.337
 3246SOL    HW210482   2.496   1.871   3.310
 3247SOL     OW10483   2.446   0.983   1.998
 3247SOL    HW110484   2.492   1.030   1.929
 3247SOL    HW210485   2.485   1.014   2.079
 3248SOL     OW10486   3.442   0.117   3.331
 3248SOL    HW110487   3.471   0.185   3.270
 3248SOL    HW210488   3.431   0.162   3.414
 3249SOL     OW10489   1.979   0.654   2.422
 3249SOL    HW110490   1.949   0.566   2.444
 3249SOL    HW210491   1.971   0.703   2.504
 3250SOL     OW10492   3.704   1.758   2.195
 3250SOL    HW110493   3.770   1.730   2.259
 3250SOL    HW210494   3.726   1.849   2.176
 3251SOL     OW10495   1.894   1.581   1.984
 3251SOL    HW110496   1.877   1.488   2.002
 3251SOL    HW210497   1.869   1.625   2.065
 3252SOL     OW10498   3.553   0.921   2.506
 3252SOL    HW110499   3.635   0.877   2.483
 3252SOL    HW210500   3.530   0.970   2.427
 3253SOL     OW10501   3.509   1.106   2.290
 3253SOL    HW110502   3.595   1.110   2.249
 3253SOL    HW210503   3.514   1.168   2.363
 3254SOL     OW10504   1.985   0.746   3.445
 3254SOL    HW110505   2.076   0.774   3.452
 3254SOL    HW210506   1.934   0.827   3.454
 3255SOL     OW10507   2.477   1.387   2.596
 3255SOL    HW110508   2.432   1.303   2.605
 3255SOL    HW210509   2.460   1.413   2.505
 3256SOL     OW10510   3.150   1.238   3.284
 3256SOL    HW110511   3.182   1.170   3.224
 3256SOL    HW210512   3.207   1.232   3.360
 3257SOL     OW10513   2.681   0.017   2.415
 3257SOL    HW110514   2.717   0.101   2.389
 3257SOL    HW210515   2.586   0.028   2.408
 3258SOL     OW10516   2.051   0.964   3.137
 3258SOL    HW110517   2.137   0.923   3.121
 3258SOL    HW210518   1.990   0.913   3.083
 3259SOL     OW10519   3.394   0.994   2.061
 3259SOL    HW110520   3.323   0.938   2.094
 3259SOL    HW210521   3.435   1.029   2.140
 3260SOL     OW10522   3.050   1.809   3.485
 3260SOL    HW110523   3.058   1.866   3.409
 3260SOL    HW210524   3.065   1.721   3.450
 3261SOL     OW10525   2.178   0.253   3.641
 3261SOL    HW110526   2.241   0.317   3.674
 3261SOL    HW210527   2.104   0.259   3.702
 3262SOL     OW10528   3.329   1.420   2.812
 3262SOL    HW110529   3.261   1.435   2.878
 3262SOL    HW210530   3.316   1.328   2.785
 3263SOL     OW10531   3.518   1.744   2.440
 3263SOL    HW110532   3.500   1.712   2.351
 3263SOL    HW210533   3.495   1.670   2.496
 3264SOL     OW10534   2.454   0.722   2.128
 3264SOL    HW110535   2.458   0.805   2.080
 3264SOL    HW210536   2.389   0.737   2.197
 3265SOL     OW10537   3.154   0.368   2.794
 3265SOL    HW110538   3.065   0.338   2.778
 3265SOL    HW210539   3.190   0.304   2.856
 3266SOL     OW10540   3.442   1.672   2.171
 3266SOL    HW110541   3.532   1.701   2.164
 3266SOL    HW210542   3.414   1.655   2.081
 3267SOL     OW10543   2.658   0.621   3.316
 3267SOL    HW110544   2.629   0.594   3.403
 3267SOL    HW210545   2.620   0.554   3.257
 3268SOL     OW10546   3.250   0.481   3.538
 3268SOL    HW110547   3.254   0.525   3.623
 3268SOL    HW210548   3.316   0.412   3.544
 3269SOL     OW10549   2.815   0.887   3.446
 3269SOL    HW110550   2.869   0.817   3.410
 3269SOL    HW210551   2.767   0.921   3.371
 3270SOL     OW10552   2.859   0.417   3.096
 3270SOL    HW110553   2.770   0.425   3.130
 3270SOL    HW210554   2.850   0.364   3.017
 3271SOL     OW10555   2.913   0.698   2.288
 3271SOL    HW110556   2.930   0.689   2.382
 3271SOL    HW210557   2.829   0.653   2.275
 3272SOL     OW10558   1.951   0.821   2.639
 3272SOL    HW110559   2.031   0.815   2.690
 3272SOL    HW210560   1.906   0.899   2.673
 3273SOL     OW10561   1.965   1.800   3.426
 3273SOL    HW110562   1.967   1.796   3.522
 3273SOL    HW210563   1.875   1.828   3.406
 3274SOL     OW10564   2.718   0.370   2.048
 3274SOL    HW110565   2.787   0.403   1.991
 3274SOL    HW210566   2.731   0.275   2.049
 3275SOL     OW10567   3.566   0.572   3.690
 3275SOL    HW110568   3.530   0.646   3.642
 3275SOL    HW210569   3.601   0.514   3.623
 3276SOL     OW10570   3.241   1.143   2.403
 3276SOL    HW110571   3.319   1.130   2.349
 3276SOL    HW210572   3.187   1.204   2.352
 3277SOL     OW10573   2.398   0.206   2.764
 3277SOL    HW110574   2.420   0.224   2.855
 3277SOL    HW210575   2.392   0.292   2.723
 3278SOL     OW10576   2.867   1.444   2.333
 3278SOL    HW110577   2.831   1.518   2.284
 3278SOL    HW210578   2.847   1.464   2.424
 3279SOL     OW10579   2.212   1.790   2.693
 3279SOL    HW110580   2.249   1.703   2.710
 3279SOL    HW210581   2.281   1.851   2.720
 3280SOL     OW10582   3.661   1.059   2.731
 3280SOL    HW110583   3.608   1.036   2.654
 3280SOL    HW210584   3.598   1.063   2.803
 3281SOL     OW10585   3.091   1.538   3.375
 3281SOL    HW110586   3.077   1.467   3.437
 3281SOL    HW210587   3.023   1.526   3.308
 3282SOL     OW10588   2.180   0.958   2.113
 3282SOL    HW110589   2.262   0.977   2.068
 3282SOL    HW210590   2.150   0.876   2.075
 3283SOL     OW10591   3.343   0.744   2.585
 3283SOL    HW110592   3.333   0.702   2.670
 3283SOL    HW210593   3.420   0.800   2.595
 3284SOL     OW10594   2.330   1.265   3.600
 3284SOL    HW110595   2.303   1.269   3.508
 3284SOL    HW210596   2.248   1.262   3.649
 3285SOL     OW10597   2.985   1.777   2.094
 3285SOL    HW110598   2.910   1.736   2.137
 3285SOL    HW210599   3.008   1.716   2.024
 3286SOL     OW10600   2.049   0.268   3.376
 3286SOL    HW110601   1.984   0.336   3.363
 3286SOL    HW210602   2.068   0.270   3.470
 3287SOL     OW10603   3.491   1.381   1.950
 3287SOL    HW110604   3.449   1.465   1.935
 3287SOL    HW210605   3.422   1.316   1.931
 3288SOL     OW10606   2.329   1.720   2.203
 3288SOL    HW110607   2.369   1.793   2.249
 3288SOL    HW210608   2.387   1.703   2.130
 3289SOL     OW10609   3.286   0.143   2.280
 3289SOL    HW110610   3.270   0.088   2.203
 3289SOL    HW210611   3.380   0.132   2.298
 3290SOL     OW10612   2.095   1.771   3.101
 3290SOL    HW110613   2.163   1.712   3.134
 3290SOL    HW210614   2.109   1.773   3.007
 3291SOL     OW10615   2.795   1.697   2.761
 3291SOL    HW110616   2.873   1.648   2.785
 3291SOL    HW210617   2.756   1.648   2.689
 3292SOL     OW10618   2.256   0.694   2.336
 3292SOL    HW110619   2.278   0.601   2.351
 3292SOL    HW210620   2.162   0.700   2.354
 3293SOL     OW10621   3.386   0.233   3.585
 3293SOL    HW110622   3.386   0.255   3.678
 3293SOL    HW210623   3.307   0.181   3.572
 3294SOL     OW10624   2.493   0.121   1.986
 3294SOL    HW110625   2.581   0.085   1.995
 3294SOL    HW210626   2.459   0.083   1.905
 3295SOL     OW10627   2.629   0.270   3.617
 3295SOL    HW110628   2.697   0.203   3.622
 3295SOL    HW210629   2.591   0.272   3.704
 3296SOL     OW10630   2.740   1.524   3.054
 3296SOL    HW110631   2.723   1.484   2.969
 3296SOL    HW210632   2.808   1.469   3.093
 3297SOL     OW10633   3.203   0.589   3.290
 3297SOL    HW110634   3.230   0.561   3.377
 3297SOL    HW210635   3.237   0.678   3.282
 3298SOL     OW10636   2.678   1.395   2.803
 3298SOL    HW110637   2.762   1.381   2.760
 3298SOL    HW210638   2.614   1.394   2.732
 3299SOL     OW10639   2.787   0.521   2.760
 3299SOL    HW110640   2.770   0.519   2.665
 3299SOL    HW210641   2.820   0.434   2.780
 3300SOL     OW10642   2.417   0.079   2.385
 3300SOL    HW110643   2.330   0.047   2.408
 3300SOL    HW210644   2.402   0.141   2.313
 3301SOL     OW10645   3.290   1.199   1.903
 3301SOL    HW110646   3.320   1.123   1.953
 3301SOL    HW210647   3.205   1.220   1.940
 3302SOL     OW10648   2.157   0.066   2.065
 3302SOL    HW110649   2.234   0.120   2.048
 3302SOL    HW210650   2.186   0.000   2.128
 3303SOL     OW10651   2.817   0.239   2.327
 3303SOL    HW110652   2.765   0.301   2.275
 3303SOL    HW210653   2.906   0.274   2.322
 3304SOL     OW10654   2.942   0.682   3.321
 3304SOL    HW110655   2.871   0.618   3.321
 3304SOL    HW210656   3.022   0.630   3.310
 3305SOL     OW10657   3.084   1.571   2.656
 3305SOL    HW110658   3.101   1.637   2.589
 3305SOL    HW210659   3.153   1.584   2.721
 3306SOL     OW10660   2.332   1.151   2.593
 3306SOL    HW110661   2.264   1.131   2.658
 3306SOL    HW210662   2.291   1.135   2.509
 3307SOL     OW10663   3.131   1.794   2.471
 3307SOL    HW110664   3.177   1.855   2.414
 3307SOL    HW210665   3.064   1.847   2.514
 3308SOL     OW10666   2.890   0.545   1.881
 3308SOL    HW110667   2.842   0.627   1.865
 3308SOL    HW210668   2.949   0.565   1.954
 3309SOL     OW10669   1.946   0.550   3.258
 3309SOL    HW110670   2.037   0.554   3.228
 3309SOL    HW210671   1.938   0.622   3.321
 3310SOL     OW10672   2.423   0.246   3.030
 3310SOL    HW110673   2.449   0.164   3.073
 3310SOL    HW210674   2.331   0.257   3.054
 3311SOL     OW10675   2.727   0.504   2.489
 3311SOL    HW110676   2.686   0.542   2.411
 3311SOL    HW210677   2.683   0.420   2.500
 3312SOL     OW10678   2.819   0.019   2.652
 3312SOL    HW110679   2.772   0.020   2.568
 3312SOL    HW210680   2.834   4.427   2.670
 3313SOL     OW10681   3.299   1.162   2.718
 3313SOL    HW110682   3.230   1.096   2.719
 3313SOL    HW210683   3.322   1.171   2.626
 3314SOL     OW10684   3.327   0.606   2.833
 3314SOL    HW110685   3.272   0.528   2.835
 3314SOL    HW210686   3.383   0.597   2.910
 3315SOL     OW10687   3.706   0.815   2.246
 3315SOL    HW110688   3.763   0.764   2.304
 3315SOL    HW210689   3.679   0.752   2.178
 3316SOL     OW10690   2.352   1.420   2.016
 3316SOL    HW110691   2.277   1.392   2.069
 3316SOL    HW210692   2.340   1.376   1.932
 3317SOL     OW10693   3.534   1.265   2.505
 3317SOL    HW110694   3.629   1.266   2.520
 3317SOL    HW210695   3.505   1.353   2.527
 3318SOL     OW10696   3.257   0.572   1.932
 3318SOL    HW110697   3.194   0.555   2.002
 3318SOL    HW210698   3.342   0.554   1.971
 3319SOL     OW10699   2.381   0.265   2.184
 3319SOL    HW110700   2.431   0.215   2.119
 3319SOL    HW210701   2.362   0.348   2.141
 3320SOL     OW10702   3.613   1.240   3.432
 3320SOL    HW110703   3.700   1.201   3.428
 3320SOL    HW210704   3.628   1.330   3.461
 3321SOL     OW10705   2.919   1.354   3.195
 3321SOL    HW110706   2.844   1.323   3.246
 3321SOL    HW210707   2.995   1.313   3.236
 3322SOL     OW10708   3.471   1.627   3.517
 3322SOL    HW110709   3.464   1.660   3.428
 3322SOL    HW210710   3.553   1.577   3.518
 3323SOL     OW10711   2.994   1.206   2.967
 3323SOL    HW110712   2.933   1.242   3.031
 3323SOL    HW210713   2.960   1.237   2.883
 3324SOL     OW10714   3.488   1.097   2.939
 3324SOL    HW110715   3.483   1.160   3.012
 3324SOL    HW210716   3.410   1.114   2.888
 3325SOL     OW10717   2.762   0.135   3.248
 3325SOL    HW110718   2.785   0.090   3.166
 3325SOL    HW210719   2.846   0.152   3.290
 3326SOL     OW10720   2.846   1.115   3.585
 3326SOL    HW110721   2.755   1.132   3.608
 3326SOL    HW210722   2.844   1.037   3.530
 3327SOL     OW10723   2.571   1.062   2.233
 3327SOL    HW110724   2.557   1.044   2.326
 3327SOL    HW210725   2.647   1.008   2.209
 3328SOL     OW10726   2.282   0.817   3.113
 3328SOL    HW110727   2.351   0.826   3.179
 3328SOL    HW210728   2.247   0.729   3.127
 3329SOL     OW10729   3.130   0.375   3.136
 3329SOL    HW110730   3.162   0.453   3.180
 3329SOL    HW210731   3.040   0.396   3.111
 3330SOL     OW10732   1.928   1.566   3.212
 3330SOL    HW110733   1.897   1.645   3.167
 3330SOL    HW210734   2.023   1.576   3.216
 3331SOL     OW10735   2.207   1.112   2.352
 3331SOL    HW110736   2.212   1.185   2.290
 3331SOL    HW210737   2.205   1.034   2.297
 3332SOL     OW10738   2.416   0.527   2.719
 3332SOL    HW110739   2.429   0.586   2.646
 3332SOL    HW210740   2.481   0.554   2.784
 3333SOL     OW10741   3.110   1.349   2.251
 3333SOL    HW110742   3.166   1.420   2.282
 3333SOL    HW210743   3.023   1.370   2.285
 3334SOL     OW10744   3.145   1.459   3.009
 3334SOL    HW110745   3.200   1.461   3.087
 3334SOL    HW210746   3.090   1.382   3.021
 3335SOL     OW10747   3.442   0.623   2.340
 3335SOL    HW110748   3.394   0.670   2.409
 3335SOL    HW210749   3.486   0.691   2.290
 3336SOL     OW10750   2.213   1.520   3.179
 3336SOL    HW110751   2.197   1.480   3.094
 3336SOL    HW210752   2.307   1.533   3.182
 3337SOL     OW10753   2.279   0.742   3.465
 3337SOL    HW110754   2.337   0.789   3.406
 3337SOL    HW210755   2.324   0.660   3.484
 3338SOL     OW10756   3.466   0.779   3.544
 3338SOL    HW110757   3.380   0.821   3.538
 3338SOL    HW210758   3.518   0.821   3.476
 3339SOL     OW10759   2.864   0.085   3.578
 3339SOL    HW110760   2.900   0.166   3.541
 3339SOL    HW210761   2.888   0.017   3.515
 3340SOL     OW10762   2.361   0.043   3.624
 3340SOL    HW110763   2.366   0.010   3.534
 3340SOL    HW210764   2.294   0.112   3.620
 3341SOL     OW10765   2.445   0.874   2.893
 3341SOL    HW110766   2.476   0.965   2.894
 3341SOL    HW210767   2.389   0.867   2.970
 3342SOL     OW10768   3.217   0.858   2.888
 3342SOL    HW110769   3.132   0.847   2.846
 3342SOL    HW210770   3.259   0.773   2.881
 3343SOL     OW10771   3.063   0.536   2.122
 3343SOL    HW110772   3.070   0.456   2.174
 3343SOL    HW210773   3.020   0.599   2.180
 3344SOL     OW10774   2.152   0.232   3.104
 3344SOL    HW110775   2.106   0.248   3.186
 3344SOL    HW210776   2.190   0.145   3.115
 3345SOL     OW10777   1.906   1.308   3.137
 3345SOL    HW110778   1.941   1.255   3.209
 3345SOL    HW210779   1.913   1.398   3.167
 3346SOL     OW10780   2.583   0.630   2.917
 3346SOL    HW110781   2.659   0.613   2.861
 3346SOL    HW210782   2.556   0.719   2.894
 3347SOL     OW10783   3.598   0.959   3.716
 3347SOL    HW110784   3.552   0.896   3.660
 3347SOL    HW210785   3.538   0.974   3.789
 3348SOL     OW10786   2.157   0.051   2.515
 3348SOL    HW110787   2.147   0.146   2.515
 3348SOL    HW210788   2.169   0.028   2.607
 3349SOL     OW10789   3.481   0.381   2.221
 3349SOL    HW110790   3.506   0.316   2.286
 3349SOL    HW210791   3.456   0.458   2.272
 3350SOL     OW10792   2.893   0.763   2.823
 3350SOL    HW110793   2.886   0.778   2.917
 3350SOL    HW210794   2.863   0.673   2.811
 3351SOL     OW10795   2.847   1.568   3.581
 3351SOL    HW110796   2.829   1.610   3.497
 3351SOL    HW210797   2.887   1.484   3.558
 3352SOL     OW10798   3.716   1.504   3.467
 3352SOL    HW110799   3.735   1.531   3.377
 3352SOL    HW210800   3.797   1.522   3.515
 3353SOL     OW10801   2.216   0.916   3.671
 3353SOL    HW110802   2.297   0.936   3.717
 3353SOL    HW210803   2.241   0.853   3.603
 3354SOL     OW10804   3.391   0.263   1.990
 3354SOL    HW110805   3.320   0.207   2.021
 3354SOL    HW210806   3.422   0.309   2.068
 3355SOL     OW10807   3.152   0.826   1.891
 3355SOL    HW110808   3.194   0.740   1.894
 3355SOL    HW210809   3.183   0.865   1.810
 3356SOL     OW10810   2.927   1.337   2.716
 3356SOL    HW110811   2.931   1.264   2.654
 3356SOL    HW210812   2.989   1.401   2.681
 3357SOL     OW10813   2.170   0.810   2.809
 3357SOL    HW110814   2.263   0.832   2.802
 3357SOL    HW210815   2.169   0.720   2.841
 3358SOL     OW10816   2.197   0.534   2.876
 3358SOL    HW110817   2.155   0.450   2.857
 3358SOL    HW210818   2.274   0.535   2.818
 3359SOL     OW10819   2.998   0.372   3.561
 3359SOL    HW110820   2.947   0.436   3.611
 3359SOL    HW210821   3.083   0.415   3.547
 3360SOL     OW10822   3.017   0.214   3.336
 3360SOL    HW110823   3.012   0.278   3.407
 3360SOL    HW210824   3.059   0.261   3.264
 3361SOL     OW10825   1.867   1.316   2.056
 3361SOL    HW110826   1.780   1.330   2.020
 3361SOL    HW210827   1.864   1.227   2.091
 3362SOL     OW10828   1.946   1.777   2.793
 3362SOL    HW110829   1.915   1.696   2.753
 3362SOL    HW210830   2.034   1.790   2.757
 3363SOL     OW10831   2.357   1.571   2.764
 3363SOL    HW110832   2.426   1.634   2.785
 3363SOL    HW210833   2.401   1.506   2.709
 3364SOL     OW10834   2.842   0.792   3.088
 3364SOL    HW110835   2.899   0.770   3.162
 3364SOL    HW210836   2.758   0.752   3.110
 3365SOL     OW10837   1.895   0.544   2.981
 3365SOL    HW110838   1.972   0.527   2.927
 3365SOL    HW210839   1.929   0.547   3.070
 3366SOL     OW10840   2.046   0.521   3.584
 3366SOL    HW110841   2.124   0.503   3.531
 3366SOL    HW210842   2.006   0.597   3.542
 3367SOL     OW10843   3.241   0.937   3.520
 3367SOL    HW110844   3.261   1.030   3.518
 3367SOL    HW210845   3.237   0.911   3.428
 3368SOL     OW10846   2.672   0.577   2.220
 3368SOL    HW110847   2.677   0.505   2.156
 3368SOL    HW210848   2.599   0.631   2.190
 3369SOL     OW10849   3.501   0.602   3.046
 3369SOL    HW110850   3.491   0.543   3.121
 3369SOL    HW210851   3.589   0.583   3.012
 3370SOL     OW10852   2.108   1.549   3.594
 3370SOL    HW110853   2.087   1.610   3.665
 3370SOL    HW210854   2.109   1.463   3.636
 3371SOL     OW10855   2.567   0.458   3.124
 3371SOL    HW110856   2.518   0.382   3.094
 3371SOL    HW210857   2.564   0.519   3.050
 3372SOL     OW10858   2.792   1.676   3.330
 3372SOL    HW110859   2.762   1.641   3.246
 3372SOL    HW210860   2.787   1.771   3.319
 3373SOL     OW10861   2.325   0.492   2.045
 3373SOL    HW110862   2.384   0.564   2.067
 3373SOL    HW210863   2.240   0.534   2.032
 3374SOL     OW10864   2.006   1.141   3.336
 3374SOL    HW110865   2.008   1.090   3.417
 3374SOL    HW210866   2.023   1.076   3.267
 3375SOL     OW10867   3.187   1.046   3.083
 3375SOL    HW110868   3.209   0.982   3.016
 3375SOL    HW210869   3.118   1.099   3.045
 3376SOL     OW10870   3.176   0.857   2.167
 3376SOL    HW110871   3.101   0.827   2.220
 3376SOL    HW210872   3.148   0.844   2.077
 3377SOL     OW10873   3.637   1.742   3.014
 3377SOL    HW110874   3.697   1.768   2.944
 3377SOL    HW210875   3.611   1.652   2.992
 3378SOL     OW10876   3.103   1.733   2.973
 3378SOL    HW110877   3.186   1.754   2.929
 3378SOL    HW210878   3.110   1.640   2.992
 3379SOL     OW10879   1.949   1.265   2.874
 3379SOL    HW110880   1.933   1.279   2.967
 3379SOL    HW210881   1.874   1.213   2.845
 3380SOL     OW10882   2.540   1.667   3.594
 3380SOL    HW110883   2.484   1.745   3.594
 3380SOL    HW210884   2.602   1.681   3.523
 3381SOL     OW10885   3.581   0.129   2.351
 3381SOL    HW110886   3.650   0.140   2.286
 3381SOL    HW210887   3.612   0.059   2.408
 3382SOL     OW10888   3.253   1.567   2.349
 3382SOL    HW110889   3.313   1.600   2.281
 3382SOL    HW210890   3.204   1.644   2.377
 3383SOL     OW10891   1.974   1.796   3.695
 3383SOL    HW110892   1.932   1.727   3.745
 3383SOL    HW210893   2.049   1.823   3.749
 3384SOL     OW10894   3.141   0.929   2.535
 3384SOL    HW110895   3.214   0.867   2.541
 3384SOL    HW210896   3.175   1.000   2.481
 3385SOL     OW10897   2.673   1.275   3.290
 3385SOL    HW110898   2.646   1.314   3.372
 3385SOL    HW210899   2.602   1.294   3.229
 3386SOL     OW10900   2.533   1.623   2.015
 3386SOL    HW110901   2.544   1.634   1.921
 3386SOL    HW210902   2.477   1.545   2.024
 3387SOL     OW10903   3.486   1.727   3.253
 3387SOL    HW110904   3.537   1.733   3.172
 3387SOL    HW210905   3.472   1.818   3.280
 3388SOL     OW10906   3.701   0.153   2.827
 3388SOL    HW110907   3.733   0.075   2.781
 3388SOL    HW210908   3.614   0.170   2.790
 3389SOL     OW10909   2.124   0.320   2.577
 3389SOL    HW110910   2.039   0.355   2.552
 3389SOL    HW210911   2.120   0.313   2.673
 3390SOL     OW10912   3.070   1.605   1.894
 3390SOL    HW110913   3.059   1.513   1.921
 3390SOL    HW210914   3.004   1.617   1.825
 3391SOL     OW10915   2.685   1.006   3.235
 3391SOL    HW110916   2.729   1.000   3.151
 3391SOL    HW210917   2.685   1.100   3.256
 3392SOL     OW10918   2.778   0.910   2.152
 3392SOL    HW110919   2.840   0.942   2.086
 3392SOL    HW210920   2.826   0.841   2.198
 3393SOL     OW10921   3.353   1.626   1.905
 3393SOL    HW110922   3.258   1.618   1.891
 3393SOL    HW210923   3.390   1.632   1.817
 3394SOL     OW10924   2.231   1.300   3.354
 3394SOL    HW110925   2.219   1.378   3.300
 3394SOL    HW210926   2.153   1.248   3.339
 3395SOL     OW10927   3.473   1.284   3.143
 3395SOL    HW110928   3.530   1.269   3.218
 3395SOL    HW210929   3.412   1.352   3.171
 3396SOL     OW10930   2.917   1.108   2.570
 3396SOL    HW110931   2.845   1.057   2.608
 3396SOL    HW210932   2.980   1.042   2.541
 3397SOL     OW10933   2.866   0.246   2.871
 3397SOL    HW110934   2.871   0.226   2.777
 3397SOL    HW210935   2.857   0.160   2.913
 3398SOL     OW10936   2.465   1.490   2.342
 3398SOL    HW110937   2.509   1.439   2.274
 3398SOL    HW210938   2.400   1.541   2.295
 3399SOL     OW10939   3.585   0.394   3.238
 3399SOL    HW110940   3.658   0.456   3.238
 3399SOL    HW210941   3.613   0.323   3.181
 3400SOL     OW10942   2.122   1.345   2.152
 3400SOL    HW110943   2.029   1.340   2.129
 3400SOL    HW210944   2.124   1.383   2.240
 3401SOL     OW10945   1.975   1.022   3.581
 3401SOL    HW110946   1.899   0.999   3.635
 3401SOL    HW210947   2.049   0.985   3.628
 3402SOL     OW10948   2.519   0.204   3.363
 3402SOL    HW110949   2.598   0.180   3.315
 3402SOL    HW210950   2.550   0.227   3.450
 3403SOL     OW10951   1.944   0.334   1.910
 3403SOL    HW110952   1.874   0.280   1.873
 3403SOL    HW210953   1.955   0.405   1.846
 3404SOL     OW10954   3.290   0.858   3.261
 3404SOL    HW110955   3.241   0.919   3.206
 3404SOL    HW210956   3.379   0.860   3.226
 3405SOL     OW10957   1.925   0.186   2.177
 3405SOL    HW110958   1.925   0.253   2.110
 3405SOL    HW210959   1.999   0.130   2.156
 3406SOL     OW10960   3.040   1.338   1.979
 3406SOL    HW110961   2.950   1.308   1.981
 3406SOL    HW210962   3.068   1.338   2.071
 3407SOL     OW10963   2.482   0.830   3.296
 3407SOL    HW110964   2.537   0.906   3.281
 3407SOL    HW210965   2.543   0.757   3.305
 3408SOL     OW10966   3.345   1.779   2.842
 3408SOL    HW110967   3.369   1.840   2.772
 3408SOL    HW210968   3.429   1.756   2.883
 3409SOL     OW10969   2.578   0.563   3.567
 3409SOL    HW110970   2.619   0.626   3.625
 3409SOL    HW210971   2.606   0.478   3.600
 3410SOL     OW10972   3.334   1.198   3.493
 3410SOL    HW110973   3.321   1.213   3.587
 3410SOL    HW210974   3.427   1.215   3.479
 3411SOL     OW10975   2.235   1.738   3.426
 3411SOL    HW110976   2.149   1.769   3.401
 3411SOL    HW210977   2.219   1.655   3.472
 3412SOL     OW10978   3.530   0.881   3.117
 3412SOL    HW110979   3.523   0.795   3.074
 3412SOL    HW210980   3.520   0.944   3.046
 3413SOL     OW10981   3.081   0.331   2.309
 3413SOL    HW110982   3.147   0.264   2.296
 3413SOL    HW210983   3.109   0.379   2.387
 3414SOL     OW10984   2.447   0.736   2.535
 3414SOL    HW110985   2.490   0.821   2.519
 3414SOL    HW210986   2.382   0.729   2.465
 3415SOL     OW10987   3.622   0.368   3.506
 3415SOL    HW110988   3.606   0.382   3.412
 3415SOL    HW210989   3.545   0.321   3.537
 3416SOL     OW10990   3.609   0.933   3.374
 3416SOL    HW110991   3.601   1.028   3.387
 3416SOL    HW210992   3.593   0.921   3.280
 3417SOL     OW10993   2.725   1.367   1.899
 3417SOL    HW110994   2.686   1.394   1.982
 3417SOL    HW210995   2.741   1.449   1.852
 3418SOL     OW10996   2.523   1.797   2.794
 3418SOL    HW110997   2.526   1.881   2.841
 3418SOL    HW210998   2.614   1.768   2.792
 3419SOL     OW10999   2.730   0.969   2.716
 3419SOL    HW111000   2.780   0.897   2.754
 3419SOL    HW211001   2.694   1.015   2.792
 3420SOL     OW11002   2.941   0.989   1.951
 3420SOL    HW111003   2.919   1.040   1.873
 3420SOL    HW211004   3.015   0.935   1.924
 3421SOL     OW11005   3.714   1.555   2.706
 3421SOL    HW111006   3.636   1.542   2.653
 3421SOL    HW211007   3.709   1.487   2.774
 3422SOL     OW11008   2.089   1.300   3.718
 3422SOL    HW111009   2.020   1.241   3.688
 3422SOL    HW211010   2.070   1.313   3.812
 3423SOL     OW11011   1.950   1.232   2.525
 3423SOL    HW111012   1.953   1.187   2.610
 3423SOL    HW211013   2.016   1.188   2.472
 3424SOL     OW11014   2.543   1.405   3.489
 3424SOL    HW111015   2.465   1.361   3.522
 3424SOL    HW211016   2.540   1.493   3.529
 3425SOL     OW11017   3.668   0.179   3.100
 3425SOL    HW111018   3.666   0.086   3.120
 3425SOL    HW211019   3.685   0.184   3.006
 3426SOL     OW11020   2.299   0.433   2.394
 3426SOL    HW111021   2.320   0.364   2.330
 3426SOL    HW211022   2.243   0.390   2.457
 3427SOL     OW11023   3.560   1.489   2.957
 3427SOL    HW111024   3.481   1.467   2.909
 3427SOL    HW211025   3.570   1.419   3.022
 3428SOL     OW11026   2.194   0.559   3.154
 3428SOL    HW111027   2.248   0.502   3.208
 3428SOL    HW211028   2.213   0.532   3.064
 3429SOL     OW11029   2.689   1.578   2.539
 3429SOL    HW111030   2.673   1.631   2.460
 3429SOL    HW211031   2.615   1.517   2.543
 3430SOL     OW11032   3.293   0.216   2.979
 3430SOL    HW111033   3.329   0.145   3.032
 3430SOL    HW211034   3.243   0.269   3.041
 3431SOL     OW11035   2.857   0.004   3.014
 3431SOL    HW111036   2.817   4.417   3.008
 3431SOL    HW211037   2.951   4.487   3.024
 3432SOL     OW11038   2.634   1.333   2.179
 3432SOL    HW111039   2.604   1.243   2.185
 3432SOL    HW211040   2.717   1.334   2.228
 3433SOL     OW11041   2.484   1.554   3.143
 3433SOL    HW111042   2.484   1.633   3.197
 3433SOL    HW211043   2.573   1.548   3.109
 3434SOL     OW11044   3.201   0.052   2.018
 3434SOL    HW111045   3.239   4.476   1.974
 3434SOL    HW211046   3.125   0.017   2.064
 3435SOL     OW11047   3.177   0.464   2.536
 3435SOL    HW111048   3.119   0.540   2.537
 3435SOL    HW211049   3.165   0.424   2.622
 3436SOL     OW11050   3.447   0.198   2.730
 3436SOL    HW111051   3.389   0.214   2.804
 3436SOL    HW211052   3.450   0.282   2.684
 3437SOL     OW11053   1.906   1.068   2.169
 3437SOL    HW111054   2.000   1.060   2.151
 3437SOL    HW211055   1.878   0.980   2.192
 3438SOL     OW11056   2.747   1.655   2.203
 3438SOL    HW111057   2.674   1.637   2.143
 3438SOL    HW211058   2.717   1.729   2.256
 3439SOL     OW11059   2.089   0.624   3.846
 3439SOL    HW111060   2.002   0.619   3.886
 3439SOL    HW211061   2.076   0.597   3.755
 3440SOL     OW11062   2.068   0.301   4.714
 3440SOL    HW111063   2.100   0.270   4.799
 3440SOL    HW211064   1.987   0.253   4.700
 3441SOL     OW11065   1.869   0.388   4.361
 3441SOL    HW111066   1.782   0.406   4.398
 3441SOL    HW211067   1.854   0.315   4.301
 3442SOL     OW11068   2.422   1.262   4.899
 3442SOL    HW111069   2.335   1.246   4.862
 3442SOL    HW211070   2.440   1.354   4.877
 3443SOL     OW11071   3.423   1.513   4.432
 3443SOL    HW111072   3.380   1.492   4.515
 3443SOL    HW211073   3.351   1.516   4.369
 3444SOL     OW11074   2.999   0.696   4.421
 3444SOL    HW111075   3.044   0.780   4.410
 3444SOL    HW211076   2.948   0.706   4.501
 3445SOL     OW11077   3.634   0.605   3.950
 3445SOL    HW111078   3.610   0.596   3.858
 3445SOL    HW211079   3.597   0.526   3.991
 3446SOL     OW11080   2.616   1.123   4.771
 3446SOL    HW111081   2.550   1.161   4.830
 3446SOL    HW211082   2.648   1.197   4.720
 3447SOL     OW11083   2.731   0.771   5.546
 3447SOL    HW111084   2.717   0.843   5.608
 3447SOL    HW211085   2.754   0.815   5.464
 3448SOL     OW11086   2.547   0.999   4.370
 3448SOL    HW111087   2.614   0.991   4.437
 3448SOL    HW211088   2.480   1.055   4.410
 3449SOL     OW11089   2.572   1.148   5.538
 3449SOL    HW111090   2.622   1.224   5.567
 3449SOL    HW211091   2.491   1.184   5.502
 3450SOL     OW11092   3.321   1.496   5.085
 3450SOL    HW111093   3.367   1.580   5.089
 3450SOL    HW211094   3.257   1.500   5.156
 3451SOL     OW11095   2.305   0.395   5.212
 3451SOL    HW111096   2.387   0.346   5.214
 3451SOL    HW211097   2.237   0.328   5.225
 3452SOL     OW11098   3.471   0.444   4.463
 3452SOL    HW111099   3.391   0.464   4.414
 3452SOL    HW211100   3.487   0.522   4.516
 3453SOL     OW11101   2.085   1.718   4.203
 3453SOL    HW111102   2.119   1.753   4.286
 3453SOL    HW211103   2.163   1.706   4.148
 3454SOL     OW11104   3.001   1.351   5.427
 3454SOL    HW111105   3.035   1.337   5.515
 3454SOL    HW211106   2.945   1.276   5.410
 3455SOL     OW11107   2.081   1.442   4.259
 3455SOL    HW111108   2.064   1.535   4.271
 3455SOL    HW211109   2.027   1.399   4.326
 3456SOL     OW11110   2.120   1.092   4.615
 3456SOL    HW111111   2.116   1.005   4.655
 3456SOL    HW211112   2.063   1.147   4.669
 3457SOL     OW11113   2.446   0.983   3.860
 3457SOL    HW111114   2.493   1.031   3.791
 3457SOL    HW211115   2.485   1.014   3.941
 3458SOL     OW11116   3.442   0.116   5.193
 3458SOL    HW111117   3.471   0.184   5.132
 3458SOL    HW211118   3.431   0.162   5.276
 3459SOL     OW11119   1.979   0.654   4.284
 3459SOL    HW111120   1.949   0.566   4.307
 3459SOL    HW211121   1.971   0.704   4.366
 3460SOL     OW11122   3.705   1.758   4.056
 3460SOL    HW111123   3.769   1.730   4.122
 3460SOL    HW211124   3.728   1.849   4.038
 3461SOL     OW11125   1.893   1.593   3.850
 3461SOL    HW111126   1.879   1.499   3.865
 3461SOL    HW211127   1.867   1.635   3.932
 3462SOL     OW11128   3.553   0.920   4.367
 3462SOL    HW111129   3.635   0.877   4.343
 3462SOL    HW211130   3.528   0.971   4.289
 3463SOL     OW11131   3.509   1.106   4.152
 3463SOL    HW111132   3.596   1.111   4.111
 3463SOL    HW211133   3.513   1.168   4.225
 3464SOL     OW11134   1.984   0.746   5.308
 3464SOL    HW111135   2.076   0.774   5.313
 3464SOL    HW211136   1.934   0.827   5.311
 3465SOL     OW11137   2.472   1.391   4.450
 3465SOL    HW111138   2.423   1.309   4.459
 3465SOL    HW211139   2.454   1.420   4.361
 3466SOL     OW11140   3.152   1.232   5.154
 3466SOL    HW111141   3.182   1.168   5.089
 3466SOL    HW211142   3.214   1.225   5.226
 3467SOL     OW11143   2.681   0.017   4.277
 3467SOL    HW111144   2.717   0.101   4.251
 3467SOL    HW211145   2.586   0.028   4.270
 3468SOL     OW11146   2.050   0.964   4.999
 3468SOL    HW111147   2.136   0.924   4.985
 3468SOL    HW211148   1.991   0.916   4.941
 3469SOL     OW11149   3.394   0.994   3.923
 3469SOL    HW111150   3.324   0.938   3.956
 3469SOL    HW211151   3.435   1.029   4.002
 3470SOL     OW11152   3.053   1.793   5.346
 3470SOL    HW111153   3.083   1.850   5.275
 3470SOL    HW211154   3.077   1.705   5.317
 3471SOL     OW11155   2.177   0.253   5.503
 3471SOL    HW111156   2.241   0.317   5.535
 3471SOL    HW211157   2.104   0.258   5.565
 3472SOL     OW11158   3.336   1.415   4.678
 3472SOL    HW111159   3.265   1.431   4.740
 3472SOL    HW211160   3.322   1.326   4.647
 3473SOL     OW11161   3.520   1.742   4.302
 3473SOL    HW111162   3.499   1.712   4.213
 3473SOL    HW211163   3.494   1.669   4.358
 3474SOL     OW11164   2.454   0.722   3.990
 3474SOL    HW111165   2.459   0.805   3.943
 3474SOL    HW211166   2.389   0.738   4.059
 3475SOL     OW11167   3.155   0.367   4.656
 3475SOL    HW111168   3.065   0.338   4.639
 3475SOL    HW211169   3.190   0.303   4.718
 3476SOL     OW11170   3.442   1.675   4.033
 3476SOL    HW111171   3.533   1.703   4.025
 3476SOL    HW211172   3.415   1.656   3.943
 3477SOL     OW11173   2.657   0.620   5.178
 3477SOL    HW111174   2.628   0.593   5.265
 3477SOL    HW211175   2.620   0.554   5.119
 3478SOL     OW11176   3.250   0.481   5.400
 3478SOL    HW111177   3.254   0.525   5.485
 3478SOL    HW211178   3.317   0.412   5.405
 3479SOL     OW11179   2.815   0.888   5.307
 3479SOL    HW111180   2.869   0.817   5.272
 3479SOL    HW211181   2.768   0.922   5.231
 3480SOL     OW11182   2.859   0.416   4.959
 3480SOL    HW111183   2.769   0.425   4.991
 3480SOL    HW211184   2.851   0.364   4.879
 3481SOL     OW11185   2.913   0.697   4.150
 3481SOL    HW111186   2.930   0.690   4.244
 3481SOL    HW211187   2.829   0.653   4.137
 3482SOL     OW11188   1.950   0.821   4.501
 3482SOL    HW111189   2.031   0.815   4.552
 3482SOL    HW211190   1.906   0.899   4.535
 3483SOL     OW11191   2.717   0.370   3.908
 3483SOL    HW111192   2.787   0.404   3.853
 3483SOL    HW211193   2.732   0.275   3.911
 3484SOL     OW11194   3.565   0.572   5.552
 3484SOL    HW111195   3.530   0.647   5.504
 3484SOL    HW211196   3.601   0.514   5.485
 3485SOL     OW11197   3.240   1.142   4.265
 3485SOL    HW111198   3.318   1.132   4.211
 3485SOL    HW211199   3.186   1.205   4.218
 3486SOL     OW11200   2.398   0.206   4.626
 3486SOL    HW111201   2.421   0.224   4.717
 3486SOL    HW211202   2.391   0.292   4.585
 3487SOL     OW11203   2.865   1.444   4.195
 3487SOL    HW111204   2.831   1.519   4.146
 3487SOL    HW211205   2.844   1.463   4.286
 3488SOL     OW11206   2.255   1.806   4.505
 3488SOL    HW111207   2.232   1.745   4.576
 3488SOL    HW211208   2.310   1.871   4.547
 3489SOL     OW11209   3.661   1.058   4.593
 3489SOL    HW111210   3.607   1.037   4.516
 3489SOL    HW211211   3.598   1.063   4.665
 3490SOL     OW11212   3.083   1.539   5.244
 3490SOL    HW111213   3.064   1.468   5.305
 3490SOL    HW211214   3.032   1.517   5.166
 3491SOL     OW11215   2.181   0.958   3.975
 3491SOL    HW111216   2.263   0.977   3.930
 3491SOL    HW211217   2.151   0.876   3.936
 3492SOL     OW11218   3.344   0.743   4.446
 3492SOL    HW111219   3.333   0.702   4.532
 3492SOL    HW211220   3.419   0.801   4.457
 3493SOL     OW11221   2.330   1.265   5.458
 3493SOL    HW111222   2.303   1.269   5.367
 3493SOL    HW211223   2.249   1.254   5.507
 3494SOL     OW11224   2.985   1.779   3.954
 3494SOL    HW111225   2.912   1.739   4.000
 3494SOL    HW211226   3.008   1.716   3.886
 3495SOL     OW11227   2.048   0.267   5.238
 3495SOL    HW111228   1.984   0.336   5.224
 3495SOL    HW211229   2.067   0.270   5.332
 3496SOL     OW11230   3.491   1.381   3.811
 3496SOL    HW111231   3.449   1.465   3.798
 3496SOL    HW211232   3.422   1.316   3.793
 3497SOL     OW11233   2.340   1.723   4.064
 3497SOL    HW111234   2.376   1.791   4.121
 3497SOL    HW211235   2.413   1.700   4.005
 3498SOL     OW11236   3.286   0.143   4.142
 3498SOL    HW111237   3.270   0.088   4.065
 3498SOL    HW211238   3.380   0.133   4.159
 3499SOL     OW11239   2.256   0.694   4.198
 3499SOL    HW111240   2.277   0.601   4.213
 3499SOL    HW211241   2.162   0.699   4.216
 3500SOL     OW11242   3.386   0.233   5.447
 3500SOL    HW111243   3.386   0.255   5.540
 3500SOL    HW211244   3.307   0.181   5.434
 3501SOL     OW11245   2.492   0.120   3.849
 3501SOL    HW111246   2.581   0.085   3.857
 3501SOL    HW211247   2.459   0.083   3.767
 3502SOL     OW11248   2.630   0.271   5.479
 3502SOL    HW111249   2.697   0.203   5.483
 3502SOL    HW211250   2.590   0.270   5.566
 3503SOL     OW11251   3.202   0.590   5.152
 3503SOL    HW111252   3.230   0.562   5.239
 3503SOL    HW211253   3.236   0.679   5.143
 3504SOL     OW11254   2.666   1.348   4.638
 3504SOL    HW111255   2.751   1.385   4.614
 3504SOL    HW211256   2.607   1.375   4.568
 3505SOL     OW11257   2.786   0.521   4.622
 3505SOL    HW111258   2.770   0.519   4.528
 3505SOL    HW211259   2.821   0.434   4.642
 3506SOL     OW11260   2.417   0.078   4.246
 3506SOL    HW111261   2.330   0.047   4.270
 3506SOL    HW211262   2.402   0.141   4.175
 3507SOL     OW11263   3.290   1.199   3.765
 3507SOL    HW111264   3.319   1.123   3.816
 3507SOL    HW211265   3.205   1.221   3.802
 3508SOL     OW11266   2.156   0.065   3.927
 3508SOL    HW111267   2.234   0.120   3.910
 3508SOL    HW211268   2.186   0.000   3.990
 3509SOL     OW11269   2.817   0.239   4.188
 3509SOL    HW111270   2.765   0.302   4.139
 3509SOL    HW211271   2.907   0.274   4.184
 3510SOL     OW11272   2.942   0.681   5.186
 3510SOL    HW111273   2.872   0.616   5.182
 3510SOL    HW211274   3.022   0.631   5.172
 3511SOL     OW11275   3.102   1.558   4.502
 3511SOL    HW111276   3.111   1.634   4.443
 3511SOL    HW211277   3.144   1.587   4.583
 3512SOL     OW11278   2.330   1.150   4.454
 3512SOL    HW111279   2.262   1.132   4.518
 3512SOL    HW211280   2.289   1.134   4.369
 3513SOL     OW11281   3.140   1.788   4.328
 3513SOL    HW111282   3.180   1.858   4.276
 3513SOL    HW211283   3.057   1.825   4.357
 3514SOL     OW11284   2.890   0.545   3.743
 3514SOL    HW111285   2.842   0.627   3.728
 3514SOL    HW211286   2.948   0.566   3.816
 3515SOL     OW11287   1.947   0.549   5.121
 3515SOL    HW111288   2.037   0.553   5.090
 3515SOL    HW211289   1.939   0.621   5.183
 3516SOL     OW11290   2.424   0.246   4.892
 3516SOL    HW111291   2.449   0.163   4.934
 3516SOL    HW211292   2.331   0.257   4.916
 3517SOL     OW11293   2.727   0.504   4.352
 3517SOL    HW111294   2.686   0.543   4.275
 3517SOL    HW211295   2.683   0.419   4.362
 3518SOL     OW11296   2.818   0.018   4.515
 3518SOL    HW111297   2.772   0.020   4.431
 3518SOL    HW211298   2.834   4.425   4.531
 3519SOL     OW11299   3.303   1.160   4.580
 3519SOL    HW111300   3.226   1.103   4.583
 3519SOL    HW211301   3.321   1.171   4.487
 3520SOL     OW11302   3.327   0.606   4.695
 3520SOL    HW111303   3.272   0.528   4.697
 3520SOL    HW211304   3.383   0.598   4.772
 3521SOL     OW11305   3.707   0.815   4.107
 3521SOL    HW111306   3.764   0.764   4.166
 3521SOL    HW211307   3.680   0.752   4.040
 3522SOL     OW11308   2.352   1.419   3.880
 3522SOL    HW111309   2.277   1.391   3.932
 3522SOL    HW211310   2.339   1.377   3.795
 3523SOL     OW11311   3.534   1.266   4.365
 3523SOL    HW111312   3.628   1.269   4.382
 3523SOL    HW211313   3.502   1.353   4.389
 3524SOL     OW11314   3.257   0.571   3.794
 3524SOL    HW111315   3.194   0.555   3.864
 3524SOL    HW211316   3.342   0.555   3.833
 3525SOL     OW11317   2.381   0.265   4.046
 3525SOL    HW111318   2.431   0.215   3.982
 3525SOL    HW211319   2.363   0.348   4.003
 3526SOL     OW11320   3.614   1.241   5.295
 3526SOL    HW111321   3.701   1.201   5.290
 3526SOL    HW211322   3.630   1.331   5.323
 3527SOL     OW11323   2.932   1.363   5.067
 3527SOL    HW111324   2.851   1.330   5.106
 3527SOL    HW211325   3.001   1.310   5.106
 3528SOL     OW11326   3.470   1.626   5.379
 3528SOL    HW111327   3.464   1.660   5.290
 3528SOL    HW211328   3.552   1.577   5.381
 3529SOL     OW11329   2.984   1.204   4.832
 3529SOL    HW111330   2.925   1.251   4.891
 3529SOL    HW211331   2.965   1.239   4.745
 3530SOL     OW11332   3.488   1.097   4.801
 3530SOL    HW111333   3.482   1.160   4.873
 3530SOL    HW211334   3.412   1.115   4.747
 3531SOL     OW11335   2.762   0.134   5.110
 3531SOL    HW111336   2.784   0.090   5.029
 3531SOL    HW211337   2.846   0.152   5.152
 3532SOL     OW11338   2.848   1.116   5.448
 3532SOL    HW111339   2.756   1.132   5.467
 3532SOL    HW211340   2.847   1.039   5.391
 3533SOL     OW11341   2.571   1.062   4.095
 3533SOL    HW111342   2.557   1.045   4.188
 3533SOL    HW211343   2.646   1.008   4.072
 3534SOL     OW11344   2.281   0.819   4.978
 3534SOL    HW111345   2.351   0.827   5.042
 3534SOL    HW211346   2.247   0.730   4.989
 3535SOL     OW11347   3.130   0.374   4.999
 3535SOL    HW111348   3.162   0.453   5.042
 3535SOL    HW211349   3.041   0.396   4.973
 3536SOL     OW11350   2.204   1.112   4.214
 3536SOL    HW111351   2.213   1.185   4.154
 3536SOL    HW211352   2.204   1.034   4.157
 3537SOL     OW11353   2.416   0.527   4.582
 3537SOL    HW111354   2.428   0.587   4.508
 3537SOL    HW211355   2.482   0.555   4.646
 3538SOL     OW11356   3.110   1.349   4.113
 3538SOL    HW111357   3.165   1.420   4.145
 3538SOL    HW211358   3.023   1.369   4.148
 3539SOL     OW11359   3.149   1.451   4.869
 3539SOL    HW111360   3.198   1.450   4.950
 3539SOL    HW211361   3.078   1.389   4.883
 3540SOL     OW11362   3.442   0.623   4.202
 3540SOL    HW111363   3.395   0.669   4.272
 3540SOL    HW211364   3.485   0.692   4.152
 3541SOL     OW11365   2.279   0.743   5.327
 3541SOL    HW111366   2.338   0.789   5.268
 3541SOL    HW211367   2.323   0.660   5.345
 3542SOL     OW11368   3.466   0.779   5.406
 3542SOL    HW111369   3.380   0.821   5.400
 3542SOL    HW211370   3.518   0.821   5.338
 3543SOL     OW11371   2.863   0.085   5.440
 3543SOL    HW111372   2.900   0.165   5.404
 3543SOL    HW211373   2.887   0.017   5.378
 3544SOL     OW11374   2.360   0.043   5.486
 3544SOL    HW111375   2.368   0.010   5.397
 3544SOL    HW211376   2.294   0.112   5.481
 3545SOL     OW11377   2.444   0.874   4.753
 3545SOL    HW111378   2.485   0.960   4.753
 3545SOL    HW211379   2.390   0.872   4.832
 3546SOL     OW11380   3.217   0.858   4.753
 3546SOL    HW111381   3.132   0.849   4.709
 3546SOL    HW211382   3.258   0.772   4.743
 3547SOL     OW11383   3.063   0.536   3.984
 3547SOL    HW111384   3.070   0.456   4.037
 3547SOL    HW211385   3.020   0.599   4.042
 3548SOL     OW11386   2.152   0.232   4.966
 3548SOL    HW111387   2.105   0.248   5.049
 3548SOL    HW211388   2.190   0.145   4.976
 3549SOL     OW11389   1.911   1.323   5.011
 3549SOL    HW111390   1.940   1.261   5.077
 3549SOL    HW211391   1.912   1.408   5.054
 3550SOL     OW11392   2.583   0.631   4.779
 3550SOL    HW111393   2.659   0.613   4.723
 3550SOL    HW211394   2.556   0.720   4.756
 3551SOL     OW11395   3.598   0.959   5.578
 3551SOL    HW111396   3.552   0.896   5.522
 3551SOL    HW211397   3.538   0.974   5.651
 3552SOL     OW11398   2.157   0.050   4.377
 3552SOL    HW111399   2.147   0.145   4.377
 3552SOL    HW211400   2.169   0.027   4.469
 3553SOL     OW11401   3.481   0.381   4.083
 3553SOL    HW111402   3.506   0.316   4.148
 3553SOL    HW211403   3.456   0.458   4.134
 3554SOL     OW11404   2.894   0.762   4.684
 3554SOL    HW111405   2.888   0.778   4.779
 3554SOL    HW211406   2.863   0.672   4.674
 3555SOL     OW11407   3.716   1.504   5.330
 3555SOL    HW111408   3.734   1.531   5.240
 3555SOL    HW211409   3.797   1.522   5.377
 3556SOL     OW11410   2.215   0.919   5.529
 3556SOL    HW111411   2.296   0.936   5.578
 3556SOL    HW211412   2.240   0.854   5.463
 3557SOL     OW11413   3.392   0.263   3.852
 3557SOL    HW111414   3.320   0.207   3.883
 3557SOL    HW211415   3.422   0.309   3.930
 3558SOL     OW11416   3.151   0.826   3.753
 3558SOL    HW111417   3.194   0.740   3.756
 3558SOL    HW211418   3.183   0.865   3.672
 3559SOL     OW11419   2.949   1.330   4.585
 3559SOL    HW111420   2.940   1.263   4.517
 3559SOL    HW211421   2.999   1.400   4.542
 3560SOL     OW11422   2.170   0.810   4.672
 3560SOL    HW111423   2.263   0.834   4.664
 3560SOL    HW211424   2.170   0.720   4.703
 3561SOL     OW11425   2.198   0.534   4.738
 3561SOL    HW111426   2.155   0.450   4.719
 3561SOL    HW211427   2.274   0.535   4.681
 3562SOL     OW11428   2.998   0.371   5.424
 3562SOL    HW111429   2.946   0.435   5.473
 3562SOL    HW211430   3.082   0.415   5.409
 3563SOL     OW11431   3.017   0.213   5.198
 3563SOL    HW111432   3.012   0.278   5.269
 3563SOL    HW211433   3.058   0.261   5.126
 3564SOL     OW11434   1.868   1.320   3.917
 3564SOL    HW111435   1.780   1.334   3.881
 3564SOL    HW211436   1.864   1.230   3.952
 3565SOL     OW11437   2.844   0.789   4.950
 3565SOL    HW111438   2.900   0.769   5.025
 3565SOL    HW211439   2.759   0.751   4.973
 3566SOL     OW11440   1.895   0.544   4.843
 3566SOL    HW111441   1.971   0.526   4.787
 3566SOL    HW211442   1.930   0.547   4.932
 3567SOL     OW11443   2.048   0.521   5.447
 3567SOL    HW111444   2.124   0.501   5.392
 3567SOL    HW211445   2.007   0.597   5.405
 3568SOL     OW11446   3.240   0.937   5.382
 3568SOL    HW111447   3.261   1.030   5.379
 3568SOL    HW211448   3.235   0.911   5.290
 3569SOL     OW11449   2.672   0.576   4.082
 3569SOL    HW111450   2.677   0.505   4.018
 3569SOL    HW211451   2.599   0.631   4.052
 3570SOL     OW11452   3.501   0.601   4.908
 3570SOL    HW111453   3.491   0.542   4.983
 3570SOL    HW211454   3.588   0.583   4.874
 3571SOL     OW11455   2.055   1.527   5.486
 3571SOL    HW111456   2.065   1.591   5.557
 3571SOL    HW211457   2.084   1.444   5.525
 3572SOL     OW11458   2.565   0.458   4.986
 3572SOL    HW111459   2.517   0.382   4.955
 3572SOL    HW211460   2.564   0.520   4.913
 3573SOL     OW11461   2.325   0.492   3.907
 3573SOL    HW111462   2.384   0.564   3.929
 3573SOL    HW211463   2.240   0.534   3.894
 3574SOL     OW11464   2.011   1.144   5.196
 3574SOL    HW111465   2.012   1.094   5.278
 3574SOL    HW211466   2.025   1.079   5.128
 3575SOL     OW11467   3.184   1.047   4.947
 3575SOL    HW111468   3.206   0.985   4.878
 3575SOL    HW211469   3.113   1.100   4.909
 3576SOL     OW11470   3.177   0.855   4.029
 3576SOL    HW111471   3.102   0.829   4.082
 3576SOL    HW211472   3.148   0.843   3.939
 3577SOL     OW11473   3.638   1.741   4.877
 3577SOL    HW111474   3.697   1.767   4.806
 3577SOL    HW211475   3.611   1.652   4.855
 3578SOL     OW11476   3.148   1.727   4.870
 3578SOL    HW111477   3.214   1.744   4.804
 3578SOL    HW211478   3.134   1.632   4.867
 3579SOL     OW11479   1.943   1.253   4.746
 3579SOL    HW111480   1.924   1.275   4.837
 3579SOL    HW211481   1.867   1.201   4.718
 3580SOL     OW11482   2.547   1.659   5.435
 3580SOL    HW111483   2.475   1.719   5.417
 3580SOL    HW211484   2.614   1.681   5.370
 3581SOL     OW11485   3.581   0.129   4.213
 3581SOL    HW111486   3.650   0.140   4.148
 3581SOL    HW211487   3.612   0.059   4.270
 3582SOL     OW11488   3.255   1.566   4.207
 3582SOL    HW111489   3.313   1.603   4.140
 3582SOL    HW211490   3.206   1.642   4.240
 3583SOL     OW11491   1.953   1.806   5.571
 3583SOL    HW111492   1.914   1.730   5.614
 3583SOL    HW211493   2.023   1.834   5.630
 3584SOL     OW11494   3.140   0.927   4.395
 3584SOL    HW111495   3.214   0.866   4.401
 3584SOL    HW211496   3.174   1.000   4.344
 3585SOL     OW11497   2.681   1.271   5.151
 3585SOL    HW111498   2.649   1.313   5.231
 3585SOL    HW211499   2.612   1.285   5.087
 3586SOL     OW11500   2.533   1.622   3.880
 3586SOL    HW111501   2.544   1.636   3.786
 3586SOL    HW211502   2.477   1.544   3.886
 3587SOL     OW11503   3.487   1.730   5.118
 3587SOL    HW111504   3.536   1.734   5.035
 3587SOL    HW211505   3.472   1.821   5.141
 3588SOL     OW11506   3.701   0.153   4.690
 3588SOL    HW111507   3.732   0.076   4.643
 3588SOL    HW211508   3.614   0.170   4.652
 3589SOL     OW11509   2.124   0.319   4.439
 3589SOL    HW111510   2.039   0.355   4.413
 3589SOL    HW211511   2.120   0.313   4.535
 3590SOL     OW11512   3.071   1.604   3.755
 3590SOL    HW111513   3.060   1.513   3.784
 3590SOL    HW211514   3.004   1.616   3.688
 3591SOL     OW11515   2.687   1.005   5.094
 3591SOL    HW111516   2.730   0.999   5.009
 3591SOL    HW211517   2.691   1.098   5.117
 3592SOL     OW11518   2.777   0.909   4.013
 3592SOL    HW111519   2.839   0.942   3.948
 3592SOL    HW211520   2.825   0.841   4.060
 3593SOL     OW11521   3.353   1.626   3.767
 3593SOL    HW111522   3.258   1.618   3.754
 3593SOL    HW211523   3.389   1.632   3.679
 3594SOL     OW11524   2.233   1.308   5.212
 3594SOL    HW111525   2.198   1.397   5.205
 3594SOL    HW211526   2.158   1.251   5.194
 3595SOL     OW11527   3.474   1.284   5.005
 3595SOL    HW111528   3.530   1.270   5.081
 3595SOL    HW211529   3.411   1.350   5.032
 3596SOL     OW11530   2.916   1.108   4.426
 3596SOL    HW111531   2.844   1.060   4.468
 3596SOL    HW211532   2.978   1.039   4.401
 3597SOL     OW11533   2.865   0.246   4.734
 3597SOL    HW111534   2.872   0.227   4.640
 3597SOL    HW211535   2.857   0.160   4.775
 3598SOL     OW11536   2.461   1.488   4.196
 3598SOL    HW111537   2.506   1.438   4.128
 3598SOL    HW211538   2.396   1.541   4.148
 3599SOL     OW11539   3.585   0.394   5.101
 3599SOL    HW111540   3.658   0.456   5.100
 3599SOL    HW211541   3.613   0.322   5.043
 3600SOL     OW11542   2.121   1.346   4.014
 3600SOL    HW111543   2.029   1.342   3.991
 3600SOL    HW211544   2.122   1.383   4.102
 3601SOL     OW11545   1.975   1.033   5.448
 3601SOL    HW111546   1.899   1.003   5.497
 3601SOL    HW211547   2.049   0.988   5.489
 3602SOL     OW11548   2.519   0.204   5.225
 3602SOL    HW111549   2.598   0.180   5.177
 3602SOL    HW211550   2.550   0.228   5.312
 3603SOL     OW11551   1.944   0.334   3.771
 3603SOL    HW111552   1.874   0.280   3.735
 3603SOL    HW211553   1.956   0.405   3.708
 3604SOL     OW11554   3.290   0.858   5.122
 3604SOL    HW111555   3.240   0.919   5.068
 3604SOL    HW211556   3.378   0.861   5.086
 3605SOL     OW11557   1.925   0.186   4.039
 3605SOL    HW111558   1.925   0.254   3.971
 3605SOL    HW211559   1.999   0.130   4.018
 3606SOL     OW11560   3.040   1.338   3.842
 3606SOL    HW111561   2.950   1.308   3.844
 3606SOL    HW211562   3.068   1.340   3.933
 3607SOL     OW11563   2.483   0.831   5.158
 3607SOL    HW111564   2.539   0.907   5.141
 3607SOL    HW211565   2.543   0.757   5.167
 3608SOL     OW11566   3.354   1.779   4.698
 3608SOL    HW111567   3.375   1.834   4.622
 3608SOL    HW211568   3.438   1.758   4.737
 3609SOL     OW11569   2.577   0.562   5.429
 3609SOL    HW111570   2.619   0.626   5.487
 3609SOL    HW211571   2.607   0.477   5.462
 3610SOL     OW11572   3.338   1.196   5.357
 3610SOL    HW111573   3.325   1.212   5.450
 3610SOL    HW211574   3.431   1.214   5.342
 3611SOL     OW11575   3.530   0.881   4.979
 3611SOL    HW111576   3.522   0.796   4.935
 3611SOL    HW211577   3.519   0.945   4.909
 3612SOL     OW11578   3.081   0.331   4.171
 3612SOL    HW111579   3.148   0.264   4.159
 3612SOL    HW211580   3.109   0.379   4.248
 3613SOL     OW11581   2.447   0.736   4.397
 3613SOL    HW111582   2.489   0.821   4.384
 3613SOL    HW211583   2.382   0.730   4.327
 3614SOL     OW11584   3.622   0.368   5.368
 3614SOL    HW111585   3.607   0.382   5.275
 3614SOL    HW211586   3.544   0.321   5.399
 3615SOL     OW11587   3.611   0.933   5.235
 3615SOL    HW111588   3.601   1.027   5.248
 3615SOL    HW211589   3.593   0.920   5.142
 3616SOL     OW11590   2.724   1.366   3.760
 3616SOL    HW111591   2.688   1.389   3.845
 3616SOL    HW211592   2.740   1.450   3.717
 3617SOL     OW11593   2.732   0.966   4.576
 3617SOL    HW111594   2.785   0.896   4.615
 3617SOL    HW211595   2.698   1.015   4.651
 3618SOL     OW11596   2.941   0.989   3.813
 3618SOL    HW111597   2.919   1.040   3.735
 3618SOL    HW211598   3.015   0.934   3.786
 3619SOL     OW11599   3.713   1.555   4.568
 3619SOL    HW111600   3.635   1.543   4.514
 3619SOL    HW211601   3.705   1.488   4.636
 3620SOL     OW11602   2.092   1.278   5.589
 3620SOL    HW111603   2.031   1.215   5.550
 3620SOL    HW211604   2.061   1.289   5.679
 3621SOL     OW11605   1.949   1.226   4.388
 3621SOL    HW111606   1.963   1.182   4.472
 3621SOL    HW211607   2.017   1.189   4.331
 3622SOL     OW11608   2.544   1.401   5.345
 3622SOL    HW111609   2.465   1.358   5.379
 3622SOL    HW211610   2.537   1.491   5.376
 3623SOL     OW11611   3.668   0.179   4.962
 3623SOL    HW111612   3.665   0.085   4.981
 3623SOL    HW211613   3.685   0.184   4.868
 3624SOL     OW11614   2.299   0.432   4.256
 3624SOL    HW111615   2.320   0.364   4.192
 3624SOL    HW211616   2.242   0.389   4.319
 3625SOL     OW11617   3.561   1.489   4.820
 3625SOL    HW111618   3.482   1.468   4.771
 3625SOL    HW211619   3.568   1.418   4.885
 3626SOL     OW11620   2.194   0.559   5.016
 3626SOL    HW111621   2.249   0.502   5.069
 3626SOL    HW211622   2.212   0.533   4.926
 3627SOL     OW11623   2.692   1.573   4.394
 3627SOL    HW111624   2.665   1.625   4.318
 3627SOL    HW211625   2.614   1.522   4.417
 3628SOL     OW11626   3.293   0.216   4.841
 3628SOL    HW111627   3.328   0.145   4.894
 3628SOL    HW211628   3.242   0.269   4.903
 3629SOL     OW11629   2.857   0.004   4.876
 3629SOL    HW111630   2.818   4.417   4.869
 3629SOL    HW211631   2.951   4.487   4.885
 3630SOL     OW11632   2.638   1.332   4.036
 3630SOL    HW111633   2.607   1.242   4.047
 3630SOL    HW211634   2.715   1.338   4.093
 3631SOL     OW11635   3.201   0.052   3.880
 3631SOL    HW111636   3.239   4.476   3.836
 3631SOL    HW211637   3.125   0.018   3.926
 3632SOL     OW11638   3.176   0.463   4.398
 3632SOL    HW111639   3.119   0.540   4.398
 3632SOL    HW211640   3.165   0.424   4.484
 3633SOL     OW11641   3.447   0.199   4.592
 3633SOL    HW111642   3.389   0.214   4.666
 3633SOL    HW211643   3.450   0.283   4.546
 3634SOL     OW11644   1.904   1.070   4.030
 3634SOL    HW111645   1.999   1.062   4.014
 3634SOL    HW211646   1.877   0.981   4.053
 3635SOL     OW11647   2.749   1.657   4.063
 3635SOL    HW111648   2.676   1.638   4.004
 3635SOL    HW211649   2.719   1.729   4.117
 3636SOL     OW11650   2.089   0.627   5.708
 3636SOL    HW111651   2.003   0.617   5.748
 3636SOL    HW211652   2.077   0.597   5.618
 3637SOL     OW11653   2.068   0.301   6.576
 3637SOL    HW111654   2.100   0.270   6.661
 3637SOL    HW211655   1.987   0.253   6.562
 3638SOL     OW11656   1.869   0.389   6.222
 3638SOL    HW111657   1.782   0.407   6.260
 3638SOL    HW211658   1.854   0.315   6.163
 3639SOL     OW11659   2.433   1.290   6.764
 3639SOL    HW111660   2.343   1.291   6.729
 3639SOL    HW211661   2.446   1.379   6.797
 3640SOL     OW11662   3.425   1.512   6.294
 3640SOL    HW111663   3.382   1.491   6.377
 3640SOL    HW211664   3.355   1.513   6.229
 3641SOL     OW11665   2.999   0.698   6.282
 3641SOL    HW111666   3.043   0.782   6.273
 3641SOL    HW211667   2.948   0.706   6.363
 3642SOL     OW11668   3.632   0.605   5.813
 3642SOL    HW111669   3.610   0.597   5.720
 3642SOL    HW211670   3.597   0.525   5.853
 3643SOL     OW11671   2.617   1.145   6.626
 3643SOL    HW111672   2.550   1.180   6.684
 3643SOL    HW211673   2.652   1.221   6.580
 3644SOL     OW11674   2.730   0.771   7.409
 3644SOL    HW111675   2.717   0.841   7.472
 3644SOL    HW211676   2.754   0.816   7.327
 3645SOL     OW11677   2.549   0.999   6.230
 3645SOL    HW111678   2.615   0.989   6.300
 3645SOL    HW211679   2.475   1.042   6.273
 3646SOL     OW11680   2.574   1.151   7.400
 3646SOL    HW111681   2.621   1.229   7.428
 3646SOL    HW211682   2.492   1.184   7.364
 3647SOL     OW11683   2.195   1.421   6.649
 3647SOL    HW111684   2.115   1.377   6.621
 3647SOL    HW211685   2.230   1.460   6.569
 3648SOL     OW11686   3.322   1.500   6.942
 3648SOL    HW111687   3.374   1.580   6.952
 3648SOL    HW211688   3.257   1.505   7.012
 3649SOL     OW11689   2.305   0.394   7.072
 3649SOL    HW111690   2.387   0.345   7.075
 3649SOL    HW211691   2.237   0.328   7.087
 3650SOL     OW11692   3.471   0.444   6.325
 3650SOL    HW111693   3.391   0.464   6.276
 3650SOL    HW211694   3.487   0.521   6.378
 3651SOL     OW11695   2.999   1.341   7.279
 3651SOL    HW111696   3.039   1.337   7.366
 3651SOL    HW211697   2.947   1.262   7.272
 3652SOL     OW11698   2.116   1.083   6.479
 3652SOL    HW111699   2.114   0.998   6.521
 3652SOL    HW211700   2.060   1.139   6.533
 3653SOL     OW11701   2.472   1.778   7.018
 3653SOL    HW111702   2.387   1.768   7.062
 3653SOL    HW211703   2.495   1.870   7.031
 3654SOL     OW11704   2.444   0.983   5.723
 3654SOL    HW111705   2.490   1.029   5.653
 3654SOL    HW211706   2.484   1.014   5.804
 3655SOL     OW11707   3.441   0.116   7.055
 3655SOL    HW111708   3.471   0.184   6.994
 3655SOL    HW211709   3.431   0.162   7.138
 3656SOL     OW11710   1.979   0.655   6.146
 3656SOL    HW111711   1.949   0.566   6.167
 3656SOL    HW211712   1.970   0.704   6.228
 3657SOL     OW11713   3.705   1.758   5.919
 3657SOL    HW111714   3.770   1.730   5.984
 3657SOL    HW211715   3.727   1.849   5.901
 3658SOL     OW11716   1.877   1.595   5.715
 3658SOL    HW111717   1.865   1.501   5.724
 3658SOL    HW211718   1.868   1.630   5.804
 3659SOL     OW11719   3.553   0.920   6.230
 3659SOL    HW111720   3.635   0.876   6.207
 3659SOL    HW211721   3.530   0.970   6.151
 3660SOL     OW11722   3.509   1.106   6.015
 3660SOL    HW111723   3.595   1.110   5.973
 3660SOL    HW211724   3.514   1.168   6.088
 3661SOL     OW11725   1.984   0.746   7.169
 3661SOL    HW111726   2.075   0.774   7.176
 3661SOL    HW211727   1.933   0.827   7.176
 3662SOL     OW11728   2.505   1.319   6.321
 3662SOL    HW111729   2.441   1.252   6.343
 3662SOL    HW211730   2.499   1.328   6.226
 3663SOL     OW11731   3.150   1.238   7.008
 3663SOL    HW111732   3.182   1.170   6.948
 3663SOL    HW211733   3.208   1.232   7.084
 3664SOL     OW11734   2.681   0.017   6.139
 3664SOL    HW111735   2.717   0.101   6.113
 3664SOL    HW211736   2.586   0.028   6.132
 3665SOL     OW11737   2.052   0.964   6.861
 3665SOL    HW111738   2.137   0.923   6.845
 3665SOL    HW211739   1.990   0.914   6.808
 3666SOL     OW11740   3.394   0.994   5.785
 3666SOL    HW111741   3.323   0.938   5.818
 3666SOL    HW211742   3.435   1.029   5.864
 3667SOL     OW11743   3.049   1.808   7.209
 3667SOL    HW111744   3.058   1.866   7.134
 3667SOL    HW211745   3.064   1.721   7.174
 3668SOL     OW11746   2.177   0.253   7.365
 3668SOL    HW111747   2.241   0.316   7.398
 3668SOL    HW211748   2.104   0.258   7.426
 3669SOL     OW11749   3.331   1.418   6.538
 3669SOL    HW111750   3.263   1.434   6.603
 3669SOL    HW211751   3.317   1.328   6.510
 3670SOL     OW11752   3.520   1.743   6.164
 3670SOL    HW111753   3.499   1.714   6.075
 3670SOL    HW211754   3.495   1.669   6.220
 3671SOL     OW11755   2.454   0.722   5.852
 3671SOL    HW111756   2.458   0.805   5.804
 3671SOL    HW211757   2.389   0.738   5.920
 3672SOL     OW11758   3.154   0.368   6.518
 3672SOL    HW111759   3.065   0.338   6.502
 3672SOL    HW211760   3.190   0.304   6.580
 3673SOL     OW11761   3.445   1.668   5.895
 3673SOL    HW111762   3.535   1.700   5.888
 3673SOL    HW211763   3.417   1.654   5.805
 3674SOL     OW11764   2.657   0.621   7.040
 3674SOL    HW111765   2.629   0.594   7.127
 3674SOL    HW211766   2.620   0.554   6.981
 3675SOL     OW11767   3.250   0.481   7.262
 3675SOL    HW111768   3.254   0.525   7.347
 3675SOL    HW211769   3.316   0.412   7.268
 3676SOL     OW11770   2.816   0.887   7.170
 3676SOL    HW111771   2.869   0.817   7.134
 3676SOL    HW211772   2.767   0.921   7.095
 3677SOL     OW11773   2.859   0.417   6.820
 3677SOL    HW111774   2.770   0.425   6.854
 3677SOL    HW211775   2.851   0.364   6.741
 3678SOL     OW11776   2.912   0.698   6.012
 3678SOL    HW111777   2.930   0.689   6.106
 3678SOL    HW211778   2.829   0.653   5.999
 3679SOL     OW11779   1.951   0.822   6.362
 3679SOL    HW111780   2.030   0.815   6.414
 3679SOL    HW211781   1.906   0.900   6.397
 3680SOL     OW11782   1.964   1.799   7.152
 3680SOL    HW111783   1.971   1.792   7.247
 3680SOL    HW211784   1.874   1.828   7.137
 3681SOL     OW11785   2.718   0.370   5.773
 3681SOL    HW111786   2.786   0.404   5.715
 3681SOL    HW211787   2.732   0.276   5.773
 3682SOL     OW11788   3.565   0.572   7.414
 3682SOL    HW111789   3.530   0.646   7.366
 3682SOL    HW211790   3.601   0.514   7.347
 3683SOL     OW11791   3.240   1.142   6.126
 3683SOL    HW111792   3.320   1.130   6.074
 3683SOL    HW211793   3.188   1.204   6.076
 3684SOL     OW11794   2.398   0.206   6.488
 3684SOL    HW111795   2.420   0.224   6.579
 3684SOL    HW211796   2.392   0.292   6.447
 3685SOL     OW11797   2.870   1.460   6.056
 3685SOL    HW111798   2.786   1.493   6.025
 3685SOL    HW211799   2.863   1.462   6.152
 3686SOL     OW11800   2.229   1.803   6.473
 3686SOL    HW111801   2.294   1.735   6.453
 3686SOL    HW211802   2.271   1.884   6.445
 3687SOL     OW11803   3.661   1.058   6.455
 3687SOL    HW111804   3.608   1.037   6.379
 3687SOL    HW211805   3.598   1.063   6.527
 3688SOL     OW11806   3.091   1.539   7.099
 3688SOL    HW111807   3.077   1.466   7.160
 3688SOL    HW211808   3.024   1.526   7.031
 3689SOL     OW11809   2.178   0.958   5.834
 3689SOL    HW111810   2.261   0.976   5.791
 3689SOL    HW211811   2.149   0.874   5.797
 3690SOL     OW11812   3.342   0.745   6.310
 3690SOL    HW111813   3.333   0.702   6.395
 3690SOL    HW211814   3.420   0.800   6.319
 3691SOL     OW11815   2.329   1.265   7.324
 3691SOL    HW111816   2.303   1.269   7.232
 3691SOL    HW211817   2.247   1.262   7.373
 3692SOL     OW11818   3.013   1.770   5.818
 3692SOL    HW111819   2.930   1.746   5.859
 3692SOL    HW211820   3.022   1.709   5.744
 3693SOL     OW11821   2.049   0.268   7.100
 3693SOL    HW111822   1.983   0.336   7.088
 3693SOL    HW211823   2.068   0.270   7.194
 3694SOL     OW11824   3.492   1.380   5.675
 3694SOL    HW111825   3.450   1.465   5.660
 3694SOL    HW211826   3.423   1.316   5.656
 3695SOL     OW11827   3.286   0.143   6.004
 3695SOL    HW111828   3.270   0.088   5.927
 3695SOL    HW211829   3.380   0.133   6.021
 3696SOL     OW11830   2.091   1.768   6.824
 3696SOL    HW111831   2.165   1.713   6.851
 3696SOL    HW211832   2.101   1.777   6.730
 3697SOL     OW11833   2.255   0.695   6.061
 3697SOL    HW111834   2.278   0.603   6.074
 3697SOL    HW211835   2.161   0.699   6.079
 3698SOL     OW11836   3.386   0.233   7.309
 3698SOL    HW111837   3.386   0.255   7.402
 3698SOL    HW211838   3.307   0.181   7.297
 3699SOL     OW11839   2.492   0.121   5.710
 3699SOL    HW111840   2.581   0.085   5.719
 3699SOL    HW211841   2.458   0.083   5.629
 3700SOL     OW11842   2.630   0.271   7.341
 3700SOL    HW111843   2.697   0.203   7.345
 3700SOL    HW211844   2.590   0.270   7.428
 3701SOL     OW11845   2.738   1.522   6.778
 3701SOL    HW111846   2.724   1.485   6.691
 3701SOL    HW211847   2.809   1.469   6.815
 3702SOL     OW11848   3.202   0.589   7.014
 3702SOL    HW111849   3.230   0.561   7.101
 3702SOL    HW211850   3.237   0.678   7.006
 3703SOL     OW11851   2.677   1.408   6.523
 3703SOL    HW111852   2.761   1.389   6.483
 3703SOL    HW211853   2.612   1.388   6.456
 3704SOL     OW11854   2.786   0.521   6.484
 3704SOL    HW111855   2.770   0.519   6.389
 3704SOL    HW211856   2.820   0.434   6.504
 3705SOL     OW11857   2.417   0.080   6.109
 3705SOL    HW111858   2.330   0.047   6.132
 3705SOL    HW211859   2.402   0.141   6.038
 3706SOL     OW11860   3.292   1.199   5.628
 3706SOL    HW111861   3.321   1.123   5.678
 3706SOL    HW211862   3.205   1.219   5.663
 3707SOL     OW11863   2.156   0.066   5.789
 3707SOL    HW111864   2.234   0.119   5.771
 3707SOL    HW211865   2.186   0.000   5.852
 3708SOL     OW11866   2.817   0.240   6.051
 3708SOL    HW111867   2.765   0.300   5.998
 3708SOL    HW211868   2.906   0.274   6.046
 3709SOL     OW11869   2.942   0.682   7.045
 3709SOL    HW111870   2.872   0.617   7.045
 3709SOL    HW211871   3.022   0.631   7.034
 3710SOL     OW11872   3.093   1.556   6.366
 3710SOL    HW111873   3.116   1.625   6.303
 3710SOL    HW211874   3.141   1.578   6.445
 3711SOL     OW11875   2.321   1.126   6.317
 3711SOL    HW111876   2.251   1.111   6.380
 3711SOL    HW211877   2.279   1.118   6.231
 3712SOL     OW11878   3.157   1.783   6.197
 3712SOL    HW111879   3.195   1.838   6.128
 3712SOL    HW211880   3.132   1.845   6.266
 3713SOL     OW11881   2.889   0.545   5.605
 3713SOL    HW111882   2.842   0.627   5.589
 3713SOL    HW211883   2.949   0.565   5.677
 3714SOL     OW11884   1.946   0.550   6.982
 3714SOL    HW111885   2.037   0.554   6.952
 3714SOL    HW211886   1.938   0.621   7.044
 3715SOL     OW11887   2.424   0.246   6.754
 3715SOL    HW111888   2.450   0.164   6.797
 3715SOL    HW211889   2.331   0.257   6.778
 3716SOL     OW11890   2.726   0.505   6.213
 3716SOL    HW111891   2.687   0.542   6.134
 3716SOL    HW211892   2.683   0.420   6.224
 3717SOL     OW11893   2.818   0.020   6.376
 3717SOL    HW111894   2.772   0.020   6.292
 3717SOL    HW211895   2.834   4.427   6.394
 3718SOL     OW11896   3.299   1.162   6.443
 3718SOL    HW111897   3.231   1.095   6.442
 3718SOL    HW211898   3.323   1.172   6.351
 3719SOL     OW11899   3.327   0.607   6.558
 3719SOL    HW111900   3.272   0.528   6.559
 3719SOL    HW211901   3.383   0.597   6.634
 3720SOL     OW11902   3.706   0.815   5.970
 3720SOL    HW111903   3.763   0.764   6.028
 3720SOL    HW211904   3.679   0.753   5.902
 3721SOL     OW11905   2.360   1.380   5.737
 3721SOL    HW111906   2.282   1.368   5.793
 3721SOL    HW211907   2.329   1.360   5.649
 3722SOL     OW11908   3.534   1.265   6.230
 3722SOL    HW111909   3.628   1.266   6.245
 3722SOL    HW211910   3.505   1.353   6.252
 3723SOL     OW11911   3.257   0.572   5.656
 3723SOL    HW111912   3.194   0.555   5.727
 3723SOL    HW211913   3.342   0.554   5.694
 3724SOL     OW11914   2.382   0.265   5.908
 3724SOL    HW111915   2.432   0.215   5.844
 3724SOL    HW211916   2.362   0.348   5.865
 3725SOL     OW11917   3.613   1.240   7.156
 3725SOL    HW111918   3.700   1.201   7.152
 3725SOL    HW211919   3.629   1.330   7.185
 3726SOL     OW11920   2.919   1.354   6.918
 3726SOL    HW111921   2.844   1.323   6.969
 3726SOL    HW211922   2.995   1.313   6.960
 3727SOL     OW11923   3.471   1.627   7.242
 3727SOL    HW111924   3.464   1.660   7.152
 3727SOL    HW211925   3.553   1.578   7.242
 3728SOL     OW11926   2.993   1.206   6.690
 3728SOL    HW111927   2.934   1.243   6.756
 3728SOL    HW211928   2.957   1.237   6.607
 3729SOL     OW11929   3.488   1.097   6.663
 3729SOL    HW111930   3.483   1.160   6.736
 3729SOL    HW211931   3.410   1.115   6.611
 3730SOL     OW11932   2.762   0.135   6.972
 3730SOL    HW111933   2.785   0.089   6.890
 3730SOL    HW211934   2.846   0.152   7.014
 3731SOL     OW11935   2.846   1.115   7.309
 3731SOL    HW111936   2.755   1.131   7.332
 3731SOL    HW211937   2.844   1.037   7.254
 3732SOL     OW11938   2.569   1.060   5.959
 3732SOL    HW111939   2.557   1.041   6.052
 3732SOL    HW211940   2.645   1.008   5.933
 3733SOL     OW11941   2.283   0.817   6.837
 3733SOL    HW111942   2.351   0.826   6.903
 3733SOL    HW211943   2.247   0.729   6.850
 3734SOL     OW11944   3.130   0.375   6.860
 3734SOL    HW111945   3.162   0.453   6.904
 3734SOL    HW211946   3.040   0.397   6.835
 3735SOL     OW11947   1.929   1.565   6.939
 3735SOL    HW111948   1.898   1.644   6.894
 3735SOL    HW211949   2.024   1.574   6.941
 3736SOL     OW11950   2.204   1.115   6.071
 3736SOL    HW111951   2.206   1.180   6.000
 3736SOL    HW211952   2.204   1.031   6.026
 3737SOL     OW11953   2.416   0.526   6.444
 3737SOL    HW111954   2.429   0.586   6.370
 3737SOL    HW211955   2.482   0.554   6.508
 3738SOL     OW11956   3.108   1.348   5.976
 3738SOL    HW111957   3.169   1.417   6.003
 3738SOL    HW211958   3.023   1.378   6.007
 3739SOL     OW11959   3.146   1.459   6.732
 3739SOL    HW111960   3.201   1.462   6.811
 3739SOL    HW211961   3.089   1.383   6.746
 3740SOL     OW11962   3.442   0.623   6.065
 3740SOL    HW111963   3.394   0.671   6.132
 3740SOL    HW211964   3.486   0.690   6.013
 3741SOL     OW11965   2.214   1.517   6.903
 3741SOL    HW111966   2.198   1.481   6.815
 3741SOL    HW211967   2.308   1.532   6.906
 3742SOL     OW11968   2.279   0.742   7.189
 3742SOL    HW111969   2.338   0.789   7.130
 3742SOL    HW211970   2.323   0.660   7.208
 3743SOL     OW11971   3.465   0.779   7.269
 3743SOL    HW111972   3.380   0.821   7.262
 3743SOL    HW211973   3.518   0.821   7.200
 3744SOL     OW11974   2.864   0.086   7.302
 3744SOL    HW111975   2.900   0.166   7.265
 3744SOL    HW211976   2.887   0.017   7.240
 3745SOL     OW11977   2.361   0.043   7.348
 3745SOL    HW111978   2.366   0.008   7.259
 3745SOL    HW211979   2.294   0.112   7.343
 3746SOL     OW11980   2.444   0.875   6.616
 3746SOL    HW111981   2.476   0.965   6.619
 3746SOL    HW211982   2.389   0.866   6.694
 3747SOL     OW11983   3.217   0.858   6.613
 3747SOL    HW111984   3.132   0.846   6.570
 3747SOL    HW211985   3.260   0.773   6.605
 3748SOL     OW11986   3.063   0.536   5.846
 3748SOL    HW111987   3.070   0.456   5.899
 3748SOL    HW211988   3.020   0.599   5.904
 3749SOL     OW11989   2.152   0.232   6.828
 3749SOL    HW111990   2.106   0.248   6.910
 3749SOL    HW211991   2.190   0.145   6.839
 3750SOL     OW11992   1.906   1.307   6.863
 3750SOL    HW111993   1.940   1.255   6.936
 3750SOL    HW211994   1.912   1.398   6.893
 3751SOL     OW11995   2.584   0.630   6.641
 3751SOL    HW111996   2.659   0.613   6.585
 3751SOL    HW211997   2.557   0.719   6.618
 3752SOL     OW11998   3.597   0.959   7.440
 3752SOL    HW111999   3.552   0.896   7.384
 3752SOL    HW212000   3.538   0.974   7.513
 3753SOL     OW12001   2.157   0.051   6.239
 3753SOL    HW112002   2.147   0.146   6.239
 3753SOL    HW212003   2.169   0.028   6.331
 3754SOL     OW12004   3.480   0.381   5.945
 3754SOL    HW112005   3.507   0.316   6.010
 3754SOL    HW212006   3.456   0.458   5.997
 3755SOL     OW12007   2.892   0.763   6.547
 3755SOL    HW112008   2.886   0.778   6.641
 3755SOL    HW212009   2.862   0.673   6.535
 3756SOL     OW12010   2.845   1.567   7.305
 3756SOL    HW112011   2.828   1.610   7.221
 3756SOL    HW212012   2.888   1.484   7.281
 3757SOL     OW12013   3.716   1.504   7.191
 3757SOL    HW112014   3.735   1.531   7.101
 3757SOL    HW212015   3.797   1.522   7.239
 3758SOL     OW12016   2.216   0.917   7.394
 3758SOL    HW112017   2.297   0.936   7.441
 3758SOL    HW212018   2.241   0.853   7.327
 3759SOL     OW12019   3.391   0.263   5.714
 3759SOL    HW112020   3.321   0.206   5.745
 3759SOL    HW212021   3.422   0.309   5.792
 3760SOL     OW12022   3.152   0.826   5.616
 3760SOL    HW112023   3.194   0.740   5.618
 3760SOL    HW212024   3.183   0.866   5.534
 3761SOL     OW12025   2.922   1.337   6.435
 3761SOL    HW112026   2.930   1.263   6.376
 3761SOL    HW212027   2.989   1.399   6.405
 3762SOL     OW12028   2.170   0.808   6.533
 3762SOL    HW112029   2.263   0.831   6.527
 3762SOL    HW212030   2.169   0.718   6.566
 3763SOL     OW12031   2.197   0.534   6.600
 3763SOL    HW112032   2.154   0.450   6.581
 3763SOL    HW212033   2.274   0.534   6.542
 3764SOL     OW12034   2.998   0.372   7.285
 3764SOL    HW112035   2.947   0.435   7.335
 3764SOL    HW212036   3.083   0.415   7.271
 3765SOL     OW12037   3.017   0.214   7.060
 3765SOL    HW112038   3.012   0.278   7.131
 3765SOL    HW212039   3.059   0.261   6.988
 3766SOL     OW12040   1.869   1.319   5.785
 3766SOL    HW112041   1.783   1.334   5.747
 3766SOL    HW212042   1.866   1.229   5.817
 3767SOL     OW12043   1.970   1.774   6.551
 3767SOL    HW112044   1.928   1.729   6.478
 3767SOL    HW212045   2.061   1.786   6.522
 3768SOL     OW12046   2.842   0.793   6.813
 3768SOL    HW112047   2.899   0.771   6.886
 3768SOL    HW212048   2.759   0.751   6.834
 3769SOL     OW12049   1.895   0.544   6.705
 3769SOL    HW112050   1.972   0.526   6.651
 3769SOL    HW212051   1.928   0.547   6.794
 3770SOL     OW12052   2.046   0.521   7.308
 3770SOL    HW112053   2.123   0.502   7.255
 3770SOL    HW212054   2.006   0.597   7.266
 3771SOL     OW12055   3.241   0.937   7.244
 3771SOL    HW112056   3.261   1.031   7.241
 3771SOL    HW212057   3.237   0.911   7.152
 3772SOL     OW12058   2.672   0.577   5.944
 3772SOL    HW112059   2.678   0.505   5.881
 3772SOL    HW212060   2.599   0.630   5.914
 3773SOL     OW12061   3.501   0.602   6.770
 3773SOL    HW112062   3.491   0.543   6.845
 3773SOL    HW212063   3.589   0.583   6.736
 3774SOL     OW12064   2.110   1.545   7.313
 3774SOL    HW112065   2.083   1.610   7.378
 3774SOL    HW212066   2.110   1.462   7.361
 3775SOL     OW12067   2.566   0.458   6.848
 3775SOL    HW112068   2.518   0.382   6.818
 3775SOL    HW212069   2.564   0.519   6.774
 3776SOL     OW12070   2.791   1.677   7.054
 3776SOL    HW112071   2.764   1.644   6.969
 3776SOL    HW212072   2.787   1.772   7.045
 3777SOL     OW12073   2.324   0.492   5.769
 3777SOL    HW112074   2.384   0.563   5.791
 3777SOL    HW212075   2.239   0.535   5.757
 3778SOL     OW12076   2.006   1.141   7.060
 3778SOL    HW112077   2.008   1.090   7.142
 3778SOL    HW212078   2.023   1.076   6.992
 3779SOL     OW12079   3.186   1.046   6.808
 3779SOL    HW112080   3.209   0.982   6.740
 3779SOL    HW212081   3.117   1.099   6.768
 3780SOL     OW12082   3.175   0.857   5.891
 3780SOL    HW112083   3.100   0.826   5.943
 3780SOL    HW212084   3.148   0.844   5.800
 3781SOL     OW12085   3.637   1.742   6.739
 3781SOL    HW112086   3.697   1.768   6.668
 3781SOL    HW212087   3.611   1.652   6.716
 3782SOL     OW12088   3.107   1.736   6.698
 3782SOL    HW112089   3.189   1.755   6.652
 3782SOL    HW212090   3.110   1.642   6.715
 3783SOL     OW12091   1.959   1.267   6.603
 3783SOL    HW112092   1.937   1.280   6.696
 3783SOL    HW212093   1.878   1.232   6.565
 3784SOL     OW12094   2.540   1.667   7.317
 3784SOL    HW112095   2.484   1.745   7.317
 3784SOL    HW212096   2.601   1.682   7.246
 3785SOL     OW12097   3.581   0.129   6.075
 3785SOL    HW112098   3.650   0.140   6.010
 3785SOL    HW212099   3.612   0.059   6.132
 3786SOL     OW12100   3.258   1.560   6.067
 3786SOL    HW112101   3.318   1.594   6.000
 3786SOL    HW212102   3.213   1.638   6.099
 3787SOL     OW12103   1.995   1.787   7.419
 3787SOL    HW112104   1.954   1.728   7.481
 3787SOL    HW212105   2.039   1.853   7.473
 3788SOL     OW12106   3.141   0.929   6.260
 3788SOL    HW112107   3.213   0.867   6.266
 3788SOL    HW212108   3.175   1.001   6.205
 3789SOL     OW12109   2.674   1.274   7.014
 3789SOL    HW112110   2.646   1.314   7.097
 3789SOL    HW212111   2.603   1.294   6.953
 3790SOL     OW12112   2.549   1.572   5.703
 3790SOL    HW112113   2.537   1.586   5.609
 3790SOL    HW212114   2.492   1.498   5.724
 3791SOL     OW12115   3.486   1.727   6.977
 3791SOL    HW112116   3.537   1.733   6.896
 3791SOL    HW212117   3.472   1.818   7.004
 3792SOL     OW12118   3.701   0.153   6.551
 3792SOL    HW112119   3.733   0.075   6.505
 3792SOL    HW212120   3.615   0.169   6.514
 3793SOL     OW12121   2.124   0.320   6.301
 3793SOL    HW112122   2.039   0.355   6.276
 3793SOL    HW212123   2.120   0.313   6.397
 3794SOL     OW12124   3.073   1.597   5.613
 3794SOL    HW112125   3.062   1.506   5.642
 3794SOL    HW212126   3.035   1.599   5.525
 3795SOL     OW12127   2.685   1.006   6.960
 3795SOL    HW112128   2.731   0.999   6.876
 3795SOL    HW212129   2.685   1.099   6.980
 3796SOL     OW12130   2.778   0.913   5.877
 3796SOL    HW112131   2.839   0.943   5.810
 3796SOL    HW212132   2.825   0.842   5.922
 3797SOL     OW12133   3.356   1.626   5.630
 3797SOL    HW112134   3.261   1.618   5.617
 3797SOL    HW212135   3.392   1.632   5.542
 3798SOL     OW12136   2.232   1.299   7.078
 3798SOL    HW112137   2.220   1.377   7.024
 3798SOL    HW212138   2.153   1.247   7.063
 3799SOL     OW12139   3.472   1.283   6.867
 3799SOL    HW112140   3.530   1.270   6.942
 3799SOL    HW212141   3.411   1.351   6.895
 3800SOL     OW12142   2.916   1.108   6.290
 3800SOL    HW112143   2.845   1.057   6.330
 3800SOL    HW212144   2.981   1.043   6.264
 3801SOL     OW12145   2.865   0.246   6.595
 3801SOL    HW112146   2.871   0.226   6.501
 3801SOL    HW212147   2.857   0.160   6.637
 3802SOL     OW12148   3.585   0.394   6.962
 3802SOL    HW112149   3.658   0.456   6.962
 3802SOL    HW212150   3.613   0.323   6.905
 3803SOL     OW12151   2.121   1.342   5.889
 3803SOL    HW112152   2.029   1.337   5.862
 3803SOL    HW212153   2.121   1.407   5.959
 3804SOL     OW12154   1.975   1.024   7.307
 3804SOL    HW112155   1.899   1.000   7.360
 3804SOL    HW212156   2.049   0.985   7.353
 3805SOL     OW12157   2.519   0.205   7.087
 3805SOL    HW112158   2.598   0.180   7.039
 3805SOL    HW212159   2.550   0.228   7.174
 3806SOL     OW12160   1.944   0.335   5.634
 3806SOL    HW112161   1.875   0.280   5.598
 3806SOL    HW212162   1.955   0.405   5.570
 3807SOL     OW12163   3.290   0.858   6.985
 3807SOL    HW112164   3.241   0.919   6.930
 3807SOL    HW212165   3.379   0.860   6.950
 3808SOL     OW12166   1.925   0.186   5.902
 3808SOL    HW112167   1.925   0.253   5.833
 3808SOL    HW212168   2.000   0.130   5.880
 3809SOL     OW12169   3.041   1.334   5.705
 3809SOL    HW112170   2.951   1.301   5.707
 3809SOL    HW212171   3.068   1.335   5.797
 3810SOL     OW12172   2.481   0.830   7.020
 3810SOL    HW112173   2.538   0.906   7.005
 3810SOL    HW212174   2.542   0.757   7.029
 3811SOL     OW12175   3.346   1.781   6.563
 3811SOL    HW112176   3.375   1.842   6.495
 3811SOL    HW212177   3.427   1.754   6.607
 3812SOL     OW12178   2.578   0.562   7.291
 3812SOL    HW112179   2.619   0.625   7.349
 3812SOL    HW212180   2.606   0.477   7.324
 3813SOL     OW12181   3.334   1.198   7.217
 3813SOL    HW112182   3.322   1.212   7.311
 3813SOL    HW212183   3.427   1.215   7.203
 3814SOL     OW12184   2.236   1.739   7.152
 3814SOL    HW112185   2.149   1.769   7.125
 3814SOL    HW212186   2.220   1.655   7.194
 3815SOL     OW12187   3.530   0.880   6.841
 3815SOL    HW112188   3.524   0.795   6.798
 3815SOL    HW212189   3.520   0.944   6.770
 3816SOL     OW12190   3.081   0.331   6.033
 3816SOL    HW112191   3.147   0.264   6.020
 3816SOL    HW212192   3.109   0.379   6.111
 3817SOL     OW12193   2.447   0.736   6.260
 3817SOL    HW112194   2.491   0.819   6.243
 3817SOL    HW212195   2.382   0.728   6.190
 3818SOL     OW12196   3.622   0.369   7.230
 3818SOL    HW112197   3.606   0.382   7.136
 3818SOL    HW212198   3.545   0.321   7.261
 3819SOL     OW12199   3.609   0.933   7.098
 3819SOL    HW112200   3.602   1.028   7.111
 3819SOL    HW212201   3.593   0.920   7.004
 3820SOL     OW12202   2.730   1.356   5.626
 3820SOL    HW112203   2.692   1.373   5.712
 3820SOL    HW212204   2.733   1.442   5.584
 3821SOL     OW12205   2.731   0.969   6.440
 3821SOL    HW112206   2.781   0.897   6.478
 3821SOL    HW212207   2.695   1.016   6.515
 3822SOL     OW12208   2.941   0.990   5.675
 3822SOL    HW112209   2.919   1.040   5.597
 3822SOL    HW212210   3.015   0.935   5.649
 3823SOL     OW12211   3.715   1.555   6.430
 3823SOL    HW112212   3.637   1.543   6.376
 3823SOL    HW212213   3.709   1.487   6.497
 3824SOL     OW12214   2.087   1.300   7.442
 3824SOL    HW112215   2.021   1.239   7.411
 3824SOL    HW212216   2.069   1.310   7.536
 3825SOL     OW12217   1.961   1.233   6.245
 3825SOL    HW112218   1.954   1.183   6.326
 3825SOL    HW212219   2.027   1.185   6.194
 3826SOL     OW12220   2.544   1.405   7.214
 3826SOL    HW112221   2.464   1.362   7.246
 3826SOL    HW212222   2.540   1.493   7.251
 3827SOL     OW12223   3.667   0.179   6.824
 3827SOL    HW112224   3.666   0.085   6.844
 3827SOL    HW212225   3.685   0.184   6.730
 3828SOL     OW12226   2.299   0.434   6.117
 3828SOL    HW112227   2.320   0.365   6.053
 3828SOL    HW212228   2.243   0.390   6.181
 3829SOL     OW12229   3.560   1.489   6.682
 3829SOL    HW112230   3.481   1.466   6.633
 3829SOL    HW212231   3.570   1.419   6.746
 3830SOL     OW12232   2.194   0.559   6.878
 3830SOL    HW112233   2.248   0.502   6.932
 3830SOL    HW212234   2.213   0.532   6.788
 3831SOL     OW12235   3.293   0.217   6.703
 3831SOL    HW112236   3.329   0.145   6.755
 3831SOL    HW212237   3.243   0.269   6.765
 3832SOL     OW12238   2.857   0.004   6.738
 3832SOL    HW112239   2.818   4.417   6.732
 3832SOL    HW212240   2.951   4.487   6.748
 3833SOL     OW12241   2.655   1.326   5.899
 3833SOL    HW112242   2.601   1.247   5.901
 3833SOL    HW212243   2.735   1.301   5.946
 3834SOL     OW12244   2.483   1.554   6.866
 3834SOL    HW112245   2.483   1.633   6.920
 3834SOL    HW212246   2.573   1.547   6.833
 3835SOL     OW12247   3.201   0.052   5.742
 3835SOL    HW112248   3.240   4.476   5.698
 3835SOL    HW212249   3.125   0.017   5.788
 3836SOL     OW12250   3.177   0.464   6.260
 3836SOL    HW112251   3.119   0.540   6.261
 3836SOL    HW212252   3.165   0.424   6.346
 3837SOL     OW12253   3.447   0.198   6.454
 3837SOL    HW112254   3.389   0.214   6.528
 3837SOL    HW212255   3.450   0.282   6.408
 3838SOL     OW12256   1.909   1.069   5.891
 3838SOL    HW112257   2.002   1.056   5.872
 3838SOL    HW212258   1.877   0.982   5.915
 3839SOL     OW12259   2.089   0.625   7.570
 3839SOL    HW112260   2.003   0.618   7.610
 3839SOL    HW212261   2.076   0.597   7.480
 3840SOL     OW12262   2.068   0.301   8.438
 3840SOL    HW112263   2.100   0.270   8.523
 3840SOL    HW212264   1.987   0.253   8.424
 3841SOL     OW12265   1.869   0.389   8.085
 3841SOL    HW112266   1.782   0.407   8.122
 3841SOL    HW212267   1.854   0.315   8.025
 3842SOL     OW12268   2.430   1.291   8.625
 3842SOL    HW112269   2.342   1.293   8.588
 3842SOL    HW212270   2.445   1.379   8.658
 3843SOL     OW12271   3.426   1.513   8.156
 3843SOL    HW112272   3.383   1.491   8.239
 3843SOL    HW212273   3.355   1.516   8.092
 3844SOL     OW12274   2.999   0.697   8.144
 3844SOL    HW112275   3.044   0.782   8.135
 3844SOL    HW212276   2.948   0.706   8.224
 3845SOL     OW12277   3.633   0.605   7.675
 3845SOL    HW112278   3.610   0.597   7.582
 3845SOL    HW212279   3.597   0.526   7.715
 3846SOL     OW12280   2.616   1.141   8.491
 3846SOL    HW112281   2.547   1.177   8.548
 3846SOL    HW212282   2.652   1.218   8.446
 3847SOL     OW12283   2.731   0.771   9.271
 3847SOL    HW112284   2.717   0.841   9.334
 3847SOL    HW212285   2.754   0.815   9.189
 3848SOL     OW12286   2.548   1.001   8.093
 3848SOL    HW112287   2.613   0.990   8.163
 3848SOL    HW212288   2.479   1.053   8.134
 3849SOL     OW12289   2.574   1.150   9.262
 3849SOL    HW112290   2.621   1.229   9.290
 3849SOL    HW212291   2.492   1.184   9.226
 3850SOL     OW12292   2.193   1.422   8.517
 3850SOL    HW112293   2.118   1.385   8.470
 3850SOL    HW212294   2.241   1.472   8.450
 3851SOL     OW12295   3.322   1.500   8.805
 3851SOL    HW112296   3.374   1.580   8.814
 3851SOL    HW212297   3.257   1.506   8.874
 3852SOL     OW12298   2.305   0.394   8.935
 3852SOL    HW112299   2.387   0.345   8.937
 3852SOL    HW212300   2.237   0.328   8.949
 3853SOL     OW12301   3.471   0.444   8.187
 3853SOL    HW112302   3.391   0.464   8.139
 3853SOL    HW212303   3.487   0.521   8.240
 3854SOL     OW12304   2.082   1.716   7.923
 3854SOL    HW112305   2.115   1.754   8.005
 3854SOL    HW212306   2.159   1.704   7.869
 3855SOL     OW12307   2.999   1.342   9.141
 3855SOL    HW112308   3.039   1.337   9.228
 3855SOL    HW212309   2.947   1.262   9.134
 3856SOL     OW12310   2.088   1.441   7.984
 3856SOL    HW112311   2.064   1.533   7.992
 3856SOL    HW212312   2.032   1.395   8.047
 3857SOL     OW12313   2.123   1.090   8.339
 3857SOL    HW112314   2.118   1.003   8.379
 3857SOL    HW212315   2.065   1.144   8.393
 3858SOL     OW12316   2.474   1.783   8.881
 3858SOL    HW112317   2.390   1.771   8.925
 3858SOL    HW212318   2.496   1.875   8.896
 3859SOL     OW12319   2.445   0.983   7.584
 3859SOL    HW112320   2.492   1.030   7.515
 3859SOL    HW212321   2.485   1.014   7.665
 3860SOL     OW12322   3.442   0.116   8.917
 3860SOL    HW112323   3.471   0.184   8.856
 3860SOL    HW212324   3.431   0.162   9.000
 3861SOL     OW12325   1.979   0.654   8.008
 3861SOL    HW112326   1.949   0.566   8.030
 3861SOL    HW212327   1.971   0.703   8.090
 3862SOL     OW12328   3.704   1.758   7.781
 3862SOL    HW112329   3.770   1.730   7.845
 3862SOL    HW212330   3.726   1.849   7.763
 3863SOL     OW12331   1.901   1.597   7.581
 3863SOL    HW112332   1.884   1.503   7.588
 3863SOL    HW212333   1.864   1.634   7.662
 3864SOL     OW12334   3.553   0.921   8.092
 3864SOL    HW112335   3.635   0.877   8.069
 3864SOL    HW212336   3.530   0.970   8.013
 3865SOL     OW12337   3.509   1.106   7.876
 3865SOL    HW112338   3.595   1.110   7.835
 3865SOL    HW212339   3.514   1.168   7.949
 3866SOL     OW12340   1.984   0.746   9.031
 3866SOL    HW112341   2.075   0.774   9.037
 3866SOL    HW212342   1.933   0.827   9.039
 3867SOL     OW12343   2.477   1.386   8.181
 3867SOL    HW112344   2.432   1.303   8.191
 3867SOL    HW212345   2.460   1.413   8.091
 3868SOL     OW12346   3.150   1.238   8.870
 3868SOL    HW112347   3.181   1.170   8.810
 3868SOL    HW212348   3.208   1.232   8.946
 3869SOL     OW12349   2.681   0.017   8.002
 3869SOL    HW112350   2.717   0.101   7.975
 3869SOL    HW212351   2.586   0.028   7.994
 3870SOL     OW12352   2.051   0.964   8.723
 3870SOL    HW112353   2.137   0.923   8.707
 3870SOL    HW212354   1.990   0.913   8.669
 3871SOL     OW12355   3.394   0.994   7.647
 3871SOL    HW112356   3.323   0.938   7.680
 3871SOL    HW212357   3.435   1.029   7.726
 3872SOL     OW12358   3.050   1.808   9.071
 3872SOL    HW112359   3.058   1.866   8.995
 3872SOL    HW212360   3.065   1.720   9.035
 3873SOL     OW12361   2.177   0.253   9.227
 3873SOL    HW112362   2.241   0.317   9.260
 3873SOL    HW212363   2.104   0.258   9.288
 3874SOL     OW12364   3.329   1.419   8.398
 3874SOL    HW112365   3.261   1.435   8.464
 3874SOL    HW212366   3.316   1.328   8.372
 3875SOL     OW12367   3.519   1.743   8.026
 3875SOL    HW112368   3.500   1.712   7.937
 3875SOL    HW212369   3.496   1.670   8.082
 3876SOL     OW12370   2.454   0.722   7.714
 3876SOL    HW112371   2.458   0.805   7.666
 3876SOL    HW212372   2.389   0.737   7.783
 3877SOL     OW12373   3.154   0.368   8.380
 3877SOL    HW112374   3.065   0.338   8.364
 3877SOL    HW212375   3.190   0.304   8.442
 3878SOL     OW12376   3.442   1.671   7.758
 3878SOL    HW112377   3.532   1.701   7.750
 3878SOL    HW212378   3.414   1.655   7.667
 3879SOL     OW12379   2.657   0.621   8.902
 3879SOL    HW112380   2.629   0.594   8.989
 3879SOL    HW212381   2.620   0.554   8.843
 3880SOL     OW12382   3.250   0.481   9.124
 3880SOL    HW112383   3.254   0.525   9.209
 3880SOL    HW212384   3.316   0.412   9.130
 3881SOL     OW12385   2.816   0.887   9.032
 3881SOL    HW112386   2.869   0.817   8.996
 3881SOL    HW212387   2.767   0.921   8.957
 3882SOL     OW12388   2.859   0.417   8.682
 3882SOL    HW112389   2.770   0.425   8.716
 3882SOL    HW212390   2.851   0.364   8.603
 3883SOL     OW12391   2.913   0.698   7.874
 3883SOL    HW112392   2.930   0.689   7.968
 3883SOL    HW212393   2.829   0.653   7.861
 3884SOL     OW12394   1.951   0.821   8.225
 3884SOL    HW112395   2.031   0.815   8.276
 3884SOL    HW212396   1.907   0.899   8.259
 3885SOL     OW12397   1.971   1.795   9.011
 3885SOL    HW112398   1.967   1.790   9.107
 3885SOL    HW212399   1.900   1.855   8.987
 3886SOL     OW12400   2.718   0.370   7.634
 3886SOL    HW112401   2.787   0.403   7.577
 3886SOL    HW212402   2.731   0.275   7.635
 3887SOL     OW12403   3.565   0.572   9.276
 3887SOL    HW112404   3.530   0.646   9.228
 3887SOL    HW212405   3.601   0.514   9.209
 3888SOL     OW12406   3.241   1.143   7.989
 3888SOL    HW112407   3.319   1.130   7.935
 3888SOL    HW212408   3.187   1.204   7.938
 3889SOL     OW12409   2.398   0.206   8.350
 3889SOL    HW112410   2.420   0.224   8.441
 3889SOL    HW212411   2.392   0.292   8.309
 3890SOL     OW12412   2.867   1.444   7.919
 3890SOL    HW112413   2.830   1.518   7.869
 3890SOL    HW212414   2.847   1.464   8.010
 3891SOL     OW12415   2.211   1.788   8.287
 3891SOL    HW112416   2.250   1.702   8.303
 3891SOL    HW212417   2.282   1.850   8.304
 3892SOL     OW12418   3.661   1.059   8.317
 3892SOL    HW112419   3.608   1.036   8.240
 3892SOL    HW212420   3.598   1.063   8.389
 3893SOL     OW12421   3.090   1.538   8.961
 3893SOL    HW112422   3.077   1.466   9.022
 3893SOL    HW212423   3.024   1.525   8.893
 3894SOL     OW12424   2.180   0.958   7.699
 3894SOL    HW112425   2.262   0.977   7.654
 3894SOL    HW212426   2.150   0.876   7.661
 3895SOL     OW12427   3.343   0.744   8.171
 3895SOL    HW112428   3.333   0.702   8.256
 3895SOL    HW212429   3.420   0.800   8.181
 3896SOL     OW12430   2.330   1.265   9.187
 3896SOL    HW112431   2.303   1.269   9.095
 3896SOL    HW212432   2.247   1.262   9.236
 3897SOL     OW12433   2.985   1.777   7.680
 3897SOL    HW112434   2.910   1.736   7.723
 3897SOL    HW212435   3.008   1.715   7.610
 3898SOL     OW12436   2.049   0.268   8.962
 3898SOL    HW112437   1.983   0.336   8.949
 3898SOL    HW212438   2.068   0.270   9.056
 3899SOL     OW12439   3.491   1.381   7.536
 3899SOL    HW112440   3.449   1.465   7.521
 3899SOL    HW212441   3.422   1.316   7.517
 3900SOL     OW12442   2.330   1.717   7.793
 3900SOL    HW112443   2.368   1.793   7.837
 3900SOL    HW212444   2.385   1.704   7.716
 3901SOL     OW12445   3.286   0.143   7.866
 3901SOL    HW112446   3.270   0.088   7.789
 3901SOL    HW212447   3.380   0.132   7.884
 3902SOL     OW12448   2.103   1.756   8.682
 3902SOL    HW112449   2.167   1.698   8.724
 3902SOL    HW212450   2.115   1.741   8.588
 3903SOL     OW12451   2.795   1.697   8.347
 3903SOL    HW112452   2.874   1.648   8.370
 3903SOL    HW212453   2.756   1.648   8.275
 3904SOL     OW12454   2.256   0.694   7.922
 3904SOL    HW112455   2.277   0.602   7.936
 3904SOL    HW212456   2.162   0.700   7.940
 3905SOL     OW12457   3.386   0.233   9.171
 3905SOL    HW112458   3.386   0.255   9.264
 3905SOL    HW212459   3.307   0.181   9.159
 3906SOL     OW12460   2.493   0.121   7.572
 3906SOL    HW112461   2.581   0.085   7.581
 3906SOL    HW212462   2.459   0.083   7.491
 3907SOL     OW12463   2.630   0.271   9.203
 3907SOL    HW112464   2.697   0.203   9.207
 3907SOL    HW212465   2.589   0.270   9.290
 3908SOL     OW12466   2.740   1.524   8.640
 3908SOL    HW112467   2.723   1.484   8.555
 3908SOL    HW212468   2.808   1.469   8.678
 3909SOL     OW12469   3.202   0.589   8.876
 3909SOL    HW112470   3.230   0.561   8.963
 3909SOL    HW212471   3.237   0.678   8.868
 3910SOL     OW12472   2.678   1.395   8.389
 3910SOL    HW112473   2.762   1.381   8.346
 3910SOL    HW212474   2.614   1.395   8.317
 3911SOL     OW12475   2.787   0.521   8.346
 3911SOL    HW112476   2.770   0.519   8.251
 3911SOL    HW212477   2.820   0.434   8.366
 3912SOL     OW12478   2.417   0.079   7.971
 3912SOL    HW112479   2.330   0.047   7.994
 3912SOL    HW212480   2.402   0.141   7.899
 3913SOL     OW12481   3.290   1.199   7.489
 3913SOL    HW112482   3.320   1.123   7.539
 3913SOL    HW212483   3.205   1.220   7.526
 3914SOL     OW12484   2.157   0.066   7.651
 3914SOL    HW112485   2.234   0.120   7.634
 3914SOL    HW212486   2.186   0.000   7.714
 3915SOL     OW12487   2.817   0.239   7.913
 3915SOL    HW112488   2.765   0.301   7.861
 3915SOL    HW212489   2.906   0.274   7.908
 3916SOL     OW12490   2.942   0.682   8.908
 3916SOL    HW112491   2.872   0.617   8.907
 3916SOL    HW212492   3.022   0.631   8.896
 3917SOL     OW12493   3.084   1.571   8.242
 3917SOL    HW112494   3.100   1.637   8.175
 3917SOL    HW212495   3.153   1.585   8.307
 3918SOL     OW12496   2.332   1.151   8.179
 3918SOL    HW112497   2.264   1.131   8.244
 3918SOL    HW212498   2.291   1.135   8.095
 3919SOL     OW12499   3.130   1.794   8.058
 3919SOL    HW112500   3.177   1.855   8.000
 3919SOL    HW212501   3.064   1.847   8.100
 3920SOL     OW12502   2.890   0.545   7.467
 3920SOL    HW112503   2.842   0.627   7.452
 3920SOL    HW212504   2.949   0.565   7.540
 3921SOL     OW12505   1.946   0.549   8.844
 3921SOL    HW112506   2.037   0.554   8.814
 3921SOL    HW212507   1.938   0.621   8.907
 3922SOL     OW12508   2.424   0.246   8.616
 3922SOL    HW112509   2.449   0.164   8.659
 3922SOL    HW212510   2.331   0.257   8.640
 3923SOL     OW12511   2.726   0.505   8.076
 3923SOL    HW112512   2.686   0.542   7.997
 3923SOL    HW212513   2.683   0.420   8.087
 3924SOL     OW12514   2.819   0.019   8.238
 3924SOL    HW112515   2.772   0.020   8.154
 3924SOL    HW212516   2.834   4.427   8.256
 3925SOL     OW12517   3.299   1.162   8.305
 3925SOL    HW112518   3.230   1.096   8.305
 3925SOL    HW212519   3.323   1.171   8.212
 3926SOL     OW12520   3.327   0.606   8.419
 3926SOL    HW112521   3.272   0.528   8.421
 3926SOL    HW212522   3.383   0.597   8.496
 3927SOL     OW12523   3.706   0.815   7.832
 3927SOL    HW112524   3.763   0.764   7.890
 3927SOL    HW212525   3.679   0.752   7.764
 3928SOL     OW12526   2.352   1.420   7.601
 3928SOL    HW112527   2.278   1.392   7.655
 3928SOL    HW212528   2.340   1.376   7.517
 3929SOL     OW12529   3.534   1.265   8.091
 3929SOL    HW112530   3.629   1.266   8.106
 3929SOL    HW212531   3.505   1.353   8.113
 3930SOL     OW12532   3.257   0.572   7.518
 3930SOL    HW112533   3.194   0.555   7.588
 3930SOL    HW212534   3.342   0.554   7.557
 3931SOL     OW12535   2.381   0.265   7.770
 3931SOL    HW112536   2.432   0.216   7.705
 3931SOL    HW212537   2.362   0.349   7.727
 3932SOL     OW12538   3.613   1.240   9.018
 3932SOL    HW112539   3.700   1.201   9.014
 3932SOL    HW212540   3.629   1.330   9.047
 3933SOL     OW12541   2.919   1.355   8.782
 3933SOL    HW112542   2.844   1.323   8.832
 3933SOL    HW212543   2.995   1.313   8.822
 3934SOL     OW12544   3.471   1.626   9.104
 3934SOL    HW112545   3.464   1.660   9.014
 3934SOL    HW212546   3.553   1.577   9.104
 3935SOL     OW12547   2.994   1.207   8.553
 3935SOL    HW112548   2.933   1.242   8.617
 3935SOL    HW212549   2.961   1.237   8.468
 3936SOL     OW12550   3.488   1.097   8.525
 3936SOL    HW112551   3.483   1.160   8.598
 3936SOL    HW212552   3.410   1.114   8.473
 3937SOL     OW12553   2.762   0.135   8.834
 3937SOL    HW112554   2.785   0.090   8.752
 3937SOL    HW212555   2.846   0.152   8.876
 3938SOL     OW12556   2.846   1.115   9.171
 3938SOL    HW112557   2.755   1.131   9.194
 3938SOL    HW212558   2.844   1.037   9.116
 3939SOL     OW12559   2.571   1.062   7.819
 3939SOL    HW112560   2.557   1.044   7.912
 3939SOL    HW212561   2.646   1.008   7.795
 3940SOL     OW12562   2.283   0.817   8.699
 3940SOL    HW112563   2.351   0.826   8.766
 3940SOL    HW212564   2.247   0.729   8.712
 3941SOL     OW12565   3.130   0.375   8.722
 3941SOL    HW112566   3.162   0.453   8.766
 3941SOL    HW212567   3.040   0.396   8.697
 3942SOL     OW12568   1.924   1.565   8.798
 3942SOL    HW112569   1.889   1.641   8.751
 3942SOL    HW212570   2.018   1.581   8.803
 3943SOL     OW12571   2.207   1.112   7.938
 3943SOL    HW112572   2.213   1.184   7.876
 3943SOL    HW212573   2.205   1.033   7.883
 3944SOL     OW12574   2.416   0.527   8.306
 3944SOL    HW112575   2.429   0.587   8.232
 3944SOL    HW212576   2.482   0.554   8.370
 3945SOL     OW12577   3.110   1.349   7.837
 3945SOL    HW112578   3.166   1.420   7.868
 3945SOL    HW212579   3.023   1.370   7.870
 3946SOL     OW12580   3.145   1.459   8.595
 3946SOL    HW112581   3.200   1.461   8.673
 3946SOL    HW212582   3.090   1.381   8.607
 3947SOL     OW12583   3.442   0.623   7.926
 3947SOL    HW112584   3.394   0.670   7.995
 3947SOL    HW212585   3.486   0.691   7.876
 3948SOL     OW12586   2.217   1.515   8.768
 3948SOL    HW112587   2.199   1.477   8.682
 3948SOL    HW212588   2.311   1.530   8.769
 3949SOL     OW12589   2.279   0.742   9.051
 3949SOL    HW112590   2.338   0.789   8.992
 3949SOL    HW212591   2.323   0.660   9.070
 3950SOL     OW12592   3.465   0.779   9.131
 3950SOL    HW112593   3.380   0.821   9.124
 3950SOL    HW212594   3.518   0.821   9.062
 3951SOL     OW12595   2.864   0.086   9.164
 3951SOL    HW112596   2.900   0.166   9.127
 3951SOL    HW212597   2.887   0.017   9.102
 3952SOL     OW12598   2.361   0.043   9.210
 3952SOL    HW112599   2.366   0.009   9.121
 3952SOL    HW212600   2.294   0.112   9.206
 3953SOL     OW12601   2.445   0.874   8.479
 3953SOL    HW112602   2.476   0.965   8.480
 3953SOL    HW212603   2.389   0.867   8.556
 3954SOL     OW12604   3.217   0.858   8.475
 3954SOL    HW112605   3.132   0.847   8.432
 3954SOL    HW212606   3.259   0.773   8.467
 3955SOL     OW12607   3.063   0.536   7.708
 3955SOL    HW112608   3.070   0.456   7.760
 3955SOL    HW212609   3.020   0.599   7.766
 3956SOL     OW12610   2.152   0.232   8.690
 3956SOL    HW112611   2.106   0.248   8.773
 3956SOL    HW212612   2.190   0.145   8.701
 3957SOL     OW12613   1.907   1.307   8.723
 3957SOL    HW112614   1.941   1.254   8.795
 3957SOL    HW212615   1.913   1.397   8.753
 3958SOL     OW12616   2.584   0.630   8.503
 3958SOL    HW112617   2.659   0.613   8.447
 3958SOL    HW212618   2.557   0.719   8.480
 3959SOL     OW12619   3.597   0.959   9.302
 3959SOL    HW112620   3.552   0.896   9.246
 3959SOL    HW212621   3.538   0.974   9.375
 3960SOL     OW12622   2.157   0.051   8.101
 3960SOL    HW112623   2.147   0.146   8.101
 3960SOL    HW212624   2.169   0.028   8.193
 3961SOL     OW12625   3.481   0.381   7.807
 3961SOL    HW112626   3.506   0.316   7.872
 3961SOL    HW212627   3.456   0.458   7.858
 3962SOL     OW12628   2.893   0.763   8.409
 3962SOL    HW112629   2.886   0.778   8.503
 3962SOL    HW212630   2.863   0.673   8.397
 3963SOL     OW12631   2.845   1.567   9.167
 3963SOL    HW112632   2.829   1.610   9.083
 3963SOL    HW212633   2.888   1.484   9.143
 3964SOL     OW12634   3.716   1.504   9.053
 3964SOL    HW112635   3.735   1.531   8.963
 3964SOL    HW212636   3.797   1.522   9.101
 3965SOL     OW12637   2.216   0.916   9.257
 3965SOL    HW112638   2.297   0.935   9.303
 3965SOL    HW212639   2.241   0.853   9.189
 3966SOL     OW12640   3.391   0.263   7.576
 3966SOL    HW112641   3.320   0.207   7.607
 3966SOL    HW212642   3.422   0.309   7.654
 3967SOL     OW12643   3.152   0.826   7.478
 3967SOL    HW112644   3.194   0.740   7.480
 3967SOL    HW212645   3.183   0.865   7.396
 3968SOL     OW12646   2.927   1.337   8.302
 3968SOL    HW112647   2.931   1.264   8.240
 3968SOL    HW212648   2.989   1.401   8.267
 3969SOL     OW12649   2.170   0.810   8.395
 3969SOL    HW112650   2.263   0.832   8.388
 3969SOL    HW212651   2.169   0.720   8.427
 3970SOL     OW12652   2.197   0.534   8.462
 3970SOL    HW112653   2.155   0.450   8.443
 3970SOL    HW212654   2.274   0.535   8.404
 3971SOL     OW12655   2.998   0.372   9.147
 3971SOL    HW112656   2.947   0.435   9.196
 3971SOL    HW212657   3.083   0.415   9.133
 3972SOL     OW12658   3.017   0.214   8.922
 3972SOL    HW112659   3.012   0.278   8.993
 3972SOL    HW212660   3.059   0.261   8.850
 3973SOL     OW12661   1.867   1.321   7.642
 3973SOL    HW112662   1.780   1.335   7.605
 3973SOL    HW212663   1.864   1.231   7.676
 3974SOL     OW12664   1.947   1.779   8.374
 3974SOL    HW112665   1.917   1.697   8.335
 3974SOL    HW212666   2.035   1.792   8.339
 3975SOL     OW12667   2.359   1.569   8.352
 3975SOL    HW112668   2.427   1.634   8.372
 3975SOL    HW212669   2.403   1.505   8.295
 3976SOL     OW12670   2.842   0.793   8.675
 3976SOL    HW112671   2.899   0.770   8.748
 3976SOL    HW212672   2.759   0.751   8.695
 3977SOL     OW12673   1.895   0.544   8.567
 3977SOL    HW112674   1.972   0.526   8.513
 3977SOL    HW212675   1.928   0.547   8.656
 3978SOL     OW12676   2.047   0.521   9.170
 3978SOL    HW112677   2.123   0.502   9.117
 3978SOL    HW212678   2.006   0.597   9.128
 3979SOL     OW12679   3.241   0.937   9.106
 3979SOL    HW112680   3.261   1.031   9.103
 3979SOL    HW212681   3.237   0.911   9.014
 3980SOL     OW12682   2.672   0.577   7.806
 3980SOL    HW112683   2.677   0.505   7.743
 3980SOL    HW212684   2.599   0.631   7.776
 3981SOL     OW12685   3.501   0.602   8.632
 3981SOL    HW112686   3.491   0.543   8.707
 3981SOL    HW212687   3.589   0.583   8.598
 3982SOL     OW12688   2.112   1.545   9.176
 3982SOL    HW112689   2.079   1.607   9.241
 3982SOL    HW212690   2.111   1.461   9.221
 3983SOL     OW12691   2.567   0.458   8.710
 3983SOL    HW112692   2.518   0.382   8.680
 3983SOL    HW212693   2.564   0.519   8.636
 3984SOL     OW12694   2.791   1.678   8.916
 3984SOL    HW112695   2.763   1.642   8.832
 3984SOL    HW212696   2.785   1.773   8.905
 3985SOL     OW12697   2.325   0.492   7.631
 3985SOL    HW112698   2.384   0.564   7.653
 3985SOL    HW212699   2.240   0.534   7.618
 3986SOL     OW12700   2.006   1.140   8.922
 3986SOL    HW112701   2.008   1.090   9.003
 3986SOL    HW212702   2.023   1.076   8.853
 3987SOL     OW12703   3.187   1.046   8.670
 3987SOL    HW112704   3.209   0.982   8.602
 3987SOL    HW212705   3.118   1.100   8.631
 3988SOL     OW12706   3.176   0.857   7.753
 3988SOL    HW112707   3.101   0.827   7.806
 3988SOL    HW212708   3.148   0.844   7.663
 3989SOL     OW12709   3.637   1.741   8.601
 3989SOL    HW112710   3.697   1.768   8.530
 3989SOL    HW212711   3.611   1.652   8.578
 3990SOL     OW12712   3.103   1.733   8.559
 3990SOL    HW112713   3.185   1.755   8.515
 3990SOL    HW212714   3.110   1.640   8.578
 3991SOL     OW12715   1.949   1.265   8.460
 3991SOL    HW112716   1.933   1.279   8.553
 3991SOL    HW212717   1.874   1.213   8.430
 3992SOL     OW12718   2.539   1.667   9.179
 3992SOL    HW112719   2.483   1.745   9.175
 3992SOL    HW212720   2.603   1.681   9.109
 3993SOL     OW12721   3.581   0.129   7.937
 3993SOL    HW112722   3.650   0.140   7.872
 3993SOL    HW212723   3.612   0.059   7.994
 3994SOL     OW12724   3.253   1.567   7.935
 3994SOL    HW112725   3.313   1.600   7.867
 3994SOL    HW212726   3.204   1.644   7.963
 3995SOL     OW12727   1.984   1.783   9.284
 3995SOL    HW112728   1.934   1.715   9.330
 3995SOL    HW212729   2.043   1.818   9.350
 3996SOL     OW12730   3.141   0.929   8.121
 3996SOL    HW112731   3.214   0.867   8.127
 3996SOL    HW212732   3.175   1.001   8.068
 3997SOL     OW12733   2.673   1.275   8.876
 3997SOL    HW112734   2.645   1.314   8.958
 3997SOL    HW212735   2.602   1.294   8.815
 3998SOL     OW12736   2.535   1.620   7.601
 3998SOL    HW112737   2.545   1.633   7.507
 3998SOL    HW212738   2.478   1.544   7.609
 3999SOL     OW12739   3.486   1.727   8.839
 3999SOL    HW112740   3.537   1.733   8.758
 3999SOL    HW212741   3.472   1.818   8.866
 4000SOL     OW12742   3.701   0.153   8.413
 4000SOL    HW112743   3.733   0.075   8.367
 4000SOL    HW212744   3.615   0.169   8.376
 4001SOL     OW12745   2.124   0.320   8.163
 4001SOL    HW112746   2.039   0.355   8.138
 4001SOL    HW212747   2.120   0.313   8.259
 4002SOL     OW12748   3.070   1.605   7.480
 4002SOL    HW112749   3.059   1.513   7.507
 4002SOL    HW212750   3.004   1.617   7.412
 4003SOL     OW12751   2.685   1.006   8.822
 4003SOL    HW112752   2.729   1.000   8.737
 4003SOL    HW212753   2.685   1.100   8.842
 4004SOL     OW12754   2.778   0.910   7.738
 4004SOL    HW112755   2.839   0.942   7.672
 4004SOL    HW212756   2.826   0.841   7.784
 4005SOL     OW12757   3.353   1.626   7.491
 4005SOL    HW112758   3.258   1.618   7.477
 4005SOL    HW212759   3.390   1.632   7.403
 4006SOL     OW12760   2.232   1.298   8.942
 4006SOL    HW112761   2.221   1.376   8.887
 4006SOL    HW212762   2.153   1.247   8.926
 4007SOL     OW12763   3.472   1.284   8.728
 4007SOL    HW112764   3.530   1.270   8.803
 4007SOL    HW212765   3.412   1.352   8.757
 4008SOL     OW12766   2.917   1.108   8.156
 4008SOL    HW112767   2.845   1.057   8.194
 4008SOL    HW212768   2.980   1.042   8.127
 4009SOL     OW12769   2.866   0.246   8.457
 4009SOL    HW112770   2.871   0.226   8.363
 4009SOL    HW212771   2.857   0.160   8.499
 4010SOL     OW12772   2.465   1.490   7.928
 4010SOL    HW112773   2.509   1.439   7.860
 4010SOL    HW212774   2.402   1.544   7.881
 4011SOL     OW12775   3.585   0.394   8.824
 4011SOL    HW112776   3.658   0.456   8.824
 4011SOL    HW212777   3.613   0.323   8.767
 4012SOL     OW12778   2.122   1.345   7.737
 4012SOL    HW112779   2.029   1.341   7.715
 4012SOL    HW212780   2.124   1.382   7.825
 4013SOL     OW12781   1.975   1.023   9.168
 4013SOL    HW112782   1.899   1.000   9.221
 4013SOL    HW212783   2.049   0.985   9.215
 4014SOL     OW12784   2.519   0.205   8.949
 4014SOL    HW112785   2.598   0.180   8.901
 4014SOL    HW212786   2.550   0.228   9.036
 4015SOL     OW12787   1.944   0.334   7.496
 4015SOL    HW112788   1.874   0.280   7.460
 4015SOL    HW212789   1.955   0.405   7.432
 4016SOL     OW12790   3.290   0.858   8.847
 4016SOL    HW112791   3.241   0.919   8.792
 4016SOL    HW212792   3.379   0.860   8.812
 4017SOL     OW12793   1.925   0.186   7.763
 4017SOL    HW112794   1.925   0.253   7.696
 4017SOL    HW212795   1.999   0.130   7.742
 4018SOL     OW12796   3.040   1.338   7.565
 4018SOL    HW112797   2.950   1.308   7.567
 4018SOL    HW212798   3.068   1.338   7.657
 4019SOL     OW12799   2.482   0.830   8.882
 4019SOL    HW112800   2.538   0.906   8.867
 4019SOL    HW212801   2.543   0.757   8.891
 4020SOL     OW12802   3.345   1.779   8.428
 4020SOL    HW112803   3.368   1.840   8.358
 4020SOL    HW212804   3.428   1.757   8.469
 4021SOL     OW12805   2.578   0.562   9.153
 4021SOL    HW112806   2.619   0.625   9.211
 4021SOL    HW212807   2.606   0.477   9.186
 4022SOL     OW12808   3.334   1.198   9.079
 4022SOL    HW112809   3.322   1.212   9.173
 4022SOL    HW212810   3.427   1.215   9.065
 4023SOL     OW12811   2.240   1.742   9.017
 4023SOL    HW112812   2.154   1.773   8.988
 4023SOL    HW212813   2.223   1.657   9.058
 4024SOL     OW12814   3.530   0.881   8.703
 4024SOL    HW112815   3.523   0.795   8.660
 4024SOL    HW212816   3.520   0.944   8.632
 4025SOL     OW12817   3.081   0.332   7.895
 4025SOL    HW112818   3.147   0.264   7.882
 4025SOL    HW212819   3.109   0.379   7.973
 4026SOL     OW12820   2.447   0.737   8.121
 4026SOL    HW112821   2.489   0.821   8.105
 4026SOL    HW212822   2.382   0.729   8.051
 4027SOL     OW12823   3.622   0.369   9.092
 4027SOL    HW112824   3.606   0.382   8.998
 4027SOL    HW212825   3.545   0.321   9.123
 4028SOL     OW12826   3.609   0.933   8.960
 4028SOL    HW112827   3.602   1.028   8.973
 4028SOL    HW212828   3.593   0.920   8.866
 4029SOL     OW12829   2.725   1.367   7.485
 4029SOL    HW112830   2.686   1.395   7.568
 4029SOL    HW212831   2.741   1.449   7.438
 4030SOL     OW12832   2.524   1.796   8.380
 4030SOL    HW112833   2.526   1.882   8.423
 4030SOL    HW212834   2.615   1.768   8.378
 4031SOL     OW12835   2.730   0.968   8.302
 4031SOL    HW112836   2.780   0.896   8.340
 4031SOL    HW212837   2.694   1.015   8.378
 4032SOL     OW12838   2.941   0.989   7.537
 4032SOL    HW112839   2.919   1.040   7.459
 4032SOL    HW212840   3.015   0.934   7.510
 4033SOL     OW12841   3.714   1.555   8.292
 4033SOL    HW112842   3.636   1.542   8.239
 4033SOL    HW212843   3.708   1.487   8.360
 4034SOL     OW12844   2.087   1.300   9.304
 4034SOL    HW112845   2.020   1.239   9.273
 4034SOL    HW212846   2.067   1.311   9.397
 4035SOL     OW12847   1.949   1.231   8.112
 4035SOL    HW112848   1.953   1.186   8.196
 4035SOL    HW212849   2.016   1.187   8.059
 4036SOL     OW12850   2.544   1.405   9.077
 4036SOL    HW112851   2.464   1.361   9.108
 4036SOL    HW212852   2.539   1.493   9.114
 4037SOL     OW12853   3.667   0.179   8.686
 4037SOL    HW112854   3.666   0.086   8.706
 4037SOL    HW212855   3.685   0.184   8.592
 4038SOL     OW12856   2.299   0.433   7.979
 4038SOL    HW112857   2.320   0.364   7.916
 4038SOL    HW212858   2.243   0.390   8.043
 4039SOL     OW12859   3.560   1.489   8.543
 4039SOL    HW112860   3.481   1.467   8.495
 4039SOL    HW212861   3.570   1.419   8.608
 4040SOL     OW12862   2.194   0.559   8.740
 4040SOL    HW112863   2.248   0.502   8.794
 4040SOL    HW212864   2.212   0.532   8.650
 4041SOL     OW12865   2.689   1.578   8.124
 4041SOL    HW112866   2.673   1.631   8.046
 4041SOL    HW212867   2.615   1.518   8.128
 4042SOL     OW12868   3.293   0.216   8.565
 4042SOL    HW112869   3.328   0.145   8.618
 4042SOL    HW212870   3.243   0.269   8.627
 4043SOL     OW12871   2.857   0.004   8.600
 4043SOL    HW112872   2.817   4.417   8.594
 4043SOL    HW212873   2.951   4.487   8.610
 4044SOL     OW12874   2.634   1.333   7.765
 4044SOL    HW112875   2.604   1.242   7.772
 4044SOL    HW212876   2.717   1.334   7.814
 4045SOL     OW12877   2.484   1.555   8.731
 4045SOL    HW112878   2.485   1.635   8.783
 4045SOL    HW212879   2.573   1.549   8.695
 4046SOL     OW12880   3.201   0.052   7.604
 4046SOL    HW112881   3.239   4.476   7.560
 4046SOL    HW212882   3.125   0.017   7.650
 4047SOL     OW12883   3.177   0.464   8.122
 4047SOL    HW112884   3.119   0.540   8.123
 4047SOL    HW212885   3.165   0.424   8.208
 4048SOL     OW12886   3.447   0.198   8.316
 4048SOL    HW112887   3.389   0.214   8.390
 4048SOL    HW212888   3.450   0.282   8.270
 4049SOL     OW12889   1.906   1.070   7.754
 4049SOL    HW112890   2.000   1.061   7.737
 4049SOL    HW212891   1.877   0.981   7.777
 4050SOL     OW12892   2.746   1.655   7.790
 4050SOL    HW112893   2.675   1.638   7.729
 4050SOL    HW212894   2.716   1.730   7.842
 4051SOL     OW12895   2.089   0.625   9.432
 4051SOL    HW112896   2.003   0.618   9.472
 4051SOL    HW212897   2.077   0.597   9.342
 4052SOL     OW12898   2.069   0.300  10.299
 4052SOL    HW112899   2.100   0.270  10.385
 4052SOL    HW212900   1.987   0.253  10.285
 4053SOL     OW12901   1.869   0.389   9.946
 4053SOL    HW112902   1.782   0.407   9.984
 4053SOL    HW212903   1.854   0.315   9.887
 4054SOL     OW12904   2.431   1.290  10.488
 4054SOL    HW112905   2.343   1.292  10.450
 4054SOL    HW212906   2.444   1.379  10.520
 4055SOL     OW12907   3.426   1.513  10.018
 4055SOL    HW112908   3.384   1.491  10.100
 4055SOL    HW212909   3.355   1.516   9.954
 4056SOL     OW12910   2.999   0.697  10.006
 4056SOL    HW112911   3.044   0.782   9.997
 4056SOL    HW212912   2.948   0.706  10.086
 4057SOL     OW12913   3.632   0.605   9.537
 4057SOL    HW112914   3.610   0.597   9.444
 4057SOL    HW212915   3.597   0.526   9.577
 4058SOL     OW12916   2.617   1.142  10.354
 4058SOL    HW112917   2.548   1.178  10.410
 4058SOL    HW212918   2.652   1.219  10.308
 4059SOL     OW12919   2.720   0.772   0.023
 4059SOL    HW112920   2.725   0.828   0.101
 4059SOL    HW212921   2.752   0.827  11.052
 4060SOL     OW12922   2.548   1.001   9.955
 4060SOL    HW112923   2.613   0.990  10.025
 4060SOL    HW212924   2.479   1.053   9.996
 4061SOL     OW12925   2.194   1.419  10.378
 4061SOL    HW112926   2.118   1.384  10.331
 4061SOL    HW212927   2.241   1.470  10.312
 4062SOL     OW12928   3.325   1.500  10.663
 4062SOL    HW112929   3.383   1.575  10.671
 4062SOL    HW212930   3.262   1.510  10.734
 4063SOL     OW12931   2.313   0.393  10.782
 4063SOL    HW112932   2.390   0.337  10.792
 4063SOL    HW212933   2.241   0.341  10.818
 4064SOL     OW12934   3.471   0.444  10.049
 4064SOL    HW112935   3.391   0.464  10.001
 4064SOL    HW212936   3.488   0.522  10.102
 4065SOL     OW12937   2.082   1.719   9.786
 4065SOL    HW112938   2.121   1.752   9.867
 4065SOL    HW212939   2.157   1.708   9.727
 4066SOL     OW12940   2.089   1.442   9.846
 4066SOL    HW112941   2.063   1.534   9.853
 4066SOL    HW212942   2.032   1.396   9.908
 4067SOL     OW12943   2.123   1.090  10.202
 4067SOL    HW112944   2.118   1.004  10.242
 4067SOL    HW212945   2.065   1.145  10.255
 4068SOL     OW12946   2.472   1.779  10.741
 4068SOL    HW112947   2.390   1.765  10.790
 4068SOL    HW212948   2.495   1.870  10.758
 4069SOL     OW12949   2.446   0.983   9.446
 4069SOL    HW112950   2.492   1.030   9.377
 4069SOL    HW212951   2.485   1.014   9.527
 4070SOL     OW12952   3.414   0.138  10.785
 4070SOL    HW112953   3.459   0.193  10.722
 4070SOL    HW212954   3.478   0.125  10.855
 4071SOL     OW12955   1.979   0.654   9.870
 4071SOL    HW112956   1.949   0.566   9.892
 4071SOL    HW212957   1.971   0.703   9.952
 4072SOL     OW12958   3.704   1.758   9.643
 4072SOL    HW112959   3.770   1.730   9.707
 4072SOL    HW212960   3.726   1.849   9.625
 4073SOL     OW12961   1.895   1.585   9.433
 4073SOL    HW112962   1.878   1.492   9.450
 4073SOL    HW212963   1.870   1.629   9.514
 4074SOL     OW12964   3.553   0.920   9.953
 4074SOL    HW112965   3.635   0.877   9.932
 4074SOL    HW212966   3.530   0.970   9.875
 4075SOL     OW12967   3.509   1.106   9.739
 4075SOL    HW112968   3.595   1.110   9.697
 4075SOL    HW212969   3.514   1.167   9.811
 4076SOL     OW12970   1.990   0.725  10.918
 4076SOL    HW112971   2.083   0.746  10.903
 4076SOL    HW212972   1.946   0.809  10.912
 4077SOL     OW12973   2.478   1.386  10.043
 4077SOL    HW112974   2.432   1.302  10.053
 4077SOL    HW212975   2.460   1.413   9.953
 4078SOL     OW12976   3.153   1.236  10.752
 4078SOL    HW112977   3.179   1.175  10.682
 4078SOL    HW212978   3.211   1.213  10.825
 4079SOL     OW12979   2.681   0.017   9.864
 4079SOL    HW112980   2.717   0.101   9.837
 4079SOL    HW212981   2.586   0.028   9.856
 4080SOL     OW12982   2.052   0.963  10.580
 4080SOL    HW112983   2.136   0.921  10.564
 4080SOL    HW212984   1.989   0.910  10.531
 4081SOL     OW12985   3.394   0.994   9.509
 4081SOL    HW112986   3.323   0.938   9.542
 4081SOL    HW212987   3.435   1.029   9.588
 4082SOL     OW12988   3.062   1.807  10.928
 4082SOL    HW112989   3.057   1.871  10.857
 4082SOL    HW212990   3.070   1.723  10.884
 4083SOL     OW12991   2.198   0.279  11.086
 4083SOL    HW112992   2.253   0.343   0.032
 4083SOL    HW212993   2.114   0.283   0.032
 4084SOL     OW12994   3.329   1.419  10.260
 4084SOL    HW112995   3.261   1.435  10.325
 4084SOL    HW212996   3.316   1.328  10.233
 4085SOL     OW12997   3.518   1.744   9.888
 4085SOL    HW112998   3.500   1.713   9.799
 4085SOL    HW212999   3.496   1.670   9.944
 4086SOL     OW13000   2.454   0.722   9.576
 4086SOL    HW113001   2.458   0.805   9.528
 4086SOL    HW213002   2.389   0.737   9.645
 4087SOL     OW13003   3.155   0.367  10.242
 4087SOL    HW113004   3.065   0.338  10.226
 4087SOL    HW213005   3.190   0.304  10.305
 4088SOL     OW13006   3.442   1.671   9.620
 4088SOL    HW113007   3.532   1.701   9.612
 4088SOL    HW213008   3.414   1.655   9.529
 4089SOL     OW13009   2.658   0.619  10.764
 4089SOL    HW113010   2.626   0.593  10.851
 4089SOL    HW213011   2.622   0.553  10.705
 4090SOL     OW13012   2.828   0.901  10.905
 4090SOL    HW113013   2.876   0.828  10.864
 4090SOL    HW213014   2.777   0.938  10.833
 4091SOL     OW13015   2.860   0.419  10.543
 4091SOL    HW113016   2.770   0.426  10.576
 4091SOL    HW213017   2.852   0.364  10.464
 4092SOL     OW13018   2.913   0.697   9.736
 4092SOL    HW113019   2.930   0.689   9.830
 4092SOL    HW213020   2.829   0.653   9.723
 4093SOL     OW13021   1.951   0.822  10.086
 4093SOL    HW113022   2.031   0.815  10.138
 4093SOL    HW213023   1.906   0.899  10.121
 4094SOL     OW13024   1.965   1.793  10.897
 4094SOL    HW113025   1.957   1.783  10.992
 4094SOL    HW213026   1.878   1.821  10.868
 4095SOL     OW13027   2.718   0.370   9.496
 4095SOL    HW113028   2.787   0.403   9.439
 4095SOL    HW213029   2.731   0.275   9.497
 4096SOL     OW13030   3.241   1.143   9.850
 4096SOL    HW113031   3.319   1.130   9.797
 4096SOL    HW213032   3.187   1.204   9.800
 4097SOL     OW13033   2.400   0.206  10.212
 4097SOL    HW113034   2.421   0.225  10.304
 4097SOL    HW213035   2.392   0.293  10.171
 4098SOL     OW13036   2.867   1.444   9.781
 4098SOL    HW113037   2.830   1.517   9.731
 4098SOL    HW213038   2.847   1.465   9.872
 4099SOL     OW13039   2.215   1.783  10.150
 4099SOL    HW113040   2.252   1.696  10.164
 4099SOL    HW213041   2.285   1.844  10.176
 4100SOL     OW13042   3.661   1.058  10.179
 4100SOL    HW113043   3.608   1.036  10.103
 4100SOL    HW213044   3.598   1.063  10.251
 4101SOL     OW13045   3.093   1.536  10.821
 4101SOL    HW113046   3.099   1.448  10.857
 4101SOL    HW213047   3.025   1.530  10.754
 4102SOL     OW13048   2.180   0.958   9.561
 4102SOL    HW113049   2.262   0.977   9.516
 4102SOL    HW213050   2.150   0.876   9.523
 4103SOL     OW13051   3.343   0.744  10.033
 4103SOL    HW113052   3.333   0.702  10.119
 4103SOL    HW213053   3.420   0.800  10.043
 4104SOL     OW13054   2.317   1.263  11.054
 4104SOL    HW113055   2.287   1.279  10.964
 4104SOL    HW213056   2.253   1.201  11.089
 4105SOL     OW13057   2.985   1.776   9.542
 4105SOL    HW113058   2.910   1.736   9.585
 4105SOL    HW213059   3.008   1.716   9.472
 4106SOL     OW13060   2.057   0.265  10.819
 4106SOL    HW113061   1.988   0.331  10.813
 4106SOL    HW213062   2.080   0.263  10.912
 4107SOL     OW13063   3.491   1.381   9.398
 4107SOL    HW113064   3.449   1.465   9.383
 4107SOL    HW213065   3.422   1.316   9.379
 4108SOL     OW13066   2.330   1.717   9.655
 4108SOL    HW113067   2.368   1.792   9.701
 4108SOL    HW213068   2.387   1.704   9.579
 4109SOL     OW13069   3.286   0.143   9.728
 4109SOL    HW113070   3.270   0.088   9.652
 4109SOL    HW213071   3.380   0.132   9.746
 4110SOL     OW13072   2.093   1.759  10.538
 4110SOL    HW113073   2.162   1.707  10.579
 4110SOL    HW213074   2.117   1.761  10.445
 4111SOL     OW13075   2.796   1.697  10.209
 4111SOL    HW113076   2.875   1.649  10.230
 4111SOL    HW213077   2.756   1.648  10.137
 4112SOL     OW13078   2.256   0.694   9.784
 4112SOL    HW113079   2.278   0.601   9.799
 4112SOL    HW213080   2.162   0.699   9.802
 4113SOL     OW13081   2.493   0.122   9.434
 4113SOL    HW113082   2.581   0.085   9.443
 4113SOL    HW213083   2.459   0.083   9.353
 4114SOL     OW13084   2.619   0.267  11.047
 4114SOL    HW113085   2.689   0.206  11.071
 4114SOL    HW213086   2.589   0.303   0.030
 4115SOL     OW13087   2.739   1.523  10.502
 4115SOL    HW113088   2.722   1.485  10.416
 4115SOL    HW213089   2.810   1.471  10.538
 4116SOL     OW13090   3.206   0.591  10.754
 4116SOL    HW113091   3.257   0.574  10.833
 4116SOL    HW213092   3.231   0.680  10.728
 4117SOL     OW13093   2.679   1.395  10.251
 4117SOL    HW113094   2.763   1.381  10.208
 4117SOL    HW213095   2.615   1.394  10.179
 4118SOL     OW13096   2.786   0.522  10.208
 4118SOL    HW113097   2.770   0.519  10.113
 4118SOL    HW213098   2.820   0.435  10.229
 4119SOL     OW13099   2.417   0.079   9.833
 4119SOL    HW113100   2.330   0.048   9.857
 4119SOL    HW213101   2.402   0.141   9.761
 4120SOL     OW13102   3.290   1.199   9.351
 4120SOL    HW113103   3.320   1.123   9.401
 4120SOL    HW213104   3.204   1.220   9.388
 4121SOL     OW13105   2.157   0.066   9.513
 4121SOL    HW113106   2.234   0.120   9.496
 4121SOL    HW213107   2.186   0.000   9.576
 4122SOL     OW13108   2.817   0.240   9.775
 4122SOL    HW113109   2.765   0.301   9.723
 4122SOL    HW213110   2.906   0.274   9.770
 4123SOL     OW13111   2.940   0.687  10.772
 4123SOL    HW113112   2.868   0.625  10.772
 4123SOL    HW213113   3.019   0.633  10.768
 4124SOL     OW13114   3.083   1.572  10.105
 4124SOL    HW113115   3.100   1.637  10.037
 4124SOL    HW213116   3.153   1.585  10.169
 4125SOL     OW13117   2.332   1.151  10.042
 4125SOL    HW113118   2.264   1.131  10.106
 4125SOL    HW213119   2.291   1.135   9.957
 4126SOL     OW13120   3.130   1.794   9.919
 4126SOL    HW113121   3.177   1.854   9.862
 4126SOL    HW213122   3.064   1.847   9.962
 4127SOL     OW13123   2.890   0.545   9.329
 4127SOL    HW113124   2.842   0.627   9.313
 4127SOL    HW213125   2.948   0.565   9.402
 4128SOL     OW13126   1.945   0.547  10.711
 4128SOL    HW113127   2.035   0.553  10.680
 4128SOL    HW213128   1.940   0.611  10.782
 4129SOL     OW13129   2.423   0.246  10.479
 4129SOL    HW113130   2.443   0.159  10.515
 4129SOL    HW213131   2.331   0.261  10.503
 4130SOL     OW13132   2.726   0.504   9.938
 4130SOL    HW113133   2.686   0.542   9.859
 4130SOL    HW213134   2.683   0.420   9.949
 4131SOL     OW13135   2.819   0.019  10.100
 4131SOL    HW113136   2.772   0.020  10.017
 4131SOL    HW213137   2.834   4.426  10.118
 4132SOL     OW13138   3.298   1.163  10.166
 4132SOL    HW113139   3.230   1.095  10.166
 4132SOL    HW213140   3.323   1.172  10.074
 4133SOL     OW13141   3.326   0.608  10.282
 4133SOL    HW113142   3.272   0.529  10.282
 4133SOL    HW213143   3.383   0.598  10.358
 4134SOL     OW13144   3.706   0.815   9.694
 4134SOL    HW113145   3.763   0.764   9.752
 4134SOL    HW213146   3.679   0.752   9.626
 4135SOL     OW13147   2.352   1.420   9.464
 4135SOL    HW113148   2.278   1.392   9.517
 4135SOL    HW213149   2.340   1.376   9.380
 4136SOL     OW13150   3.534   1.265   9.953
 4136SOL    HW113151   3.628   1.266   9.969
 4136SOL    HW213152   3.505   1.353   9.975
 4137SOL     OW13153   3.257   0.572   9.380
 4137SOL    HW113154   3.194   0.555   9.450
 4137SOL    HW213155   3.342   0.554   9.419
 4138SOL     OW13156   2.381   0.265   9.632
 4138SOL    HW113157   2.432   0.216   9.567
 4138SOL    HW213158   2.362   0.349   9.589
 4139SOL     OW13159   3.620   1.229  10.862
 4139SOL    HW113160   3.712   1.202  10.863
 4139SOL    HW213161   3.620   1.315  10.904
 4140SOL     OW13162   2.923   1.355  10.650
 4140SOL    HW113163   2.845   1.321  10.694
 4140SOL    HW213164   2.995   1.306  10.689
 4141SOL     OW13165   2.995   1.210  10.414
 4141SOL    HW113166   2.927   1.241  10.474
 4141SOL    HW213167   2.964   1.237  10.328
 4142SOL     OW13168   3.489   1.097  10.388
 4142SOL    HW113169   3.485   1.159  10.461
 4142SOL    HW213170   3.410   1.116  10.337
 4143SOL     OW13171   2.757   0.126  10.697
 4143SOL    HW113172   2.783   0.089  10.613
 4143SOL    HW213173   2.840   0.151  10.739
 4144SOL     OW13174   2.571   1.062   9.681
 4144SOL    HW113175   2.557   1.044   9.774
 4144SOL    HW213176   2.647   1.008   9.657
 4145SOL     OW13177   2.283   0.816  10.560
 4145SOL    HW113178   2.351   0.825  10.627
 4145SOL    HW213179   2.248   0.729  10.574
 4146SOL     OW13180   3.132   0.383  10.582
 4146SOL    HW113181   3.163   0.460  10.631
 4146SOL    HW213182   3.043   0.405  10.556
 4147SOL     OW13183   1.926   1.567  10.660
 4147SOL    HW113184   1.899   1.645  10.610
 4147SOL    HW213185   2.021   1.574  10.664
 4148SOL     OW13186   2.208   1.112   9.800
 4148SOL    HW113187   2.213   1.185   9.738
 4148SOL    HW213188   2.205   1.034   9.745
 4149SOL     OW13189   2.417   0.527  10.168
 4149SOL    HW113190   2.429   0.587  10.094
 4149SOL    HW213191   2.482   0.554  10.232
 4150SOL     OW13192   3.110   1.349   9.699
 4150SOL    HW113193   3.166   1.420   9.730
 4150SOL    HW213194   3.023   1.370   9.733
 4151SOL     OW13195   3.144   1.460  10.455
 4151SOL    HW113196   3.201   1.462  10.532
 4151SOL    HW213197   3.091   1.381  10.467
 4152SOL     OW13198   3.442   0.623   9.789
 4152SOL    HW113199   3.394   0.670   9.856
 4152SOL    HW213200   3.486   0.691   9.738
 4153SOL     OW13201   2.212   1.515  10.627
 4153SOL    HW113202   2.196   1.476  10.541
 4153SOL    HW213203   2.307   1.531  10.629
 4154SOL     OW13204   2.277   0.734  10.904
 4154SOL    HW113205   2.341   0.777  10.848
 4154SOL    HW213206   2.312   0.646  10.918
 4155SOL     OW13207   3.460   0.757  10.967
 4155SOL    HW113208   3.382   0.812  10.961
 4155SOL    HW213209   3.529   0.807  10.924
 4156SOL     OW13210   2.445   0.874  10.341
 4156SOL    HW113211   2.474   0.965  10.342
 4156SOL    HW213212   2.389   0.866  10.417
 4157SOL     OW13213   3.217   0.861  10.342
 4157SOL    HW113214   3.133   0.849  10.297
 4157SOL    HW213215   3.260   0.776  10.333
 4158SOL     OW13216   3.063   0.536   9.570
 4158SOL    HW113217   3.070   0.456   9.622
 4158SOL    HW213218   3.020   0.599   9.628
 4159SOL     OW13219   2.151   0.231  10.550
 4159SOL    HW113220   2.112   0.249  10.636
 4159SOL    HW213221   2.189   0.143  10.559
 4160SOL     OW13222   1.911   1.308  10.583
 4160SOL    HW113223   1.941   1.255  10.656
 4160SOL    HW213224   1.913   1.398  10.616
 4161SOL     OW13225   2.584   0.631  10.366
 4161SOL    HW113226   2.659   0.613  10.309
 4161SOL    HW213227   2.556   0.719  10.343
 4162SOL     OW13228   2.157   0.051   9.963
 4162SOL    HW113229   2.147   0.146   9.963
 4162SOL    HW213230   2.169   0.027  10.055
 4163SOL     OW13231   3.481   0.381   9.669
 4163SOL    HW113232   3.506   0.316   9.734
 4163SOL    HW213233   3.456   0.458   9.721
 4164SOL     OW13234   2.892   0.763  10.271
 4164SOL    HW113235   2.886   0.778  10.365
 4164SOL    HW213236   2.862   0.673  10.259
 4165SOL     OW13237   2.838   1.573  11.004
 4165SOL    HW113238   2.822   1.622  10.923
 4165SOL    HW213239   2.861   1.485  10.973
 4166SOL     OW13240   3.717   1.490  10.912
 4166SOL    HW113241   3.735   1.527  10.825
 4166SOL    HW213242   3.783   1.532  10.968
 4167SOL     OW13243   2.223   0.917  11.095
 4167SOL    HW113244   2.307   0.934   0.037
 4167SOL    HW213245   2.242   0.851  11.028
 4168SOL     OW13246   3.391   0.263   9.438
 4168SOL    HW113247   3.320   0.207   9.469
 4168SOL    HW213248   3.422   0.309   9.516
 4169SOL     OW13249   3.152   0.826   9.340
 4169SOL    HW113250   3.194   0.740   9.342
 4169SOL    HW213251   3.183   0.865   9.258
 4170SOL     OW13252   2.928   1.336  10.164
 4170SOL    HW113253   2.932   1.264  10.102
 4170SOL    HW213254   2.989   1.401  10.129
 4171SOL     OW13255   2.170   0.809  10.256
 4171SOL    HW113256   2.263   0.831  10.249
 4171SOL    HW213257   2.169   0.719  10.289
 4172SOL     OW13258   2.197   0.534  10.323
 4172SOL    HW113259   2.154   0.450  10.305
 4172SOL    HW213260   2.274   0.534  10.266
 4173SOL     OW13261   3.009   0.216  10.766
 4173SOL    HW113262   3.037   0.253  10.850
 4173SOL    HW213263   3.054   0.269  10.700
 4174SOL     OW13264   1.867   1.317   9.504
 4174SOL    HW113265   1.780   1.332   9.468
 4174SOL    HW213266   1.864   1.228   9.539
 4175SOL     OW13267   1.946   1.788  10.241
 4175SOL    HW113268   1.915   1.706  10.202
 4175SOL    HW213269   2.036   1.797  10.210
 4176SOL     OW13270   2.362   1.566  10.215
 4176SOL    HW113271   2.430   1.631  10.234
 4176SOL    HW213272   2.405   1.503  10.158
 4177SOL     OW13273   2.842   0.795  10.537
 4177SOL    HW113274   2.898   0.773  10.611
 4177SOL    HW213275   2.759   0.751  10.556
 4178SOL     OW13276   1.896   0.545  10.430
 4178SOL    HW113277   1.973   0.527  10.377
 4178SOL    HW213278   1.928   0.547  10.520
 4179SOL     OW13279   2.672   0.577   9.668
 4179SOL    HW113280   2.677   0.505   9.605
 4179SOL    HW213281   2.599   0.631   9.638
 4180SOL     OW13282   3.501   0.601  10.493
 4180SOL    HW113283   3.492   0.544  10.570
 4180SOL    HW213284   3.589   0.584  10.460
 4181SOL     OW13285   2.130   1.558  11.054
 4181SOL    HW113286   2.100   1.618   0.023
 4181SOL    HW213287   2.103   1.471  11.084
 4182SOL     OW13288   2.571   0.456  10.572
 4182SOL    HW113289   2.519   0.381  10.543
 4182SOL    HW213290   2.567   0.517  10.498
 4183SOL     OW13291   2.803   1.679  10.756
 4183SOL    HW113292   2.764   1.645  10.676
 4183SOL    HW213293   2.790   1.774  10.751
 4184SOL     OW13294   2.325   0.492   9.493
 4184SOL    HW113295   2.384   0.564   9.515
 4184SOL    HW213296   2.240   0.534   9.480
 4185SOL     OW13297   2.014   1.138  10.780
 4185SOL    HW113298   2.007   1.085  10.859
 4185SOL    HW213299   2.027   1.075  10.709
 4186SOL     OW13300   3.185   1.052  10.538
 4186SOL    HW113301   3.210   0.986  10.473
 4186SOL    HW213302   3.117   1.103  10.494
 4187SOL     OW13303   3.176   0.857   9.615
 4187SOL    HW113304   3.101   0.827   9.668
 4187SOL    HW213305   3.148   0.844   9.525
 4188SOL     OW13306   3.640   1.743  10.463
 4188SOL    HW113307   3.698   1.768  10.392
 4188SOL    HW213308   3.612   1.654  10.441
 4189SOL     OW13309   3.103   1.734  10.420
 4189SOL    HW113310   3.185   1.756  10.377
 4189SOL    HW213311   3.110   1.640  10.439
 4190SOL     OW13312   1.948   1.266  10.320
 4190SOL    HW113313   1.935   1.280  10.414
 4190SOL    HW213314   1.874   1.213  10.293
 4191SOL     OW13315   3.581   0.129   9.799
 4191SOL    HW113316   3.650   0.140   9.734
 4191SOL    HW213317   3.612   0.059   9.856
 4192SOL     OW13318   3.253   1.567   9.797
 4192SOL    HW113319   3.313   1.600   9.729
 4192SOL    HW213320   3.204   1.645   9.824
 4193SOL     OW13321   3.141   0.929   9.983
 4193SOL    HW113322   3.214   0.867   9.989
 4193SOL    HW213323   3.175   1.001   9.930
 4194SOL     OW13324   2.676   1.276  10.736
 4194SOL    HW113325   2.645   1.310  10.820
 4194SOL    HW213326   2.605   1.295  10.675
 4195SOL     OW13327   2.534   1.622   9.463
 4195SOL    HW113328   2.545   1.634   9.368
 4195SOL    HW213329   2.478   1.545   9.471
 4196SOL     OW13330   3.482   1.721  10.694
 4196SOL    HW113331   3.538   1.735  10.618
 4196SOL    HW213332   3.466   1.809  10.728
 4197SOL     OW13333   3.701   0.154  10.276
 4197SOL    HW113334   3.733   0.075  10.231
 4197SOL    HW213335   3.614   0.170  10.239
 4198SOL     OW13336   2.124   0.320  10.025
 4198SOL    HW113337   2.039   0.355  10.000
 4198SOL    HW213338   2.120   0.313  10.121
 4199SOL     OW13339   3.070   1.605   9.342
 4199SOL    HW113340   3.059   1.513   9.369
 4199SOL    HW213341   3.004   1.617   9.274
 4200SOL     OW13342   2.687   1.006  10.689
 4200SOL    HW113343   2.729   0.995  10.604
 4200SOL    HW213344   2.687   1.100  10.704
 4201SOL     OW13345   2.778   0.911   9.600
 4201SOL    HW113346   2.840   0.942   9.534
 4201SOL    HW213347   2.826   0.841   9.646
 4202SOL     OW13348   3.353   1.626   9.353
 4202SOL    HW113349   3.258   1.618   9.339
 4202SOL    HW213350   3.390   1.632   9.265
 4203SOL     OW13351   2.230   1.305  10.807
 4203SOL    HW113352   2.217   1.380  10.750
 4203SOL    HW213353   2.155   1.248  10.788
 4204SOL     OW13354   3.475   1.282  10.594
 4204SOL    HW113355   3.529   1.264  10.671
 4204SOL    HW213356   3.418   1.353  10.620
 4205SOL     OW13357   2.917   1.108  10.018
 4205SOL    HW113358   2.845   1.057  10.056
 4205SOL    HW213359   2.980   1.043   9.989
 4206SOL     OW13360   2.866   0.247  10.319
 4206SOL    HW113361   2.872   0.227  10.225
 4206SOL    HW213362   2.857   0.161  10.361
 4207SOL     OW13363   2.465   1.490   9.791
 4207SOL    HW113364   2.509   1.439   9.722
 4207SOL    HW213365   2.401   1.544   9.744
 4208SOL     OW13366   3.582   0.394  10.690
 4208SOL    HW113367   3.656   0.456  10.692
 4208SOL    HW213368   3.611   0.324  10.631
 4209SOL     OW13369   2.122   1.345   9.600
 4209SOL    HW113370   2.029   1.341   9.577
 4209SOL    HW213371   2.124   1.383   9.688
 4210SOL     OW13372   1.980   1.010  11.016
 4210SOL    HW113373   1.912   1.003  11.083
 4210SOL    HW213374   2.060   0.980  11.061
 4211SOL     OW13375   2.511   0.184  10.810
 4211SOL    HW113376   2.590   0.163  10.759
 4211SOL    HW213377   2.545   0.221  10.891
 4212SOL     OW13378   1.944   0.334   9.358
 4212SOL    HW113379   1.874   0.280   9.321
 4212SOL    HW213380   1.955   0.405   9.294
 4213SOL     OW13381   3.290   0.850  10.710
 4213SOL    HW113382   3.241   0.918  10.663
 4213SOL    HW213383   3.379   0.858  10.677
 4214SOL     OW13384   1.925   0.186   9.625
 4214SOL    HW113385   1.925   0.253   9.558
 4214SOL    HW213386   1.999   0.130   9.604
 4215SOL     OW13387   3.040   1.338   9.427
 4215SOL    HW113388   2.950   1.308   9.429
 4215SOL    HW213389   3.068   1.338   9.518
 4216SOL     OW13390   2.483   0.829  10.745
 4216SOL    HW113391   2.539   0.905  10.730
 4216SOL    HW213392   2.544   0.756  10.752
 4217SOL     OW13393   3.344   1.779  10.290
 4217SOL    HW113394   3.369   1.840  10.220
 4217SOL    HW213395   3.427   1.756  10.332
 4218SOL     OW13396   2.575   0.566  11.015
 4218SOL    HW113397   2.613   0.638  11.066
 4218SOL    HW213398   2.623   0.489  11.043
 4219SOL     OW13399   2.241   1.731  10.874
 4219SOL    HW113400   2.156   1.769  10.854
 4219SOL    HW213401   2.221   1.659  10.935
 4220SOL     OW13402   3.531   0.881  10.568
 4220SOL    HW113403   3.523   0.796  10.524
 4220SOL    HW213404   3.521   0.945  10.497
 4221SOL     OW13405   3.081   0.332   9.757
 4221SOL    HW113406   3.148   0.264   9.744
 4221SOL    HW213407   3.109   0.379   9.835
 4222SOL     OW13408   2.447   0.737   9.983
 4222SOL    HW113409   2.490   0.821   9.967
 4222SOL    HW213410   2.382   0.729   9.914
 4223SOL     OW13411   3.609   0.311  10.954
 4223SOL    HW113412   3.592   0.351  10.869
 4223SOL    HW213413   3.533   0.335  11.007
 4224SOL     OW13414   3.613   0.935  10.825
 4224SOL    HW113415   3.603   1.029  10.839
 4224SOL    HW213416   3.594   0.922  10.732
 4225SOL     OW13417   2.725   1.367   9.347
 4225SOL    HW113418   2.686   1.394   9.430
 4225SOL    HW213419   2.742   1.449   9.300
 4226SOL     OW13420   2.523   1.796  10.244
 4226SOL    HW113421   2.525   1.882  10.286
 4226SOL    HW213422   2.615   1.769  10.240
 4227SOL     OW13423   2.730   0.969  10.165
 4227SOL    HW113424   2.780   0.896  10.202
 4227SOL    HW213425   2.694   1.015  10.241
 4228SOL     OW13426   2.941   0.989   9.399
 4228SOL    HW113427   2.919   1.039   9.321
 4228SOL    HW213428   3.015   0.935   9.372
 4229SOL     OW13429   3.715   1.555  10.154
 4229SOL    HW113430   3.636   1.542  10.101
 4229SOL    HW213431   3.710   1.487  10.221
 4230SOL     OW13432   1.949   1.232   9.974
 4230SOL    HW113433   1.952   1.187  10.058
 4230SOL    HW213434   2.016   1.188   9.921
 4231SOL     OW13435   2.542   1.397  10.942
 4231SOL    HW113436   2.471   1.345  10.980
 4231SOL    HW213437   2.502   1.482  10.923
 4232SOL     OW13438   3.661   0.177  10.549
 4232SOL    HW113439   3.676   0.085  10.568
 4232SOL    HW213440   3.680   0.186  10.456
 4233SOL     OW13441   2.300   0.433   9.842
 4233SOL    HW113442   2.320   0.364   9.778
 4233SOL    HW213443   2.243   0.390   9.906
 4234SOL     OW13444   3.561   1.490  10.406
 4234SOL    HW113445   3.481   1.466  10.359
 4234SOL    HW213446   3.573   1.420  10.470
 4235SOL     OW13447   2.192   0.560  10.602
 4235SOL    HW113448   2.246   0.502  10.656
 4235SOL    HW213449   2.210   0.532  10.512
 4236SOL     OW13450   2.689   1.578   9.987
 4236SOL    HW113451   2.674   1.631   9.909
 4236SOL    HW213452   2.615   1.518   9.989
 4237SOL     OW13453   3.292   0.216  10.428
 4237SOL    HW113454   3.332   0.148  10.483
 4237SOL    HW213455   3.243   0.271  10.489
 4238SOL     OW13456   2.856   0.005  10.461
 4238SOL    HW113457   2.817   4.419  10.453
 4238SOL    HW213458   2.950   4.488  10.471
 4239SOL     OW13459   2.634   1.333   9.627
 4239SOL    HW113460   2.604   1.242   9.633
 4239SOL    HW213461   2.717   1.334   9.676
 4240SOL     OW13462   2.483   1.551  10.594
 4240SOL    HW113463   2.482   1.633  10.644
 4240SOL    HW213464   2.571   1.548  10.557
 4241SOL     OW13465   3.201   0.052   9.466
 4241SOL    HW113466   3.239   4.476   9.422
 4241SOL    HW213467   3.125   0.017   9.512
 4242SOL     OW13468   3.177   0.464   9.984
 4242SOL    HW113469   3.119   0.540   9.985
 4242SOL    HW213470   3.165   0.424  10.070
 4243SOL     OW13471   3.447   0.198  10.178
 4243SOL    HW113472   3.388   0.214  10.252
 4243SOL    HW213473   3.450   0.282  10.132
 4244SOL     OW13474   1.906   1.069   9.617
 4244SOL    HW113475   1.999   1.060   9.599
 4244SOL    HW213476   1.878   0.980   9.639
 4245SOL     OW13477   2.747   1.654   9.651
 4245SOL    HW113478   2.675   1.637   9.591
 4245SOL    HW213479   2.717   1.729   9.703
 4246SOL     OW13480   2.039   2.528   0.073
 4246SOL    HW113481   1.973   2.512   0.141
 4246SOL    HW213482   2.088   2.446   0.067
 4247SOL     OW13483   1.839   2.264   0.636
 4247SOL    HW113484   1.757   2.285   0.679
 4247SOL    HW213485   1.829   2.173   0.607
 4248SOL     OW13486   2.429   3.152   1.178
 4248SOL    HW113487   2.342   3.156   1.137
 4248SOL    HW213488   2.444   3.241   1.210
 4249SOL     OW13489   3.426   3.374   0.707
 4249SOL    HW113490   3.383   3.353   0.790
 4249SOL    HW213491   3.354   3.377   0.643
 4250SOL     OW13492   2.992   2.562   0.698
 4250SOL    HW113493   3.041   2.643   0.689
 4250SOL    HW213494   2.945   2.571   0.781
 4251SOL     OW13495   3.639   2.463   0.215
 4251SOL    HW113496   3.580   2.472   0.140
 4251SOL    HW213497   3.601   2.392   0.266
 4252SOL     OW13498   2.615   3.001   1.046
 4252SOL    HW113499   2.546   3.038   1.101
 4252SOL    HW213500   2.652   3.077   1.000
 4253SOL     OW13501   2.734   2.636   1.819
 4253SOL    HW113502   2.726   2.706   1.884
 4253SOL    HW213503   2.758   2.681   1.738
 4254SOL     OW13504   2.563   2.905   0.648
 4254SOL    HW113505   2.621   2.885   0.721
 4254SOL    HW213506   2.486   2.944   0.689
 4255SOL     OW13507   2.575   3.015   1.809
 4255SOL    HW113508   2.623   3.092   1.838
 4255SOL    HW213509   2.493   3.050   1.773
 4256SOL     OW13510   2.193   3.285   1.068
 4256SOL    HW113511   2.119   3.247   1.019
 4256SOL    HW213512   2.241   3.336   1.002
 4257SOL     OW13513   3.322   3.362   1.357
 4257SOL    HW113514   3.375   3.442   1.365
 4257SOL    HW213515   3.258   3.368   1.427
 4258SOL     OW13516   3.472   2.309   0.741
 4258SOL    HW113517   3.396   2.329   0.688
 4258SOL    HW213518   3.485   2.386   0.796
 4259SOL     OW13519   2.081   3.575   0.472
 4259SOL    HW113520   2.101   3.653   0.525
 4259SOL    HW213521   2.152   3.570   0.409
 4260SOL     OW13522   2.999   3.204   1.693
 4260SOL    HW113523   3.040   3.199   1.780
 4260SOL    HW213524   2.947   3.124   1.686
 4261SOL     OW13525   2.090   3.303   0.533
 4261SOL    HW113526   2.075   3.398   0.534
 4261SOL    HW213527   2.030   3.269   0.599
 4262SOL     OW13528   2.119   2.957   0.890
 4262SOL    HW113529   2.114   2.869   0.927
 4262SOL    HW213530   2.061   3.010   0.944
 4263SOL     OW13531   2.471   3.653   1.429
 4263SOL    HW113532   2.390   3.635   1.476
 4263SOL    HW213533   2.495   3.742   1.454
 4264SOL     OW13534   2.436   2.866   0.138
 4264SOL    HW113535   2.487   2.914   0.072
 4264SOL    HW213536   2.478   2.887   0.221
 4265SOL     OW13537   3.458   1.987   1.467
 4265SOL    HW113538   3.470   2.067   1.417
 4265SOL    HW213539   3.442   2.016   1.557
 4266SOL     OW13540   1.965   2.507   0.562
 4266SOL    HW113541   1.928   2.422   0.587
 4266SOL    HW213542   1.962   2.558   0.643
 4267SOL     OW13543   3.705   3.620   0.331
 4267SOL    HW113544   3.770   3.591   0.395
 4267SOL    HW213545   3.728   3.711   0.313
 4268SOL     OW13546   1.910   3.462   0.118
 4268SOL    HW113547   1.882   3.375   0.144
 4268SOL    HW213548   1.884   3.518   0.191
 4269SOL     OW13549   3.550   2.779   0.643
 4269SOL    HW113550   3.634   2.739   0.624
 4269SOL    HW213551   3.529   2.832   0.565
 4270SOL     OW13552   3.510   2.966   0.432
 4270SOL    HW113553   3.592   2.976   0.385
 4270SOL    HW213554   3.515   3.029   0.503
 4271SOL     OW13555   1.993   2.607   1.581
 4271SOL    HW113556   2.029   2.614   1.669
 4271SOL    HW213557   1.934   2.683   1.573
 4272SOL     OW13558   2.476   3.251   0.736
 4272SOL    HW113559   2.429   3.168   0.745
 4272SOL    HW213560   2.460   3.278   0.645
 4273SOL     OW13561   3.149   3.099   1.423
 4273SOL    HW113562   3.181   3.032   1.363
 4273SOL    HW213563   3.208   3.094   1.498
 4274SOL     OW13564   2.673   1.868   0.505
 4274SOL    HW113565   2.715   1.952   0.489
 4274SOL    HW213566   2.580   1.889   0.512
 4275SOL     OW13567   2.045   2.833   1.273
 4275SOL    HW113568   2.130   2.791   1.259
 4275SOL    HW213569   1.983   2.778   1.224
 4276SOL     OW13570   3.376   2.866   0.204
 4276SOL    HW113571   3.312   2.807   0.242
 4276SOL    HW213572   3.428   2.896   0.279
 4277SOL     OW13573   3.047   3.670   1.623
 4277SOL    HW113574   3.056   3.730   1.549
 4277SOL    HW213575   3.064   3.583   1.587
 4278SOL     OW13576   3.329   3.282   0.950
 4278SOL    HW113577   3.261   3.297   1.016
 4278SOL    HW213578   3.316   3.190   0.923
 4279SOL     OW13579   3.519   3.606   0.579
 4279SOL    HW113580   3.500   3.576   0.490
 4279SOL    HW213581   3.495   3.531   0.635
 4280SOL     OW13582   2.502   2.641   0.306
 4280SOL    HW113583   2.490   2.689   0.224
 4280SOL    HW213584   2.414   2.626   0.338
 4281SOL     OW13585   3.141   2.217   0.933
 4281SOL    HW113586   3.052   2.183   0.941
 4281SOL    HW213587   3.193   2.163   0.993
 4282SOL     OW13588   3.444   3.533   0.313
 4282SOL    HW113589   3.535   3.562   0.305
 4282SOL    HW213590   3.417   3.515   0.223
 4283SOL     OW13591   2.668   2.470   1.474
 4283SOL    HW113592   2.678   2.481   1.568
 4283SOL    HW213593   2.605   2.398   1.465
 4284SOL     OW13594   3.256   2.336   1.678
 4284SOL    HW113595   3.259   2.380   1.763
 4284SOL    HW213596   3.315   2.262   1.688
 4285SOL     OW13597   2.814   2.748   1.580
 4285SOL    HW113598   2.874   2.682   1.545
 4285SOL    HW213599   2.776   2.790   1.503
 4286SOL     OW13600   2.866   2.273   1.235
 4286SOL    HW113601   2.783   2.286   1.280
 4286SOL    HW213602   2.841   2.236   1.150
 4287SOL     OW13603   2.913   2.564   0.431
 4287SOL    HW113604   2.937   2.561   0.524
 4287SOL    HW213605   2.824   2.530   0.428
 4288SOL     OW13606   1.949   2.684   0.774
 4288SOL    HW113607   2.030   2.681   0.825
 4288SOL    HW213608   1.903   2.760   0.808
 4289SOL     OW13609   1.988   3.717   1.579
 4289SOL    HW113610   1.990   3.695   1.672
 4289SOL    HW213611   1.898   3.698   1.552
 4290SOL     OW13612   2.754   2.211   0.219
 4290SOL    HW113613   2.803   2.274   0.166
 4290SOL    HW213614   2.766   2.128   0.174
 4291SOL     OW13615   3.570   2.435   1.828
 4291SOL    HW113616   3.532   2.509   1.780
 4291SOL    HW213617   3.598   2.373   1.761
 4292SOL     OW13618   3.240   3.003   0.541
 4292SOL    HW113619   3.319   2.991   0.487
 4292SOL    HW213620   3.187   3.065   0.492
 4293SOL     OW13621   2.453   2.028   0.870
 4293SOL    HW113622   2.443   2.036   0.965
 4293SOL    HW213623   2.457   2.118   0.838
 4294SOL     OW13624   2.865   3.306   0.473
 4294SOL    HW113625   2.830   3.380   0.423
 4294SOL    HW213626   2.845   3.326   0.564
 4295SOL     OW13627   2.216   3.672   0.865
 4295SOL    HW113628   2.259   3.587   0.872
 4295SOL    HW213629   2.286   3.736   0.883
 4296SOL     OW13630   3.660   2.919   0.870
 4296SOL    HW113631   3.606   2.901   0.793
 4296SOL    HW213632   3.598   2.924   0.942
 4297SOL     OW13633   3.090   3.401   1.513
 4297SOL    HW113634   3.076   3.328   1.574
 4297SOL    HW213635   3.025   3.386   1.444
 4298SOL     OW13636   2.186   2.812   0.271
 4298SOL    HW113637   2.264   2.839   0.222
 4298SOL    HW213638   2.146   2.743   0.217
 4299SOL     OW13639   3.342   2.604   0.724
 4299SOL    HW113640   3.335   2.564   0.811
 4299SOL    HW213641   3.419   2.661   0.730
 4300SOL     OW13642   2.328   3.126   1.737
 4300SOL    HW113643   2.301   3.131   1.645
 4300SOL    HW213644   2.246   3.126   1.786
 4301SOL     OW13645   2.969   3.642   0.226
 4301SOL    HW113646   2.909   3.591   0.280
 4301SOL    HW213647   3.012   3.577   0.171
 4302SOL     OW13648   3.489   3.236   0.089
 4302SOL    HW113649   3.447   3.321   0.078
 4302SOL    HW213650   3.424   3.172   0.060
 4303SOL     OW13651   2.330   3.594   0.327
 4303SOL    HW113652   2.369   3.657   0.388
 4303SOL    HW213653   2.402   3.569   0.270
 4304SOL     OW13654   3.264   1.970   0.433
 4304SOL    HW113655   3.256   1.947   0.340
 4304SOL    HW213656   3.358   1.975   0.448
 4305SOL     OW13657   2.118   3.653   1.231
 4305SOL    HW113658   2.169   3.584   1.275
 4305SOL    HW213659   2.107   3.621   1.141
 4306SOL     OW13660   2.800   3.561   0.898
 4306SOL    HW113661   2.879   3.510   0.918
 4306SOL    HW213662   2.757   3.511   0.829
 4307SOL     OW13663   3.395   2.087   1.725
 4307SOL    HW113664   3.405   2.107   1.818
 4307SOL    HW213665   3.327   2.020   1.722
 4308SOL     OW13666   2.476   1.966   0.131
 4308SOL    HW113667   2.569   1.942   0.131
 4308SOL    HW213668   2.445   1.944   0.043
 4309SOL     OW13669   2.633   2.113   1.743
 4309SOL    HW113670   2.715   2.063   1.746
 4309SOL    HW213671   2.589   2.093   1.826
 4310SOL     OW13672   2.737   3.383   1.194
 4310SOL    HW113673   2.722   3.347   1.107
 4310SOL    HW213674   2.808   3.330   1.230
 4311SOL     OW13675   3.203   2.452   1.433
 4311SOL    HW113676   3.235   2.420   1.518
 4311SOL    HW213677   3.242   2.539   1.425
 4312SOL     OW13678   2.678   3.254   0.942
 4312SOL    HW113679   2.762   3.243   0.898
 4312SOL    HW213680   2.614   3.258   0.871
 4313SOL     OW13681   2.796   2.360   0.915
 4313SOL    HW113682   2.771   2.358   0.822
 4313SOL    HW213683   2.829   2.272   0.934
 4314SOL     OW13684   2.405   1.941   0.506
 4314SOL    HW113685   2.364   1.945   0.592
 4314SOL    HW213686   2.367   2.014   0.457
 4315SOL     OW13687   3.285   3.058   0.028
 4315SOL    HW113688   3.316   2.987   0.084
 4315SOL    HW213689   3.203   3.086   0.068
 4316SOL     OW13690   2.152   1.798   0.128
 4316SOL    HW113691   2.163   1.885   0.091
 4316SOL    HW213692   2.224   1.790   0.191
 4317SOL     OW13693   2.800   2.113   0.465
 4317SOL    HW113694   2.775   2.152   0.381
 4317SOL    HW213695   2.895   2.124   0.469
 4318SOL     OW13696   2.948   2.546   1.458
 4318SOL    HW113697   2.884   2.474   1.464
 4318SOL    HW213698   3.033   2.502   1.452
 4319SOL     OW13699   3.083   3.433   0.795
 4319SOL    HW113700   3.099   3.498   0.727
 4319SOL    HW213701   3.153   3.448   0.859
 4320SOL     OW13702   2.330   3.017   0.734
 4320SOL    HW113703   2.261   2.997   0.798
 4320SOL    HW213704   2.289   3.001   0.649
 4321SOL     OW13705   3.130   3.656   0.608
 4321SOL    HW113706   3.178   3.717   0.552
 4321SOL    HW213707   3.064   3.710   0.652
 4322SOL     OW13708   2.900   2.375   0.060
 4322SOL    HW113709   2.875   2.445  11.099
 4322SOL    HW213710   2.974   2.411   0.108
 4323SOL     OW13711   1.946   2.424   1.380
 4323SOL    HW113712   2.038   2.400   1.394
 4323SOL    HW213713   1.929   2.491   1.446
 4324SOL     OW13714   2.416   2.025   1.140
 4324SOL    HW113715   2.443   1.970   1.214
 4324SOL    HW213716   2.329   2.057   1.163
 4325SOL     OW13717   2.743   2.314   0.653
 4325SOL    HW113718   2.688   2.375   0.603
 4325SOL    HW213719   2.759   2.242   0.592
 4326SOL     OW13720   2.878   1.915   0.750
 4326SOL    HW113721   2.818   1.908   0.676
 4326SOL    HW213722   2.857   1.840   0.805
 4327SOL     OW13723   3.300   3.024   0.857
 4327SOL    HW113724   3.230   2.959   0.856
 4327SOL    HW213725   3.325   3.034   0.765
 4328SOL     OW13726   3.328   2.469   0.974
 4328SOL    HW113727   3.275   2.389   0.977
 4328SOL    HW213728   3.387   2.462   1.049
 4329SOL     OW13729   3.711   2.674   0.377
 4329SOL    HW113730   3.763   2.624   0.440
 4329SOL    HW213731   3.683   2.609   0.313
 4330SOL     OW13732   2.356   3.287   0.172
 4330SOL    HW113733   2.279   3.261   0.223
 4330SOL    HW213734   2.353   3.231   0.094
 4331SOL     OW13735   3.534   3.125   0.646
 4331SOL    HW113736   3.629   3.127   0.659
 4331SOL    HW213737   3.505   3.215   0.666
 4332SOL     OW13738   3.255   2.435   0.082
 4332SOL    HW113739   3.198   2.418   0.157
 4332SOL    HW213740   3.315   2.360   0.081
 4333SOL     OW13741   3.613   3.103   1.570
 4333SOL    HW113742   3.700   3.063   1.567
 4333SOL    HW213743   3.629   3.193   1.599
 4334SOL     OW13744   2.920   3.216   1.333
 4334SOL    HW113745   2.845   3.186   1.385
 4334SOL    HW213746   2.995   3.174   1.374
 4335SOL     OW13747   3.470   3.488   1.655
 4335SOL    HW113748   3.464   3.522   1.566
 4335SOL    HW213749   3.553   3.440   1.656
 4336SOL     OW13750   2.992   3.067   1.105
 4336SOL    HW113751   2.933   3.107   1.169
 4336SOL    HW213752   2.961   3.100   1.020
 4337SOL     OW13753   3.488   2.959   1.077
 4337SOL    HW113754   3.482   3.021   1.150
 4337SOL    HW213755   3.410   2.977   1.024
 4338SOL     OW13756   2.787   1.956   1.394
 4338SOL    HW113757   2.808   1.937   1.303
 4338SOL    HW213758   2.867   1.995   1.430
 4339SOL     OW13759   2.846   2.977   1.721
 4339SOL    HW113760   2.755   2.994   1.744
 4339SOL    HW213761   2.843   2.899   1.666
 4340SOL     OW13762   2.572   2.930   0.369
 4340SOL    HW113763   2.562   2.922   0.464
 4340SOL    HW213764   2.644   2.870   0.347
 4341SOL     OW13765   2.278   2.689   1.251
 4341SOL    HW113766   2.344   2.707   1.318
 4341SOL    HW213767   2.284   2.594   1.237
 4342SOL     OW13768   3.133   2.238   1.278
 4342SOL    HW113769   3.164   2.316   1.323
 4342SOL    HW213770   3.043   2.258   1.253
 4343SOL     OW13771   1.933   3.436   1.355
 4343SOL    HW113772   1.903   3.507   1.298
 4343SOL    HW213773   2.029   3.438   1.347
 4344SOL     OW13774   2.208   2.978   0.493
 4344SOL    HW113775   2.210   3.054   0.435
 4344SOL    HW213776   2.202   2.903   0.433
 4345SOL     OW13777   3.109   3.208   0.397
 4345SOL    HW113778   3.165   3.281   0.424
 4345SOL    HW213779   3.022   3.231   0.428
 4346SOL     OW13780   3.145   3.320   1.147
 4346SOL    HW113781   3.201   3.323   1.225
 4346SOL    HW213782   3.091   3.243   1.160
 4347SOL     OW13783   3.445   2.488   0.479
 4347SOL    HW113784   3.395   2.530   0.548
 4347SOL    HW213785   3.480   2.560   0.426
 4348SOL     OW13786   2.208   3.391   1.313
 4348SOL    HW113787   2.196   3.347   1.229
 4348SOL    HW213788   2.303   3.402   1.321
 4349SOL     OW13789   3.465   2.641   1.683
 4349SOL    HW113790   3.379   2.683   1.677
 4349SOL    HW213791   3.518   2.683   1.615
 4350SOL     OW13792   2.869   1.982   1.756
 4350SOL    HW113793   2.924   2.056   1.730
 4350SOL    HW213794   2.918   1.905   1.728
 4351SOL     OW13795   2.362   1.895   1.754
 4351SOL    HW113796   2.318   1.843   1.687
 4351SOL    HW213797   2.313   1.977   1.758
 4352SOL     OW13798   2.421   2.753   1.020
 4352SOL    HW113799   2.484   2.825   1.022
 4352SOL    HW213800   2.386   2.749   1.109
 4353SOL     OW13801   3.217   2.720   1.028
 4353SOL    HW113802   3.133   2.709   0.984
 4353SOL    HW213803   3.260   2.635   1.021
 4354SOL     OW13804   3.077   2.394   0.282
 4354SOL    HW113805   3.078   2.313   0.333
 4354SOL    HW213806   3.026   2.455   0.337
 4355SOL     OW13807   1.910   3.173   1.276
 4355SOL    HW113808   1.941   3.119   1.348
 4355SOL    HW213809   1.914   3.263   1.310
 4356SOL     OW13810   3.598   2.822   1.854
 4356SOL    HW113811   3.553   2.757   1.799
 4356SOL    HW213812   3.538   2.836   1.927
 4357SOL     OW13813   3.483   2.239   0.363
 4357SOL    HW113814   3.508   2.173   0.428
 4357SOL    HW213815   3.458   2.315   0.415
 4358SOL     OW13816   2.885   2.617   0.957
 4358SOL    HW113817   2.884   2.636   1.050
 4358SOL    HW213818   2.851   2.527   0.950
 4359SOL     OW13819   2.843   3.428   1.718
 4359SOL    HW113820   2.829   3.473   1.635
 4359SOL    HW213821   2.887   3.347   1.695
 4360SOL     OW13822   3.716   3.366   1.605
 4360SOL    HW113823   3.735   3.393   1.515
 4360SOL    HW213824   3.797   3.383   1.653
 4361SOL     OW13825   2.224   2.771   1.797
 4361SOL    HW113826   2.293   2.800   1.857
 4361SOL    HW213827   2.271   2.732   1.723
 4362SOL     OW13828   3.395   2.157   0.114
 4362SOL    HW113829   3.337   2.083   0.129
 4362SOL    HW213830   3.429   2.179   0.200
 4363SOL     OW13831   3.148   2.680   0.031
 4363SOL    HW113832   3.194   2.597   0.042
 4363SOL    HW213833   3.190   2.720  11.055
 4364SOL     OW13834   2.929   3.198   0.855
 4364SOL    HW113835   2.932   3.126   0.793
 4364SOL    HW213836   2.989   3.264   0.820
 4365SOL     OW13837   2.166   2.682   0.944
 4365SOL    HW113838   2.258   2.710   0.948
 4365SOL    HW213839   2.162   2.608   1.005
 4366SOL     OW13840   2.996   2.240   1.680
 4366SOL    HW113841   2.948   2.291   1.745
 4366SOL    HW213842   3.083   2.278   1.679
 4367SOL     OW13843   3.025   2.065   1.470
 4367SOL    HW113844   3.013   2.128   1.541
 4367SOL    HW213845   3.068   2.115   1.401
 4368SOL     OW13846   1.870   3.189   0.194
 4368SOL    HW113847   1.784   3.202   0.155
 4368SOL    HW213848   1.869   3.099   0.226
 4369SOL     OW13849   1.952   3.647   0.940
 4369SOL    HW113850   1.922   3.569   0.895
 4369SOL    HW213851   2.042   3.660   0.908
 4370SOL     OW13852   2.357   3.436   0.906
 4370SOL    HW113853   2.426   3.499   0.930
 4370SOL    HW213854   2.401   3.374   0.848
 4371SOL     OW13855   2.849   2.655   1.224
 4371SOL    HW113856   2.907   2.631   1.297
 4371SOL    HW213857   2.762   2.628   1.252
 4372SOL     OW13858   1.898   2.419   1.113
 4372SOL    HW113859   1.956   2.352   1.076
 4372SOL    HW213860   1.922   2.422   1.206
 4373SOL     OW13861   3.240   2.799   1.657
 4373SOL    HW113862   3.261   2.893   1.655
 4373SOL    HW213863   3.238   2.773   1.565
 4374SOL     OW13864   3.503   2.463   1.184
 4374SOL    HW113865   3.494   2.404   1.259
 4374SOL    HW213866   3.591   2.444   1.150
 4375SOL     OW13867   2.105   3.413   1.726
 4375SOL    HW113868   2.081   3.478   1.792
 4375SOL    HW213869   2.107   3.330   1.774
 4376SOL     OW13870   2.788   3.541   1.469
 4376SOL    HW113871   2.763   3.505   1.384
 4376SOL    HW213872   2.782   3.636   1.457
 4377SOL     OW13873   2.005   3.004   1.476
 4377SOL    HW113874   2.007   2.953   1.557
 4377SOL    HW213875   2.021   2.941   1.406
 4378SOL     OW13876   3.186   2.908   1.222
 4378SOL    HW113877   3.209   2.844   1.154
 4378SOL    HW213878   3.117   2.961   1.183
 4379SOL     OW13879   3.171   2.716   0.309
 4379SOL    HW113880   3.097   2.682   0.359
 4379SOL    HW213881   3.149   2.699   0.218
 4380SOL     OW13882   3.638   3.603   1.153
 4380SOL    HW113883   3.697   3.630   1.083
 4380SOL    HW213884   3.611   3.514   1.130
 4381SOL     OW13885   3.103   3.595   1.111
 4381SOL    HW113886   3.185   3.617   1.067
 4381SOL    HW213887   3.110   3.502   1.129
 4382SOL     OW13888   1.945   3.129   1.012
 4382SOL    HW113889   1.931   3.142   1.106
 4382SOL    HW213890   1.872   3.075   0.984
 4383SOL     OW13891   2.540   3.529   1.732
 4383SOL    HW113892   2.484   3.607   1.726
 4383SOL    HW213893   2.606   3.542   1.664
 4384SOL     OW13894   2.778   1.956   0.103
 4384SOL    HW113895   2.826   1.920   0.028
 4384SOL    HW213896   2.818   1.914   0.179
 4385SOL     OW13897   3.580   2.011   0.508
 4385SOL    HW113898   3.653   1.997   0.447
 4385SOL    HW213899   3.566   1.925   0.548
 4386SOL     OW13900   3.253   3.430   0.487
 4386SOL    HW113901   3.314   3.462   0.421
 4386SOL    HW213902   3.205   3.508   0.516
 4387SOL     OW13903   2.001   3.657   1.842
 4387SOL    HW113904   1.949   3.592   1.891
 4387SOL    HW213905   2.046   3.707   1.910
 4388SOL     OW13906   3.140   2.788   0.671
 4388SOL    HW113907   3.214   2.727   0.678
 4388SOL    HW213908   3.174   2.860   0.619
 4389SOL     OW13909   2.673   3.139   1.428
 4389SOL    HW113910   2.644   3.178   1.511
 4389SOL    HW213911   2.604   3.162   1.366
 4390SOL     OW13912   2.536   3.486   0.170
 4390SOL    HW113913   2.554   3.492   0.076
 4390SOL    HW213914   2.479   3.409   0.177
 4391SOL     OW13915   3.486   3.589   1.391
 4391SOL    HW113916   3.537   3.595   1.310
 4391SOL    HW213917   3.472   3.679   1.418
 4392SOL     OW13918   3.703   2.034   0.967
 4392SOL    HW113919   3.733   1.947   0.940
 4392SOL    HW213920   3.617   2.043   0.927
 4393SOL     OW13921   3.086   3.463   0.054
 4393SOL    HW113922   3.073   3.370   0.074
 4393SOL    HW213923   3.021   3.482  11.086
 4394SOL     OW13924   2.702   2.877   1.368
 4394SOL    HW113925   2.741   2.877   1.280
 4394SOL    HW213926   2.694   2.969   1.391
 4395SOL     OW13927   2.786   2.781   0.285
 4395SOL    HW113928   2.852   2.818   0.227
 4395SOL    HW213929   2.832   2.715   0.337
 4396SOL     OW13930   3.360   3.484   0.048
 4396SOL    HW113931   3.265   3.478   0.046
 4396SOL    HW213932   3.385   3.498  11.057
 4397SOL     OW13933   2.231   3.165   1.492
 4397SOL    HW113934   2.217   3.242   1.436
 4397SOL    HW213935   2.153   3.111   1.477
 4398SOL     OW13936   3.471   3.145   1.280
 4398SOL    HW113937   3.531   3.132   1.354
 4398SOL    HW213938   3.411   3.214   1.310
 4399SOL     OW13939   2.919   2.970   0.708
 4399SOL    HW113940   2.847   2.920   0.747
 4399SOL    HW213941   2.981   2.905   0.678
 4400SOL     OW13942   2.885   2.099   0.967
 4400SOL    HW113943   2.880   2.052   0.884
 4400SOL    HW213944   2.880   2.031   1.034
 4401SOL     OW13945   2.465   3.352   0.482
 4401SOL    HW113946   2.508   3.301   0.413
 4401SOL    HW213947   2.395   3.399   0.436
 4402SOL     OW13948   3.585   2.254   1.380
 4402SOL    HW113949   3.657   2.317   1.379
 4402SOL    HW213950   3.615   2.183   1.324
 4403SOL     OW13951   2.129   3.196   0.292
 4403SOL    HW113952   2.042   3.199   0.252
 4403SOL    HW213953   2.118   3.238   0.378
 4404SOL     OW13954   1.976   2.887   1.724
 4404SOL    HW113955   1.899   2.862   1.774
 4404SOL    HW213956   2.049   2.844   1.768
 4405SOL     OW13957   2.546   2.049   1.487
 4405SOL    HW113958   2.632   2.023   1.455
 4405SOL    HW213959   2.562   2.082   1.575
 4406SOL     OW13960   1.881   2.270   0.061
 4406SOL    HW113961   1.821   2.201   0.033
 4406SOL    HW213962   1.933   2.289  11.083
 4407SOL     OW13963   3.291   2.721   1.399
 4407SOL    HW113964   3.242   2.781   1.344
 4407SOL    HW213965   3.380   2.722   1.364
 4408SOL     OW13966   3.046   3.200   0.122
 4408SOL    HW113967   2.952   3.184   0.114
 4408SOL    HW213968   3.063   3.192   0.216
 4409SOL     OW13969   2.496   2.714   1.423
 4409SOL    HW113970   2.556   2.787   1.408
 4409SOL    HW213971   2.553   2.641   1.449
 4410SOL     OW13972   3.345   3.641   0.980
 4410SOL    HW113973   3.367   3.702   0.910
 4410SOL    HW213974   3.429   3.619   1.020
 4411SOL     OW13975   3.334   3.060   1.631
 4411SOL    HW113976   3.322   3.074   1.725
 4411SOL    HW213977   3.428   3.077   1.616
 4412SOL     OW13978   2.239   3.601   1.565
 4412SOL    HW113979   2.155   3.644   1.550
 4412SOL    HW213980   2.216   3.518   1.607
 4413SOL     OW13981   3.530   2.742   1.255
 4413SOL    HW113982   3.525   2.657   1.212
 4413SOL    HW213983   3.520   2.806   1.184
 4414SOL     OW13984   3.076   2.177   0.462
 4414SOL    HW113985   3.141   2.108   0.451
 4414SOL    HW213986   3.107   2.227   0.538
 4415SOL     OW13987   2.540   2.639   0.616
 4415SOL    HW113988   2.561   2.733   0.620
 4415SOL    HW213989   2.446   2.636   0.597
 4416SOL     OW13990   3.622   2.225   1.651
 4416SOL    HW113991   3.606   2.240   1.558
 4416SOL    HW213992   3.550   2.168   1.679
 4417SOL     OW13993   3.608   2.796   1.512
 4417SOL    HW113994   3.602   2.890   1.524
 4417SOL    HW213995   3.592   2.783   1.418
 4418SOL     OW13996   2.770   3.217   0.072
 4418SOL    HW113997   2.702   3.214   0.140
 4418SOL    HW213998   2.752   3.298   0.024
 4419SOL     OW13999   2.524   3.651   0.943
 4419SOL    HW114000   2.504   3.742   0.921
 4419SOL    HW214001   2.619   3.644   0.936
 4420SOL     OW14002   2.731   2.833   0.856
 4420SOL    HW114003   2.774   2.755   0.889
 4420SOL    HW214004   2.697   2.878   0.934
 4421SOL     OW14005   2.945   2.854   0.081
 4421SOL    HW114006   2.919   2.886  11.095
 4421SOL    HW214007   3.019   2.796   0.065
 4422SOL     OW14008   3.715   3.417   0.845
 4422SOL    HW114009   3.637   3.405   0.790
 4422SOL    HW214010   3.708   3.348   0.911
 4423SOL     OW14011   2.087   3.164   1.856
 4423SOL    HW114012   2.019   3.105   1.824
 4423SOL    HW214013   2.066   3.178   1.948
 4424SOL     OW14014   1.946   3.095   0.667
 4424SOL    HW114015   1.952   3.046   0.749
 4424SOL    HW214016   2.015   3.058   0.612
 4425SOL     OW14017   2.542   3.267   1.628
 4425SOL    HW114018   2.462   3.225   1.659
 4425SOL    HW214019   2.539   3.355   1.666
 4426SOL     OW14020   3.674   2.045   1.238
 4426SOL    HW114021   3.683   1.951   1.251
 4426SOL    HW214022   3.684   2.057   1.143
 4427SOL     OW14023   3.560   3.351   1.096
 4427SOL    HW114024   3.481   3.329   1.048
 4427SOL    HW214025   3.570   3.280   1.160
 4428SOL     OW14026   2.690   3.440   0.677
 4428SOL    HW114027   2.673   3.495   0.601
 4428SOL    HW214028   2.615   3.381   0.681
 4429SOL     OW14029   3.295   2.088   1.117
 4429SOL    HW114030   3.316   2.006   1.161
 4429SOL    HW214031   3.244   2.137   1.181
 4430SOL     OW14032   2.872   1.879   1.141
 4430SOL    HW114033   2.816   1.812   1.101
 4430SOL    HW214034   2.959   1.840   1.142
 4431SOL     OW14035   2.632   3.193   0.317
 4431SOL    HW114036   2.604   3.103   0.330
 4431SOL    HW214037   2.715   3.199   0.365
 4432SOL     OW14038   2.482   3.418   1.286
 4432SOL    HW114039   2.484   3.500   1.335
 4432SOL    HW214040   2.569   3.410   1.248
 4433SOL     OW14041   3.213   1.918   0.164
 4433SOL    HW114042   3.234   1.865   0.087
 4433SOL    HW214043   3.125   1.888   0.190
 4434SOL     OW14044   3.159   2.324   0.680
 4434SOL    HW114045   3.106   2.403   0.687
 4434SOL    HW214046   3.154   2.284   0.768
 4435SOL     OW14047   3.449   2.062   0.879
 4435SOL    HW114048   3.390   2.083   0.951
 4435SOL    HW214049   3.448   2.140   0.823
 4436SOL     OW14050   1.903   2.932   0.302
 4436SOL    HW114051   1.999   2.930   0.299
 4436SOL    HW214052   1.877   2.844   0.327
 4437SOL     OW14053   2.748   3.518   0.347
 4437SOL    HW114054   2.675   3.498   0.289
 4437SOL    HW214055   2.718   3.592   0.400
 4438SOL     OW14056   2.069   2.527   1.985
 4438SOL    HW114057   1.981   2.496   2.009
 4438SOL    HW214058   2.106   2.455   1.933
 4439SOL     OW14059   2.428   3.152   3.039
 4439SOL    HW114060   2.341   3.158   3.000
 4439SOL    HW214061   2.445   3.240   3.073
 4440SOL     OW14062   3.426   3.374   2.570
 4440SOL    HW114063   3.383   3.353   2.653
 4440SOL    HW214064   3.354   3.378   2.506
 4441SOL     OW14065   2.994   2.561   2.561
 4441SOL    HW114066   3.043   2.642   2.547
 4441SOL    HW214067   2.951   2.573   2.645
 4442SOL     OW14068   3.632   2.466   2.090
 4442SOL    HW114069   3.610   2.459   1.997
 4442SOL    HW214070   3.594   2.387   2.129
 4443SOL     OW14071   2.611   3.002   2.903
 4443SOL    HW114072   2.545   3.039   2.961
 4443SOL    HW214073   2.650   3.078   2.860
 4444SOL     OW14074   2.739   2.637   3.686
 4444SOL    HW114075   2.720   2.709   3.746
 4444SOL    HW214076   2.759   2.679   3.603
 4445SOL     OW14077   2.561   2.895   2.505
 4445SOL    HW114078   2.623   2.877   2.576
 4445SOL    HW214079   2.488   2.939   2.548
 4446SOL     OW14080   2.574   3.013   3.673
 4446SOL    HW114081   2.622   3.091   3.702
 4446SOL    HW214082   2.492   3.047   3.638
 4447SOL     OW14083   2.193   3.284   2.929
 4447SOL    HW114084   2.119   3.247   2.881
 4447SOL    HW214085   2.241   3.336   2.864
 4448SOL     OW14086   3.322   3.362   3.219
 4448SOL    HW114087   3.375   3.442   3.228
 4448SOL    HW214088   3.257   3.368   3.289
 4449SOL     OW14089   3.472   2.309   2.603
 4449SOL    HW114090   3.398   2.330   2.547
 4449SOL    HW214091   3.485   2.387   2.658
 4450SOL     OW14092   2.082   3.576   2.333
 4450SOL    HW114093   2.102   3.652   2.387
 4450SOL    HW214094   2.155   3.569   2.272
 4451SOL     OW14095   2.998   3.204   3.555
 4451SOL    HW114096   3.039   3.198   3.642
 4451SOL    HW214097   2.947   3.123   3.548
 4452SOL     OW14098   2.093   3.304   2.398
 4452SOL    HW114099   2.076   3.398   2.400
 4452SOL    HW214100   2.033   3.267   2.462
 4453SOL     OW14101   2.121   2.958   2.751
 4453SOL    HW114102   2.117   2.870   2.789
 4453SOL    HW214103   2.062   3.010   2.806
 4454SOL     OW14104   2.471   3.653   3.291
 4454SOL    HW114105   2.390   3.635   3.338
 4454SOL    HW214106   2.495   3.742   3.316
 4455SOL     OW14107   2.441   2.857   1.990
 4455SOL    HW114108   2.489   2.903   1.921
 4455SOL    HW214109   2.478   2.889   2.072
 4456SOL     OW14110   3.458   1.987   3.329
 4456SOL    HW114111   3.470   2.068   3.280
 4456SOL    HW214112   3.441   2.015   3.419
 4457SOL     OW14113   1.973   2.514   2.424
 4457SOL    HW114114   1.930   2.434   2.455
 4457SOL    HW214115   1.974   2.572   2.500
 4458SOL     OW14116   3.704   3.620   2.195
 4458SOL    HW114117   3.770   3.592   2.259
 4458SOL    HW214118   3.726   3.711   2.176
 4459SOL     OW14119   1.896   3.455   1.985
 4459SOL    HW114120   1.876   3.364   2.006
 4459SOL    HW214121   1.872   3.503   2.064
 4460SOL     OW14122   3.551   2.781   2.505
 4460SOL    HW114123   3.634   2.738   2.485
 4460SOL    HW214124   3.529   2.831   2.426
 4461SOL     OW14125   3.509   2.967   2.291
 4461SOL    HW114126   3.595   2.972   2.250
 4461SOL    HW214127   3.514   3.029   2.364
 4462SOL     OW14128   1.978   2.599   3.444
 4462SOL    HW114129   2.067   2.627   3.464
 4462SOL    HW214130   1.925   2.678   3.458
 4463SOL     OW14131   2.476   3.250   2.597
 4463SOL    HW114132   2.430   3.167   2.607
 4463SOL    HW214133   2.460   3.276   2.507
 4464SOL     OW14134   3.149   3.099   3.285
 4464SOL    HW114135   3.181   3.032   3.224
 4464SOL    HW214136   3.208   3.094   3.360
 4465SOL     OW14137   2.676   1.863   2.370
 4465SOL    HW114138   2.718   1.947   2.348
 4465SOL    HW214139   2.583   1.884   2.375
 4466SOL     OW14140   2.034   2.838   3.132
 4466SOL    HW114141   2.122   2.806   3.111
 4466SOL    HW214142   1.975   2.779   3.085
 4467SOL     OW14143   3.393   2.857   2.061
 4467SOL    HW114144   3.323   2.800   2.094
 4467SOL    HW214145   3.435   2.891   2.140
 4468SOL     OW14146   3.047   3.670   3.485
 4468SOL    HW114147   3.056   3.730   3.411
 4468SOL    HW214148   3.064   3.583   3.449
 4469SOL     OW14149   3.329   3.281   2.812
 4469SOL    HW114150   3.261   3.297   2.878
 4469SOL    HW214151   3.316   3.190   2.786
 4470SOL     OW14152   3.519   3.605   2.440
 4470SOL    HW114153   3.500   3.574   2.351
 4470SOL    HW214154   3.496   3.531   2.496
 4471SOL     OW14155   2.534   2.633   2.143
 4471SOL    HW114156   2.529   2.692   2.068
 4471SOL    HW214157   2.457   2.654   2.196
 4472SOL     OW14158   3.140   2.217   2.795
 4472SOL    HW114159   3.051   2.183   2.804
 4472SOL    HW214160   3.193   2.164   2.855
 4473SOL     OW14161   3.442   3.533   2.172
 4473SOL    HW114162   3.533   3.563   2.164
 4473SOL    HW214163   3.415   3.516   2.081
 4474SOL     OW14164   3.256   2.336   3.539
 4474SOL    HW114165   3.259   2.380   3.624
 4474SOL    HW214166   3.314   2.261   3.549
 4475SOL     OW14167   2.816   2.745   3.440
 4475SOL    HW114168   2.869   2.674   3.403
 4475SOL    HW214169   2.773   2.785   3.365
 4476SOL     OW14170   2.861   2.272   3.094
 4476SOL    HW114171   2.775   2.293   3.133
 4476SOL    HW214172   2.839   2.228   3.012
 4477SOL     OW14173   2.924   2.567   2.288
 4477SOL    HW114174   2.940   2.560   2.382
 4477SOL    HW214175   2.842   2.518   2.275
 4478SOL     OW14176   1.953   2.687   2.634
 4478SOL    HW114177   2.033   2.685   2.686
 4478SOL    HW214178   1.903   2.760   2.669
 4479SOL     OW14179   1.988   3.717   3.441
 4479SOL    HW114180   1.990   3.694   3.535
 4479SOL    HW214181   1.898   3.698   3.414
 4480SOL     OW14182   2.757   2.213   2.057
 4480SOL    HW114183   2.798   2.273   1.994
 4480SOL    HW214184   2.759   2.128   2.014
 4481SOL     OW14185   3.571   2.435   3.690
 4481SOL    HW114186   3.533   2.509   3.642
 4481SOL    HW214187   3.598   2.373   3.623
 4482SOL     OW14188   3.240   3.004   2.403
 4482SOL    HW114189   3.319   2.992   2.350
 4482SOL    HW214190   3.187   3.066   2.353
 4483SOL     OW14191   2.866   3.306   2.333
 4483SOL    HW114192   2.831   3.380   2.284
 4483SOL    HW214193   2.847   3.326   2.424
 4484SOL     OW14194   2.216   3.672   2.726
 4484SOL    HW114195   2.260   3.587   2.734
 4484SOL    HW214196   2.285   3.736   2.745
 4485SOL     OW14197   3.660   2.920   2.731
 4485SOL    HW114198   3.607   2.899   2.655
 4485SOL    HW214199   3.598   2.925   2.804
 4486SOL     OW14200   3.090   3.401   3.375
 4486SOL    HW114201   3.076   3.328   3.436
 4486SOL    HW214202   3.025   3.386   3.306
 4487SOL     OW14203   2.187   2.807   2.115
 4487SOL    HW114204   2.266   2.828   2.065
 4487SOL    HW214205   2.150   2.731   2.071
 4488SOL     OW14206   3.342   2.606   2.588
 4488SOL    HW114207   3.334   2.565   2.674
 4488SOL    HW214208   3.420   2.662   2.594
 4489SOL     OW14209   2.329   3.127   3.599
 4489SOL    HW114210   2.302   3.132   3.507
 4489SOL    HW214211   2.247   3.124   3.648
 4490SOL     OW14212   2.984   3.640   2.092
 4490SOL    HW114213   2.911   3.599   2.137
 4490SOL    HW214214   3.008   3.578   2.024
 4491SOL     OW14215   3.491   3.242   1.950
 4491SOL    HW114216   3.449   3.327   1.935
 4491SOL    HW214217   3.422   3.178   1.931
 4492SOL     OW14218   2.327   3.598   2.182
 4492SOL    HW114219   2.370   3.656   2.246
 4492SOL    HW214220   2.399   3.567   2.127
 4493SOL     OW14221   3.263   1.970   2.296
 4493SOL    HW114222   3.253   1.944   2.205
 4493SOL    HW214223   3.358   1.975   2.310
 4494SOL     OW14224   2.118   3.653   3.093
 4494SOL    HW114225   2.169   3.585   3.138
 4494SOL    HW214226   2.108   3.620   3.004
 4495SOL     OW14227   2.800   3.561   2.760
 4495SOL    HW114228   2.878   3.510   2.781
 4495SOL    HW214229   2.757   3.511   2.691
 4496SOL     OW14230   3.394   2.086   3.587
 4496SOL    HW114231   3.405   2.107   3.680
 4496SOL    HW214232   3.326   2.019   3.585
 4497SOL     OW14233   2.515   1.985   1.963
 4497SOL    HW114234   2.567   1.911   1.992
 4497SOL    HW214235   2.456   1.948   1.896
 4498SOL     OW14236   2.628   2.120   3.605
 4498SOL    HW114237   2.705   2.067   3.624
 4498SOL    HW214238   2.585   2.131   3.690
 4499SOL     OW14239   2.737   3.383   3.056
 4499SOL    HW114240   2.722   3.347   2.969
 4499SOL    HW214241   2.808   3.330   3.092
 4500SOL     OW14242   3.196   2.459   3.298
 4500SOL    HW114243   3.229   2.424   3.380
 4500SOL    HW214244   3.240   2.543   3.288
 4501SOL     OW14245   2.678   3.254   2.804
 4501SOL    HW114246   2.763   3.243   2.760
 4501SOL    HW214247   2.615   3.258   2.732
 4502SOL     OW14248   2.789   2.368   2.769
 4502SOL    HW114249   2.774   2.364   2.674
 4502SOL    HW214250   2.823   2.282   2.792
 4503SOL     OW14251   2.409   1.934   2.362
 4503SOL    HW114252   2.354   1.940   2.441
 4503SOL    HW214253   2.398   2.019   2.320
 4504SOL     OW14254   3.290   3.061   1.903
 4504SOL    HW114255   3.320   2.985   1.953
 4504SOL    HW214256   3.205   3.082   1.940
 4505SOL     OW14257   2.803   2.106   2.316
 4505SOL    HW114258   2.777   2.147   2.233
 4505SOL    HW214259   2.897   2.119   2.321
 4506SOL     OW14260   2.930   2.524   3.316
 4506SOL    HW114261   2.896   2.443   3.354
 4506SOL    HW214262   3.024   2.508   3.306
 4507SOL     OW14263   3.084   3.433   2.656
 4507SOL    HW114264   3.100   3.499   2.589
 4507SOL    HW214265   3.153   3.447   2.721
 4508SOL     OW14266   2.331   3.014   2.593
 4508SOL    HW114267   2.262   2.996   2.657
 4508SOL    HW214268   2.290   2.996   2.508
 4509SOL     OW14269   3.130   3.655   2.471
 4509SOL    HW114270   3.177   3.716   2.415
 4509SOL    HW214271   3.063   3.709   2.514
 4510SOL     OW14272   2.884   2.402   1.884
 4510SOL    HW114273   2.836   2.483   1.865
 4510SOL    HW214274   2.948   2.427   1.950
 4511SOL     OW14275   1.956   2.415   3.246
 4511SOL    HW114276   2.030   2.367   3.283
 4511SOL    HW214277   1.940   2.486   3.309
 4512SOL     OW14278   2.757   2.314   2.499
 4512SOL    HW114279   2.724   2.375   2.433
 4512SOL    HW214280   2.775   2.233   2.451
 4513SOL     OW14281   2.874   1.916   2.613
 4513SOL    HW114282   2.819   1.905   2.536
 4513SOL    HW214283   2.853   1.840   2.668
 4514SOL     OW14284   3.299   3.024   2.719
 4514SOL    HW114285   3.230   2.958   2.719
 4514SOL    HW214286   3.324   3.034   2.627
 4515SOL     OW14287   3.328   2.469   2.836
 4515SOL    HW114288   3.276   2.389   2.839
 4515SOL    HW214289   3.387   2.462   2.912
 4516SOL     OW14290   3.707   2.676   2.245
 4516SOL    HW114291   3.763   2.626   2.304
 4516SOL    HW214292   3.679   2.614   2.178
 4517SOL     OW14293   2.352   3.281   2.018
 4517SOL    HW114294   2.276   3.253   2.070
 4517SOL    HW214295   2.340   3.239   1.933
 4518SOL     OW14296   3.534   3.126   2.506
 4518SOL    HW114297   3.629   3.128   2.521
 4518SOL    HW214298   3.505   3.215   2.528
 4519SOL     OW14299   3.256   2.434   1.933
 4519SOL    HW114300   3.194   2.414   2.004
 4519SOL    HW214301   3.340   2.402   1.965
 4520SOL     OW14302   3.613   3.103   3.432
 4520SOL    HW114303   3.700   3.063   3.429
 4520SOL    HW214304   3.629   3.192   3.461
 4521SOL     OW14305   2.919   3.216   3.195
 4521SOL    HW114306   2.845   3.185   3.246
 4521SOL    HW214307   2.995   3.174   3.236
 4522SOL     OW14308   3.470   3.488   3.517
 4522SOL    HW114309   3.464   3.522   3.428
 4522SOL    HW214310   3.553   3.440   3.518
 4523SOL     OW14311   2.993   3.068   2.966
 4523SOL    HW114312   2.933   3.105   3.031
 4523SOL    HW214313   2.961   3.100   2.882
 4524SOL     OW14314   3.488   2.959   2.939
 4524SOL    HW114315   3.483   3.021   3.012
 4524SOL    HW214316   3.410   2.977   2.887
 4525SOL     OW14317   2.794   1.950   3.257
 4525SOL    HW114318   2.814   1.935   3.165
 4525SOL    HW214319   2.873   1.992   3.292
 4526SOL     OW14320   2.846   2.974   3.583
 4526SOL    HW114321   2.755   2.991   3.605
 4526SOL    HW214322   2.844   2.896   3.527
 4527SOL     OW14323   2.569   2.928   2.228
 4527SOL    HW114324   2.561   2.920   2.323
 4527SOL    HW214325   2.646   2.875   2.206
 4528SOL     OW14326   2.272   2.705   3.116
 4528SOL    HW114327   2.346   2.718   3.175
 4528SOL    HW214328   2.223   2.633   3.155
 4529SOL     OW14329   3.130   2.241   3.140
 4529SOL    HW114330   3.160   2.320   3.186
 4529SOL    HW214331   3.039   2.260   3.116
 4530SOL     OW14332   1.933   3.436   3.217
 4530SOL    HW114333   1.904   3.508   3.161
 4530SOL    HW214334   2.029   3.438   3.210
 4531SOL     OW14335   2.210   2.970   2.348
 4531SOL    HW114336   2.215   3.049   2.294
 4531SOL    HW214337   2.205   2.898   2.285
 4532SOL     OW14338   3.110   3.211   2.251
 4532SOL    HW114339   3.166   3.282   2.282
 4532SOL    HW214340   3.023   3.232   2.285
 4533SOL     OW14341   3.145   3.320   3.009
 4533SOL    HW114342   3.201   3.323   3.087
 4533SOL    HW214343   3.091   3.243   3.022
 4534SOL     OW14344   3.443   2.484   2.342
 4534SOL    HW114345   3.394   2.535   2.408
 4534SOL    HW214346   3.486   2.549   2.288
 4535SOL     OW14347   2.208   3.391   3.175
 4535SOL    HW114348   2.196   3.347   3.091
 4535SOL    HW214349   2.302   3.402   3.183
 4536SOL     OW14350   2.262   2.631   3.440
 4536SOL    HW114351   2.331   2.683   3.399
 4536SOL    HW214352   2.287   2.540   3.421
 4537SOL     OW14353   3.465   2.641   3.545
 4537SOL    HW114354   3.379   2.683   3.539
 4537SOL    HW214355   3.518   2.684   3.477
 4538SOL     OW14356   2.864   1.984   3.624
 4538SOL    HW114357   2.916   2.057   3.590
 4538SOL    HW214358   2.912   1.906   3.596
 4539SOL     OW14359   2.363   1.894   3.608
 4539SOL    HW114360   2.323   1.842   3.538
 4539SOL    HW214361   2.292   1.950   3.640
 4540SOL     OW14362   2.439   2.748   2.893
 4540SOL    HW114363   2.484   2.832   2.888
 4540SOL    HW214364   2.386   2.754   2.972
 4541SOL     OW14365   3.216   2.720   2.889
 4541SOL    HW114366   3.132   2.708   2.846
 4541SOL    HW214367   3.259   2.635   2.882
 4542SOL     OW14368   3.066   2.390   2.128
 4542SOL    HW114369   3.073   2.312   2.182
 4542SOL    HW214370   3.027   2.456   2.185
 4543SOL     OW14371   1.912   3.174   3.138
 4543SOL    HW114372   1.941   3.119   3.211
 4543SOL    HW214373   1.915   3.263   3.172
 4544SOL     OW14374   2.645   2.544   2.955
 4544SOL    HW114375   2.669   2.482   2.886
 4544SOL    HW214376   2.578   2.599   2.915
 4545SOL     OW14377   3.597   2.822   3.716
 4545SOL    HW114378   3.553   2.757   3.661
 4545SOL    HW214379   3.538   2.836   3.789
 4546SOL     OW14380   3.480   2.238   2.227
 4546SOL    HW114381   3.507   2.173   2.292
 4546SOL    HW214382   3.457   2.315   2.278
 4547SOL     OW14383   2.901   2.622   2.819
 4547SOL    HW114384   2.897   2.646   2.911
 4547SOL    HW214385   2.864   2.533   2.815
 4548SOL     OW14386   2.844   3.428   3.580
 4548SOL    HW114387   2.829   3.472   3.497
 4548SOL    HW214388   2.887   3.346   3.557
 4549SOL     OW14389   3.716   3.366   3.467
 4549SOL    HW114390   3.735   3.393   3.377
 4549SOL    HW214391   3.797   3.384   3.515
 4550SOL     OW14392   2.218   2.782   3.669
 4550SOL    HW114393   2.301   2.796   3.715
 4550SOL    HW214394   2.241   2.726   3.595
 4551SOL     OW14395   3.390   2.135   1.989
 4551SOL    HW114396   3.325   2.069   2.016
 4551SOL    HW214397   3.424   2.170   2.071
 4552SOL     OW14398   3.153   2.687   1.891
 4552SOL    HW114399   3.196   2.602   1.896
 4552SOL    HW214400   3.185   2.726   1.810
 4553SOL     OW14401   2.928   3.199   2.717
 4553SOL    HW114402   2.932   3.126   2.654
 4553SOL    HW214403   2.989   3.264   2.682
 4554SOL     OW14404   2.172   2.684   2.803
 4554SOL    HW114405   2.266   2.703   2.802
 4554SOL    HW214406   2.166   2.599   2.844
 4555SOL     OW14407   2.994   2.245   3.537
 4555SOL    HW114408   2.947   2.294   3.605
 4555SOL    HW214409   3.083   2.281   3.540
 4556SOL     OW14410   3.028   2.066   3.332
 4556SOL    HW114411   3.014   2.129   3.403
 4556SOL    HW214412   3.070   2.117   3.263
 4557SOL     OW14413   1.868   3.181   2.055
 4557SOL    HW114414   1.781   3.197   2.018
 4557SOL    HW214415   1.863   3.092   2.090
 4558SOL     OW14416   1.952   3.647   2.801
 4558SOL    HW114417   1.922   3.568   2.756
 4558SOL    HW214418   2.041   3.660   2.770
 4559SOL     OW14419   2.357   3.436   2.767
 4559SOL    HW114420   2.425   3.499   2.792
 4559SOL    HW214421   2.401   3.373   2.710
 4560SOL     OW14422   2.850   2.666   3.088
 4560SOL    HW114423   2.884   2.618   3.163
 4560SOL    HW214424   2.772   2.617   3.061
 4561SOL     OW14425   1.906   2.422   2.979
 4561SOL    HW114426   1.939   2.338   2.946
 4561SOL    HW214427   1.929   2.422   3.072
 4562SOL     OW14428   3.240   2.799   3.519
 4562SOL    HW114429   3.261   2.893   3.518
 4562SOL    HW214430   3.239   2.773   3.427
 4563SOL     OW14431   2.695   2.431   2.238
 4563SOL    HW114432   2.691   2.360   2.173
 4563SOL    HW214433   2.635   2.497   2.204
 4564SOL     OW14434   3.503   2.463   3.046
 4564SOL    HW114435   3.495   2.403   3.121
 4564SOL    HW214436   3.591   2.444   3.012
 4565SOL     OW14437   2.104   3.412   3.588
 4565SOL    HW114438   2.081   3.477   3.655
 4565SOL    HW214439   2.107   3.329   3.635
 4566SOL     OW14440   2.788   3.541   3.331
 4566SOL    HW114441   2.763   3.505   3.246
 4566SOL    HW214442   2.783   3.636   3.319
 4567SOL     OW14443   2.006   3.006   3.340
 4567SOL    HW114444   2.006   2.953   3.420
 4567SOL    HW214445   2.016   2.942   3.269
 4568SOL     OW14446   3.187   2.908   3.084
 4568SOL    HW114447   3.209   2.844   3.016
 4568SOL    HW214448   3.117   2.961   3.045
 4569SOL     OW14449   3.174   2.719   2.168
 4569SOL    HW114450   3.100   2.688   2.219
 4569SOL    HW214451   3.148   2.705   2.077
 4570SOL     OW14452   3.637   3.604   3.015
 4570SOL    HW114453   3.697   3.630   2.944
 4570SOL    HW214454   3.611   3.514   2.992
 4571SOL     OW14455   3.102   3.595   2.973
 4571SOL    HW114456   3.185   3.617   2.929
 4571SOL    HW214457   3.110   3.501   2.992
 4572SOL     OW14458   1.946   3.129   2.874
 4572SOL    HW114459   1.932   3.143   2.968
 4572SOL    HW214460   1.871   3.075   2.847
 4573SOL     OW14461   2.539   3.529   3.594
 4573SOL    HW114462   2.484   3.607   3.588
 4573SOL    HW214463   2.606   3.542   3.526
 4574SOL     OW14464   3.582   2.011   2.370
 4574SOL    HW114465   3.654   1.996   2.309
 4574SOL    HW214466   3.566   1.925   2.410
 4575SOL     OW14467   3.253   3.430   2.348
 4575SOL    HW114468   3.313   3.463   2.281
 4575SOL    HW214469   3.204   3.507   2.377
 4576SOL     OW14470   2.000   3.657   3.704
 4576SOL    HW114471   1.949   3.592   3.753
 4576SOL    HW214472   2.046   3.707   3.772
 4577SOL     OW14473   3.140   2.788   2.532
 4577SOL    HW114474   3.214   2.728   2.541
 4577SOL    HW214475   3.174   2.861   2.480
 4578SOL     OW14476   2.674   3.137   3.290
 4578SOL    HW114477   2.646   3.176   3.373
 4578SOL    HW214478   2.605   3.160   3.228
 4579SOL     OW14479   2.532   3.484   2.018
 4579SOL    HW114480   2.544   3.497   1.923
 4579SOL    HW214481   2.477   3.406   2.025
 4580SOL     OW14482   3.486   3.589   3.253
 4580SOL    HW114483   3.537   3.595   3.172
 4580SOL    HW214484   3.472   3.679   3.280
 4581SOL     OW14485   3.704   2.034   2.829
 4581SOL    HW114486   3.733   1.947   2.803
 4581SOL    HW214487   3.617   2.043   2.789
 4582SOL     OW14488   3.070   3.467   1.894
 4582SOL    HW114489   3.059   3.375   1.921
 4582SOL    HW214490   3.005   3.479   1.825
 4583SOL     OW14491   2.687   2.869   3.235
 4583SOL    HW114492   2.736   2.859   3.153
 4583SOL    HW214493   2.688   2.963   3.251
 4584SOL     OW14494   2.789   2.788   2.158
 4584SOL    HW114495   2.848   2.813   2.087
 4584SOL    HW214496   2.832   2.714   2.200
 4585SOL     OW14497   3.353   3.488   1.905
 4585SOL    HW114498   3.258   3.480   1.891
 4585SOL    HW214499   3.390   3.494   1.817
 4586SOL     OW14500   2.232   3.164   3.352
 4586SOL    HW114501   2.217   3.242   3.298
 4586SOL    HW214502   2.154   3.111   3.340
 4587SOL     OW14503   3.472   3.145   3.142
 4587SOL    HW114504   3.531   3.132   3.216
 4587SOL    HW214505   3.412   3.214   3.172
 4588SOL     OW14506   2.918   2.970   2.570
 4588SOL    HW114507   2.847   2.919   2.609
 4588SOL    HW214508   2.981   2.905   2.539
 4589SOL     OW14509   2.883   2.102   2.829
 4589SOL    HW114510   2.879   2.055   2.745
 4589SOL    HW214511   2.880   2.033   2.895
 4590SOL     OW14512   2.466   3.350   2.343
 4590SOL    HW114513   2.512   3.300   2.275
 4590SOL    HW214514   2.395   3.394   2.296
 4591SOL     OW14515   3.585   2.255   3.242
 4591SOL    HW114516   3.657   2.317   3.241
 4591SOL    HW214517   3.615   2.183   3.186
 4592SOL     OW14518   2.122   3.205   2.152
 4592SOL    HW114519   2.029   3.203   2.128
 4592SOL    HW214520   2.123   3.243   2.240
 4593SOL     OW14521   1.974   2.886   3.584
 4593SOL    HW114522   1.897   2.862   3.635
 4593SOL    HW214523   2.048   2.847   3.632
 4594SOL     OW14524   2.554   2.035   3.356
 4594SOL    HW114525   2.641   2.011   3.324
 4594SOL    HW214526   2.569   2.067   3.445
 4595SOL     OW14527   3.291   2.722   3.261
 4595SOL    HW114528   3.243   2.783   3.205
 4595SOL    HW214529   3.380   2.723   3.226
 4596SOL     OW14530   1.860   1.997   2.194
 4596SOL    HW114531   1.833   2.077   2.149
 4596SOL    HW214532   1.950   2.015   2.222
 4597SOL     OW14533   3.041   3.200   1.979
 4597SOL    HW114534   2.950   3.168   1.982
 4597SOL    HW214535   3.069   3.201   2.071
 4598SOL     OW14536   2.481   2.703   3.290
 4598SOL    HW114537   2.543   2.774   3.274
 4598SOL    HW214538   2.537   2.627   3.310
 4599SOL     OW14539   3.345   3.641   2.842
 4599SOL    HW114540   3.367   3.702   2.772
 4599SOL    HW214541   3.429   3.619   2.883
 4600SOL     OW14542   3.334   3.060   3.493
 4600SOL    HW114543   3.322   3.074   3.587
 4600SOL    HW214544   3.427   3.076   3.478
 4601SOL     OW14545   2.239   3.601   3.427
 4601SOL    HW114546   2.155   3.644   3.412
 4601SOL    HW214547   2.217   3.518   3.469
 4602SOL     OW14548   3.530   2.743   3.117
 4602SOL    HW114549   3.525   2.657   3.074
 4602SOL    HW214550   3.520   2.806   3.046
 4603SOL     OW14551   3.077   2.180   2.320
 4603SOL    HW114552   3.141   2.109   2.312
 4603SOL    HW214553   3.106   2.230   2.397
 4604SOL     OW14554   2.479   2.641   2.549
 4604SOL    HW114555   2.516   2.726   2.523
 4604SOL    HW214556   2.389   2.644   2.518
 4605SOL     OW14557   3.622   2.225   3.513
 4605SOL    HW114558   3.605   2.240   3.420
 4605SOL    HW214559   3.550   2.168   3.541
 4606SOL     OW14560   3.608   2.796   3.374
 4606SOL    HW114561   3.602   2.891   3.386
 4606SOL    HW214562   3.592   2.783   3.280
 4607SOL     OW14563   2.723   3.229   1.898
 4607SOL    HW114564   2.687   3.257   1.982
 4607SOL    HW214565   2.742   3.311   1.852
 4608SOL     OW14566   2.523   3.651   2.804
 4608SOL    HW114567   2.504   3.742   2.782
 4608SOL    HW214568   2.618   3.644   2.798
 4609SOL     OW14569   2.731   2.832   2.717
 4609SOL    HW114570   2.778   2.757   2.753
 4609SOL    HW214571   2.696   2.877   2.793
 4610SOL     OW14572   2.942   2.851   1.947
 4610SOL    HW114573   2.922   2.902   1.869
 4610SOL    HW214574   3.017   2.796   1.922
 4611SOL     OW14575   3.715   3.416   2.706
 4611SOL    HW114576   3.636   3.404   2.652
 4611SOL    HW214577   3.709   3.349   2.773
 4612SOL     OW14578   2.087   3.164   3.717
 4612SOL    HW114579   2.022   3.101   3.687
 4612SOL    HW214580   2.068   3.176   3.810
 4613SOL     OW14581   1.946   3.095   2.528
 4613SOL    HW114582   1.951   3.048   2.611
 4613SOL    HW214583   2.014   3.055   2.473
 4614SOL     OW14584   2.543   3.267   3.490
 4614SOL    HW114585   2.464   3.224   3.522
 4614SOL    HW214586   2.540   3.355   3.528
 4615SOL     OW14587   3.674   2.046   3.100
 4615SOL    HW114588   3.682   1.952   3.114
 4615SOL    HW214589   3.685   2.057   3.005
 4616SOL     OW14590   3.560   3.351   2.958
 4616SOL    HW114591   3.481   3.329   2.909
 4616SOL    HW214592   3.570   3.280   3.022
 4617SOL     OW14593   2.691   3.440   2.539
 4617SOL    HW114594   2.675   3.497   2.463
 4617SOL    HW214595   2.615   3.382   2.541
 4618SOL     OW14596   3.293   2.089   2.979
 4618SOL    HW114597   3.316   2.007   3.024
 4618SOL    HW214598   3.243   2.138   3.044
 4619SOL     OW14599   2.873   1.880   3.000
 4619SOL    HW114600   2.818   1.810   2.964
 4619SOL    HW214601   2.961   1.842   3.002
 4620SOL     OW14602   2.636   3.197   2.178
 4620SOL    HW114603   2.606   3.106   2.184
 4620SOL    HW214604   2.717   3.199   2.228
 4621SOL     OW14605   2.482   3.417   3.147
 4621SOL    HW114606   2.484   3.499   3.197
 4621SOL    HW214607   2.569   3.410   3.110
 4622SOL     OW14608   3.215   1.915   2.028
 4622SOL    HW114609   3.245   1.849   1.966
 4622SOL    HW214610   3.127   1.887   2.054
 4623SOL     OW14611   3.158   2.323   2.542
 4623SOL    HW114612   3.105   2.403   2.548
 4623SOL    HW214613   3.154   2.285   2.629
 4624SOL     OW14614   3.448   2.062   2.741
 4624SOL    HW114615   3.389   2.084   2.813
 4624SOL    HW214616   3.448   2.140   2.685
 4625SOL     OW14617   1.904   2.931   2.170
 4625SOL    HW114618   1.998   2.924   2.153
 4625SOL    HW214619   1.876   2.842   2.190
 4626SOL     OW14620   2.748   3.517   2.203
 4626SOL    HW114621   2.675   3.500   2.144
 4626SOL    HW214622   2.719   3.592   2.256
 4627SOL     OW14623   2.052   2.531   3.847
 4627SOL    HW114624   1.970   2.503   3.889
 4627SOL    HW214625   2.050   2.490   3.761
 4628SOL     OW14626   1.846   2.272   4.355
 4628SOL    HW114627   1.756   2.291   4.379
 4628SOL    HW214628   1.859   2.181   4.380
 4629SOL     OW14629   2.417   3.202   4.899
 4629SOL    HW114630   2.340   3.221   4.844
 4629SOL    HW214631   2.446   3.287   4.930
 4630SOL     OW14632   3.425   3.374   4.432
 4630SOL    HW114633   3.382   3.353   4.515
 4630SOL    HW214634   3.354   3.378   4.368
 4631SOL     OW14635   2.996   2.556   4.432
 4631SOL    HW114636   3.042   2.639   4.420
 4631SOL    HW214637   2.949   2.566   4.514
 4632SOL     OW14638   3.631   2.465   3.952
 4632SOL    HW114639   3.609   2.458   3.859
 4632SOL    HW214640   3.594   2.387   3.992
 4633SOL     OW14641   2.740   2.654   5.538
 4633SOL    HW114642   2.672   2.704   5.584
 4633SOL    HW214643   2.746   2.695   5.452
 4634SOL     OW14644   2.578   2.935   4.375
 4634SOL    HW114645   2.592   2.861   4.435
 4634SOL    HW214646   2.493   2.970   4.401
 4635SOL     OW14647   2.581   3.025   5.521
 4635SOL    HW114648   2.628   3.103   5.550
 4635SOL    HW214649   2.496   3.058   5.493
 4636SOL     OW14650   2.184   3.302   4.787
 4636SOL    HW114651   2.106   3.272   4.740
 4636SOL    HW214652   2.235   3.350   4.721
 4637SOL     OW14653   3.322   3.362   5.080
 4637SOL    HW114654   3.375   3.442   5.090
 4637SOL    HW214655   3.258   3.367   5.152
 4638SOL     OW14656   3.474   2.309   4.463
 4638SOL    HW114657   3.398   2.330   4.408
 4638SOL    HW214658   3.486   2.387   4.517
 4639SOL     OW14659   2.081   3.577   4.195
 4639SOL    HW114660   2.102   3.653   4.249
 4639SOL    HW214661   2.155   3.569   4.135
 4640SOL     OW14662   2.995   3.201   5.417
 4640SOL    HW114663   3.035   3.191   5.503
 4640SOL    HW214664   2.948   3.119   5.403
 4641SOL     OW14665   2.097   3.305   4.260
 4641SOL    HW114666   2.076   3.398   4.262
 4641SOL    HW214667   2.037   3.264   4.322
 4642SOL     OW14668   2.472   3.660   5.159
 4642SOL    HW114669   2.390   3.641   5.204
 4642SOL    HW214670   2.493   3.750   5.184
 4643SOL     OW14671   2.446   2.846   3.854
 4643SOL    HW114672   2.493   2.894   3.786
 4643SOL    HW214673   2.482   2.880   3.936
 4644SOL     OW14674   3.452   1.992   5.189
 4644SOL    HW114675   3.478   2.073   5.146
 4644SOL    HW214676   3.440   2.016   5.281
 4645SOL     OW14677   1.984   2.510   4.287
 4645SOL    HW114678   1.941   2.426   4.303
 4645SOL    HW214679   1.970   2.559   4.367
 4646SOL     OW14680   3.705   3.620   4.057
 4646SOL    HW114681   3.770   3.592   4.121
 4646SOL    HW214682   3.726   3.711   4.038
 4647SOL     OW14683   1.896   3.455   3.847
 4647SOL    HW114684   1.877   3.364   3.867
 4647SOL    HW214685   1.871   3.503   3.926
 4648SOL     OW14686   3.550   2.780   4.367
 4648SOL    HW114687   3.634   2.737   4.347
 4648SOL    HW214688   3.529   2.830   4.288
 4649SOL     OW14689   3.509   2.967   4.154
 4649SOL    HW114690   3.595   2.972   4.112
 4649SOL    HW214691   3.514   3.029   4.226
 4650SOL     OW14692   2.476   3.251   4.460
 4650SOL    HW114693   2.429   3.168   4.469
 4650SOL    HW214694   2.461   3.277   4.369
 4651SOL     OW14695   3.151   3.099   5.149
 4651SOL    HW114696   3.181   3.032   5.088
 4651SOL    HW214697   3.210   3.093   5.223
 4652SOL     OW14698   2.669   1.866   4.224
 4652SOL    HW114699   2.712   1.950   4.210
 4652SOL    HW214700   2.577   1.888   4.236
 4653SOL     OW14701   3.393   2.857   3.923
 4653SOL    HW114702   3.323   2.800   3.955
 4653SOL    HW214703   3.434   2.891   4.003
 4654SOL     OW14704   3.046   3.669   5.347
 4654SOL    HW114705   3.055   3.729   5.273
 4654SOL    HW214706   3.064   3.583   5.310
 4655SOL     OW14707   3.330   3.281   4.675
 4655SOL    HW114708   3.261   3.297   4.740
 4655SOL    HW214709   3.317   3.190   4.648
 4656SOL     OW14710   3.519   3.605   4.302
 4656SOL    HW114711   3.500   3.574   4.213
 4656SOL    HW214712   3.495   3.531   4.358
 4657SOL     OW14713   2.493   2.629   4.042
 4657SOL    HW114714   2.487   2.685   3.964
 4657SOL    HW214715   2.404   2.630   4.078
 4658SOL     OW14716   3.172   2.208   4.651
 4658SOL    HW114717   3.081   2.181   4.642
 4658SOL    HW214718   3.206   2.157   4.725
 4659SOL     OW14719   3.442   3.533   4.033
 4659SOL    HW114720   3.533   3.563   4.026
 4659SOL    HW214721   3.415   3.516   3.943
 4660SOL     OW14722   3.261   2.342   5.389
 4660SOL    HW114723   3.252   2.384   5.474
 4660SOL    HW214724   3.312   2.263   5.406
 4661SOL     OW14725   2.942   2.576   4.156
 4661SOL    HW114726   2.955   2.561   4.250
 4661SOL    HW214727   2.861   2.530   4.136
 4662SOL     OW14728   1.952   2.685   4.499
 4662SOL    HW114729   2.033   2.672   4.548
 4662SOL    HW214730   1.909   2.759   4.542
 4663SOL     OW14731   1.989   3.718   5.304
 4663SOL    HW114732   1.989   3.695   5.397
 4663SOL    HW214733   1.899   3.700   5.276
 4664SOL     OW14734   2.761   2.217   3.922
 4664SOL    HW114735   2.800   2.273   3.855
 4664SOL    HW214736   2.762   2.129   3.883
 4665SOL     OW14737   3.573   2.436   5.552
 4665SOL    HW114738   3.533   2.509   5.505
 4665SOL    HW214739   3.597   2.373   5.484
 4666SOL     OW14740   3.238   3.002   4.264
 4666SOL    HW114741   3.317   2.990   4.213
 4666SOL    HW214742   3.186   3.066   4.214
 4667SOL     OW14743   2.437   2.008   4.576
 4667SOL    HW114744   2.443   2.010   4.672
 4667SOL    HW214745   2.452   2.098   4.549
 4668SOL     OW14746   2.865   3.306   4.196
 4668SOL    HW114747   2.831   3.380   4.146
 4668SOL    HW214748   2.846   3.328   4.287
 4669SOL     OW14749   2.217   3.672   4.589
 4669SOL    HW114750   2.262   3.588   4.594
 4669SOL    HW214751   2.286   3.737   4.607
 4670SOL     OW14752   3.660   2.920   4.593
 4670SOL    HW114753   3.607   2.899   4.517
 4670SOL    HW214754   3.598   2.924   4.666
 4671SOL     OW14755   3.088   3.400   5.238
 4671SOL    HW114756   3.076   3.327   5.298
 4671SOL    HW214757   3.025   3.385   5.167
 4672SOL     OW14758   2.173   2.825   3.970
 4672SOL    HW114759   2.255   2.839   3.922
 4672SOL    HW214760   2.141   2.741   3.938
 4673SOL     OW14761   3.339   2.609   4.453
 4673SOL    HW114762   3.336   2.564   4.537
 4673SOL    HW214763   3.420   2.661   4.457
 4674SOL     OW14764   2.329   3.132   5.464
 4674SOL    HW114765   2.303   3.130   5.371
 4674SOL    HW214766   2.247   3.130   5.512
 4675SOL     OW14767   2.984   3.640   3.954
 4675SOL    HW114768   2.911   3.599   3.999
 4675SOL    HW214769   3.008   3.578   3.886
 4676SOL     OW14770   3.491   3.242   3.812
 4676SOL    HW114771   3.449   3.327   3.797
 4676SOL    HW214772   3.422   3.178   3.793
 4677SOL     OW14773   2.327   3.599   4.044
 4677SOL    HW114774   2.371   3.656   4.108
 4677SOL    HW214775   2.398   3.566   3.989
 4678SOL     OW14776   3.264   1.974   4.156
 4678SOL    HW114777   3.253   1.945   4.066
 4678SOL    HW214778   3.358   1.973   4.171
 4679SOL     OW14779   2.121   3.654   4.952
 4679SOL    HW114780   2.178   3.589   4.993
 4679SOL    HW214781   2.110   3.623   4.863
 4680SOL     OW14782   2.798   3.564   4.622
 4680SOL    HW114783   2.871   3.509   4.651
 4680SOL    HW214784   2.755   3.513   4.554
 4681SOL     OW14785   2.234   2.590   4.174
 4681SOL    HW114786   2.261   2.504   4.139
 4681SOL    HW214787   2.146   2.575   4.206
 4682SOL     OW14788   3.396   2.087   5.450
 4682SOL    HW114789   3.407   2.109   5.542
 4682SOL    HW214790   3.319   2.030   5.448
 4683SOL     OW14791   2.493   1.983   3.833
 4683SOL    HW114792   2.560   1.919   3.856
 4683SOL    HW214793   2.457   1.952   3.750
 4684SOL     OW14794   2.648   2.107   5.470
 4684SOL    HW114795   2.729   2.062   5.497
 4684SOL    HW214796   2.589   2.096   5.544
 4685SOL     OW14797   2.737   3.388   4.921
 4685SOL    HW114798   2.716   3.353   4.835
 4685SOL    HW214799   2.804   3.330   4.955
 4686SOL     OW14800   3.252   2.446   5.129
 4686SOL    HW114801   3.241   2.409   5.216
 4686SOL    HW214802   3.250   2.541   5.143
 4687SOL     OW14803   2.681   3.275   4.672
 4687SOL    HW114804   2.762   3.246   4.631
 4687SOL    HW214805   2.613   3.254   4.608
 4688SOL     OW14806   2.401   1.932   4.234
 4688SOL    HW114807   2.363   1.925   4.321
 4688SOL    HW214808   2.363   2.012   4.197
 4689SOL     OW14809   3.290   3.061   3.765
 4689SOL    HW114810   3.320   2.985   3.815
 4689SOL    HW214811   3.205   3.082   3.802
 4690SOL     OW14812   2.190   1.823   3.859
 4690SOL    HW114813   2.231   1.909   3.852
 4690SOL    HW214814   2.238   1.779   3.929
 4691SOL     OW14815   2.795   2.115   4.183
 4691SOL    HW114816   2.779   2.153   4.097
 4691SOL    HW214817   2.890   2.117   4.193
 4692SOL     OW14818   3.087   3.429   4.516
 4692SOL    HW114819   3.100   3.497   4.450
 4692SOL    HW214820   3.153   3.448   4.583
 4693SOL     OW14821   2.327   3.014   4.453
 4693SOL    HW114822   2.271   2.984   4.523
 4693SOL    HW214823   2.279   2.995   4.372
 4694SOL     OW14824   3.130   3.655   4.334
 4694SOL    HW114825   3.177   3.716   4.277
 4694SOL    HW214826   3.062   3.708   4.376
 4695SOL     OW14827   2.885   2.402   3.745
 4695SOL    HW114828   2.836   2.482   3.726
 4695SOL    HW214829   2.948   2.428   3.813
 4696SOL     OW14830   2.420   2.019   4.847
 4696SOL    HW114831   2.450   1.970   4.923
 4696SOL    HW214832   2.335   2.055   4.873
 4697SOL     OW14833   2.753   2.322   4.377
 4697SOL    HW114834   2.722   2.384   4.310
 4697SOL    HW214835   2.766   2.240   4.329
 4698SOL     OW14836   2.897   1.866   4.420
 4698SOL    HW114837   2.812   1.864   4.376
 4698SOL    HW214838   2.885   1.811   4.497
 4699SOL     OW14839   3.301   3.024   4.581
 4699SOL    HW114840   3.228   2.962   4.577
 4699SOL    HW214841   3.328   3.035   4.490
 4700SOL     OW14842   3.325   2.468   4.697
 4700SOL    HW114843   3.281   2.383   4.696
 4700SOL    HW214844   3.384   2.463   4.772
 4701SOL     OW14845   3.707   2.676   4.107
 4701SOL    HW114846   3.763   2.626   4.166
 4701SOL    HW214847   3.679   2.613   4.040
 4702SOL     OW14848   2.352   3.281   3.879
 4702SOL    HW114849   2.277   3.253   3.931
 4702SOL    HW214850   2.340   3.238   3.794
 4703SOL     OW14851   3.533   3.126   4.369
 4703SOL    HW114852   3.628   3.127   4.383
 4703SOL    HW214853   3.504   3.215   4.390
 4704SOL     OW14854   3.256   2.434   3.795
 4704SOL    HW114855   3.194   2.414   3.864
 4704SOL    HW214856   3.340   2.400   3.827
 4705SOL     OW14857   3.613   3.103   5.294
 4705SOL    HW114858   3.699   3.062   5.292
 4705SOL    HW214859   3.629   3.193   5.323
 4706SOL     OW14860   2.924   3.215   5.053
 4706SOL    HW114861   2.847   3.186   5.101
 4706SOL    HW214862   2.997   3.173   5.097
 4707SOL     OW14863   3.470   3.489   5.379
 4707SOL    HW114864   3.464   3.522   5.290
 4707SOL    HW214865   3.553   3.440   5.381
 4708SOL     OW14866   2.984   3.060   4.828
 4708SOL    HW114867   2.932   3.104   4.894
 4708SOL    HW214868   2.957   3.099   4.745
 4709SOL     OW14869   3.488   2.959   4.801
 4709SOL    HW114870   3.483   3.021   4.874
 4709SOL    HW214871   3.410   2.978   4.748
 4710SOL     OW14872   2.839   2.963   5.416
 4710SOL    HW114873   2.749   2.985   5.441
 4710SOL    HW214874   2.829   2.906   5.340
 4711SOL     OW14875   2.572   2.931   4.089
 4711SOL    HW114876   2.571   2.935   4.185
 4711SOL    HW214877   2.645   2.873   4.068
 4712SOL     OW14878   1.934   3.465   5.084
 4712SOL    HW114879   1.905   3.533   5.024
 4712SOL    HW214880   2.029   3.464   5.077
 4713SOL     OW14881   2.202   2.967   4.216
 4713SOL    HW114882   2.209   3.041   4.156
 4713SOL    HW214883   2.199   2.890   4.159
 4714SOL     OW14884   3.109   3.211   4.114
 4714SOL    HW114885   3.166   3.282   4.145
 4714SOL    HW214886   3.023   3.233   4.148
 4715SOL     OW14887   3.146   3.321   4.872
 4715SOL    HW114888   3.203   3.325   4.948
 4715SOL    HW214889   3.084   3.251   4.892
 4716SOL     OW14890   3.443   2.485   4.205
 4716SOL    HW114891   3.393   2.537   4.267
 4716SOL    HW214892   3.487   2.549   4.149
 4717SOL     OW14893   2.208   3.390   5.041
 4717SOL    HW114894   2.195   3.351   4.955
 4717SOL    HW214895   2.302   3.404   5.048
 4718SOL     OW14896   3.469   2.645   5.411
 4718SOL    HW114897   3.379   2.677   5.400
 4718SOL    HW214898   3.518   2.685   5.339
 4719SOL     OW14899   2.897   1.973   5.521
 4719SOL    HW114900   2.939   2.057   5.502
 4719SOL    HW214901   2.956   1.907   5.485
 4720SOL     OW14902   3.215   2.719   4.755
 4720SOL    HW114903   3.145   2.711   4.690
 4720SOL    HW214904   3.260   2.635   4.751
 4721SOL     OW14905   3.067   2.391   3.989
 4721SOL    HW114906   3.072   2.312   4.042
 4721SOL    HW214907   3.034   2.458   4.049
 4722SOL     OW14908   1.872   3.215   5.013
 4722SOL    HW114909   1.885   3.171   5.097
 4722SOL    HW214910   1.888   3.307   5.032
 4723SOL     OW14911   3.598   2.823   5.579
 4723SOL    HW114912   3.555   2.758   5.524
 4723SOL    HW214913   3.538   2.837   5.652
 4724SOL     OW14914   3.483   2.239   4.088
 4724SOL    HW114915   3.507   2.172   4.153
 4724SOL    HW214916   3.458   2.315   4.140
 4725SOL     OW14917   2.841   3.425   5.442
 4725SOL    HW114918   2.827   3.471   5.359
 4725SOL    HW214919   2.888   3.345   5.417
 4726SOL     OW14920   3.716   3.367   5.329
 4726SOL    HW114921   3.735   3.393   5.239
 4726SOL    HW214922   3.797   3.383   5.377
 4727SOL     OW14923   2.198   2.773   5.542
 4727SOL    HW114924   2.250   2.802   5.617
 4727SOL    HW214925   2.255   2.786   5.467
 4728SOL     OW14926   3.390   2.135   3.851
 4728SOL    HW114927   3.325   2.070   3.877
 4728SOL    HW214928   3.424   2.170   3.934
 4729SOL     OW14929   3.152   2.688   3.755
 4729SOL    HW114930   3.195   2.602   3.759
 4729SOL    HW214931   3.184   2.727   3.673
 4730SOL     OW14932   2.928   3.198   4.583
 4730SOL    HW114933   2.932   3.125   4.522
 4730SOL    HW214934   2.987   3.263   4.546
 4731SOL     OW14935   2.184   2.649   4.647
 4731SOL    HW114936   2.258   2.711   4.647
 4731SOL    HW214937   2.206   2.586   4.716
 4732SOL     OW14938   3.012   2.208   5.476
 4732SOL    HW114939   2.966   2.283   5.514
 4732SOL    HW214940   3.059   2.245   5.400
 4733SOL     OW14941   1.868   3.181   3.919
 4733SOL    HW114942   1.781   3.196   3.881
 4733SOL    HW214943   1.864   3.092   3.953
 4734SOL     OW14944   1.953   3.649   4.665
 4734SOL    HW114945   1.921   3.570   4.620
 4734SOL    HW214946   2.042   3.660   4.631
 4735SOL     OW14947   2.359   3.437   4.629
 4735SOL    HW114948   2.428   3.499   4.655
 4735SOL    HW214949   2.404   3.373   4.573
 4736SOL     OW14950   1.961   2.356   4.886
 4736SOL    HW114951   2.022   2.352   4.813
 4736SOL    HW214952   1.958   2.449   4.910
 4737SOL     OW14953   3.236   2.803   5.383
 4737SOL    HW114954   3.261   2.896   5.380
 4737SOL    HW214955   3.240   2.775   5.291
 4738SOL     OW14956   2.716   2.457   4.086
 4738SOL    HW114957   2.711   2.383   4.027
 4738SOL    HW214958   2.641   2.511   4.064
 4739SOL     OW14959   3.502   2.469   4.904
 4739SOL    HW114960   3.482   2.418   4.983
 4739SOL    HW214961   3.589   2.441   4.878
 4740SOL     OW14962   2.104   3.412   5.450
 4740SOL    HW114963   2.082   3.478   5.515
 4740SOL    HW214964   2.105   3.330   5.499
 4741SOL     OW14965   2.786   3.542   5.194
 4741SOL    HW114966   2.765   3.503   5.108
 4741SOL    HW214967   2.781   3.636   5.179
 4742SOL     OW14968   3.183   2.909   4.945
 4742SOL    HW114969   3.206   2.845   4.878
 4742SOL    HW214970   3.114   2.962   4.904
 4743SOL     OW14971   3.173   2.719   4.031
 4743SOL    HW114972   3.100   2.684   4.082
 4743SOL    HW214973   3.148   2.705   3.940
 4744SOL     OW14974   3.638   3.604   4.877
 4744SOL    HW114975   3.697   3.630   4.807
 4744SOL    HW214976   3.611   3.514   4.854
 4745SOL     OW14977   3.103   3.595   4.835
 4745SOL    HW114978   3.185   3.617   4.791
 4745SOL    HW214979   3.110   3.502   4.854
 4746SOL     OW14980   1.938   3.187   4.718
 4746SOL    HW114981   1.912   3.189   4.810
 4746SOL    HW214982   1.895   3.110   4.682
 4747SOL     OW14983   2.540   3.530   5.456
 4747SOL    HW114984   2.485   3.608   5.449
 4747SOL    HW214985   2.607   3.542   5.389
 4748SOL     OW14986   3.582   2.010   4.233
 4748SOL    HW114987   3.654   1.995   4.171
 4748SOL    HW214988   3.566   1.925   4.273
 4749SOL     OW14989   3.253   3.430   4.210
 4749SOL    HW114990   3.313   3.463   4.143
 4749SOL    HW214991   3.204   3.506   4.239
 4750SOL     OW14992   2.001   3.655   5.567
 4750SOL    HW114993   1.949   3.591   5.615
 4750SOL    HW214994   2.046   3.706   5.634
 4751SOL     OW14995   3.139   2.788   4.398
 4751SOL    HW114996   3.212   2.726   4.405
 4751SOL    HW214997   3.173   2.858   4.343
 4752SOL     OW14998   2.685   3.144   5.155
 4752SOL    HW114999   2.646   3.185   5.233
 4752SOL    HW215000   2.613   3.140   5.092
 4753SOL     OW15001   2.532   3.484   3.879
 4753SOL    HW115002   2.544   3.497   3.785
 4753SOL    HW215003   2.477   3.406   3.886
 4754SOL     OW15004   3.486   3.589   5.115
 4754SOL    HW115005   3.537   3.595   5.034
 4754SOL    HW215006   3.472   3.679   5.142
 4755SOL     OW15007   3.705   2.034   4.691
 4755SOL    HW115008   3.733   1.947   4.664
 4755SOL    HW215009   3.618   2.045   4.652
 4756SOL     OW15010   3.070   3.467   3.756
 4756SOL    HW115011   3.059   3.375   3.783
 4756SOL    HW215012   3.004   3.479   3.687
 4757SOL     OW15013   2.783   2.780   4.019
 4757SOL    HW115014   2.841   2.810   3.949
 4757SOL    HW215015   2.833   2.710   4.062
 4758SOL     OW15016   3.353   3.488   3.767
 4758SOL    HW115017   3.258   3.480   3.753
 4758SOL    HW215018   3.390   3.494   3.679
 4759SOL     OW15019   2.229   3.163   5.215
 4759SOL    HW115020   2.219   3.243   5.162
 4759SOL    HW215021   2.146   3.117   5.204
 4760SOL     OW15022   3.472   3.145   5.004
 4760SOL    HW115023   3.530   3.131   5.079
 4760SOL    HW215024   3.412   3.213   5.033
 4761SOL     OW15025   2.920   2.965   4.440
 4761SOL    HW115026   2.840   2.913   4.439
 4761SOL    HW215027   2.988   2.906   4.407
 4762SOL     OW15028   2.466   3.350   4.204
 4762SOL    HW115029   2.512   3.301   4.136
 4762SOL    HW215030   2.393   3.393   4.159
 4763SOL     OW15031   3.588   2.248   5.106
 4763SOL    HW115032   3.655   2.316   5.103
 4763SOL    HW215033   3.619   2.180   5.047
 4764SOL     OW15034   2.122   3.207   4.013
 4764SOL    HW115035   2.029   3.203   3.991
 4764SOL    HW215036   2.124   3.244   4.101
 4765SOL     OW15037   1.959   2.916   5.486
 4765SOL    HW115038   1.888   2.860   5.515
 4765SOL    HW215039   2.038   2.862   5.496
 4766SOL     OW15040   1.870   2.241   3.775
 4766SOL    HW115041   1.800   2.180   3.751
 4766SOL    HW215042   1.901   2.275   3.691
 4767SOL     OW15043   3.291   2.733   5.128
 4767SOL    HW115044   3.245   2.792   5.068
 4767SOL    HW215045   3.379   2.725   5.090
 4768SOL     OW15046   3.040   3.200   3.841
 4768SOL    HW115047   2.950   3.168   3.844
 4768SOL    HW215048   3.068   3.201   3.933
 4769SOL     OW15049   3.345   3.641   4.704
 4769SOL    HW115050   3.367   3.702   4.634
 4769SOL    HW215051   3.429   3.619   4.745
 4770SOL     OW15052   3.335   3.062   5.356
 4770SOL    HW115053   3.324   3.075   5.450
 4770SOL    HW215054   3.428   3.077   5.341
 4771SOL     OW15055   2.239   3.602   5.289
 4771SOL    HW115056   2.154   3.645   5.274
 4771SOL    HW215057   2.216   3.519   5.330
 4772SOL     OW15058   3.530   2.742   4.980
 4772SOL    HW115059   3.523   2.656   4.938
 4772SOL    HW215060   3.520   2.804   4.907
 4773SOL     OW15061   3.079   2.183   4.180
 4773SOL    HW115062   3.139   2.109   4.172
 4773SOL    HW215063   3.109   2.231   4.257
 4774SOL     OW15064   2.490   2.683   4.390
 4774SOL    HW115065   2.521   2.745   4.324
 4774SOL    HW215066   2.418   2.636   4.346
 4775SOL     OW15067   3.623   2.223   5.376
 4775SOL    HW115068   3.606   2.240   5.283
 4775SOL    HW215069   3.549   2.169   5.404
 4776SOL     OW15070   3.612   2.796   5.235
 4776SOL    HW115071   3.601   2.890   5.247
 4776SOL    HW215072   3.593   2.781   5.142
 4777SOL     OW15073   2.723   3.228   3.759
 4777SOL    HW115074   2.687   3.256   3.844
 4777SOL    HW215075   2.742   3.310   3.714
 4778SOL     OW15076   2.523   3.652   4.669
 4778SOL    HW115077   2.505   3.743   4.645
 4778SOL    HW215078   2.618   3.643   4.660
 4779SOL     OW15079   2.942   2.854   3.813
 4779SOL    HW115080   2.920   2.902   3.733
 4779SOL    HW215081   3.015   2.797   3.788
 4780SOL     OW15082   3.715   3.417   4.568
 4780SOL    HW115083   3.636   3.404   4.515
 4780SOL    HW215084   3.709   3.349   4.635
 4781SOL     OW15085   2.086   3.162   5.578
 4781SOL    HW115086   2.032   3.087   5.553
 4781SOL    HW215087   2.076   3.169   5.673
 4782SOL     OW15088   1.948   3.102   4.389
 4782SOL    HW115089   1.914   3.040   4.453
 4782SOL    HW215090   2.008   3.050   4.334
 4783SOL     OW15091   2.540   3.270   5.348
 4783SOL    HW115092   2.461   3.229   5.383
 4783SOL    HW215093   2.539   3.358   5.387
 4784SOL     OW15094   3.676   2.042   4.961
 4784SOL    HW115095   3.682   1.947   4.973
 4784SOL    HW215096   3.686   2.055   4.867
 4785SOL     OW15097   3.561   3.351   4.820
 4785SOL    HW115098   3.481   3.329   4.772
 4785SOL    HW215099   3.570   3.280   4.884
 4786SOL     OW15100   2.692   3.441   4.399
 4786SOL    HW115101   2.668   3.492   4.322
 4786SOL    HW215102   2.618   3.380   4.410
 4787SOL     OW15103   3.283   2.083   4.861
 4787SOL    HW115104   3.310   1.994   4.882
 4787SOL    HW215105   3.283   2.129   4.945
 4788SOL     OW15106   2.636   3.199   4.038
 4788SOL    HW115107   2.606   3.108   4.042
 4788SOL    HW215108   2.716   3.200   4.090
 4789SOL     OW15109   2.482   3.439   5.007
 4789SOL    HW115110   2.486   3.519   5.060
 4789SOL    HW215111   2.571   3.426   4.976
 4790SOL     OW15112   3.215   1.915   3.889
 4790SOL    HW115113   3.244   1.847   3.828
 4790SOL    HW215114   3.127   1.888   3.915
 4791SOL     OW15115   3.166   2.325   4.401
 4791SOL    HW115116   3.109   2.402   4.412
 4791SOL    HW215117   3.168   2.284   4.487
 4792SOL     OW15118   3.452   2.066   4.602
 4792SOL    HW115119   3.378   2.084   4.661
 4792SOL    HW215120   3.454   2.141   4.542
 4793SOL     OW15121   1.906   2.930   4.032
 4793SOL    HW115122   1.998   2.921   4.009
 4793SOL    HW215123   1.878   2.842   4.055
 4794SOL     OW15124   2.748   3.517   4.064
 4794SOL    HW115125   2.675   3.500   4.006
 4794SOL    HW215126   2.720   3.591   4.118
 4795SOL     OW15127   2.050   2.488   5.714
 4795SOL    HW115128   1.965   2.476   5.673
 4795SOL    HW215129   2.113   2.474   5.643
 4796SOL     OW15130   2.428   3.158   6.763
 4796SOL    HW115131   2.339   3.163   6.729
 4796SOL    HW215132   2.445   3.247   6.797
 4797SOL     OW15133   3.426   3.374   6.294
 4797SOL    HW115134   3.383   3.352   6.377
 4797SOL    HW215135   3.354   3.377   6.230
 4798SOL     OW15136   3.632   2.466   5.814
 4798SOL    HW115137   3.611   2.460   5.721
 4798SOL    HW215138   3.593   2.388   5.853
 4799SOL     OW15139   2.588   2.990   6.624
 4799SOL    HW115140   2.535   3.046   6.681
 4799SOL    HW215141   2.644   3.050   6.575
 4800SOL     OW15142   2.740   2.636   7.411
 4800SOL    HW115143   2.724   2.708   7.473
 4800SOL    HW215144   2.759   2.680   7.328
 4801SOL     OW15145   2.573   3.013   7.397
 4801SOL    HW115146   2.622   3.090   7.427
 4801SOL    HW215147   2.492   3.048   7.361
 4802SOL     OW15148   2.190   3.282   6.653
 4802SOL    HW115149   2.114   3.247   6.607
 4802SOL    HW215150   2.237   3.334   6.588
 4803SOL     OW15151   3.322   3.362   6.943
 4803SOL    HW115152   3.374   3.441   6.952
 4803SOL    HW215153   3.257   3.368   7.013
 4804SOL     OW15154   3.477   2.308   6.330
 4804SOL    HW115155   3.395   2.322   6.282
 4804SOL    HW215156   3.492   2.389   6.377
 4805SOL     OW15157   2.087   3.568   6.059
 4805SOL    HW115158   2.103   3.645   6.113
 4805SOL    HW215159   2.159   3.567   5.995
 4806SOL     OW15160   2.998   3.204   7.280
 4806SOL    HW115161   3.039   3.198   7.366
 4806SOL    HW215162   2.947   3.123   7.272
 4807SOL     OW15163   2.075   3.296   6.127
 4807SOL    HW115164   2.075   3.391   6.113
 4807SOL    HW215165   2.038   3.285   6.215
 4808SOL     OW15166   2.470   3.654   7.014
 4808SOL    HW115167   2.389   3.635   7.061
 4808SOL    HW215168   2.494   3.742   7.040
 4809SOL     OW15169   2.500   2.822   5.671
 4809SOL    HW115170   2.529   2.893   5.613
 4809SOL    HW215171   2.499   2.862   5.758
 4810SOL     OW15172   3.457   1.987   7.052
 4810SOL    HW115173   3.472   2.068   7.004
 4810SOL    HW215174   3.441   2.015   7.142
 4811SOL     OW15175   2.013   2.438   6.178
 4811SOL    HW115176   1.920   2.417   6.190
 4811SOL    HW215177   2.029   2.511   6.238
 4812SOL     OW15178   3.704   3.620   5.919
 4812SOL    HW115179   3.770   3.592   5.983
 4812SOL    HW215180   3.726   3.711   5.900
 4813SOL     OW15181   1.895   3.454   5.709
 4813SOL    HW115182   1.874   3.363   5.731
 4813SOL    HW215183   1.872   3.504   5.788
 4814SOL     OW15184   3.549   2.779   6.229
 4814SOL    HW115185   3.632   2.737   6.208
 4814SOL    HW215186   3.528   2.830   6.150
 4815SOL     OW15187   3.510   2.968   6.015
 4815SOL    HW115188   3.596   2.972   5.974
 4815SOL    HW215189   3.515   3.029   6.088
 4816SOL     OW15190   1.987   2.606   7.167
 4816SOL    HW115191   2.034   2.622   7.248
 4816SOL    HW215192   1.926   2.679   7.159
 4817SOL     OW15193   2.470   3.255   6.318
 4817SOL    HW115194   2.427   3.170   6.323
 4817SOL    HW215195   2.454   3.285   6.229
 4818SOL     OW15196   3.149   3.099   7.009
 4818SOL    HW115197   3.181   3.032   6.949
 4818SOL    HW215198   3.208   3.093   7.084
 4819SOL     OW15199   2.036   2.835   6.862
 4819SOL    HW115200   2.123   2.801   6.842
 4819SOL    HW215201   1.977   2.788   6.802
 4820SOL     OW15202   3.397   2.859   5.785
 4820SOL    HW115203   3.328   2.799   5.816
 4820SOL    HW215204   3.437   2.892   5.865
 4821SOL     OW15205   3.047   3.670   7.209
 4821SOL    HW115206   3.056   3.729   7.135
 4821SOL    HW215207   3.064   3.583   7.173
 4822SOL     OW15208   3.329   3.281   6.536
 4822SOL    HW115209   3.261   3.297   6.602
 4822SOL    HW215210   3.315   3.190   6.509
 4823SOL     OW15211   3.519   3.605   6.164
 4823SOL    HW115212   3.500   3.574   6.075
 4823SOL    HW215213   3.495   3.531   6.220
 4824SOL     OW15214   2.532   2.603   5.816
 4824SOL    HW115215   2.511   2.673   5.754
 4824SOL    HW215216   2.464   2.610   5.883
 4825SOL     OW15217   3.167   2.213   6.524
 4825SOL    HW115218   3.078   2.178   6.517
 4825SOL    HW215219   3.208   2.160   6.593
 4826SOL     OW15220   3.442   3.533   5.896
 4826SOL    HW115221   3.532   3.563   5.888
 4826SOL    HW215222   3.415   3.516   5.805
 4827SOL     OW15223   3.256   2.336   7.264
 4827SOL    HW115224   3.259   2.380   7.348
 4827SOL    HW215225   3.315   2.261   7.273
 4828SOL     OW15226   2.817   2.745   7.165
 4828SOL    HW115227   2.869   2.673   7.128
 4828SOL    HW215228   2.774   2.784   7.089
 4829SOL     OW15229   2.858   2.271   6.812
 4829SOL    HW115230   2.788   2.308   6.866
 4829SOL    HW215231   2.819   2.191   6.775
 4830SOL     OW15232   1.988   3.717   7.166
 4830SOL    HW115233   1.990   3.695   7.259
 4830SOL    HW215234   1.898   3.698   7.138
 4831SOL     OW15235   3.570   2.435   7.414
 4831SOL    HW115236   3.532   2.508   7.366
 4831SOL    HW215237   3.598   2.373   7.346
 4832SOL     OW15238   3.243   3.006   6.121
 4832SOL    HW115239   3.322   2.994   6.069
 4832SOL    HW215240   3.190   3.068   6.071
 4833SOL     OW15241   2.863   3.302   6.056
 4833SOL    HW115242   2.830   3.379   6.009
 4833SOL    HW215243   2.850   3.323   6.148
 4834SOL     OW15244   2.215   3.673   6.450
 4834SOL    HW115245   2.260   3.588   6.459
 4834SOL    HW215246   2.283   3.737   6.469
 4835SOL     OW15247   3.660   2.920   6.455
 4835SOL    HW115248   3.606   2.899   6.378
 4835SOL    HW215249   3.598   2.925   6.527
 4836SOL     OW15250   3.089   3.401   7.099
 4836SOL    HW115251   3.076   3.328   7.160
 4836SOL    HW215252   3.026   3.385   7.029
 4837SOL     OW15253   3.335   2.609   6.313
 4837SOL    HW115254   3.335   2.567   6.399
 4837SOL    HW215255   3.413   2.665   6.313
 4838SOL     OW15256   2.328   3.126   7.323
 4838SOL    HW115257   2.302   3.131   7.231
 4838SOL    HW215258   2.246   3.126   7.372
 4839SOL     OW15259   2.984   3.641   5.816
 4839SOL    HW115260   2.911   3.598   5.861
 4839SOL    HW215261   3.008   3.578   5.747
 4840SOL     OW15262   3.491   3.243   5.675
 4840SOL    HW115263   3.449   3.327   5.659
 4840SOL    HW215264   3.422   3.178   5.656
 4841SOL     OW15265   2.329   3.597   5.907
 4841SOL    HW115266   2.371   3.656   5.970
 4841SOL    HW215267   2.400   3.568   5.850
 4842SOL     OW15268   3.271   1.955   6.023
 4842SOL    HW115269   3.253   1.947   5.929
 4842SOL    HW215270   3.362   1.984   6.027
 4843SOL     OW15271   2.119   3.653   6.817
 4843SOL    HW115272   2.169   3.586   6.863
 4843SOL    HW215273   2.109   3.619   6.728
 4844SOL     OW15274   2.800   3.561   6.485
 4844SOL    HW115275   2.877   3.510   6.508
 4844SOL    HW215276   2.757   3.511   6.415
 4845SOL     OW15277   3.395   2.087   7.311
 4845SOL    HW115278   3.405   2.107   7.404
 4845SOL    HW215279   3.327   2.020   7.309
 4846SOL     OW15280   2.474   2.003   5.658
 4846SOL    HW115281   2.526   1.956   5.723
 4846SOL    HW215282   2.439   1.935   5.601
 4847SOL     OW15283   2.625   2.122   7.319
 4847SOL    HW115284   2.701   2.069   7.342
 4847SOL    HW215285   2.582   2.141   7.403
 4848SOL     OW15286   2.737   3.384   6.780
 4848SOL    HW115287   2.722   3.346   6.693
 4848SOL    HW215288   2.808   3.331   6.817
 4849SOL     OW15289   3.197   2.458   7.021
 4849SOL    HW115290   3.231   2.424   7.104
 4849SOL    HW215291   3.240   2.543   7.011
 4850SOL     OW15292   2.677   3.255   6.529
 4850SOL    HW115293   2.762   3.240   6.487
 4850SOL    HW215294   2.615   3.256   6.456
 4851SOL     OW15295   3.291   3.060   5.627
 4851SOL    HW115296   3.322   2.984   5.676
 4851SOL    HW215297   3.204   3.078   5.663
 4852SOL     OW15298   2.931   2.516   7.049
 4852SOL    HW115299   2.902   2.440   7.098
 4852SOL    HW215300   3.025   2.503   7.036
 4853SOL     OW15301   3.085   3.432   6.379
 4853SOL    HW115302   3.101   3.499   6.313
 4853SOL    HW215303   3.153   3.446   6.445
 4854SOL     OW15304   3.130   3.655   6.195
 4854SOL    HW115305   3.177   3.716   6.138
 4854SOL    HW215306   3.064   3.709   6.239
 4855SOL     OW15307   2.901   2.428   5.587
 4855SOL    HW115308   2.841   2.501   5.573
 4855SOL    HW215309   2.950   2.452   5.666
 4856SOL     OW15310   1.962   2.413   6.969
 4856SOL    HW115311   2.039   2.366   7.002
 4856SOL    HW215312   1.951   2.486   7.030
 4857SOL     OW15313   3.298   3.023   6.442
 4857SOL    HW115314   3.231   2.955   6.439
 4857SOL    HW215315   3.325   3.034   6.350
 4858SOL     OW15316   3.326   2.469   6.562
 4858SOL    HW115317   3.279   2.385   6.564
 4858SOL    HW215318   3.386   2.465   6.636
 4859SOL     OW15319   3.707   2.677   5.969
 4859SOL    HW115320   3.764   2.626   6.028
 4859SOL    HW215321   3.679   2.614   5.903
 4860SOL     OW15322   2.356   3.276   5.743
 4860SOL    HW115323   2.277   3.252   5.792
 4860SOL    HW215324   2.343   3.236   5.657
 4861SOL     OW15325   3.534   3.126   6.230
 4861SOL    HW115326   3.629   3.128   6.245
 4861SOL    HW215327   3.505   3.215   6.252
 4862SOL     OW15328   3.266   2.441   5.646
 4862SOL    HW115329   3.205   2.423   5.718
 4862SOL    HW215330   3.349   2.402   5.674
 4863SOL     OW15331   3.613   3.103   7.156
 4863SOL    HW115332   3.700   3.063   7.153
 4863SOL    HW215333   3.629   3.192   7.185
 4864SOL     OW15334   2.919   3.219   6.922
 4864SOL    HW115335   2.844   3.186   6.972
 4864SOL    HW215336   2.995   3.176   6.962
 4865SOL     OW15337   3.470   3.488   7.241
 4865SOL    HW115338   3.464   3.522   7.152
 4865SOL    HW215339   3.553   3.440   7.242
 4866SOL     OW15340   2.997   3.073   6.692
 4866SOL    HW115341   2.933   3.105   6.755
 4866SOL    HW215342   2.961   3.097   6.607
 4867SOL     OW15343   3.488   2.959   6.663
 4867SOL    HW115344   3.483   3.022   6.735
 4867SOL    HW215345   3.409   2.975   6.612
 4868SOL     OW15346   2.794   1.954   6.988
 4868SOL    HW115347   2.816   1.930   6.898
 4868SOL    HW215348   2.874   1.994   7.023
 4869SOL     OW15349   2.846   2.975   7.307
 4869SOL    HW115350   2.755   2.992   7.329
 4869SOL    HW215351   2.844   2.897   7.251
 4870SOL     OW15352   2.269   2.696   6.844
 4870SOL    HW115353   2.343   2.713   6.902
 4870SOL    HW215354   2.223   2.622   6.883
 4871SOL     OW15355   3.128   2.241   6.864
 4871SOL    HW115356   3.159   2.320   6.909
 4871SOL    HW215357   3.039   2.262   6.836
 4872SOL     OW15358   1.934   3.438   6.942
 4872SOL    HW115359   1.904   3.509   6.885
 4872SOL    HW215360   2.029   3.438   6.934
 4873SOL     OW15361   3.109   3.212   5.974
 4873SOL    HW115362   3.165   3.282   6.005
 4873SOL    HW215363   3.023   3.232   6.009
 4874SOL     OW15364   3.145   3.321   6.732
 4874SOL    HW115365   3.199   3.322   6.811
 4874SOL    HW215366   3.092   3.242   6.741
 4875SOL     OW15367   3.443   2.484   6.066
 4875SOL    HW115368   3.394   2.535   6.130
 4875SOL    HW215369   3.484   2.549   6.009
 4876SOL     OW15370   2.207   3.391   6.898
 4876SOL    HW115371   2.195   3.346   6.815
 4876SOL    HW215372   2.302   3.402   6.906
 4877SOL     OW15373   3.465   2.641   7.269
 4877SOL    HW115374   3.380   2.683   7.263
 4877SOL    HW215375   3.518   2.683   7.201
 4878SOL     OW15376   2.863   1.985   7.349
 4878SOL    HW115377   2.914   2.058   7.314
 4878SOL    HW215378   2.910   1.907   7.321
 4879SOL     OW15379   2.353   1.893   7.343
 4879SOL    HW115380   2.317   1.843   7.270
 4879SOL    HW215381   2.285   1.958   7.364
 4880SOL     OW15382   2.444   2.748   6.619
 4880SOL    HW115383   2.499   2.826   6.619
 4880SOL    HW215384   2.393   2.754   6.699
 4881SOL     OW15385   3.218   2.723   6.614
 4881SOL    HW115386   3.132   2.718   6.572
 4881SOL    HW215387   3.255   2.635   6.603
 4882SOL     OW15388   3.095   2.405   5.850
 4882SOL    HW115389   3.116   2.330   5.907
 4882SOL    HW215390   3.038   2.460   5.903
 4883SOL     OW15391   1.914   3.175   6.866
 4883SOL    HW115392   1.943   3.119   6.938
 4883SOL    HW215393   1.916   3.264   6.901
 4884SOL     OW15394   2.645   2.549   6.676
 4884SOL    HW115395   2.653   2.493   6.599
 4884SOL    HW215396   2.577   2.613   6.652
 4885SOL     OW15397   3.597   2.822   7.440
 4885SOL    HW115398   3.553   2.757   7.385
 4885SOL    HW215399   3.538   2.836   7.513
 4886SOL     OW15400   3.477   2.236   5.954
 4886SOL    HW115401   3.508   2.173   6.020
 4886SOL    HW215402   3.457   2.315   6.005
 4887SOL     OW15403   2.916   2.681   6.570
 4887SOL    HW115404   2.892   2.681   6.663
 4887SOL    HW215405   2.924   2.589   6.547
 4888SOL     OW15406   2.843   3.428   7.305
 4888SOL    HW115407   2.829   3.472   7.221
 4888SOL    HW215408   2.887   3.346   7.281
 4889SOL     OW15409   3.716   3.366   7.191
 4889SOL    HW115410   3.735   3.393   7.101
 4889SOL    HW215411   3.797   3.384   7.239
 4890SOL     OW15412   2.228   2.764   7.378
 4890SOL    HW115413   2.294   2.796   7.440
 4890SOL    HW215414   2.277   2.740   7.300
 4891SOL     OW15415   3.394   2.138   5.713
 4891SOL    HW115416   3.327   2.074   5.737
 4891SOL    HW215417   3.425   2.172   5.797
 4892SOL     OW15418   3.156   2.690   5.615
 4892SOL    HW115419   3.194   2.603   5.616
 4892SOL    HW215420   3.185   2.729   5.533
 4893SOL     OW15421   2.926   3.199   6.438
 4893SOL    HW115422   2.931   3.125   6.377
 4893SOL    HW215423   2.988   3.263   6.405
 4894SOL     OW15424   2.181   2.679   6.512
 4894SOL    HW115425   2.271   2.706   6.531
 4894SOL    HW215426   2.161   2.612   6.578
 4895SOL     OW15427   2.993   2.249   7.260
 4895SOL    HW115428   2.947   2.295   7.330
 4895SOL    HW215429   3.083   2.282   7.264
 4896SOL     OW15430   3.030   2.067   7.059
 4896SOL    HW115431   3.016   2.131   7.129
 4896SOL    HW215432   3.071   2.117   6.988
 4897SOL     OW15433   1.858   3.173   5.786
 4897SOL    HW115434   1.775   3.202   5.749
 4897SOL    HW215435   1.852   3.078   5.788
 4898SOL     OW15436   1.950   3.643   6.522
 4898SOL    HW115437   1.923   3.563   6.477
 4898SOL    HW215438   2.040   3.659   6.493
 4899SOL     OW15439   2.355   3.437   6.493
 4899SOL    HW115440   2.423   3.499   6.518
 4899SOL    HW215441   2.400   3.374   6.436
 4900SOL     OW15442   2.845   2.662   6.831
 4900SOL    HW115443   2.880   2.611   6.905
 4900SOL    HW215444   2.769   2.613   6.802
 4901SOL     OW15445   1.904   2.420   6.702
 4901SOL    HW115446   1.944   2.341   6.666
 4901SOL    HW215447   1.930   2.421   6.794
 4902SOL     OW15448   3.240   2.799   7.243
 4902SOL    HW115449   3.261   2.892   7.242
 4902SOL    HW215450   3.239   2.774   7.151
 4903SOL     OW15451   3.503   2.463   6.770
 4903SOL    HW115452   3.494   2.404   6.845
 4903SOL    HW215453   3.591   2.444   6.735
 4904SOL     OW15454   2.105   3.413   7.312
 4904SOL    HW115455   2.082   3.478   7.379
 4904SOL    HW215456   2.107   3.330   7.360
 4905SOL     OW15457   2.787   3.542   7.055
 4905SOL    HW115458   2.764   3.504   6.970
 4905SOL    HW215459   2.782   3.636   7.042
 4906SOL     OW15460   2.005   3.005   7.066
 4906SOL    HW115461   2.007   2.954   7.147
 4906SOL    HW215462   2.016   2.941   6.996
 4907SOL     OW15463   3.187   2.908   6.808
 4907SOL    HW115464   3.209   2.844   6.741
 4907SOL    HW215465   3.119   2.963   6.769
 4908SOL     OW15466   3.185   2.716   5.887
 4908SOL    HW115467   3.097   2.727   5.923
 4908SOL    HW215468   3.171   2.697   5.795
 4909SOL     OW15469   3.637   3.603   6.739
 4909SOL    HW115470   3.697   3.630   6.668
 4909SOL    HW215471   3.611   3.514   6.716
 4910SOL     OW15472   3.102   3.595   6.697
 4910SOL    HW115473   3.185   3.617   6.653
 4910SOL    HW215474   3.109   3.502   6.716
 4911SOL     OW15475   1.925   3.161   6.597
 4911SOL    HW115476   1.925   3.163   6.693
 4911SOL    HW215477   1.883   3.078   6.574
 4912SOL     OW15478   2.540   3.529   7.318
 4912SOL    HW115479   2.484   3.607   7.312
 4912SOL    HW215480   2.607   3.542   7.251
 4913SOL     OW15481   3.584   2.012   6.096
 4913SOL    HW115482   3.655   1.996   6.034
 4913SOL    HW215483   3.566   1.927   6.135
 4914SOL     OW15484   3.252   3.430   6.072
 4914SOL    HW115485   3.313   3.462   6.005
 4914SOL    HW215486   3.204   3.507   6.101
 4915SOL     OW15487   2.001   3.657   7.428
 4915SOL    HW115488   1.949   3.592   7.477
 4915SOL    HW215489   2.046   3.707   7.496
 4916SOL     OW15490   3.143   2.809   6.276
 4916SOL    HW115491   3.205   2.736   6.276
 4916SOL    HW215492   3.180   2.871   6.213
 4917SOL     OW15493   2.674   3.138   7.014
 4917SOL    HW115494   2.645   3.177   7.096
 4917SOL    HW215495   2.603   3.159   6.952
 4918SOL     OW15496   2.533   3.482   5.741
 4918SOL    HW115497   2.544   3.496   5.647
 4918SOL    HW215498   2.477   3.404   5.747
 4919SOL     OW15499   3.486   3.589   6.977
 4919SOL    HW115500   3.537   3.595   6.896
 4919SOL    HW215501   3.472   3.679   7.004
 4920SOL     OW15502   3.703   2.034   6.553
 4920SOL    HW115503   3.734   1.947   6.527
 4920SOL    HW215504   3.617   2.042   6.512
 4921SOL     OW15505   3.069   3.467   5.618
 4921SOL    HW115506   3.060   3.376   5.644
 4921SOL    HW215507   3.005   3.480   5.548
 4922SOL     OW15508   2.687   2.870   6.962
 4922SOL    HW115509   2.733   2.859   6.880
 4922SOL    HW215510   2.687   2.965   6.977
 4923SOL     OW15511   3.353   3.489   5.629
 4923SOL    HW115512   3.258   3.480   5.615
 4923SOL    HW215513   3.390   3.494   5.541
 4924SOL     OW15514   2.231   3.166   7.077
 4924SOL    HW115515   2.216   3.242   7.022
 4924SOL    HW215516   2.153   3.111   7.064
 4925SOL     OW15517   3.472   3.145   6.866
 4925SOL    HW115518   3.531   3.132   6.941
 4925SOL    HW215519   3.411   3.213   6.895
 4926SOL     OW15520   2.919   2.968   6.294
 4926SOL    HW115521   2.844   2.914   6.317
 4926SOL    HW215522   2.992   2.906   6.286
 4927SOL     OW15523   2.457   3.351   6.066
 4927SOL    HW115524   2.510   3.305   6.001
 4927SOL    HW215525   2.395   3.402   6.015
 4928SOL     OW15526   3.585   2.254   6.966
 4928SOL    HW115527   3.657   2.317   6.965
 4928SOL    HW215528   3.615   2.183   6.909
 4929SOL     OW15529   2.113   3.218   5.869
 4929SOL    HW115530   2.020   3.214   5.849
 4929SOL    HW215531   2.118   3.244   5.961
 4930SOL     OW15532   1.978   2.886   7.312
 4930SOL    HW115533   1.899   2.862   7.361
 4930SOL    HW215534   2.048   2.840   7.357
 4931SOL     OW15535   2.550   2.034   7.073
 4931SOL    HW115536   2.638   2.011   7.043
 4931SOL    HW215537   2.564   2.069   7.161
 4932SOL     OW15538   3.291   2.721   6.985
 4932SOL    HW115539   3.242   2.782   6.929
 4932SOL    HW215540   3.380   2.723   6.950
 4933SOL     OW15541   1.879   2.055   5.851
 4933SOL    HW115542   1.880   2.150   5.850
 4933SOL    HW215543   1.962   2.030   5.892
 4934SOL     OW15544   3.041   3.202   5.702
 4934SOL    HW115545   2.956   3.159   5.705
 4934SOL    HW215546   3.071   3.203   5.793
 4935SOL     OW15547   2.478   2.704   7.010
 4935SOL    HW115548   2.547   2.770   6.997
 4935SOL    HW215549   2.524   2.629   7.047
 4936SOL     OW15550   3.345   3.641   6.566
 4936SOL    HW115551   3.368   3.703   6.496
 4936SOL    HW215552   3.428   3.619   6.607
 4937SOL     OW15553   3.334   3.060   7.217
 4937SOL    HW115554   3.322   3.074   7.311
 4937SOL    HW215555   3.427   3.076   7.203
 4938SOL     OW15556   2.239   3.601   7.151
 4938SOL    HW115557   2.155   3.644   7.136
 4938SOL    HW215558   2.217   3.518   7.193
 4939SOL     OW15559   3.530   2.743   6.841
 4939SOL    HW115560   3.525   2.657   6.798
 4939SOL    HW215561   3.520   2.806   6.770
 4940SOL     OW15562   3.622   2.224   7.237
 4940SOL    HW115563   3.606   2.240   7.144
 4940SOL    HW215564   3.550   2.168   7.265
 4941SOL     OW15565   3.608   2.796   7.098
 4941SOL    HW115566   3.602   2.890   7.110
 4941SOL    HW215567   3.592   2.783   7.004
 4942SOL     OW15568   2.721   3.237   5.622
 4942SOL    HW115569   2.687   3.278   5.702
 4942SOL    HW215570   2.749   3.310   5.567
 4943SOL     OW15571   2.523   3.651   6.528
 4943SOL    HW115572   2.504   3.742   6.506
 4943SOL    HW215573   2.618   3.644   6.523
 4944SOL     OW15574   2.960   2.883   5.650
 4944SOL    HW115575   2.922   2.908   5.566
 4944SOL    HW215576   3.026   2.818   5.629
 4945SOL     OW15577   3.715   3.417   6.430
 4945SOL    HW115578   3.636   3.404   6.377
 4945SOL    HW215579   3.709   3.349   6.497
 4946SOL     OW15580   2.087   3.164   7.441
 4946SOL    HW115581   2.020   3.103   7.410
 4946SOL    HW215582   2.066   3.177   7.534
 4947SOL     OW15583   2.542   3.267   7.214
 4947SOL    HW115584   2.463   3.224   7.245
 4947SOL    HW215585   2.539   3.354   7.252
 4948SOL     OW15586   3.674   2.045   6.824
 4948SOL    HW115587   3.683   1.951   6.837
 4948SOL    HW215588   3.684   2.057   6.729
 4949SOL     OW15589   3.560   3.351   6.682
 4949SOL    HW115590   3.481   3.328   6.633
 4949SOL    HW215591   3.570   3.281   6.746
 4950SOL     OW15592   2.691   3.441   6.262
 4950SOL    HW115593   2.675   3.497   6.187
 4950SOL    HW215594   2.614   3.384   6.267
 4951SOL     OW15595   3.298   2.082   6.716
 4951SOL    HW115596   3.319   1.999   6.760
 4951SOL    HW215597   3.248   2.131   6.780
 4952SOL     OW15598   2.876   1.879   6.745
 4952SOL    HW115599   2.821   1.831   6.684
 4952SOL    HW215600   2.963   1.840   6.734
 4953SOL     OW15601   2.631   3.204   5.911
 4953SOL    HW115602   2.620   3.115   5.879
 4953SOL    HW215603   2.718   3.204   5.952
 4954SOL     OW15604   2.481   3.419   6.870
 4954SOL    HW115605   2.484   3.500   6.920
 4954SOL    HW215606   2.570   3.410   6.834
 4955SOL     OW15607   3.219   1.927   5.750
 4955SOL    HW115608   3.252   1.861   5.689
 4955SOL    HW215609   3.135   1.893   5.779
 4956SOL     OW15610   3.197   2.334   6.289
 4956SOL    HW115611   3.155   2.417   6.311
 4956SOL    HW215612   3.190   2.281   6.369
 4957SOL     OW15613   3.448   2.060   6.464
 4957SOL    HW115614   3.392   2.085   6.538
 4957SOL    HW215615   3.451   2.139   6.410
 4958SOL     OW15616   2.747   3.517   5.928
 4958SOL    HW115617   2.674   3.502   5.868
 4958SOL    HW215618   2.720   3.592   5.980
 4959SOL     OW15619   2.049   2.538   7.564
 4959SOL    HW115620   1.973   2.514   7.616
 4959SOL    HW215621   2.066   2.462   7.509
 4960SOL     OW15622   1.841   2.256   8.081
 4960SOL    HW115623   1.759   2.280   8.124
 4960SOL    HW215624   1.830   2.164   8.057
 4961SOL     OW15625   2.429   3.153   8.626
 4961SOL    HW115626   2.342   3.157   8.586
 4961SOL    HW215627   2.445   3.242   8.658
 4962SOL     OW15628   3.426   3.374   8.156
 4962SOL    HW115629   3.383   3.353   8.239
 4962SOL    HW215630   3.354   3.378   8.092
 4963SOL     OW15631   2.997   2.560   8.150
 4963SOL    HW115632   3.044   2.642   8.135
 4963SOL    HW215633   2.952   2.572   8.234
 4964SOL     OW15634   3.633   2.465   7.675
 4964SOL    HW115635   3.610   2.458   7.583
 4964SOL    HW215636   3.594   2.388   7.716
 4965SOL     OW15637   2.612   3.002   8.490
 4965SOL    HW115638   2.545   3.038   8.548
 4965SOL    HW215639   2.650   3.079   8.446
 4966SOL     OW15640   2.736   2.636   9.269
 4966SOL    HW115641   2.725   2.707   9.332
 4966SOL    HW215642   2.758   2.680   9.187
 4967SOL     OW15643   2.567   2.911   8.093
 4967SOL    HW115644   2.625   2.889   8.165
 4967SOL    HW215645   2.489   2.948   8.135
 4968SOL     OW15646   2.575   3.015   9.257
 4968SOL    HW115647   2.623   3.092   9.287
 4968SOL    HW215648   2.493   3.049   9.221
 4969SOL     OW15649   2.192   3.285   8.516
 4969SOL    HW115650   2.119   3.247   8.467
 4969SOL    HW215651   2.241   3.336   8.450
 4970SOL     OW15652   3.322   3.362   8.805
 4970SOL    HW115653   3.374   3.442   8.814
 4970SOL    HW215654   3.257   3.367   8.875
 4971SOL     OW15655   3.472   2.309   8.189
 4971SOL    HW115656   3.398   2.330   8.134
 4971SOL    HW215657   3.484   2.386   8.245
 4972SOL     OW15658   2.081   3.576   7.919
 4972SOL    HW115659   2.102   3.653   7.973
 4972SOL    HW215660   2.155   3.569   7.859
 4973SOL     OW15661   2.999   3.204   9.142
 4973SOL    HW115662   3.039   3.198   9.228
 4973SOL    HW215663   2.947   3.124   9.134
 4974SOL     OW15664   2.094   3.304   7.984
 4974SOL    HW115665   2.075   3.398   7.986
 4974SOL    HW215666   2.034   3.266   8.048
 4975SOL     OW15667   2.121   2.954   8.339
 4975SOL    HW115668   2.115   2.867   8.379
 4975SOL    HW215669   2.063   3.009   8.392
 4976SOL     OW15670   2.471   3.653   8.876
 4976SOL    HW115671   2.389   3.635   8.923
 4976SOL    HW215672   2.494   3.742   8.902
 4977SOL     OW15673   2.441   2.849   7.579
 4977SOL    HW115674   2.490   2.896   7.511
 4977SOL    HW215675   2.479   2.881   7.661
 4978SOL     OW15676   3.458   1.987   8.915
 4978SOL    HW115677   3.470   2.068   8.866
 4978SOL    HW215678   3.442   2.015   9.005
 4979SOL     OW15679   1.967   2.505   8.011
 4979SOL    HW115680   1.931   2.420   8.035
 4979SOL    HW215681   1.964   2.556   8.092
 4980SOL     OW15682   3.704   3.620   7.781
 4980SOL    HW115683   3.770   3.592   7.845
 4980SOL    HW215684   3.726   3.711   7.762
 4981SOL     OW15685   1.896   3.455   7.571
 4981SOL    HW115686   1.877   3.364   7.591
 4981SOL    HW215687   1.872   3.503   7.650
 4982SOL     OW15688   3.551   2.781   8.091
 4982SOL    HW115689   3.634   2.738   8.070
 4982SOL    HW215690   3.529   2.831   8.012
 4983SOL     OW15691   3.509   2.967   7.877
 4983SOL    HW115692   3.595   2.972   7.835
 4983SOL    HW215693   3.514   3.029   7.949
 4984SOL     OW15694   1.993   2.608   9.027
 4984SOL    HW115695   2.032   2.613   9.115
 4984SOL    HW215696   1.934   2.684   9.023
 4985SOL     OW15697   2.476   3.250   8.184
 4985SOL    HW115698   2.429   3.167   8.193
 4985SOL    HW215699   2.461   3.276   8.093
 4986SOL     OW15700   3.150   3.099   8.871
 4986SOL    HW115701   3.181   3.032   8.810
 4986SOL    HW215702   3.208   3.093   8.946
 4987SOL     OW15703   2.673   1.866   7.956
 4987SOL    HW115704   2.715   1.950   7.935
 4987SOL    HW215705   2.580   1.886   7.961
 4988SOL     OW15706   2.037   2.838   8.718
 4988SOL    HW115707   2.125   2.805   8.702
 4988SOL    HW215708   1.979   2.778   8.671
 4989SOL     OW15709   3.393   2.856   7.647
 4989SOL    HW115710   3.323   2.800   7.680
 4989SOL    HW215711   3.434   2.891   7.726
 4990SOL     OW15712   3.047   3.670   9.071
 4990SOL    HW115713   3.056   3.729   8.997
 4990SOL    HW215714   3.064   3.583   9.035
 4991SOL     OW15715   3.329   3.281   8.398
 4991SOL    HW115716   3.261   3.297   8.464
 4991SOL    HW215717   3.316   3.190   8.371
 4992SOL     OW15718   3.519   3.605   8.026
 4992SOL    HW115719   3.500   3.574   7.937
 4992SOL    HW215720   3.496   3.531   8.082
 4993SOL     OW15721   2.499   2.620   7.740
 4993SOL    HW115722   2.487   2.689   7.674
 4993SOL    HW215723   2.410   2.593   7.763
 4994SOL     OW15724   3.141   2.217   8.381
 4994SOL    HW115725   3.051   2.184   8.390
 4994SOL    HW215726   3.192   2.163   8.441
 4995SOL     OW15727   3.442   3.533   7.757
 4995SOL    HW115728   3.533   3.563   7.750
 4995SOL    HW215729   3.415   3.516   7.667
 4996SOL     OW15730   2.670   2.457   8.909
 4996SOL    HW115731   2.678   2.462   9.004
 4996SOL    HW215732   2.593   2.402   8.894
 4997SOL     OW15733   3.256   2.336   9.126
 4997SOL    HW115734   3.258   2.381   9.211
 4997SOL    HW215735   3.315   2.262   9.136
 4998SOL     OW15736   2.815   2.747   9.029
 4998SOL    HW115737   2.873   2.681   8.991
 4998SOL    HW215738   2.770   2.786   8.954
 4999SOL     OW15739   2.864   2.276   8.686
 4999SOL    HW115740   2.786   2.312   8.727
 4999SOL    HW215741   2.833   2.236   8.605
 5000SOL     OW15742   2.940   2.576   7.877
 5000SOL    HW115743   2.950   2.565   7.971
 5000SOL    HW215744   2.859   2.530   7.856
 5001SOL     OW15745   1.951   2.682   8.224
 5001SOL    HW115746   2.032   2.679   8.275
 5001SOL    HW215747   1.905   2.759   8.257
 5002SOL     OW15748   1.988   3.717   9.028
 5002SOL    HW115749   1.990   3.694   9.121
 5002SOL    HW215750   1.898   3.698   9.000
 5003SOL     OW15751   2.760   2.213   7.643
 5003SOL    HW115752   2.801   2.270   7.579
 5003SOL    HW215753   2.759   2.127   7.601
 5004SOL     OW15754   3.570   2.435   9.276
 5004SOL    HW115755   3.532   2.509   9.228
 5004SOL    HW215756   3.598   2.373   9.208
 5005SOL     OW15757   3.241   3.004   7.989
 5005SOL    HW115758   3.319   2.992   7.936
 5005SOL    HW215759   3.187   3.066   7.939
 5006SOL     OW15760   2.866   3.306   7.919
 5006SOL    HW115761   2.831   3.380   7.870
 5006SOL    HW215762   2.847   3.326   8.010
 5007SOL     OW15763   2.216   3.672   8.312
 5007SOL    HW115764   2.260   3.587   8.320
 5007SOL    HW215765   2.285   3.736   8.331
 5008SOL     OW15766   3.660   2.920   8.317
 5008SOL    HW115767   3.607   2.899   8.240
 5008SOL    HW215768   3.598   2.925   8.389
 5009SOL     OW15769   3.089   3.401   8.961
 5009SOL    HW115770   3.076   3.328   9.022
 5009SOL    HW215771   3.026   3.385   8.892
 5010SOL     OW15772   2.182   2.811   7.698
 5010SOL    HW115773   2.264   2.827   7.652
 5010SOL    HW215774   2.144   2.735   7.654
 5011SOL     OW15775   3.343   2.605   8.173
 5011SOL    HW115776   3.334   2.565   8.259
 5011SOL    HW215777   3.419   2.662   8.180
 5012SOL     OW15778   2.329   3.127   9.185
 5012SOL    HW115779   2.302   3.132   9.094
 5012SOL    HW215780   2.246   3.126   9.234
 5013SOL     OW15781   2.984   3.640   7.678
 5013SOL    HW115782   2.911   3.599   7.723
 5013SOL    HW215783   3.008   3.578   7.609
 5014SOL     OW15784   3.491   3.242   7.536
 5014SOL    HW115785   3.449   3.327   7.521
 5014SOL    HW215786   3.422   3.178   7.517
 5015SOL     OW15787   2.327   3.599   7.768
 5015SOL    HW115788   2.370   3.656   7.832
 5015SOL    HW215789   2.398   3.566   7.713
 5016SOL     OW15790   3.263   1.970   7.883
 5016SOL    HW115791   3.253   1.944   7.791
 5016SOL    HW215792   3.358   1.975   7.896
 5017SOL     OW15793   2.118   3.653   8.679
 5017SOL    HW115794   2.169   3.585   8.724
 5017SOL    HW215795   2.108   3.620   8.590
 5018SOL     OW15796   2.800   3.561   8.346
 5018SOL    HW115797   2.878   3.510   8.368
 5018SOL    HW215798   2.757   3.511   8.277
 5019SOL     OW15799   3.395   2.087   9.173
 5019SOL    HW115800   3.405   2.107   9.266
 5019SOL    HW215801   3.326   2.021   9.170
 5020SOL     OW15802   2.507   1.981   7.556
 5020SOL    HW115803   2.572   1.912   7.568
 5020SOL    HW215804   2.455   1.953   7.482
 5021SOL     OW15805   2.632   2.114   9.199
 5021SOL    HW115806   2.714   2.064   9.201
 5021SOL    HW215807   2.589   2.093   9.281
 5022SOL     OW15808   2.738   3.384   8.642
 5022SOL    HW115809   2.722   3.347   8.555
 5022SOL    HW215810   2.808   3.330   8.679
 5023SOL     OW15811   3.201   2.452   8.881
 5023SOL    HW115812   3.233   2.420   8.966
 5023SOL    HW215813   3.239   2.540   8.873
 5024SOL     OW15814   2.678   3.255   8.390
 5024SOL    HW115815   2.762   3.243   8.346
 5024SOL    HW215816   2.614   3.258   8.318
 5025SOL     OW15817   2.789   2.369   8.357
 5025SOL    HW115818   2.765   2.364   8.265
 5025SOL    HW215819   2.825   2.283   8.378
 5026SOL     OW15820   2.403   1.936   7.948
 5026SOL    HW115821   2.348   1.945   8.026
 5026SOL    HW215822   2.382   2.012   7.895
 5027SOL     OW15823   3.290   3.061   7.489
 5027SOL    HW115824   3.320   2.985   7.539
 5027SOL    HW215825   3.204   3.082   7.526
 5028SOL     OW15826   2.799   2.113   7.904
 5028SOL    HW115827   2.779   2.150   7.818
 5028SOL    HW215828   2.894   2.123   7.912
 5029SOL     OW15829   2.942   2.544   8.901
 5029SOL    HW115830   2.879   2.473   8.905
 5029SOL    HW215831   3.027   2.500   8.896
 5030SOL     OW15832   3.084   3.433   8.242
 5030SOL    HW115833   3.100   3.499   8.175
 5030SOL    HW215834   3.153   3.447   8.307
 5031SOL     OW15835   2.329   3.015   8.180
 5031SOL    HW115836   2.261   2.995   8.244
 5031SOL    HW215837   2.289   2.997   8.095
 5032SOL     OW15838   3.130   3.655   8.057
 5032SOL    HW115839   3.177   3.716   8.001
 5032SOL    HW215840   3.063   3.709   8.100
 5033SOL     OW15841   2.885   2.402   7.470
 5033SOL    HW115842   2.834   2.481   7.451
 5033SOL    HW215843   2.947   2.429   7.538
 5034SOL     OW15844   1.949   2.424   8.828
 5034SOL    HW115845   2.032   2.385   8.853
 5034SOL    HW215846   1.935   2.494   8.892
 5035SOL     OW15847   2.736   2.316   8.093
 5035SOL    HW115848   2.701   2.384   8.035
 5035SOL    HW215849   2.755   2.242   8.036
 5036SOL     OW15850   2.876   1.915   8.199
 5036SOL    HW115851   2.819   1.907   8.122
 5036SOL    HW215852   2.853   1.839   8.254
 5037SOL     OW15853   3.299   3.024   8.305
 5037SOL    HW115854   3.230   2.958   8.306
 5037SOL    HW215855   3.322   3.033   8.212
 5038SOL     OW15856   3.328   2.469   8.422
 5038SOL    HW115857   3.275   2.389   8.426
 5038SOL    HW215858   3.387   2.462   8.497
 5039SOL     OW15859   3.707   2.676   7.831
 5039SOL    HW115860   3.763   2.626   7.890
 5039SOL    HW215861   3.679   2.614   7.764
 5040SOL     OW15862   2.351   3.282   7.604
 5040SOL    HW115863   2.276   3.253   7.656
 5040SOL    HW215864   2.340   3.238   7.519
 5041SOL     OW15865   3.534   3.127   8.091
 5041SOL    HW115866   3.629   3.128   8.107
 5041SOL    HW215867   3.505   3.215   8.114
 5042SOL     OW15868   3.256   2.434   7.519
 5042SOL    HW115869   3.194   2.414   7.589
 5042SOL    HW215870   3.340   2.402   7.552
 5043SOL     OW15871   3.613   3.103   9.018
 5043SOL    HW115872   3.700   3.063   9.015
 5043SOL    HW215873   3.629   3.192   9.047
 5044SOL     OW15874   2.920   3.218   8.782
 5044SOL    HW115875   2.845   3.186   8.832
 5044SOL    HW215876   2.995   3.175   8.822
 5045SOL     OW15877   3.471   3.488   9.103
 5045SOL    HW115878   3.464   3.522   9.014
 5045SOL    HW215879   3.553   3.440   9.104
 5046SOL     OW15880   2.994   3.069   8.553
 5046SOL    HW115881   2.933   3.105   8.617
 5046SOL    HW215882   2.961   3.100   8.468
 5047SOL     OW15883   3.488   2.959   8.525
 5047SOL    HW115884   3.483   3.021   8.598
 5047SOL    HW215885   3.410   2.976   8.473
 5048SOL     OW15886   2.788   1.954   8.843
 5048SOL    HW115887   2.810   1.937   8.751
 5048SOL    HW215888   2.867   1.995   8.879
 5049SOL     OW15889   2.846   2.976   9.169
 5049SOL    HW115890   2.755   2.993   9.191
 5049SOL    HW215891   2.844   2.898   9.113
 5050SOL     OW15892   2.570   2.928   7.813
 5050SOL    HW115893   2.563   2.923   7.908
 5050SOL    HW215894   2.644   2.871   7.791
 5051SOL     OW15895   2.277   2.711   8.700
 5051SOL    HW115896   2.346   2.721   8.765
 5051SOL    HW215897   2.247   2.620   8.710
 5052SOL     OW15898   3.132   2.238   8.725
 5052SOL    HW115899   3.163   2.316   8.771
 5052SOL    HW215900   3.041   2.258   8.702
 5053SOL     OW15901   1.933   3.436   8.803
 5053SOL    HW115902   1.904   3.508   8.747
 5053SOL    HW215903   2.029   3.438   8.796
 5054SOL     OW15904   2.210   2.971   7.935
 5054SOL    HW115905   2.215   3.048   7.879
 5054SOL    HW215906   2.204   2.897   7.874
 5055SOL     OW15907   3.110   3.211   7.837
 5055SOL    HW115908   3.166   3.282   7.868
 5055SOL    HW215909   3.023   3.232   7.871
 5056SOL     OW15910   3.145   3.321   8.595
 5056SOL    HW115911   3.200   3.323   8.673
 5056SOL    HW215912   3.091   3.243   8.606
 5057SOL     OW15913   3.443   2.484   7.928
 5057SOL    HW115914   3.394   2.533   7.994
 5057SOL    HW215915   3.485   2.551   7.874
 5058SOL     OW15916   2.208   3.391   8.761
 5058SOL    HW115917   2.196   3.347   8.677
 5058SOL    HW215918   2.303   3.402   8.769
 5059SOL     OW15919   3.466   2.641   9.131
 5059SOL    HW115920   3.380   2.683   9.125
 5059SOL    HW215921   3.518   2.683   9.063
 5060SOL     OW15922   2.868   1.982   9.205
 5060SOL    HW115923   2.922   2.057   9.178
 5060SOL    HW215924   2.918   1.905   9.177
 5061SOL     OW15925   2.356   1.902   9.205
 5061SOL    HW115926   2.314   1.850   9.136
 5061SOL    HW215927   2.311   1.986   9.202
 5062SOL     OW15928   2.435   2.741   8.473
 5062SOL    HW115929   2.483   2.824   8.469
 5062SOL    HW215930   2.386   2.745   8.556
 5063SOL     OW15931   3.216   2.721   8.474
 5063SOL    HW115932   3.130   2.707   8.434
 5063SOL    HW215933   3.259   2.635   8.467
 5064SOL     OW15934   3.068   2.390   7.714
 5064SOL    HW115935   3.072   2.311   7.769
 5064SOL    HW215936   3.033   2.458   7.771
 5065SOL     OW15937   1.910   3.174   8.724
 5065SOL    HW115938   1.941   3.119   8.796
 5065SOL    HW215939   1.915   3.263   8.758
 5066SOL     OW15940   2.642   2.554   8.535
 5066SOL    HW115941   2.667   2.494   8.465
 5066SOL    HW215942   2.569   2.605   8.499
 5067SOL     OW15943   3.598   2.822   9.302
 5067SOL    HW115944   3.553   2.757   9.247
 5067SOL    HW215945   3.538   2.836   9.375
 5068SOL     OW15946   3.480   2.238   7.813
 5068SOL    HW115947   3.507   2.173   7.878
 5068SOL    HW215948   3.457   2.315   7.864
 5069SOL     OW15949   2.904   2.621   8.406
 5069SOL    HW115950   2.897   2.646   8.498
 5069SOL    HW215951   2.866   2.533   8.402
 5070SOL     OW15952   2.843   3.428   9.167
 5070SOL    HW115953   2.829   3.472   9.083
 5070SOL    HW215954   2.887   3.347   9.143
 5071SOL     OW15955   3.716   3.366   9.053
 5071SOL    HW115956   3.735   3.393   8.963
 5071SOL    HW215957   3.797   3.384   9.101
 5072SOL     OW15958   2.225   2.772   9.245
 5072SOL    HW115959   2.295   2.803   9.303
 5072SOL    HW215960   2.271   2.720   9.179
 5073SOL     OW15961   3.391   2.134   7.575
 5073SOL    HW115962   3.325   2.069   7.602
 5073SOL    HW215963   3.424   2.170   7.657
 5074SOL     OW15964   3.152   2.688   7.478
 5074SOL    HW115965   3.195   2.602   7.483
 5074SOL    HW215966   3.184   2.726   7.396
 5075SOL     OW15967   2.928   3.199   8.302
 5075SOL    HW115968   2.932   3.126   8.240
 5075SOL    HW215969   2.989   3.264   8.267
 5076SOL     OW15970   2.175   2.673   8.391
 5076SOL    HW115971   2.266   2.702   8.391
 5076SOL    HW215972   2.175   2.589   8.437
 5077SOL     OW15973   2.996   2.238   9.129
 5077SOL    HW115974   2.947   2.291   9.193
 5077SOL    HW215975   3.083   2.278   9.127
 5078SOL     OW15976   3.026   2.064   8.918
 5078SOL    HW115977   3.013   2.127   8.990
 5078SOL    HW215978   3.067   2.115   8.849
 5079SOL     OW15979   1.868   3.181   7.642
 5079SOL    HW115980   1.781   3.196   7.605
 5079SOL    HW215981   1.863   3.092   7.676
 5080SOL     OW15982   1.952   3.647   8.387
 5080SOL    HW115983   1.922   3.568   8.342
 5080SOL    HW215984   2.042   3.660   8.356
 5081SOL     OW15985   2.357   3.436   8.353
 5081SOL    HW115986   2.426   3.498   8.378
 5081SOL    HW215987   2.401   3.373   8.296
 5082SOL     OW15988   2.853   2.671   8.672
 5082SOL    HW115989   2.888   2.631   8.751
 5082SOL    HW215990   2.772   2.623   8.654
 5083SOL     OW15991   1.900   2.415   8.560
 5083SOL    HW115992   1.962   2.353   8.522
 5083SOL    HW215993   1.924   2.419   8.653
 5084SOL     OW15994   3.240   2.799   9.106
 5084SOL    HW115995   3.261   2.893   9.103
 5084SOL    HW215996   3.237   2.773   9.014
 5085SOL     OW15997   2.718   2.455   7.799
 5085SOL    HW115998   2.710   2.380   7.740
 5085SOL    HW215999   2.645   2.512   7.776
 5086SOL     OW16000   3.503   2.463   8.632
 5086SOL    HW116001   3.493   2.404   8.707
 5086SOL    HW216002   3.591   2.444   8.598
 5087SOL     OW16003   2.104   3.413   9.174
 5087SOL    HW116004   2.081   3.478   9.240
 5087SOL    HW216005   2.107   3.330   9.222
 5088SOL     OW16006   2.787   3.541   8.917
 5088SOL    HW116007   2.763   3.504   8.832
 5088SOL    HW216008   2.782   3.636   8.904
 5089SOL     OW16009   2.005   3.006   8.925
 5089SOL    HW116010   2.007   2.954   9.005
 5089SOL    HW216011   2.017   2.943   8.855
 5090SOL     OW16012   3.187   2.908   8.669
 5090SOL    HW116013   3.209   2.844   8.602
 5090SOL    HW216014   3.118   2.961   8.631
 5091SOL     OW16015   3.174   2.719   7.755
 5091SOL    HW116016   3.101   2.686   7.807
 5091SOL    HW216017   3.147   2.705   7.664
 5092SOL     OW16018   3.637   3.603   8.601
 5092SOL    HW116019   3.697   3.630   8.530
 5092SOL    HW216020   3.611   3.514   8.578
 5093SOL     OW16021   3.103   3.595   8.559
 5093SOL    HW116022   3.185   3.617   8.515
 5093SOL    HW216023   3.110   3.502   8.578
 5094SOL     OW16024   1.946   3.129   8.460
 5094SOL    HW116025   1.932   3.142   8.553
 5094SOL    HW216026   1.873   3.074   8.432
 5095SOL     OW16027   2.540   3.529   9.180
 5095SOL    HW116028   2.484   3.607   9.174
 5095SOL    HW216029   2.606   3.542   9.113
 5096SOL     OW16030   3.582   2.011   7.956
 5096SOL    HW116031   3.654   1.996   7.895
 5096SOL    HW216032   3.566   1.925   7.996
 5097SOL     OW16033   3.253   3.430   7.934
 5097SOL    HW116034   3.313   3.463   7.867
 5097SOL    HW216035   3.204   3.507   7.963
 5098SOL     OW16036   2.000   3.657   9.290
 5098SOL    HW116037   1.949   3.592   9.339
 5098SOL    HW216038   2.046   3.707   9.358
 5099SOL     OW16039   3.140   2.788   8.119
 5099SOL    HW116040   3.214   2.727   8.126
 5099SOL    HW216041   3.174   2.860   8.066
 5100SOL     OW16042   2.674   3.139   8.875
 5100SOL    HW116043   2.646   3.178   8.958
 5100SOL    HW216044   2.604   3.159   8.814
 5101SOL     OW16045   2.532   3.484   7.604
 5101SOL    HW116046   2.544   3.497   7.509
 5101SOL    HW216047   2.477   3.406   7.611
 5102SOL     OW16048   3.486   3.589   8.839
 5102SOL    HW116049   3.537   3.595   8.758
 5102SOL    HW216050   3.472   3.679   8.866
 5103SOL     OW16051   3.703   2.034   8.415
 5103SOL    HW116052   3.733   1.947   8.388
 5103SOL    HW216053   3.617   2.044   8.375
 5104SOL     OW16054   3.070   3.467   7.480
 5104SOL    HW116055   3.059   3.375   7.507
 5104SOL    HW216056   3.005   3.479   7.411
 5105SOL     OW16057   2.692   2.872   8.822
 5105SOL    HW116058   2.739   2.861   8.739
 5105SOL    HW216059   2.692   2.967   8.837
 5106SOL     OW16060   2.781   2.779   7.737
 5106SOL    HW116061   2.843   2.810   7.671
 5106SOL    HW216062   2.830   2.712   7.785
 5107SOL     OW16063   3.353   3.488   7.491
 5107SOL    HW116064   3.258   3.480   7.477
 5107SOL    HW216065   3.390   3.494   7.403
 5108SOL     OW16066   2.231   3.166   8.940
 5108SOL    HW116067   2.217   3.242   8.884
 5108SOL    HW216068   2.153   3.112   8.925
 5109SOL     OW16069   3.472   3.145   8.728
 5109SOL    HW116070   3.531   3.132   8.803
 5109SOL    HW216071   3.412   3.213   8.757
 5110SOL     OW16072   2.919   2.970   8.156
 5110SOL    HW116073   2.848   2.919   8.195
 5110SOL    HW216074   2.981   2.904   8.126
 5111SOL     OW16075   2.883   2.102   8.414
 5111SOL    HW116076   2.880   2.054   8.331
 5111SOL    HW216077   2.880   2.034   8.481
 5112SOL     OW16078   2.466   3.350   7.929
 5112SOL    HW116079   2.512   3.300   7.861
 5112SOL    HW216080   2.394   3.393   7.882
 5113SOL     OW16081   3.585   2.254   8.828
 5113SOL    HW116082   3.657   2.317   8.827
 5113SOL    HW216083   3.615   2.183   8.772
 5114SOL     OW16084   2.122   3.206   7.738
 5114SOL    HW116085   2.029   3.203   7.714
 5114SOL    HW216086   2.123   3.244   7.826
 5115SOL     OW16087   1.976   2.886   9.171
 5115SOL    HW116088   1.900   2.861   9.223
 5115SOL    HW216089   2.050   2.844   9.216
 5116SOL     OW16090   2.547   2.042   8.945
 5116SOL    HW116091   2.633   2.021   8.907
 5116SOL    HW216092   2.567   2.076   9.032
 5117SOL     OW16093   1.880   2.235   7.490
 5117SOL    HW116094   1.800   2.192   7.463
 5117SOL    HW216095   1.911   2.280   7.411
 5118SOL     OW16096   3.291   2.720   8.848
 5118SOL    HW116097   3.241   2.781   8.792
 5118SOL    HW216098   3.379   2.723   8.812
 5119SOL     OW16099   3.040   3.200   7.565
 5119SOL    HW116100   2.951   3.167   7.568
 5119SOL    HW216101   3.069   3.201   7.657
 5120SOL     OW16102   2.490   2.702   8.872
 5120SOL    HW116103   2.547   2.778   8.860
 5120SOL    HW216104   2.550   2.628   8.881
 5121SOL     OW16105   3.345   3.641   8.428
 5121SOL    HW116106   3.367   3.702   8.358
 5121SOL    HW216107   3.429   3.619   8.469
 5122SOL     OW16108   3.334   3.060   9.079
 5122SOL    HW116109   3.322   3.074   9.173
 5122SOL    HW216110   3.427   3.077   9.064
 5123SOL     OW16111   2.239   3.601   9.013
 5123SOL    HW116112   2.155   3.644   8.998
 5123SOL    HW216113   2.217   3.518   9.055
 5124SOL     OW16114   3.530   2.743   8.703
 5124SOL    HW116115   3.525   2.657   8.661
 5124SOL    HW216116   3.520   2.806   8.632
 5125SOL     OW16117   3.077   2.180   7.907
 5125SOL    HW116118   3.141   2.109   7.898
 5125SOL    HW216119   3.107   2.230   7.983
 5126SOL     OW16120   2.523   2.648   8.108
 5126SOL    HW116121   2.546   2.739   8.093
 5126SOL    HW216122   2.434   2.639   8.074
 5127SOL     OW16123   3.622   2.224   9.099
 5127SOL    HW116124   3.606   2.240   9.006
 5127SOL    HW216125   3.550   2.168   9.127
 5128SOL     OW16126   3.609   2.795   8.960
 5128SOL    HW116127   3.602   2.890   8.972
 5128SOL    HW216128   3.592   2.782   8.866
 5129SOL     OW16129   2.722   3.228   7.483
 5129SOL    HW116130   2.687   3.255   7.568
 5129SOL    HW216131   2.742   3.310   7.438
 5130SOL     OW16132   2.523   3.651   8.391
 5130SOL    HW116133   2.504   3.742   8.368
 5130SOL    HW216134   2.618   3.644   8.384
 5131SOL     OW16135   2.732   2.834   8.304
 5131SOL    HW116136   2.777   2.757   8.339
 5131SOL    HW216137   2.697   2.878   8.381
 5132SOL     OW16138   2.944   2.855   7.536
 5132SOL    HW116139   2.921   2.903   7.456
 5132SOL    HW216140   3.016   2.798   7.511
 5133SOL     OW16141   3.715   3.417   8.292
 5133SOL    HW116142   3.636   3.404   8.239
 5133SOL    HW216143   3.709   3.349   8.359
 5134SOL     OW16144   2.087   3.164   9.304
 5134SOL    HW116145   2.020   3.104   9.272
 5134SOL    HW216146   2.066   3.178   9.396
 5135SOL     OW16147   1.947   3.095   8.114
 5135SOL    HW116148   1.950   3.047   8.196
 5135SOL    HW216149   2.013   3.054   8.059
 5136SOL     OW16150   2.543   3.267   9.076
 5136SOL    HW116151   2.463   3.224   9.107
 5136SOL    HW216152   2.539   3.355   9.114
 5137SOL     OW16153   3.675   2.045   8.686
 5137SOL    HW116154   3.682   1.951   8.699
 5137SOL    HW216155   3.685   2.057   8.591
 5138SOL     OW16156   3.560   3.351   8.544
 5138SOL    HW116157   3.481   3.329   8.495
 5138SOL    HW216158   3.570   3.281   8.608
 5139SOL     OW16159   2.690   3.440   8.125
 5139SOL    HW116160   2.674   3.496   8.049
 5139SOL    HW216161   2.615   3.381   8.128
 5140SOL     OW16162   3.294   2.087   8.565
 5140SOL    HW116163   3.317   2.006   8.610
 5140SOL    HW216164   3.244   2.138   8.629
 5141SOL     OW16165   2.872   1.879   8.587
 5141SOL    HW116166   2.818   1.809   8.549
 5141SOL    HW216167   2.960   1.842   8.590
 5142SOL     OW16168   2.636   3.197   7.763
 5142SOL    HW116169   2.606   3.106   7.769
 5142SOL    HW216170   2.717   3.198   7.814
 5143SOL     OW16171   2.482   3.418   8.733
 5143SOL    HW116172   2.484   3.500   8.783
 5143SOL    HW216173   2.569   3.410   8.696
 5144SOL     OW16174   3.215   1.915   7.614
 5144SOL    HW116175   3.244   1.849   7.552
 5144SOL    HW216176   3.127   1.887   7.640
 5145SOL     OW16177   3.159   2.323   8.128
 5145SOL    HW116178   3.106   2.403   8.134
 5145SOL    HW216179   3.154   2.285   8.216
 5146SOL     OW16180   3.448   2.062   8.327
 5146SOL    HW116181   3.389   2.083   8.399
 5146SOL    HW216182   3.448   2.140   8.271
 5147SOL     OW16183   1.904   2.931   7.756
 5147SOL    HW116184   1.998   2.923   7.738
 5147SOL    HW216185   1.877   2.842   7.779
 5148SOL     OW16186   2.748   3.517   7.789
 5148SOL    HW116187   2.675   3.500   7.730
 5148SOL    HW216188   2.719   3.592   7.842
 5149SOL     OW16189   2.058   2.530   9.420
 5149SOL    HW116190   1.974   2.505   9.457
 5149SOL    HW216191   2.078   2.461   9.357
 5150SOL     OW16192   1.834   2.268   9.934
 5150SOL    HW116193   1.754   2.292   9.980
 5150SOL    HW216194   1.823   2.175   9.914
 5151SOL     OW16195   2.429   3.152  10.488
 5151SOL    HW116196   2.342   3.156  10.448
 5151SOL    HW216197   2.444   3.241  10.521
 5152SOL     OW16198   3.426   3.374  10.017
 5152SOL    HW116199   3.384   3.353  10.100
 5152SOL    HW216200   3.354   3.378   9.954
 5153SOL     OW16201   2.994   2.560  10.009
 5153SOL    HW116202   3.042   2.641   9.994
 5153SOL    HW216203   2.951   2.573  10.094
 5154SOL     OW16204   3.632   2.466   9.538
 5154SOL    HW116205   3.610   2.459   9.445
 5154SOL    HW216206   3.594   2.387   9.577
 5155SOL     OW16207   2.614   3.003  10.353
 5155SOL    HW116208   2.546   3.039  10.410
 5155SOL    HW216209   2.650   3.079  10.308
 5156SOL     OW16210   2.689   2.671   0.028
 5156SOL    HW116211   2.716   2.711   0.111
 5156SOL    HW216212   2.742   2.715  11.062
 5157SOL     OW16213   2.555   2.887   9.954
 5157SOL    HW116214   2.617   2.867  10.024
 5157SOL    HW216215   2.484   2.934   9.997
 5158SOL     OW16216   2.194   3.283  10.376
 5158SOL    HW116217   2.119   3.247  10.329
 5158SOL    HW216218   2.241   3.335  10.311
 5159SOL     OW16219   3.325   3.361  10.663
 5159SOL    HW116220   3.383   3.437  10.669
 5159SOL    HW216221   3.264   3.371  10.736
 5160SOL     OW16222   3.472   2.309  10.052
 5160SOL    HW116223   3.398   2.330   9.995
 5160SOL    HW216224   3.485   2.387  10.105
 5161SOL     OW16225   2.081   3.576   9.781
 5161SOL    HW116226   2.102   3.652   9.835
 5161SOL    HW216227   2.155   3.569   9.721
 5162SOL     OW16228   2.094   3.304   9.846
 5162SOL    HW116229   2.076   3.398   9.848
 5162SOL    HW216230   2.033   3.266   9.910
 5163SOL     OW16231   2.121   2.958  10.200
 5163SOL    HW116232   2.116   2.870  10.237
 5163SOL    HW216233   2.062   3.010  10.254
 5164SOL     OW16234   2.470   3.651  10.737
 5164SOL    HW116235   2.391   3.632  10.787
 5164SOL    HW216236   2.493   3.740  10.762
 5165SOL     OW16237   2.441   2.856   9.439
 5165SOL    HW116238   2.490   2.902   9.370
 5165SOL    HW216239   2.479   2.889   9.520
 5166SOL     OW16240   3.450   1.980  10.777
 5166SOL    HW116241   3.471   2.060  10.728
 5166SOL    HW216242   3.459   2.005  10.869
 5167SOL     OW16243   1.967   2.509   9.869
 5167SOL    HW116244   1.931   2.424   9.893
 5167SOL    HW216245   1.968   2.559   9.951
 5168SOL     OW16246   3.704   3.620   9.643
 5168SOL    HW116247   3.770   3.592   9.707
 5168SOL    HW216248   3.726   3.711   9.624
 5169SOL     OW16249   1.896   3.455   9.433
 5169SOL    HW116250   1.876   3.364   9.453
 5169SOL    HW216251   1.872   3.503   9.512
 5170SOL     OW16252   3.551   2.781   9.953
 5170SOL    HW116253   3.634   2.738   9.933
 5170SOL    HW216254   3.529   2.831   9.874
 5171SOL     OW16255   3.509   2.967   9.739
 5171SOL    HW116256   3.595   2.972   9.698
 5171SOL    HW216257   3.514   3.029   9.812
 5172SOL     OW16258   1.992   2.602  10.891
 5172SOL    HW116259   2.016   2.597  10.983
 5172SOL    HW216260   1.935   2.679  10.885
 5173SOL     OW16261   2.476   3.250  10.046
 5173SOL    HW116262   2.430   3.167  10.055
 5173SOL    HW216263   2.461   3.276   9.955
 5174SOL     OW16264   3.153   3.098  10.753
 5174SOL    HW116265   3.179   3.038  10.683
 5174SOL    HW216266   3.211   3.075  10.826
 5175SOL     OW16267   2.676   1.864   9.819
 5175SOL    HW116268   2.717   1.947   9.796
 5175SOL    HW216269   2.583   1.883   9.825
 5176SOL     OW16270   2.039   2.838  10.573
 5176SOL    HW116271   2.124   2.795  10.566
 5176SOL    HW216272   1.977   2.775  10.534
 5177SOL     OW16273   3.393   2.857   9.509
 5177SOL    HW116274   3.323   2.800   9.541
 5177SOL    HW216275   3.435   2.891   9.589
 5178SOL     OW16276   3.059   3.669  10.929
 5178SOL    HW116277   3.055   3.734  10.858
 5178SOL    HW216278   3.069   3.585  10.883
 5179SOL     OW16279   3.329   3.281  10.260
 5179SOL    HW116280   3.261   3.298  10.325
 5179SOL    HW216281   3.316   3.190  10.233
 5180SOL     OW16282   3.519   3.605   9.888
 5180SOL    HW116283   3.500   3.574   9.799
 5180SOL    HW216284   3.496   3.531   9.944
 5181SOL     OW16285   2.526   2.639   9.605
 5181SOL    HW116286   2.521   2.697   9.529
 5181SOL    HW216287   2.443   2.653   9.651
 5182SOL     OW16288   3.141   2.218  10.243
 5182SOL    HW116289   3.052   2.184  10.251
 5182SOL    HW216290   3.192   2.164  10.303
 5183SOL     OW16291   3.442   3.533   9.620
 5183SOL    HW116292   3.532   3.563   9.612
 5183SOL    HW216293   3.415   3.516   9.529
 5184SOL     OW16294   2.831   2.758  10.905
 5184SOL    HW116295   2.873   2.684  10.862
 5184SOL    HW216296   2.781   2.801  10.835
 5185SOL     OW16297   2.862   2.270  10.544
 5185SOL    HW116298   2.781   2.304  10.580
 5185SOL    HW216299   2.836   2.230  10.460
 5186SOL     OW16300   2.923   2.566   9.735
 5186SOL    HW116301   2.937   2.559   9.829
 5186SOL    HW216302   2.841   2.519   9.720
 5187SOL     OW16303   1.951   2.687  10.083
 5187SOL    HW116304   2.032   2.682  10.133
 5187SOL    HW216305   1.904   2.762  10.119
 5188SOL     OW16306   1.989   3.712  10.900
 5188SOL    HW116307   1.973   3.673  10.985
 5188SOL    HW216308   1.906   3.703  10.853
 5189SOL     OW16309   2.759   2.210   9.504
 5189SOL    HW116310   2.797   2.272   9.442
 5189SOL    HW216311   2.762   2.126   9.459
 5190SOL     OW16312   3.240   3.004   9.851
 5190SOL    HW116313   3.319   2.992   9.798
 5190SOL    HW216314   3.187   3.066   9.801
 5191SOL     OW16315   2.866   3.306   9.781
 5191SOL    HW116316   2.831   3.380   9.732
 5191SOL    HW216317   2.846   3.326   9.872
 5192SOL     OW16318   2.216   3.672  10.174
 5192SOL    HW116319   2.260   3.587  10.181
 5192SOL    HW216320   2.284   3.736  10.194
 5193SOL     OW16321   3.660   2.919  10.179
 5193SOL    HW116322   3.607   2.899  10.103
 5193SOL    HW216323   3.598   2.924  10.252
 5194SOL     OW16324   3.092   3.398  10.823
 5194SOL    HW116325   3.100   3.309  10.856
 5194SOL    HW216326   3.026   3.391  10.753
 5195SOL     OW16327   2.187   2.808   9.563
 5195SOL    HW116328   2.266   2.829   9.513
 5195SOL    HW216329   2.148   2.734   9.516
 5196SOL     OW16330   3.342   2.606  10.035
 5196SOL    HW116331   3.334   2.565  10.122
 5196SOL    HW216332   3.420   2.662  10.042
 5197SOL     OW16333   2.313   3.129  11.053
 5197SOL    HW116334   2.285   3.142  10.963
 5197SOL    HW216335   2.252   3.065  11.088
 5198SOL     OW16336   2.984   3.640   9.540
 5198SOL    HW116337   2.910   3.599   9.585
 5198SOL    HW216338   3.008   3.578   9.472
 5199SOL     OW16339   3.491   3.243   9.398
 5199SOL    HW116340   3.449   3.327   9.383
 5199SOL    HW216341   3.422   3.178   9.379
 5200SOL     OW16342   2.327   3.599   9.630
 5200SOL    HW116343   2.370   3.656   9.694
 5200SOL    HW216344   2.398   3.567   9.575
 5201SOL     OW16345   3.263   1.969   9.745
 5201SOL    HW116346   3.253   1.944   9.653
 5201SOL    HW216347   3.358   1.975   9.758
 5202SOL     OW16348   2.118   3.654  10.542
 5202SOL    HW116349   2.168   3.589  10.591
 5202SOL    HW216350   2.110   3.617  10.454
 5203SOL     OW16351   2.800   3.561  10.209
 5203SOL    HW116352   2.880   3.511  10.228
 5203SOL    HW216353   2.757   3.511  10.139
 5204SOL     OW16354   2.511   1.983   9.414
 5204SOL    HW116355   2.566   1.908   9.438
 5204SOL    HW216356   2.452   1.949   9.347
 5205SOL     OW16357   2.625   2.147  11.047
 5205SOL    HW116358   2.688   2.089  11.090
 5205SOL    HW216359   2.558   2.164   0.013
 5206SOL     OW16360   2.737   3.384  10.504
 5206SOL    HW116361   2.722   3.348  10.417
 5206SOL    HW216362   2.810   3.332  10.538
 5207SOL     OW16363   3.198   2.458  10.758
 5207SOL    HW116364   3.254   2.435  10.832
 5207SOL    HW216365   3.229   2.545  10.731
 5208SOL     OW16366   2.678   3.255  10.252
 5208SOL    HW116367   2.763   3.243  10.208
 5208SOL    HW216368   2.615   3.258  10.180
 5209SOL     OW16369   2.785   2.366  10.219
 5209SOL    HW116370   2.770   2.362  10.125
 5209SOL    HW216371   2.821   2.280  10.242
 5210SOL     OW16372   2.408   1.934   9.816
 5210SOL    HW116373   2.357   1.950   9.895
 5210SOL    HW216374   2.402   2.016   9.767
 5211SOL     OW16375   3.290   3.061   9.351
 5211SOL    HW116376   3.320   2.985   9.401
 5211SOL    HW216377   3.205   3.082   9.388
 5212SOL     OW16378   2.801   2.108   9.764
 5212SOL    HW116379   2.776   2.148   9.681
 5212SOL    HW216380   2.896   2.121   9.770
 5213SOL     OW16381   2.927   2.535  10.766
 5213SOL    HW116382   2.878   2.470  10.816
 5213SOL    HW216383   3.017   2.502  10.765
 5214SOL     OW16384   3.084   3.433  10.105
 5214SOL    HW116385   3.100   3.499  10.037
 5214SOL    HW216386   3.153   3.448  10.169
 5215SOL     OW16387   2.330   3.015  10.041
 5215SOL    HW116388   2.261   2.997  10.105
 5215SOL    HW216389   2.289   2.997   9.956
 5216SOL     OW16390   3.130   3.655   9.919
 5216SOL    HW116391   3.177   3.716   9.863
 5216SOL    HW216392   3.063   3.709   9.962
 5217SOL     OW16393   2.884   2.402   9.331
 5217SOL    HW116394   2.835   2.482   9.313
 5217SOL    HW216395   2.947   2.427   9.398
 5218SOL     OW16396   1.964   2.411  10.693
 5218SOL    HW116397   2.043   2.366  10.721
 5218SOL    HW216398   1.954   2.484  10.755
 5219SOL     OW16399   2.753   2.313   9.952
 5219SOL    HW116400   2.720   2.377   9.889
 5219SOL    HW216401   2.771   2.235   9.899
 5220SOL     OW16402   2.874   1.915  10.062
 5220SOL    HW116403   2.820   1.906   9.984
 5220SOL    HW216404   2.853   1.839  10.116
 5221SOL     OW16405   3.299   3.024  10.167
 5221SOL    HW116406   3.230   2.957  10.167
 5221SOL    HW216407   3.323   3.034  10.075
 5222SOL     OW16408   3.327   2.470  10.284
 5222SOL    HW116409   3.275   2.390  10.287
 5222SOL    HW216410   3.387   2.463  10.359
 5223SOL     OW16411   3.707   2.676   9.693
 5223SOL    HW116412   3.763   2.626   9.752
 5223SOL    HW216413   3.679   2.614   9.626
 5224SOL     OW16414   2.352   3.282   9.466
 5224SOL    HW116415   2.276   3.253   9.517
 5224SOL    HW216416   2.341   3.238   9.381
 5225SOL     OW16417   3.534   3.126   9.954
 5225SOL    HW116418   3.629   3.128   9.969
 5225SOL    HW216419   3.505   3.215   9.976
 5226SOL     OW16420   3.256   2.434   9.381
 5226SOL    HW116421   3.194   2.414   9.451
 5226SOL    HW216422   3.340   2.401   9.414
 5227SOL     OW16423   3.620   3.091  10.862
 5227SOL    HW116424   3.711   3.064  10.863
 5227SOL    HW216425   3.621   3.178  10.904
 5228SOL     OW16426   2.924   3.217  10.650
 5228SOL    HW116427   2.846   3.183  10.693
 5228SOL    HW216428   2.996   3.168  10.689
 5229SOL     OW16429   2.994   3.072  10.414
 5229SOL    HW116430   2.927   3.103  10.474
 5229SOL    HW216431   2.965   3.100  10.328
 5230SOL     OW16432   3.489   2.959  10.388
 5230SOL    HW116433   3.485   3.021  10.461
 5230SOL    HW216434   3.410   2.978  10.336
 5231SOL     OW16435   2.794   1.955  10.704
 5231SOL    HW116436   2.814   1.938  10.612
 5231SOL    HW216437   2.872   1.998  10.739
 5232SOL     OW16438   2.570   2.930   9.677
 5232SOL    HW116439   2.559   2.918   9.771
 5232SOL    HW216440   2.645   2.876   9.654
 5233SOL     OW16441   2.266   2.690  10.583
 5233SOL    HW116442   2.342   2.709  10.638
 5233SOL    HW216443   2.228   2.610  10.621
 5234SOL     OW16444   3.131   2.242  10.592
 5234SOL    HW116445   3.159   2.322  10.636
 5234SOL    HW216446   3.041   2.260  10.565
 5235SOL     OW16447   1.933   3.439  10.664
 5235SOL    HW116448   1.905   3.510  10.607
 5235SOL    HW216449   2.029   3.439  10.657
 5236SOL     OW16450   2.210   2.970   9.797
 5236SOL    HW116451   2.215   3.048   9.741
 5236SOL    HW216452   2.205   2.897   9.735
 5237SOL     OW16453   3.110   3.211   9.699
 5237SOL    HW116454   3.166   3.282   9.730
 5237SOL    HW216455   3.023   3.232   9.733
 5238SOL     OW16456   3.144   3.322  10.455
 5238SOL    HW116457   3.202   3.325  10.532
 5238SOL    HW216458   3.092   3.243  10.467
 5239SOL     OW16459   3.443   2.484   9.791
 5239SOL    HW116460   3.394   2.534   9.856
 5239SOL    HW216461   3.486   2.549   9.736
 5240SOL     OW16462   2.207   3.389  10.622
 5240SOL    HW116463   2.195   3.345  10.537
 5240SOL    HW216464   2.301   3.402  10.629
 5241SOL     OW16465   3.458   2.620  10.966
 5241SOL    HW116466   3.382   2.676  10.958
 5241SOL    HW216467   3.529   2.669  10.925
 5242SOL     OW16468   2.432   2.741  10.346
 5242SOL    HW116469   2.480   2.823  10.339
 5242SOL    HW216470   2.387   2.747  10.430
 5243SOL     OW16471   3.216   2.723  10.342
 5243SOL    HW116472   3.132   2.711  10.297
 5243SOL    HW216473   3.260   2.638  10.333
 5244SOL     OW16474   3.067   2.390   9.576
 5244SOL    HW116475   3.072   2.311   9.630
 5244SOL    HW216476   3.026   2.456   9.632
 5245SOL     OW16477   1.914   3.176  10.584
 5245SOL    HW116478   1.940   3.119  10.657
 5245SOL    HW216479   1.914   3.264  10.621
 5246SOL     OW16480   2.645   2.541  10.401
 5246SOL    HW116481   2.665   2.476  10.334
 5246SOL    HW216482   2.573   2.593  10.363
 5247SOL     OW16483   3.480   2.238   9.675
 5247SOL    HW116484   3.507   2.173   9.740
 5247SOL    HW216485   3.457   2.315   9.726
 5248SOL     OW16486   2.900   2.620  10.266
 5248SOL    HW116487   2.895   2.645  10.359
 5248SOL    HW216488   2.861   2.533  10.263
 5249SOL     OW16489   2.834   3.435  11.004
 5249SOL    HW116490   2.820   3.485  10.923
 5249SOL    HW216491   2.863   3.348  10.974
 5250SOL     OW16492   3.717   3.353  10.911
 5250SOL    HW116493   3.735   3.389  10.825
 5250SOL    HW216494   3.781   3.395  10.969
 5251SOL     OW16495   2.231   2.770  11.080
 5251SOL    HW116496   2.311   2.797   0.026
 5251SOL    HW216497   2.263   2.724  11.002
 5252SOL     OW16498   3.391   2.134   9.437
 5252SOL    HW116499   3.325   2.070   9.464
 5252SOL    HW216500   3.424   2.170   9.519
 5253SOL     OW16501   3.153   2.687   9.340
 5253SOL    HW116502   3.196   2.602   9.344
 5253SOL    HW216503   3.185   2.726   9.258
 5254SOL     OW16504   2.929   3.198  10.165
 5254SOL    HW116505   2.932   3.126  10.102
 5254SOL    HW216506   2.989   3.263  10.129
 5255SOL     OW16507   2.170   2.684  10.253
 5255SOL    HW116508   2.264   2.704  10.258
 5255SOL    HW216509   2.160   2.606  10.307
 5256SOL     OW16510   3.025   2.070  10.784
 5256SOL    HW116511   3.037   2.125  10.861
 5256SOL    HW216512   3.066   2.119  10.713
 5257SOL     OW16513   1.868   3.181   9.504
 5257SOL    HW116514   1.781   3.197   9.466
 5257SOL    HW216515   1.863   3.092   9.539
 5258SOL     OW16516   1.951   3.648  10.248
 5258SOL    HW116517   1.922   3.568  10.203
 5258SOL    HW216518   2.041   3.660  10.218
 5259SOL     OW16519   2.357   3.437  10.215
 5259SOL    HW116520   2.426   3.499  10.239
 5259SOL    HW216521   2.401   3.374  10.158
 5260SOL     OW16522   2.849   2.669  10.534
 5260SOL    HW116523   2.882   2.625  10.613
 5260SOL    HW216524   2.771   2.619  10.510
 5261SOL     OW16525   1.903   2.421  10.426
 5261SOL    HW116526   1.940   2.343  10.386
 5261SOL    HW216527   1.931   2.417  10.517
 5262SOL     OW16528   2.696   2.432   9.680
 5262SOL    HW116529   2.685   2.360   9.617
 5262SOL    HW216530   2.630   2.497   9.653
 5263SOL     OW16531   3.503   2.463  10.493
 5263SOL    HW116532   3.495   2.405  10.569
 5263SOL    HW216533   3.591   2.446  10.459
 5264SOL     OW16534   2.115   3.426  11.050
 5264SOL    HW116535   2.056   3.456   0.019
 5264SOL    HW216536   2.131   3.334  11.069
 5265SOL     OW16537   2.800   3.544  10.756
 5265SOL    HW116538   2.766   3.508  10.675
 5265SOL    HW216539   2.784   3.638  10.750
 5266SOL     OW16540   2.014   3.003  10.783
 5266SOL    HW116541   2.008   2.948  10.861
 5266SOL    HW216542   2.023   2.941  10.711
 5267SOL     OW16543   3.185   2.914  10.538
 5267SOL    HW116544   3.210   2.848  10.473
 5267SOL    HW216545   3.116   2.965  10.495
 5268SOL     OW16546   3.174   2.719   9.616
 5268SOL    HW116547   3.099   2.688   9.667
 5268SOL    HW216548   3.149   2.705   9.525
 5269SOL     OW16549   3.640   3.605  10.463
 5269SOL    HW116550   3.698   3.630  10.392
 5269SOL    HW216551   3.613   3.516  10.441
 5270SOL     OW16552   3.102   3.596  10.421
 5270SOL    HW116553   3.184   3.619  10.377
 5270SOL    HW216554   3.109   3.502  10.439
 5271SOL     OW16555   1.946   3.130  10.321
 5271SOL    HW116556   1.934   3.144  10.415
 5271SOL    HW216557   1.872   3.075  10.295
 5272SOL     OW16558   3.582   2.011   9.818
 5272SOL    HW116559   3.654   1.996   9.757
 5272SOL    HW216560   3.566   1.926   9.858
 5273SOL     OW16561   3.253   3.430   9.796
 5273SOL    HW116562   3.313   3.462   9.729
 5273SOL    HW216563   3.204   3.507   9.825
 5274SOL     OW16564   3.140   2.788   9.981
 5274SOL    HW116565   3.214   2.727   9.988
 5274SOL    HW216566   3.174   2.860   9.928
 5275SOL     OW16567   2.677   3.137  10.735
 5275SOL    HW116568   2.646   3.171  10.819
 5275SOL    HW216569   2.607   3.158  10.674
 5276SOL     OW16570   2.532   3.484   9.466
 5276SOL    HW116571   2.544   3.497   9.371
 5276SOL    HW216572   2.477   3.406   9.473
 5277SOL     OW16573   3.481   3.583  10.693
 5277SOL    HW116574   3.538   3.596  10.618
 5277SOL    HW216575   3.466   3.671  10.728
 5278SOL     OW16576   3.703   2.034  10.278
 5278SOL    HW116577   3.733   1.947  10.251
 5278SOL    HW216578   3.617   2.044  10.237
 5279SOL     OW16579   3.070   3.467   9.342
 5279SOL    HW116580   3.059   3.375   9.369
 5279SOL    HW216581   3.005   3.479   9.273
 5280SOL     OW16582   2.692   2.866  10.692
 5280SOL    HW116583   2.739   2.852  10.610
 5280SOL    HW216584   2.691   2.961  10.702
 5281SOL     OW16585   2.787   2.787   9.603
 5281SOL    HW116586   2.847   2.813   9.534
 5281SOL    HW216587   2.829   2.712   9.646
 5282SOL     OW16588   3.353   3.488   9.353
 5282SOL    HW116589   3.258   3.480   9.339
 5282SOL    HW216590   3.390   3.494   9.265
 5283SOL     OW16591   2.227   3.173  10.806
 5283SOL    HW116592   2.214   3.245  10.745
 5283SOL    HW216593   2.154   3.113  10.788
 5284SOL     OW16594   3.475   3.143  10.593
 5284SOL    HW116595   3.530   3.127  10.670
 5284SOL    HW216596   3.418   3.215  10.620
 5285SOL     OW16597   2.917   2.970  10.019
 5285SOL    HW116598   2.845   2.918  10.056
 5285SOL    HW216599   2.980   2.904   9.987
 5286SOL     OW16600   2.883   2.102  10.276
 5286SOL    HW116601   2.880   2.055  10.193
 5286SOL    HW216602   2.881   2.033  10.343
 5287SOL     OW16603   2.466   3.350   9.791
 5287SOL    HW116604   2.512   3.300   9.723
 5287SOL    HW216605   2.395   3.393   9.744
 5288SOL     OW16606   3.580   2.256  10.690
 5288SOL    HW116607   3.653   2.318  10.693
 5288SOL    HW216608   3.611   2.185  10.634
 5289SOL     OW16609   2.122   3.205   9.600
 5289SOL    HW116610   2.029   3.203   9.576
 5289SOL    HW216611   2.123   3.243   9.688
 5290SOL     OW16612   1.983   2.876  11.023
 5290SOL    HW116613   1.913   2.860  11.086
 5290SOL    HW216614   2.060   2.834  11.061
 5291SOL     OW16615   2.554   2.035  10.804
 5291SOL    HW116616   2.639   2.012  10.766
 5291SOL    HW216617   2.576   2.082  10.885
 5292SOL     OW16618   3.290   2.713  10.710
 5292SOL    HW116619   3.242   2.781  10.663
 5292SOL    HW216620   3.379   2.720  10.677
 5293SOL     OW16621   1.866   2.005   9.615
 5293SOL    HW116622   1.830   2.087   9.579
 5293SOL    HW216623   1.960   2.021   9.620
 5294SOL     OW16624   3.040   3.200   9.427
 5294SOL    HW116625   2.951   3.167   9.430
 5294SOL    HW216626   3.069   3.201   9.519
 5295SOL     OW16627   2.483   2.701  10.740
 5295SOL    HW116628   2.551   2.767  10.726
 5295SOL    HW216629   2.529   2.624  10.771
 5296SOL     OW16630   3.344   3.641  10.290
 5296SOL    HW116631   3.368   3.702  10.221
 5296SOL    HW216632   3.427   3.618  10.332
 5297SOL     OW16633   2.711   2.448  10.967
 5297SOL    HW116634   2.686   2.517  11.029
 5297SOL    HW216635   2.688   2.367  11.011
 5298SOL     OW16636   2.243   3.595  10.873
 5298SOL    HW116637   2.166   3.651  10.865
 5298SOL    HW216638   2.216   3.524  10.931
 5299SOL     OW16639   3.530   2.744  10.568
 5299SOL    HW116640   3.525   2.658  10.525
 5299SOL    HW216641   3.521   2.807  10.497
 5300SOL     OW16642   3.077   2.180   9.769
 5300SOL    HW116643   3.141   2.109   9.760
 5300SOL    HW216644   3.106   2.230   9.845
 5301SOL     OW16645   2.478   2.628   9.968
 5301SOL    HW116646   2.507   2.718   9.952
 5301SOL    HW216647   2.384   2.629   9.953
 5302SOL     OW16648   3.607   2.179  10.957
 5302SOL    HW116649   3.590   2.218  10.871
 5302SOL    HW216650   3.529   2.201  11.009
 5303SOL     OW16651   3.612   2.798  10.825
 5303SOL    HW116652   3.603   2.892  10.839
 5303SOL    HW216653   3.594   2.785  10.732
 5304SOL     OW16654   2.723   3.229   9.345
 5304SOL    HW116655   2.687   3.256   9.430
 5304SOL    HW216656   2.742   3.311   9.300
 5305SOL     OW16657   2.524   3.651  10.253
 5305SOL    HW116658   2.504   3.742  10.231
 5305SOL    HW216659   2.619   3.645  10.245
 5306SOL     OW16660   2.729   2.830  10.165
 5306SOL    HW116661   2.777   2.756  10.201
 5306SOL    HW216662   2.696   2.877  10.242
 5307SOL     OW16663   2.944   2.853   9.396
 5307SOL    HW116664   2.922   2.902   9.317
 5307SOL    HW216665   3.017   2.797   9.370
 5308SOL     OW16666   3.715   3.416  10.154
 5308SOL    HW116667   3.636   3.404  10.101
 5308SOL    HW216668   3.709   3.349  10.222
 5309SOL     OW16669   1.946   3.095   9.976
 5309SOL    HW116670   1.951   3.048  10.059
 5309SOL    HW216671   2.014   3.054   9.922
 5310SOL     OW16672   2.542   3.257  10.941
 5310SOL    HW116673   2.470   3.207  10.979
 5310SOL    HW216674   2.505   3.344  10.926
 5311SOL     OW16675   3.670   2.045  10.549
 5311SOL    HW116676   3.679   1.950  10.560
 5311SOL    HW216677   3.683   2.059  10.455
 5312SOL     OW16678   3.562   3.352  10.406
 5312SOL    HW116679   3.482   3.328  10.359
 5312SOL    HW216680   3.573   3.282  10.470
 5313SOL     OW16681   2.691   3.440   9.987
 5313SOL    HW116682   2.675   3.497   9.911
 5313SOL    HW216683   2.615   3.382   9.990
 5314SOL     OW16684   3.292   2.088  10.428
 5314SOL    HW116685   3.317   2.007  10.472
 5314SOL    HW216686   3.244   2.138  10.494
 5315SOL     OW16687   2.873   1.879  10.448
 5315SOL    HW116688   2.818   1.810  10.410
 5315SOL    HW216689   2.961   1.842  10.451
 5316SOL     OW16690   2.636   3.197   9.626
 5316SOL    HW116691   2.606   3.107   9.632
 5316SOL    HW216692   2.718   3.199   9.675
 5317SOL     OW16693   2.482   3.416  10.598
 5317SOL    HW116694   2.481   3.500  10.644
 5317SOL    HW216695   2.569   3.410  10.558
 5318SOL     OW16696   3.215   1.915   9.477
 5318SOL    HW116697   3.244   1.849   9.414
 5318SOL    HW216698   3.127   1.887   9.502
 5319SOL     OW16699   3.158   2.323   9.990
 5319SOL    HW116700   3.105   2.403   9.996
 5319SOL    HW216701   3.154   2.285  10.078
 5320SOL     OW16702   3.448   2.062  10.189
 5320SOL    HW116703   3.389   2.084  10.261
 5320SOL    HW216704   3.448   2.140  10.133
 5321SOL     OW16705   1.903   2.931   9.618
 5321SOL    HW116706   1.998   2.924   9.602
 5321SOL    HW216707   1.876   2.841   9.639
 5322SOL     OW16708   2.748   3.517   9.651
 5322SOL    HW116709   2.675   3.500   9.592
 5322SOL    HW216710   2.719   3.592   9.704
 5323SOL     OW16711   2.060   4.298   0.088
 5323SOL    HW116712   2.044   4.358   0.160
 5323SOL    HW216713   2.074   4.354   0.012
 5324SOL     OW16714   2.086   4.001   0.991
 5324SOL    HW116715   2.113   3.967   1.076
 5324SOL    HW216716   1.996   3.971   0.981
 5325SOL     OW16717   1.865   4.102   0.643
 5325SOL    HW116718   1.783   4.131   0.683
 5325SOL    HW216719   1.840   4.025   0.591
 5326SOL     OW16720   3.594   4.330   0.232
 5326SOL    HW116721   3.609   4.307   0.140
 5326SOL    HW216722   3.585   4.247   0.277
 5327SOL     OW16723   2.599   0.274   0.688
 5327SOL    HW116724   2.586   0.207   0.755
 5327SOL    HW216725   2.513   0.284   0.646
 5328SOL     OW16726   2.312   4.113   1.482
 5328SOL    HW116727   2.389   4.056   1.490
 5328SOL    HW216728   2.238   4.056   1.502
 5329SOL     OW16729   3.476   4.170   0.742
 5329SOL    HW116730   3.413   4.196   0.675
 5329SOL    HW216731   3.469   4.238   0.810
 5330SOL     OW16732   3.458   3.848   1.467
 5330SOL    HW116733   3.469   3.929   1.417
 5330SOL    HW216734   3.442   3.878   1.557
 5331SOL     OW16735   1.945   4.371   0.563
 5331SOL    HW116736   1.929   4.280   0.589
 5331SOL    HW216737   2.007   4.404   0.628
 5332SOL     OW16738   1.980   4.478   1.584
 5332SOL    HW116739   2.046   4.498   1.650
 5332SOL    HW216740   1.950   0.063   1.554
 5333SOL     OW16741   2.678   3.728   0.510
 5333SOL    HW116742   2.717   3.814   0.492
 5333SOL    HW216743   2.585   3.745   0.518
 5334SOL     OW16744   2.198   3.973   1.816
 5334SOL    HW116745   2.234   4.060   1.829
 5334SOL    HW216746   2.106   3.982   1.840
 5335SOL     OW16747   3.139   4.076   0.933
 5335SOL    HW116748   3.049   4.043   0.943
 5335SOL    HW216749   3.191   4.023   0.993
 5336SOL     OW16750   2.693   4.302   1.446
 5336SOL    HW116751   2.653   4.306   1.533
 5336SOL    HW216752   2.625   4.264   1.390
 5337SOL     OW16753   3.257   4.200   1.676
 5337SOL    HW116754   3.260   4.244   1.761
 5337SOL    HW216755   3.314   4.124   1.687
 5338SOL     OW16756   2.861   4.152   1.233
 5338SOL    HW116757   2.789   4.176   1.292
 5338SOL    HW216758   2.819   4.094   1.168
 5339SOL     OW16759   2.921   4.404   0.420
 5339SOL    HW116760   2.917   4.464   0.495
 5339SOL    HW216761   2.830   4.382   0.402
 5340SOL     OW16762   2.752   4.074   0.209
 5340SOL    HW116763   2.795   4.133   0.148
 5340SOL    HW216764   2.766   3.986   0.172
 5341SOL     OW16765   3.572   4.299   1.830
 5341SOL    HW116766   3.587   4.386   1.794
 5341SOL    HW216767   3.593   4.239   1.759
 5342SOL     OW16768   2.413   3.903   0.894
 5342SOL    HW116769   2.414   3.932   0.985
 5342SOL    HW216770   2.410   3.984   0.842
 5343SOL     OW16771   3.351   4.467   0.740
 5343SOL    HW116772   3.338   4.411   0.817
 5343SOL    HW216773   3.392   0.046   0.775
 5344SOL     OW16774   2.061   4.001   1.505
 5344SOL    HW116775   1.977   4.046   1.499
 5344SOL    HW216776   2.043   3.925   1.560
 5345SOL     OW16777   3.264   3.829   0.433
 5345SOL    HW116778   3.257   3.808   0.340
 5345SOL    HW216779   3.358   3.839   0.448
 5346SOL     OW16780   2.214   4.383   0.404
 5346SOL    HW116781   2.253   4.309   0.451
 5346SOL    HW216782   2.142   4.412   0.460
 5347SOL     OW16783   3.395   3.950   1.725
 5347SOL    HW116784   3.404   3.971   1.818
 5347SOL    HW216785   3.327   3.883   1.722
 5348SOL     OW16786   2.480   3.830   0.128
 5348SOL    HW116787   2.568   3.794   0.119
 5348SOL    HW216788   2.439   3.815   0.042
 5349SOL     OW16789   2.626   4.002   1.755
 5349SOL    HW116790   2.704   3.947   1.753
 5349SOL    HW216791   2.579   3.976   1.834
 5350SOL     OW16792   3.203   4.312   1.430
 5350SOL    HW116793   3.225   4.276   1.515
 5350SOL    HW216794   3.249   4.396   1.427
 5351SOL     OW16795   2.788   4.235   0.898
 5351SOL    HW116796   2.764   4.219   0.807
 5351SOL    HW216797   2.826   4.153   0.927
 5352SOL     OW16798   2.412   3.788   0.503
 5352SOL    HW116799   2.330   3.786   0.553
 5352SOL    HW216800   2.406   3.866   0.449
 5353SOL     OW16801   2.147   3.771   0.202
 5353SOL    HW116802   2.187   3.826   0.135
 5353SOL    HW216803   2.216   3.709   0.226
 5354SOL     OW16804   2.802   3.975   0.463
 5354SOL    HW116805   2.777   4.014   0.379
 5354SOL    HW216806   2.897   3.988   0.468
 5355SOL     OW16807   2.936   4.395   1.529
 5355SOL    HW116808   2.854   4.365   1.491
 5355SOL    HW216809   3.004   4.359   1.472
 5356SOL     OW16810   2.871   4.263   0.041
 5356SOL    HW116811   2.889   4.312  11.061
 5356SOL    HW216812   2.951   4.271   0.093
 5357SOL     OW16813   1.938   4.280   1.394
 5357SOL    HW116814   2.030   4.272   1.367
 5357SOL    HW216815   1.938   4.354   1.456
 5358SOL     OW16816   2.420   3.950   1.165
 5358SOL    HW116817   2.462   3.876   1.208
 5358SOL    HW216818   2.329   3.947   1.196
 5359SOL     OW16819   2.729   4.189   0.639
 5359SOL    HW116820   2.703   4.254   0.573
 5359SOL    HW216821   2.749   4.111   0.588
 5360SOL     OW16822   2.877   3.778   0.750
 5360SOL    HW116823   2.818   3.770   0.675
 5360SOL    HW216824   2.855   3.702   0.805
 5361SOL     OW16825   3.339   4.310   0.962
 5361SOL    HW116826   3.276   4.240   0.982
 5361SOL    HW216827   3.389   4.320   1.044
 5362SOL     OW16828   3.265   4.291   0.073
 5362SOL    HW116829   3.198   4.275   0.140
 5362SOL    HW216830   3.325   4.217   0.083
 5363SOL     OW16831   2.390   3.993   0.327
 5363SOL    HW116832   2.417   3.931   0.259
 5363SOL    HW216833   2.369   4.073   0.279
 5364SOL     OW16834   2.780   3.820   1.394
 5364SOL    HW116835   2.804   3.800   1.304
 5364SOL    HW216836   2.860   3.859   1.432
 5365SOL     OW16837   2.299   0.009   1.281
 5365SOL    HW116838   2.367   4.499   1.347
 5365SOL    HW216839   2.255   4.424   1.279
 5366SOL     OW16840   3.127   4.099   1.277
 5366SOL    HW116841   3.160   4.176   1.322
 5366SOL    HW216842   3.037   4.122   1.252
 5367SOL     OW16843   2.414   4.251   0.865
 5367SOL    HW116844   2.434   4.289   0.779
 5367SOL    HW216845   2.480   4.289   0.923
 5368SOL     OW16846   3.436   4.336   0.483
 5368SOL    HW116847   3.399   4.402   0.541
 5368SOL    HW216848   3.484   4.387   0.417
 5369SOL     OW16849   2.858   3.851   1.755
 5369SOL    HW116850   2.916   3.923   1.731
 5369SOL    HW216851   2.905   3.772   1.729
 5370SOL     OW16852   2.359   3.763   1.749
 5370SOL    HW116853   2.315   3.709   1.683
 5370SOL    HW216854   2.302   3.838   1.761
 5371SOL     OW16855   3.070   4.249   0.261
 5371SOL    HW116856   3.083   4.170   0.315
 5371SOL    HW216857   3.023   4.309   0.318
 5372SOL     OW16858   2.160   3.921   1.247
 5372SOL    HW116859   2.122   3.954   1.329
 5372SOL    HW216860   2.141   3.827   1.248
 5373SOL     OW16861   2.595   4.361   1.040
 5373SOL    HW116862   2.669   4.322   0.993
 5373SOL    HW216863   2.608   4.455   1.032
 5374SOL     OW16864   3.615   0.132   1.852
 5374SOL    HW116865   3.546   0.148   1.788
 5374SOL    HW216866   3.575   0.151   1.936
 5375SOL     OW16867   2.167   3.788   0.624
 5375SOL    HW116868   2.145   3.878   0.646
 5375SOL    HW216869   2.173   3.744   0.709
 5376SOL     OW16870   3.480   4.092   0.365
 5376SOL    HW116871   3.509   4.029   0.430
 5376SOL    HW216872   3.454   4.169   0.416
 5377SOL     OW16873   3.393   4.019   0.113
 5377SOL    HW116874   3.336   3.944   0.129
 5377SOL    HW216875   3.429   4.040   0.200
 5378SOL     OW16876   2.181   0.012   0.918
 5378SOL    HW116877   2.258   0.068   0.930
 5378SOL    HW216878   2.196   4.439   0.978
 5379SOL     OW16879   2.198   4.241   1.022
 5379SOL    HW116880   2.159   4.156   1.004
 5379SOL    HW216881   2.273   4.246   0.963
 5380SOL     OW16882   2.999   4.091   1.688
 5380SOL    HW116883   2.945   4.151   1.740
 5380SOL    HW216884   3.083   4.136   1.679
 5381SOL     OW16885   3.023   3.924   1.470
 5381SOL    HW116886   3.012   3.986   1.542
 5381SOL    HW216887   3.064   3.976   1.400
 5382SOL     OW16888   1.898   4.274   1.116
 5382SOL    HW116889   1.978   4.260   1.066
 5382SOL    HW216890   1.925   4.275   1.207
 5383SOL     OW16891   2.057   4.245   1.716
 5383SOL    HW116892   2.110   4.196   1.653
 5383SOL    HW216893   2.005   4.304   1.663
 5384SOL     OW16894   2.676   4.310   0.328
 5384SOL    HW116895   2.688   4.224   0.288
 5384SOL    HW216896   2.582   4.314   0.347
 5385SOL     OW16897   3.497   4.316   1.185
 5385SOL    HW116898   3.494   4.258   1.261
 5385SOL    HW216899   3.585   4.305   1.150
 5386SOL     OW16900   2.548   4.183   1.251
 5386SOL    HW116901   2.501   4.105   1.220
 5386SOL    HW216902   2.549   4.242   1.175
 5387SOL     OW16903   2.330   4.217   0.180
 5387SOL    HW116904   2.372   4.302   0.196
 5387SOL    HW216905   2.236   4.236   0.179
 5388SOL     OW16906   2.781   3.814   0.101
 5388SOL    HW116907   2.830   3.777   0.027
 5388SOL    HW216908   2.820   3.773   0.178
 5389SOL     OW16909   3.582   3.872   0.509
 5389SOL    HW116910   3.654   3.859   0.447
 5389SOL    HW216911   3.567   3.786   0.548
 5390SOL     OW16912   3.139   0.135   0.681
 5390SOL    HW116913   3.196   0.060   0.698
 5390SOL    HW216914   3.189   0.189   0.619
 5391SOL     OW16915   3.702   3.895   0.967
 5391SOL    HW116916   3.732   3.809   0.940
 5391SOL    HW216917   3.616   3.906   0.926
 5392SOL     OW16918   2.123   4.041   0.717
 5392SOL    HW116919   2.035   4.070   0.693
 5392SOL    HW216920   2.119   4.030   0.812
 5393SOL     OW16921   2.923   0.296   0.733
 5393SOL    HW116922   2.845   0.266   0.687
 5393SOL    HW216923   2.991   0.233   0.708
 5394SOL     OW16924   2.883   3.964   0.964
 5394SOL    HW116925   2.879   3.916   0.882
 5394SOL    HW216926   2.878   3.897   1.032
 5395SOL     OW16927   3.585   4.114   1.380
 5395SOL    HW116928   3.656   4.178   1.378
 5395SOL    HW216929   3.615   4.043   1.323
 5396SOL     OW16930   2.537   3.918   1.500
 5396SOL    HW116931   2.621   3.899   1.459
 5396SOL    HW216932   2.560   3.952   1.586
 5397SOL     OW16933   1.944   4.049   0.058
 5397SOL    HW116934   1.877   4.048  11.090
 5397SOL    HW216935   1.972   4.141   0.063
 5398SOL     OW16936   1.926   3.882   0.311
 5398SOL    HW116937   1.912   3.954   0.249
 5398SOL    HW216938   2.010   3.844   0.285
 5399SOL     OW16939   2.594   4.282   1.700
 5399SOL    HW116940   2.589   4.327   1.784
 5399SOL    HW216941   2.608   4.190   1.722
 5400SOL     OW16942   3.078   4.038   0.456
 5400SOL    HW116943   3.142   3.967   0.447
 5400SOL    HW216944   3.107   4.088   0.532
 5401SOL     OW16945   3.619   4.092   1.650
 5401SOL    HW116946   3.604   4.103   1.556
 5401SOL    HW216947   3.549   4.033   1.678
 5402SOL     OW16948   2.962   0.206   0.051
 5402SOL    HW116949   2.959   0.294   0.013
 5402SOL    HW216950   3.051   0.176   0.033
 5403SOL     OW16951   3.676   3.906   1.238
 5403SOL    HW116952   3.683   3.812   1.251
 5403SOL    HW216953   3.684   3.919   1.143
 5404SOL     OW16954   2.304   4.160   0.538
 5404SOL    HW116955   2.330   4.089   0.478
 5404SOL    HW216956   2.248   4.116   0.603
 5405SOL     OW16957   2.187   4.264   1.296
 5405SOL    HW116958   2.243   4.209   1.349
 5405SOL    HW216959   2.206   4.238   1.205
 5406SOL     OW16960   3.293   3.950   1.117
 5406SOL    HW116961   3.316   3.868   1.162
 5406SOL    HW216962   3.242   3.999   1.181
 5407SOL     OW16963   2.871   3.742   1.141
 5407SOL    HW116964   2.817   3.675   1.098
 5407SOL    HW216965   2.959   3.704   1.143
 5408SOL     OW16966   3.213   3.780   0.164
 5408SOL    HW116967   3.234   3.726   0.087
 5408SOL    HW216968   3.126   3.750   0.191
 5409SOL     OW16969   3.161   4.174   0.679
 5409SOL    HW116970   3.129   4.263   0.692
 5409SOL    HW216971   3.160   4.135   0.766
 5410SOL     OW16972   3.448   3.924   0.879
 5410SOL    HW116973   3.389   3.947   0.951
 5410SOL    HW216974   3.448   4.002   0.823
 5411SOL     OW16975   2.084   4.283   1.985
 5411SOL    HW116976   2.041   4.359   2.023
 5411SOL    HW216977   2.078   4.296   1.891
 5412SOL     OW16978   2.086   4.001   2.853
 5412SOL    HW116979   2.113   3.967   2.938
 5412SOL    HW216980   1.996   3.971   2.843
 5413SOL     OW16981   1.865   4.100   2.505
 5413SOL    HW116982   1.785   4.132   2.545
 5413SOL    HW216983   1.838   4.023   2.455
 5414SOL     OW16984   3.589   4.335   2.101
 5414SOL    HW116985   3.590   4.323   2.006
 5414SOL    HW216986   3.592   4.246   2.135
 5415SOL     OW16987   2.592   0.275   2.550
 5415SOL    HW116988   2.582   0.211   2.620
 5415SOL    HW216989   2.506   0.282   2.510
 5416SOL     OW16990   2.312   4.113   3.344
 5416SOL    HW116991   2.389   4.056   3.352
 5416SOL    HW216992   2.238   4.056   3.364
 5417SOL     OW16993   3.476   4.170   2.603
 5417SOL    HW116994   3.410   4.196   2.538
 5417SOL    HW216995   3.469   4.237   2.671
 5418SOL     OW16996   3.458   3.848   3.329
 5418SOL    HW116997   3.470   3.929   3.279
 5418SOL    HW216998   3.442   3.878   3.419
 5419SOL     OW16999   1.931   4.378   2.437
 5419SOL    HW117000   1.928   4.284   2.454
 5419SOL    HW217001   2.007   4.409   2.488
 5420SOL     OW17002   1.980   4.478   3.446
 5420SOL    HW117003   2.047   4.498   3.512
 5420SOL    HW217004   1.950   0.064   3.416
 5421SOL     OW17005   2.678   3.726   2.371
 5421SOL    HW117006   2.718   3.810   2.351
 5421SOL    HW217007   2.585   3.745   2.380
 5422SOL     OW17008   2.198   3.973   3.677
 5422SOL    HW117009   2.234   4.060   3.692
 5422SOL    HW217010   2.106   3.981   3.702
 5423SOL     OW17011   3.139   4.075   2.795
 5423SOL    HW117012   3.049   4.043   2.806
 5423SOL    HW217013   3.191   4.023   2.855
 5424SOL     OW17014   2.693   4.301   3.308
 5424SOL    HW117015   2.653   4.306   3.395
 5424SOL    HW217016   2.625   4.263   3.252
 5425SOL     OW17017   3.257   4.200   3.538
 5425SOL    HW117018   3.260   4.245   3.623
 5425SOL    HW217019   3.314   4.124   3.549
 5426SOL     OW17020   2.861   4.152   3.095
 5426SOL    HW117021   2.790   4.176   3.155
 5426SOL    HW217022   2.819   4.095   3.031
 5427SOL     OW17023   2.917   4.411   2.277
 5427SOL    HW117024   2.914   4.457   2.361
 5427SOL    HW217025   2.831   4.370   2.268
 5428SOL     OW17026   2.757   4.065   2.050
 5428SOL    HW117027   2.797   4.129   1.991
 5428SOL    HW217028   2.775   3.980   2.010
 5429SOL     OW17029   3.573   4.299   3.692
 5429SOL    HW117030   3.587   4.386   3.656
 5429SOL    HW217031   3.593   4.239   3.620
 5430SOL     OW17032   2.412   3.903   2.755
 5430SOL    HW117033   2.414   3.932   2.847
 5430SOL    HW217034   2.411   3.985   2.705
 5431SOL     OW17035   3.354   4.468   2.601
 5431SOL    HW117036   3.339   4.412   2.677
 5431SOL    HW217037   3.394   0.047   2.637
 5432SOL     OW17038   2.061   4.001   3.367
 5432SOL    HW117039   1.977   4.046   3.361
 5432SOL    HW217040   2.044   3.925   3.422
 5433SOL     OW17041   3.263   3.830   2.296
 5433SOL    HW117042   3.254   3.805   2.204
 5433SOL    HW217043   3.357   3.839   2.310
 5434SOL     OW17044   2.215   4.389   2.268
 5434SOL    HW117045   2.252   4.312   2.311
 5434SOL    HW217046   2.147   4.419   2.327
 5435SOL     OW17047   3.395   3.950   3.587
 5435SOL    HW117048   3.404   3.970   3.680
 5435SOL    HW217049   3.326   3.883   3.584
 5436SOL     OW17050   2.499   3.845   1.967
 5436SOL    HW117051   2.565   3.778   1.980
 5436SOL    HW217052   2.448   3.814   1.891
 5437SOL     OW17053   2.626   4.002   3.617
 5437SOL    HW117054   2.704   3.947   3.615
 5437SOL    HW217055   2.579   3.976   3.696
 5438SOL     OW17056   3.203   4.312   3.292
 5438SOL    HW117057   3.225   4.276   3.377
 5438SOL    HW217058   3.249   4.396   3.289
 5439SOL     OW17059   2.787   4.235   2.758
 5439SOL    HW117060   2.763   4.218   2.666
 5439SOL    HW217061   2.826   4.153   2.788
 5440SOL     OW17062   2.412   3.787   2.362
 5440SOL    HW117063   2.332   3.787   2.414
 5440SOL    HW217064   2.404   3.866   2.307
 5441SOL     OW17065   2.153   3.772   2.047
 5441SOL    HW117066   2.211   3.836   2.007
 5441SOL    HW217067   2.212   3.709   2.089
 5442SOL     OW17068   2.801   3.973   2.321
 5442SOL    HW117069   2.776   4.011   2.236
 5442SOL    HW217070   2.896   3.987   2.326
 5443SOL     OW17071   2.936   4.394   3.392
 5443SOL    HW117072   2.854   4.365   3.353
 5443SOL    HW217073   3.004   4.359   3.334
 5444SOL     OW17074   2.887   4.264   1.891
 5444SOL    HW117075   2.872   4.351   1.854
 5444SOL    HW217076   2.951   4.277   1.960
 5445SOL     OW17077   1.938   4.281   3.256
 5445SOL    HW117078   2.030   4.272   3.229
 5445SOL    HW217079   1.938   4.354   3.318
 5446SOL     OW17080   2.420   3.950   3.027
 5446SOL    HW117081   2.462   3.877   3.071
 5446SOL    HW217082   2.329   3.947   3.058
 5447SOL     OW17083   2.730   4.189   2.497
 5447SOL    HW117084   2.699   4.249   2.429
 5447SOL    HW217085   2.750   4.108   2.450
 5448SOL     OW17086   2.877   3.778   2.612
 5448SOL    HW117087   2.819   3.770   2.536
 5448SOL    HW217088   2.855   3.702   2.667
 5449SOL     OW17089   3.340   4.309   2.823
 5449SOL    HW117090   3.276   4.241   2.843
 5449SOL    HW217091   3.389   4.321   2.904
 5450SOL     OW17092   3.266   4.296   1.935
 5450SOL    HW117093   3.203   4.267   2.001
 5450SOL    HW217094   3.348   4.255   1.962
 5451SOL     OW17095   2.388   3.988   2.179
 5451SOL    HW117096   2.432   3.939   2.109
 5451SOL    HW217097   2.370   4.074   2.140
 5452SOL     OW17098   2.781   3.820   3.256
 5452SOL    HW117099   2.804   3.800   3.166
 5452SOL    HW217100   2.859   3.859   3.294
 5453SOL     OW17101   2.299   0.009   3.143
 5453SOL    HW117102   2.367   4.499   3.209
 5453SOL    HW217103   2.255   4.424   3.141
 5454SOL     OW17104   3.127   4.099   3.139
 5454SOL    HW117105   3.160   4.176   3.184
 5454SOL    HW217106   3.037   4.122   3.114
 5455SOL     OW17107   2.414   4.250   2.727
 5455SOL    HW117108   2.433   4.289   2.641
 5455SOL    HW217109   2.480   4.289   2.785
 5456SOL     OW17110   3.428   4.336   2.342
 5456SOL    HW117111   3.405   4.401   2.408
 5456SOL    HW217112   3.490   4.381   2.284
 5457SOL     OW17113   2.858   3.851   3.617
 5457SOL    HW117114   2.916   3.923   3.593
 5457SOL    HW217115   2.906   3.772   3.591
 5458SOL     OW17116   2.359   3.763   3.610
 5458SOL    HW117117   2.314   3.709   3.545
 5458SOL    HW217118   2.302   3.838   3.623
 5459SOL     OW17119   3.070   4.253   2.124
 5459SOL    HW117120   3.081   4.173   2.176
 5459SOL    HW217121   3.022   4.313   2.180
 5460SOL     OW17122   2.160   3.922   3.109
 5460SOL    HW117123   2.122   3.954   3.191
 5460SOL    HW217124   2.141   3.828   3.110
 5461SOL     OW17125   2.595   4.360   2.902
 5461SOL    HW117126   2.669   4.323   2.854
 5461SOL    HW217127   2.608   4.455   2.895
 5462SOL     OW17128   3.615   0.131   3.714
 5462SOL    HW117129   3.546   0.148   3.650
 5462SOL    HW217130   3.574   0.151   3.798
 5463SOL     OW17131   2.167   3.788   2.485
 5463SOL    HW117132   2.145   3.878   2.507
 5463SOL    HW217133   2.174   3.743   2.570
 5464SOL     OW17134   3.477   4.091   2.229
 5464SOL    HW117135   3.507   4.030   2.296
 5464SOL    HW217136   3.451   4.170   2.277
 5465SOL     OW17137   3.387   3.999   1.988
 5465SOL    HW117138   3.324   3.932   2.014
 5465SOL    HW217139   3.423   4.032   2.071
 5466SOL     OW17140   2.182   0.012   2.781
 5466SOL    HW117141   2.258   0.069   2.792
 5466SOL    HW217142   2.197   4.440   2.841
 5467SOL     OW17143   2.198   4.240   2.885
 5467SOL    HW117144   2.159   4.155   2.866
 5467SOL    HW217145   2.273   4.246   2.825
 5468SOL     OW17146   2.999   4.091   3.550
 5468SOL    HW117147   2.945   4.150   3.602
 5468SOL    HW217148   3.083   4.136   3.541
 5469SOL     OW17149   3.023   3.925   3.331
 5469SOL    HW117150   3.012   3.985   3.404
 5469SOL    HW217151   3.064   3.977   3.262
 5470SOL     OW17152   1.898   4.274   2.978
 5470SOL    HW117153   1.979   4.261   2.929
 5470SOL    HW217154   1.925   4.275   3.070
 5471SOL     OW17155   2.057   4.245   3.578
 5471SOL    HW117156   2.110   4.196   3.515
 5471SOL    HW217157   2.005   4.305   3.524
 5472SOL     OW17158   2.681   4.277   2.219
 5472SOL    HW117159   2.686   4.206   2.155
 5472SOL    HW217160   2.596   4.317   2.204
 5473SOL     OW17161   3.497   4.316   3.046
 5473SOL    HW117162   3.493   4.259   3.123
 5473SOL    HW217163   3.585   4.304   3.012
 5474SOL     OW17164   2.548   4.183   3.113
 5474SOL    HW117165   2.501   4.105   3.082
 5474SOL    HW217166   2.549   4.242   3.037
 5475SOL     OW17167   2.342   4.224   2.052
 5475SOL    HW117168   2.370   4.311   2.078
 5475SOL    HW217169   2.247   4.232   2.036
 5476SOL     OW17170   3.583   3.872   2.372
 5476SOL    HW117171   3.655   3.857   2.310
 5476SOL    HW217172   3.567   3.786   2.411
 5477SOL     OW17173   3.141   0.135   2.541
 5477SOL    HW117174   3.199   0.061   2.557
 5477SOL    HW217175   3.192   0.194   2.485
 5478SOL     OW17176   3.702   3.895   2.830
 5478SOL    HW117177   3.731   3.808   2.802
 5478SOL    HW217178   3.616   3.906   2.789
 5479SOL     OW17179   2.123   4.040   2.579
 5479SOL    HW117180   2.035   4.070   2.555
 5479SOL    HW217181   2.120   4.030   2.674
 5480SOL     OW17182   2.766   0.088   2.072
 5480SOL    HW117183   2.847   0.127   2.039
 5480SOL    HW217184   2.789   0.057   2.160
 5481SOL     OW17185   2.928   0.295   2.608
 5481SOL    HW117186   2.856   0.287   2.545
 5481SOL    HW217187   2.992   0.231   2.577
 5482SOL     OW17188   2.883   3.964   2.826
 5482SOL    HW117189   2.879   3.915   2.744
 5482SOL    HW217190   2.878   3.897   2.894
 5483SOL     OW17191   3.585   4.114   3.242
 5483SOL    HW117192   3.656   4.178   3.240
 5483SOL    HW217193   3.615   4.043   3.185
 5484SOL     OW17194   2.537   3.918   3.362
 5484SOL    HW117195   2.622   3.899   3.321
 5484SOL    HW217196   2.560   3.952   3.448
 5485SOL     OW17197   1.937   4.038   1.890
 5485SOL    HW117198   1.852   4.035   1.846
 5485SOL    HW217199   1.969   4.127   1.874
 5486SOL     OW17200   1.929   3.879   2.171
 5486SOL    HW117201   1.913   3.958   2.118
 5486SOL    HW217202   2.014   3.846   2.140
 5487SOL     OW17203   2.594   4.282   3.561
 5487SOL    HW117204   2.589   4.328   3.646
 5487SOL    HW217205   2.608   4.190   3.584
 5488SOL     OW17206   3.079   4.041   2.316
 5488SOL    HW117207   3.141   3.969   2.309
 5488SOL    HW217208   3.108   4.090   2.394
 5489SOL     OW17209   3.619   4.092   3.512
 5489SOL    HW117210   3.604   4.103   3.418
 5489SOL    HW217211   3.549   4.033   3.541
 5490SOL     OW17212   2.974   0.225   1.963
 5490SOL    HW117213   2.965   0.269   1.878
 5490SOL    HW217214   3.062   0.186   1.960
 5491SOL     OW17215   3.676   3.906   3.100
 5491SOL    HW117216   3.683   3.812   3.113
 5491SOL    HW217217   3.684   3.919   3.006
 5492SOL     OW17218   2.301   4.159   2.397
 5492SOL    HW117219   2.327   4.089   2.338
 5492SOL    HW217220   2.247   4.116   2.464
 5493SOL     OW17221   2.186   4.264   3.158
 5493SOL    HW117222   2.243   4.209   3.211
 5493SOL    HW217223   2.206   4.238   3.068
 5494SOL     OW17224   3.293   3.949   2.979
 5494SOL    HW117225   3.317   3.869   3.025
 5494SOL    HW217226   3.242   3.999   3.043
 5495SOL     OW17227   2.871   3.742   3.002
 5495SOL    HW117228   2.817   3.675   2.961
 5495SOL    HW217229   2.959   3.704   3.004
 5496SOL     OW17230   3.215   3.777   2.028
 5496SOL    HW117231   3.245   3.711   1.966
 5496SOL    HW217232   3.128   3.749   2.053
 5497SOL     OW17233   3.160   4.175   2.542
 5497SOL    HW117234   3.129   4.264   2.556
 5497SOL    HW217235   3.159   4.134   2.629
 5498SOL     OW17236   3.448   3.924   2.740
 5498SOL    HW117237   3.389   3.947   2.813
 5498SOL    HW217238   3.448   4.002   2.685
 5499SOL     OW17239   2.084   4.283   3.847
 5499SOL    HW117240   2.042   4.360   3.885
 5499SOL    HW217241   2.078   4.296   3.753
 5500SOL     OW17242   2.086   4.001   4.715
 5500SOL    HW117243   2.113   3.968   4.800
 5500SOL    HW217244   1.996   3.971   4.705
 5501SOL     OW17245   1.865   4.100   4.367
 5501SOL    HW117246   1.785   4.131   4.407
 5501SOL    HW217247   1.838   4.023   4.317
 5502SOL     OW17248   3.589   4.335   3.963
 5502SOL    HW117249   3.590   4.324   3.868
 5502SOL    HW217250   3.592   4.246   3.997
 5503SOL     OW17251   2.592   0.275   4.412
 5503SOL    HW117252   2.581   0.211   4.482
 5503SOL    HW217253   2.505   0.284   4.373
 5504SOL     OW17254   2.312   4.114   5.208
 5504SOL    HW117255   2.389   4.057   5.214
 5504SOL    HW217256   2.238   4.056   5.226
 5505SOL     OW17257   3.476   4.171   4.465
 5505SOL    HW117258   3.411   4.196   4.400
 5505SOL    HW217259   3.469   4.237   4.533
 5506SOL     OW17260   3.458   3.848   5.191
 5506SOL    HW117261   3.469   3.929   5.141
 5506SOL    HW217262   3.442   3.878   5.281
 5507SOL     OW17263   1.929   4.379   4.301
 5507SOL    HW117264   1.928   4.285   4.316
 5507SOL    HW217265   2.006   4.410   4.349
 5508SOL     OW17266   1.980   4.478   5.308
 5508SOL    HW117267   2.048   4.498   5.373
 5508SOL    HW217268   1.950   0.063   5.277
 5509SOL     OW17269   2.678   3.726   4.231
 5509SOL    HW117270   2.718   3.811   4.212
 5509SOL    HW217271   2.585   3.746   4.240
 5510SOL     OW17272   2.198   3.972   5.541
 5510SOL    HW117273   2.235   4.060   5.552
 5510SOL    HW217274   2.105   3.982   5.564
 5511SOL     OW17275   3.139   4.076   4.657
 5511SOL    HW117276   3.049   4.042   4.667
 5511SOL    HW217277   3.191   4.023   4.717
 5512SOL     OW17278   2.693   4.301   5.170
 5512SOL    HW117279   2.652   4.306   5.257
 5512SOL    HW217280   2.625   4.264   5.114
 5513SOL     OW17281   3.256   4.200   5.400
 5513SOL    HW117282   3.260   4.245   5.485
 5513SOL    HW217283   3.314   4.124   5.411
 5514SOL     OW17284   2.861   4.152   4.957
 5514SOL    HW117285   2.790   4.176   5.017
 5514SOL    HW217286   2.819   4.094   4.893
 5515SOL     OW17287   2.917   4.411   4.139
 5515SOL    HW117288   2.913   4.457   4.223
 5515SOL    HW217289   2.832   4.370   4.131
 5516SOL     OW17290   2.757   4.066   3.912
 5516SOL    HW117291   2.797   4.129   3.853
 5516SOL    HW217292   2.775   3.980   3.872
 5517SOL     OW17293   3.572   4.299   5.554
 5517SOL    HW117294   3.587   4.387   5.518
 5517SOL    HW217295   3.593   4.239   5.483
 5518SOL     OW17296   2.412   3.904   4.617
 5518SOL    HW117297   2.414   3.932   4.708
 5518SOL    HW217298   2.410   3.985   4.566
 5519SOL     OW17299   3.354   4.468   4.463
 5519SOL    HW117300   3.339   4.412   4.539
 5519SOL    HW217301   3.394   0.047   4.499
 5520SOL     OW17302   2.061   4.001   5.228
 5520SOL    HW117303   1.977   4.047   5.222
 5520SOL    HW217304   2.043   3.925   5.284
 5521SOL     OW17305   3.263   3.830   4.158
 5521SOL    HW117306   3.254   3.805   4.066
 5521SOL    HW217307   3.357   3.839   4.172
 5522SOL     OW17308   2.215   4.389   4.130
 5522SOL    HW117309   2.252   4.312   4.172
 5522SOL    HW217310   2.147   4.420   4.190
 5523SOL     OW17311   3.395   3.950   5.449
 5523SOL    HW117312   3.404   3.971   5.542
 5523SOL    HW217313   3.327   3.883   5.446
 5524SOL     OW17314   2.499   3.845   3.829
 5524SOL    HW117315   2.565   3.778   3.843
 5524SOL    HW217316   2.448   3.814   3.753
 5525SOL     OW17317   2.626   4.002   5.479
 5525SOL    HW117318   2.704   3.947   5.477
 5525SOL    HW217319   2.580   3.978   5.559
 5526SOL     OW17320   3.203   4.313   5.154
 5526SOL    HW117321   3.225   4.276   5.239
 5526SOL    HW217322   3.250   4.396   5.151
 5527SOL     OW17323   2.786   4.234   4.620
 5527SOL    HW117324   2.763   4.218   4.529
 5527SOL    HW217325   2.826   4.152   4.650
 5528SOL     OW17326   2.412   3.788   4.224
 5528SOL    HW117327   2.331   3.787   4.276
 5528SOL    HW217328   2.404   3.866   4.169
 5529SOL     OW17329   2.153   3.772   3.909
 5529SOL    HW117330   2.211   3.836   3.869
 5529SOL    HW217331   2.212   3.709   3.951
 5530SOL     OW17332   2.801   3.974   4.183
 5530SOL    HW117333   2.776   4.011   4.099
 5530SOL    HW217334   2.896   3.987   4.188
 5531SOL     OW17335   2.936   4.393   5.255
 5531SOL    HW117336   2.854   4.365   5.215
 5531SOL    HW217337   3.004   4.360   5.196
 5532SOL     OW17338   2.887   4.264   3.753
 5532SOL    HW117339   2.872   4.351   3.716
 5532SOL    HW217340   2.951   4.278   3.822
 5533SOL     OW17341   1.939   4.280   5.119
 5533SOL    HW117342   2.030   4.272   5.091
 5533SOL    HW217343   1.939   4.354   5.180
 5534SOL     OW17344   2.420   3.950   4.888
 5534SOL    HW117345   2.463   3.876   4.931
 5534SOL    HW217346   2.330   3.947   4.920
 5535SOL     OW17347   2.729   4.189   4.359
 5535SOL    HW117348   2.699   4.249   4.291
 5535SOL    HW217349   2.750   4.108   4.313
 5536SOL     OW17350   2.877   3.778   4.473
 5536SOL    HW117351   2.820   3.770   4.397
 5536SOL    HW217352   2.855   3.702   4.528
 5537SOL     OW17353   3.340   4.309   4.685
 5537SOL    HW117354   3.276   4.241   4.705
 5537SOL    HW217355   3.389   4.321   4.766
 5538SOL     OW17356   3.266   4.296   3.797
 5538SOL    HW117357   3.203   4.268   3.863
 5538SOL    HW217358   3.348   4.255   3.824
 5539SOL     OW17359   2.388   3.988   4.041
 5539SOL    HW117360   2.432   3.939   3.971
 5539SOL    HW217361   2.370   4.074   4.002
 5540SOL     OW17362   2.780   3.821   5.118
 5540SOL    HW117363   2.804   3.800   5.028
 5540SOL    HW217364   2.859   3.859   5.155
 5541SOL     OW17365   2.299   0.009   5.006
 5541SOL    HW117366   2.368   4.498   5.071
 5541SOL    HW217367   2.255   4.424   5.003
 5542SOL     OW17368   3.127   4.099   5.001
 5542SOL    HW117369   3.160   4.177   5.046
 5542SOL    HW217370   3.037   4.122   4.976
 5543SOL     OW17371   2.414   4.251   4.589
 5543SOL    HW117372   2.434   4.289   4.503
 5543SOL    HW217373   2.480   4.289   4.647
 5544SOL     OW17374   3.429   4.336   4.205
 5544SOL    HW117375   3.405   4.402   4.270
 5544SOL    HW217376   3.490   4.381   4.146
 5545SOL     OW17377   2.858   3.851   5.480
 5545SOL    HW117378   2.915   3.923   5.456
 5545SOL    HW217379   2.905   3.772   5.453
 5546SOL     OW17380   2.359   3.763   5.473
 5546SOL    HW117381   2.314   3.709   5.407
 5546SOL    HW217382   2.302   3.838   5.486
 5547SOL     OW17383   3.071   4.253   3.986
 5547SOL    HW117384   3.081   4.173   4.038
 5547SOL    HW217385   3.022   4.313   4.042
 5548SOL     OW17386   2.160   3.923   4.971
 5548SOL    HW117387   2.122   3.955   5.053
 5548SOL    HW217388   2.141   3.829   4.971
 5549SOL     OW17389   2.595   4.361   4.764
 5549SOL    HW117390   2.669   4.322   4.716
 5549SOL    HW217391   2.608   4.455   4.756
 5550SOL     OW17392   3.615   0.131   5.576
 5550SOL    HW117393   3.547   0.148   5.511
 5550SOL    HW217394   3.574   0.152   5.660
 5551SOL     OW17395   2.167   3.788   4.348
 5551SOL    HW117396   2.145   3.878   4.370
 5551SOL    HW217397   2.174   3.743   4.432
 5552SOL     OW17398   3.477   4.091   4.091
 5552SOL    HW117399   3.507   4.030   4.158
 5552SOL    HW217400   3.451   4.169   4.139
 5553SOL     OW17401   3.387   3.999   3.851
 5553SOL    HW117402   3.324   3.932   3.876
 5553SOL    HW217403   3.423   4.031   3.933
 5554SOL     OW17404   2.181   0.013   4.643
 5554SOL    HW117405   2.258   0.069   4.654
 5554SOL    HW217406   2.197   4.439   4.703
 5555SOL     OW17407   2.199   4.241   4.747
 5555SOL    HW117408   2.159   4.156   4.728
 5555SOL    HW217409   2.273   4.246   4.687
 5556SOL     OW17410   2.999   4.091   5.412
 5556SOL    HW117411   2.945   4.151   5.463
 5556SOL    HW217412   3.083   4.136   5.403
 5557SOL     OW17413   3.022   3.924   5.194
 5557SOL    HW117414   3.012   3.986   5.267
 5557SOL    HW217415   3.063   3.976   5.124
 5558SOL     OW17416   1.897   4.273   4.840
 5558SOL    HW117417   1.978   4.261   4.790
 5558SOL    HW217418   1.926   4.274   4.932
 5559SOL     OW17419   2.057   4.244   5.440
 5559SOL    HW117420   2.111   4.197   5.376
 5559SOL    HW217421   2.005   4.305   5.387
 5560SOL     OW17422   2.681   4.277   4.081
 5560SOL    HW117423   2.686   4.206   4.017
 5560SOL    HW217424   2.596   4.318   4.065
 5561SOL     OW17425   3.497   4.316   4.908
 5561SOL    HW117426   3.493   4.258   4.985
 5561SOL    HW217427   3.585   4.304   4.874
 5562SOL     OW17428   2.547   4.184   4.975
 5562SOL    HW117429   2.501   4.106   4.943
 5562SOL    HW217430   2.549   4.242   4.899
 5563SOL     OW17431   2.341   4.224   3.913
 5563SOL    HW117432   2.370   4.311   3.939
 5563SOL    HW217433   2.247   4.233   3.899
 5564SOL     OW17434   3.583   3.872   4.234
 5564SOL    HW117435   3.655   3.857   4.172
 5564SOL    HW217436   3.567   3.786   4.273
 5565SOL     OW17437   3.141   0.135   4.403
 5565SOL    HW117438   3.199   0.061   4.418
 5565SOL    HW217439   3.191   0.195   4.348
 5566SOL     OW17440   3.702   3.895   4.692
 5566SOL    HW117441   3.731   3.808   4.664
 5566SOL    HW217442   3.616   3.906   4.651
 5567SOL     OW17443   2.123   4.040   4.441
 5567SOL    HW117444   2.035   4.070   4.417
 5567SOL    HW217445   2.120   4.030   4.536
 5568SOL     OW17446   2.766   0.088   3.935
 5568SOL    HW117447   2.847   0.127   3.901
 5568SOL    HW217448   2.789   0.058   4.022
 5569SOL     OW17449   2.927   0.294   4.471
 5569SOL    HW117450   2.856   0.289   4.407
 5569SOL    HW217451   2.992   0.231   4.440
 5570SOL     OW17452   2.883   3.964   4.688
 5570SOL    HW117453   2.879   3.915   4.606
 5570SOL    HW217454   2.878   3.897   4.756
 5571SOL     OW17455   3.585   4.114   5.104
 5571SOL    HW117456   3.656   4.178   5.102
 5571SOL    HW217457   3.615   4.043   5.047
 5572SOL     OW17458   2.537   3.921   5.224
 5572SOL    HW117459   2.621   3.901   5.183
 5572SOL    HW217460   2.561   3.955   5.311
 5573SOL     OW17461   1.937   4.038   3.753
 5573SOL    HW117462   1.853   4.035   3.707
 5573SOL    HW217463   1.969   4.127   3.737
 5574SOL     OW17464   1.929   3.879   4.032
 5574SOL    HW117465   1.914   3.958   3.980
 5574SOL    HW217466   2.014   3.846   4.002
 5575SOL     OW17467   2.592   4.283   5.423
 5575SOL    HW117468   2.592   4.328   5.508
 5575SOL    HW217469   2.607   4.191   5.446
 5576SOL     OW17470   3.079   4.042   4.178
 5576SOL    HW117471   3.141   3.969   4.171
 5576SOL    HW217472   3.108   4.090   4.256
 5577SOL     OW17473   3.619   4.092   5.374
 5577SOL    HW117474   3.604   4.103   5.280
 5577SOL    HW217475   3.549   4.033   5.403
 5578SOL     OW17476   2.974   0.225   3.825
 5578SOL    HW117477   2.965   0.270   3.741
 5578SOL    HW217478   3.061   0.186   3.822
 5579SOL     OW17479   3.676   3.906   4.962
 5579SOL    HW117480   3.683   3.811   4.975
 5579SOL    HW217481   3.684   3.919   4.868
 5580SOL     OW17482   2.301   4.160   4.260
 5580SOL    HW117483   2.327   4.089   4.200
 5580SOL    HW217484   2.247   4.116   4.326
 5581SOL     OW17485   2.186   4.264   5.020
 5581SOL    HW117486   2.244   4.209   5.073
 5581SOL    HW217487   2.206   4.238   4.929
 5582SOL     OW17488   3.293   3.949   4.841
 5582SOL    HW117489   3.316   3.868   4.886
 5582SOL    HW217490   3.242   3.999   4.905
 5583SOL     OW17491   2.871   3.742   4.865
 5583SOL    HW117492   2.817   3.675   4.822
 5583SOL    HW217493   2.959   3.704   4.867
 5584SOL     OW17494   3.215   3.777   3.890
 5584SOL    HW117495   3.245   3.711   3.828
 5584SOL    HW217496   3.128   3.749   3.915
 5585SOL     OW17497   3.160   4.175   4.404
 5585SOL    HW117498   3.129   4.264   4.418
 5585SOL    HW217499   3.159   4.135   4.491
 5586SOL     OW17500   3.448   3.924   4.602
 5586SOL    HW117501   3.389   3.947   4.675
 5586SOL    HW217502   3.448   4.002   4.546
 5587SOL     OW17503   2.084   4.282   5.709
 5587SOL    HW117504   2.041   4.360   5.747
 5587SOL    HW217505   2.078   4.296   5.615
 5588SOL     OW17506   2.086   4.000   6.577
 5588SOL    HW117507   2.114   3.967   6.662
 5588SOL    HW217508   1.996   3.970   6.567
 5589SOL     OW17509   1.865   4.100   6.229
 5589SOL    HW117510   1.785   4.132   6.270
 5589SOL    HW217511   1.838   4.023   6.179
 5590SOL     OW17512   3.589   4.335   5.825
 5590SOL    HW117513   3.590   4.324   5.730
 5590SOL    HW217514   3.592   4.245   5.859
 5591SOL     OW17515   2.592   0.275   6.275
 5591SOL    HW117516   2.583   0.210   6.344
 5591SOL    HW217517   2.506   0.281   6.234
 5592SOL     OW17518   2.312   4.113   7.068
 5592SOL    HW117519   2.389   4.056   7.076
 5592SOL    HW217520   2.238   4.056   7.088
 5593SOL     OW17521   3.476   4.170   6.327
 5593SOL    HW117522   3.411   4.197   6.262
 5593SOL    HW217523   3.470   4.237   6.395
 5594SOL     OW17524   3.458   3.848   7.053
 5594SOL    HW117525   3.469   3.929   7.003
 5594SOL    HW217526   3.442   3.878   7.143
 5595SOL     OW17527   1.931   4.378   6.161
 5595SOL    HW117528   1.928   4.284   6.178
 5595SOL    HW217529   2.006   4.409   6.212
 5596SOL     OW17530   1.980   4.478   7.170
 5596SOL    HW117531   2.046   4.497   7.236
 5596SOL    HW217532   1.950   0.063   7.140
 5597SOL     OW17533   2.678   3.726   6.094
 5597SOL    HW117534   2.718   3.810   6.075
 5597SOL    HW217535   2.584   3.746   6.103
 5598SOL     OW17536   2.198   3.973   7.401
 5598SOL    HW117537   2.235   4.060   7.416
 5598SOL    HW217538   2.106   3.981   7.426
 5599SOL     OW17539   3.139   4.075   6.519
 5599SOL    HW117540   3.049   4.043   6.530
 5599SOL    HW217541   3.191   4.023   6.579
 5600SOL     OW17542   2.693   4.301   7.032
 5600SOL    HW117543   2.653   4.306   7.119
 5600SOL    HW217544   2.625   4.263   6.976
 5601SOL     OW17545   3.257   4.200   7.262
 5601SOL    HW117546   3.260   4.244   7.347
 5601SOL    HW217547   3.314   4.124   7.273
 5602SOL     OW17548   2.861   4.152   6.819
 5602SOL    HW117549   2.790   4.176   6.879
 5602SOL    HW217550   2.819   4.094   6.755
 5603SOL     OW17551   2.917   4.411   6.001
 5603SOL    HW117552   2.914   4.457   6.085
 5603SOL    HW217553   2.831   4.370   5.993
 5604SOL     OW17554   2.757   4.066   5.773
 5604SOL    HW117555   2.796   4.130   5.714
 5604SOL    HW217556   2.778   3.981   5.734
 5605SOL     OW17557   3.572   4.299   7.416
 5605SOL    HW117558   3.587   4.386   7.380
 5605SOL    HW217559   3.593   4.239   7.345
 5606SOL     OW17560   2.412   3.903   6.479
 5606SOL    HW117561   2.414   3.931   6.571
 5606SOL    HW217562   2.411   3.985   6.429
 5607SOL     OW17563   3.353   4.467   6.325
 5607SOL    HW117564   3.339   4.411   6.402
 5607SOL    HW217565   3.394   0.047   6.361
 5608SOL     OW17566   2.061   4.001   7.091
 5608SOL    HW117567   1.976   4.046   7.086
 5608SOL    HW217568   2.044   3.925   7.146
 5609SOL     OW17569   3.263   3.830   6.020
 5609SOL    HW117570   3.254   3.805   5.928
 5609SOL    HW217571   3.357   3.839   6.034
 5610SOL     OW17572   2.215   4.390   5.992
 5610SOL    HW117573   2.252   4.312   6.035
 5610SOL    HW217574   2.146   4.419   6.051
 5611SOL     OW17575   3.395   3.950   7.311
 5611SOL    HW117576   3.404   3.970   7.404
 5611SOL    HW217577   3.327   3.883   7.308
 5612SOL     OW17578   2.497   3.844   5.692
 5612SOL    HW117579   2.567   3.779   5.702
 5612SOL    HW217580   2.448   3.814   5.616
 5613SOL     OW17581   2.626   4.002   7.341
 5613SOL    HW117582   2.704   3.947   7.339
 5613SOL    HW217583   2.579   3.976   7.420
 5614SOL     OW17584   3.203   4.312   7.016
 5614SOL    HW117585   3.225   4.275   7.101
 5614SOL    HW217586   3.249   4.396   7.013
 5615SOL     OW17587   2.787   4.235   6.482
 5615SOL    HW117588   2.763   4.218   6.390
 5615SOL    HW217589   2.826   4.153   6.512
 5616SOL     OW17590   2.411   3.787   6.086
 5616SOL    HW117591   2.331   3.787   6.138
 5616SOL    HW217592   2.404   3.866   6.031
 5617SOL     OW17593   2.153   3.771   5.772
 5617SOL    HW117594   2.210   3.836   5.730
 5617SOL    HW217595   2.214   3.709   5.812
 5618SOL     OW17596   2.801   3.973   6.045
 5618SOL    HW117597   2.776   4.011   5.961
 5618SOL    HW217598   2.896   3.987   6.050
 5619SOL     OW17599   2.936   4.395   7.116
 5619SOL    HW117600   2.854   4.365   7.077
 5619SOL    HW217601   3.004   4.359   7.058
 5620SOL     OW17602   2.886   4.264   5.615
 5620SOL    HW117603   2.872   4.351   5.578
 5620SOL    HW217604   2.951   4.277   5.684
 5621SOL     OW17605   1.938   4.281   6.980
 5621SOL    HW117606   2.030   4.272   6.953
 5621SOL    HW217607   1.938   4.354   7.041
 5622SOL     OW17608   2.420   3.950   6.751
 5622SOL    HW117609   2.463   3.877   6.796
 5622SOL    HW217610   2.329   3.947   6.782
 5623SOL     OW17611   2.730   4.189   6.221
 5623SOL    HW117612   2.699   4.249   6.153
 5623SOL    HW217613   2.750   4.108   6.175
 5624SOL     OW17614   2.877   3.778   6.337
 5624SOL    HW117615   2.819   3.770   6.261
 5624SOL    HW217616   2.855   3.702   6.391
 5625SOL     OW17617   3.340   4.309   6.547
 5625SOL    HW117618   3.276   4.240   6.567
 5625SOL    HW217619   3.389   4.321   6.628
 5626SOL     OW17620   3.266   4.296   5.659
 5626SOL    HW117621   3.203   4.267   5.726
 5626SOL    HW217622   3.349   4.255   5.685
 5627SOL     OW17623   2.388   3.988   5.903
 5627SOL    HW117624   2.432   3.939   5.834
 5627SOL    HW217625   2.370   4.074   5.865
 5628SOL     OW17626   2.780   3.820   6.980
 5628SOL    HW117627   2.804   3.800   6.889
 5628SOL    HW217628   2.859   3.859   7.018
 5629SOL     OW17629   2.299   0.009   6.867
 5629SOL    HW117630   2.368   4.499   6.933
 5629SOL    HW217631   2.255   4.424   6.865
 5630SOL     OW17632   3.127   4.099   6.863
 5630SOL    HW117633   3.160   4.177   6.908
 5630SOL    HW217634   3.037   4.123   6.838
 5631SOL     OW17635   2.414   4.250   6.450
 5631SOL    HW117636   2.433   4.289   6.365
 5631SOL    HW217637   2.479   4.289   6.509
 5632SOL     OW17638   3.428   4.336   6.067
 5632SOL    HW117639   3.405   4.402   6.132
 5632SOL    HW217640   3.490   4.380   6.008
 5633SOL     OW17641   2.857   3.851   7.341
 5633SOL    HW117642   2.916   3.923   7.317
 5633SOL    HW217643   2.905   3.772   7.315
 5634SOL     OW17644   2.359   3.763   7.334
 5634SOL    HW117645   2.314   3.709   7.269
 5634SOL    HW217646   2.302   3.838   7.347
 5635SOL     OW17647   3.070   4.253   5.848
 5635SOL    HW117648   3.081   4.173   5.900
 5635SOL    HW217649   3.022   4.313   5.904
 5636SOL     OW17650   2.160   3.922   6.833
 5636SOL    HW117651   2.122   3.954   6.915
 5636SOL    HW217652   2.141   3.828   6.834
 5637SOL     OW17653   2.595   4.360   6.626
 5637SOL    HW117654   2.669   4.323   6.578
 5637SOL    HW217655   2.608   4.455   6.619
 5638SOL     OW17656   3.615   0.132   7.438
 5638SOL    HW117657   3.546   0.148   7.374
 5638SOL    HW217658   3.575   0.152   7.522
 5639SOL     OW17659   2.165   3.786   6.209
 5639SOL    HW117660   2.144   3.877   6.230
 5639SOL    HW217661   2.173   3.743   6.294
 5640SOL     OW17662   3.477   4.091   5.953
 5640SOL    HW117663   3.507   4.030   6.020
 5640SOL    HW217664   3.451   4.169   6.001
 5641SOL     OW17665   3.387   3.999   5.712
 5641SOL    HW117666   3.324   3.932   5.738
 5641SOL    HW217667   3.423   4.032   5.795
 5642SOL     OW17668   2.182   0.012   6.505
 5642SOL    HW117669   2.258   0.069   6.516
 5642SOL    HW217670   2.197   4.440   6.565
 5643SOL     OW17671   2.198   4.240   6.609
 5643SOL    HW117672   2.159   4.155   6.590
 5643SOL    HW217673   2.273   4.246   6.549
 5644SOL     OW17674   2.999   4.091   7.273
 5644SOL    HW117675   2.945   4.150   7.326
 5644SOL    HW217676   3.083   4.136   7.265
 5645SOL     OW17677   3.022   3.925   7.055
 5645SOL    HW117678   3.012   3.986   7.128
 5645SOL    HW217679   3.064   3.977   6.986
 5646SOL     OW17680   1.898   4.274   6.702
 5646SOL    HW117681   1.979   4.261   6.653
 5646SOL    HW217682   1.925   4.275   6.794
 5647SOL     OW17683   2.056   4.245   7.302
 5647SOL    HW117684   2.110   4.196   7.240
 5647SOL    HW217685   2.005   4.305   7.248
 5648SOL     OW17686   2.681   4.277   5.943
 5648SOL    HW117687   2.685   4.206   5.879
 5648SOL    HW217688   2.596   4.318   5.928
 5649SOL     OW17689   3.497   4.316   6.770
 5649SOL    HW117690   3.493   4.259   6.847
 5649SOL    HW217691   3.585   4.304   6.736
 5650SOL     OW17692   2.548   4.183   6.837
 5650SOL    HW117693   2.501   4.105   6.806
 5650SOL    HW217694   2.549   4.242   6.761
 5651SOL     OW17695   2.341   4.223   5.776
 5651SOL    HW117696   2.370   4.311   5.800
 5651SOL    HW217697   2.247   4.232   5.761
 5652SOL     OW17698   3.583   3.872   6.096
 5652SOL    HW117699   3.655   3.857   6.034
 5652SOL    HW217700   3.567   3.786   6.135
 5653SOL     OW17701   3.141   0.135   6.265
 5653SOL    HW117702   3.199   0.061   6.282
 5653SOL    HW217703   3.192   0.193   6.207
 5654SOL     OW17704   3.702   3.895   6.554
 5654SOL    HW117705   3.732   3.808   6.526
 5654SOL    HW217706   3.616   3.906   6.512
 5655SOL     OW17707   2.123   4.039   6.302
 5655SOL    HW117708   2.035   4.069   6.279
 5655SOL    HW217709   2.120   4.030   6.398
 5656SOL     OW17710   2.766   0.088   5.797
 5656SOL    HW117711   2.847   0.127   5.763
 5656SOL    HW217712   2.790   0.057   5.884
 5657SOL     OW17713   2.927   0.295   6.332
 5657SOL    HW117714   2.856   0.287   6.268
 5657SOL    HW217715   2.993   0.232   6.302
 5658SOL     OW17716   2.883   3.964   6.550
 5658SOL    HW117717   2.879   3.915   6.468
 5658SOL    HW217718   2.878   3.897   6.618
 5659SOL     OW17719   3.585   4.114   6.966
 5659SOL    HW117720   3.656   4.178   6.964
 5659SOL    HW217721   3.615   4.043   6.909
 5660SOL     OW17722   2.537   3.918   7.086
 5660SOL    HW117723   2.622   3.899   7.045
 5660SOL    HW217724   2.560   3.952   7.172
 5661SOL     OW17725   1.937   4.038   5.614
 5661SOL    HW117726   1.853   4.036   5.569
 5661SOL    HW217727   1.969   4.127   5.599
 5662SOL     OW17728   1.929   3.878   5.895
 5662SOL    HW117729   1.913   3.957   5.843
 5662SOL    HW217730   2.014   3.847   5.864
 5663SOL     OW17731   2.594   4.282   7.286
 5663SOL    HW117732   2.589   4.327   7.370
 5663SOL    HW217733   2.608   4.190   7.308
 5664SOL     OW17734   3.079   4.041   6.040
 5664SOL    HW117735   3.141   3.969   6.033
 5664SOL    HW217736   3.107   4.090   6.118
 5665SOL     OW17737   3.619   4.092   7.236
 5665SOL    HW117738   3.604   4.103   7.142
 5665SOL    HW217739   3.549   4.033   7.264
 5666SOL     OW17740   2.974   0.225   5.687
 5666SOL    HW117741   2.966   0.270   5.603
 5666SOL    HW217742   3.062   0.186   5.684
 5667SOL     OW17743   3.676   3.906   6.824
 5667SOL    HW117744   3.683   3.812   6.837
 5667SOL    HW217745   3.684   3.919   6.730
 5668SOL     OW17746   2.301   4.160   6.122
 5668SOL    HW117747   2.327   4.089   6.062
 5668SOL    HW217748   2.247   4.116   6.188
 5669SOL     OW17749   2.187   4.264   6.882
 5669SOL    HW117750   2.243   4.209   6.935
 5669SOL    HW217751   2.206   4.238   6.792
 5670SOL     OW17752   3.293   3.950   6.703
 5670SOL    HW117753   3.316   3.868   6.748
 5670SOL    HW217754   3.242   3.999   6.767
 5671SOL     OW17755   2.871   3.742   6.727
 5671SOL    HW117756   2.817   3.675   6.685
 5671SOL    HW217757   2.959   3.704   6.729
 5672SOL     OW17758   3.215   3.777   5.752
 5672SOL    HW117759   3.245   3.710   5.690
 5672SOL    HW217760   3.127   3.749   5.777
 5673SOL     OW17761   3.160   4.175   6.266
 5673SOL    HW117762   3.130   4.264   6.280
 5673SOL    HW217763   3.159   4.134   6.352
 5674SOL     OW17764   3.448   3.924   6.464
 5674SOL    HW117765   3.390   3.947   6.537
 5674SOL    HW217766   3.448   4.002   6.409
 5675SOL     OW17767   2.084   4.283   7.571
 5675SOL    HW117768   2.040   4.359   7.609
 5675SOL    HW217769   2.078   4.296   7.477
 5676SOL     OW17770   2.086   4.001   8.439
 5676SOL    HW117771   2.114   3.967   8.524
 5676SOL    HW217772   1.996   3.971   8.429
 5677SOL     OW17773   1.865   4.100   8.090
 5677SOL    HW117774   1.785   4.132   8.131
 5677SOL    HW217775   1.838   4.023   8.041
 5678SOL     OW17776   3.589   4.335   7.687
 5678SOL    HW117777   3.590   4.323   7.592
 5678SOL    HW217778   3.592   4.246   7.721
 5679SOL     OW17779   2.592   0.275   8.136
 5679SOL    HW117780   2.582   0.210   8.206
 5679SOL    HW217781   2.506   0.282   8.096
 5680SOL     OW17782   2.312   4.113   8.930
 5680SOL    HW117783   2.389   4.056   8.938
 5680SOL    HW217784   2.238   4.056   8.950
 5681SOL     OW17785   3.476   4.171   8.189
 5681SOL    HW117786   3.410   4.196   8.124
 5681SOL    HW217787   3.469   4.237   8.257
 5682SOL     OW17788   3.458   3.848   8.915
 5682SOL    HW117789   3.469   3.929   8.865
 5682SOL    HW217790   3.442   3.878   9.005
 5683SOL     OW17791   1.931   4.378   8.023
 5683SOL    HW117792   1.928   4.284   8.039
 5683SOL    HW217793   2.006   4.409   8.074
 5684SOL     OW17794   1.980   4.478   9.032
 5684SOL    HW117795   2.046   4.497   9.098
 5684SOL    HW217796   1.950   0.063   9.002
 5685SOL     OW17797   2.678   3.726   7.957
 5685SOL    HW117798   2.718   3.811   7.937
 5685SOL    HW217799   2.585   3.745   7.966
 5686SOL     OW17800   2.198   3.973   9.263
 5686SOL    HW117801   2.234   4.060   9.278
 5686SOL    HW217802   2.106   3.982   9.288
 5687SOL     OW17803   3.139   4.075   8.381
 5687SOL    HW117804   3.049   4.043   8.392
 5687SOL    HW217805   3.191   4.023   8.441
 5688SOL     OW17806   2.693   4.302   8.894
 5688SOL    HW117807   2.653   4.306   8.981
 5688SOL    HW217808   2.625   4.264   8.838
 5689SOL     OW17809   3.257   4.200   9.124
 5689SOL    HW117810   3.260   4.244   9.209
 5689SOL    HW217811   3.314   4.124   9.135
 5690SOL     OW17812   2.861   4.152   8.681
 5690SOL    HW117813   2.790   4.176   8.741
 5690SOL    HW217814   2.819   4.094   8.617
 5691SOL     OW17815   2.917   4.411   7.863
 5691SOL    HW117816   2.913   4.457   7.947
 5691SOL    HW217817   2.831   4.370   7.854
 5692SOL     OW17818   2.757   4.066   7.636
 5692SOL    HW117819   2.797   4.129   7.577
 5692SOL    HW217820   2.774   3.980   7.596
 5693SOL     OW17821   3.573   4.299   9.278
 5693SOL    HW117822   3.587   4.386   9.241
 5693SOL    HW217823   3.593   4.239   9.207
 5694SOL     OW17824   2.412   3.903   8.341
 5694SOL    HW117825   2.414   3.932   8.433
 5694SOL    HW217826   2.411   3.985   8.291
 5695SOL     OW17827   3.354   4.468   8.187
 5695SOL    HW117828   3.339   4.411   8.263
 5695SOL    HW217829   3.394   0.047   8.223
 5696SOL     OW17830   2.061   4.001   8.953
 5696SOL    HW117831   1.977   4.046   8.947
 5696SOL    HW217832   2.044   3.925   9.008
 5697SOL     OW17833   3.263   3.830   7.882
 5697SOL    HW117834   3.254   3.805   7.790
 5697SOL    HW217835   3.357   3.839   7.896
 5698SOL     OW17836   2.215   4.389   7.854
 5698SOL    HW117837   2.252   4.312   7.896
 5698SOL    HW217838   2.147   4.419   7.913
 5699SOL     OW17839   3.395   3.950   9.173
 5699SOL    HW117840   3.404   3.970   9.266
 5699SOL    HW217841   3.326   3.883   9.170
 5700SOL     OW17842   2.499   3.845   7.552
 5700SOL    HW117843   2.565   3.777   7.567
 5700SOL    HW217844   2.448   3.814   7.477
 5701SOL     OW17845   2.626   4.002   9.203
 5701SOL    HW117846   2.704   3.947   9.201
 5701SOL    HW217847   2.579   3.976   9.282
 5702SOL     OW17848   3.203   4.312   8.878
 5702SOL    HW117849   3.225   4.275   8.963
 5702SOL    HW217850   3.249   4.396   8.875
 5703SOL     OW17851   2.787   4.235   8.344
 5703SOL    HW117852   2.763   4.218   8.252
 5703SOL    HW217853   2.826   4.153   8.374
 5704SOL     OW17854   2.412   3.788   7.948
 5704SOL    HW117855   2.332   3.787   8.000
 5704SOL    HW217856   2.404   3.866   7.893
 5705SOL     OW17857   2.153   3.772   7.633
 5705SOL    HW117858   2.211   3.836   7.593
 5705SOL    HW217859   2.212   3.709   7.675
 5706SOL     OW17860   2.801   3.973   7.907
 5706SOL    HW117861   2.776   4.011   7.822
 5706SOL    HW217862   2.896   3.987   7.912
 5707SOL     OW17863   2.936   4.395   8.978
 5707SOL    HW117864   2.854   4.365   8.939
 5707SOL    HW217865   3.004   4.359   8.920
 5708SOL     OW17866   2.887   4.264   7.477
 5708SOL    HW117867   2.872   4.351   7.441
 5708SOL    HW217868   2.951   4.277   7.546
 5709SOL     OW17869   1.938   4.281   8.842
 5709SOL    HW117870   2.030   4.272   8.815
 5709SOL    HW217871   1.938   4.354   8.903
 5710SOL     OW17872   2.420   3.950   8.613
 5710SOL    HW117873   2.463   3.876   8.657
 5710SOL    HW217874   2.329   3.947   8.644
 5711SOL     OW17875   2.730   4.189   8.083
 5711SOL    HW117876   2.699   4.249   8.015
 5711SOL    HW217877   2.750   4.108   8.037
 5712SOL     OW17878   2.877   3.778   8.198
 5712SOL    HW117879   2.819   3.770   8.122
 5712SOL    HW217880   2.855   3.702   8.253
 5713SOL     OW17881   3.340   4.309   8.409
 5713SOL    HW117882   3.276   4.240   8.429
 5713SOL    HW217883   3.389   4.321   8.490
 5714SOL     OW17884   3.266   4.296   7.521
 5714SOL    HW117885   3.203   4.267   7.587
 5714SOL    HW217886   3.348   4.254   7.548
 5715SOL     OW17887   2.388   3.988   7.765
 5715SOL    HW117888   2.432   3.939   7.695
 5715SOL    HW217889   2.370   4.074   7.726
 5716SOL     OW17890   2.780   3.820   8.842
 5716SOL    HW117891   2.804   3.800   8.751
 5716SOL    HW217892   2.859   3.859   8.879
 5717SOL     OW17893   2.299   0.009   8.729
 5717SOL    HW117894   2.368   4.499   8.795
 5717SOL    HW217895   2.255   4.424   8.727
 5718SOL     OW17896   3.127   4.099   8.725
 5718SOL    HW117897   3.160   4.177   8.770
 5718SOL    HW217898   3.037   4.122   8.700
 5719SOL     OW17899   2.414   4.251   8.312
 5719SOL    HW117900   2.433   4.289   8.227
 5719SOL    HW217901   2.480   4.289   8.371
 5720SOL     OW17902   3.428   4.336   7.928
 5720SOL    HW117903   3.405   4.401   7.994
 5720SOL    HW217904   3.490   4.381   7.871
 5721SOL     OW17905   2.857   3.851   9.203
 5721SOL    HW117906   2.916   3.923   9.179
 5721SOL    HW217907   2.905   3.772   9.177
 5722SOL     OW17908   2.359   3.763   9.196
 5722SOL    HW117909   2.315   3.709   9.131
 5722SOL    HW217910   2.302   3.838   9.209
 5723SOL     OW17911   3.070   4.253   7.710
 5723SOL    HW117912   3.081   4.173   7.762
 5723SOL    HW217913   3.022   4.313   7.766
 5724SOL     OW17914   2.160   3.921   8.695
 5724SOL    HW117915   2.122   3.954   8.777
 5724SOL    HW217916   2.141   3.828   8.696
 5725SOL     OW17917   2.595   4.360   8.488
 5725SOL    HW117918   2.669   4.323   8.440
 5725SOL    HW217919   2.608   4.455   8.481
 5726SOL     OW17920   3.615   0.132   9.300
 5726SOL    HW117921   3.546   0.148   9.236
 5726SOL    HW217922   3.574   0.152   9.384
 5727SOL     OW17923   2.167   3.788   8.071
 5727SOL    HW117924   2.145   3.878   8.094
 5727SOL    HW217925   2.174   3.743   8.156
 5728SOL     OW17926   3.477   4.091   7.814
 5728SOL    HW117927   3.507   4.030   7.882
 5728SOL    HW217928   3.451   4.170   7.863
 5729SOL     OW17929   3.387   3.999   7.574
 5729SOL    HW117930   3.324   3.932   7.600
 5729SOL    HW217931   3.423   4.032   7.657
 5730SOL     OW17932   2.181   0.012   8.367
 5730SOL    HW117933   2.258   0.069   8.378
 5730SOL    HW217934   2.196   4.439   8.427
 5731SOL     OW17935   2.198   4.240   8.471
 5731SOL    HW117936   2.159   4.155   8.452
 5731SOL    HW217937   2.273   4.246   8.411
 5732SOL     OW17938   2.999   4.091   9.135
 5732SOL    HW117939   2.945   4.150   9.188
 5732SOL    HW217940   3.083   4.136   9.127
 5733SOL     OW17941   3.022   3.925   8.917
 5733SOL    HW117942   3.012   3.986   8.990
 5733SOL    HW217943   3.064   3.977   8.848
 5734SOL     OW17944   1.898   4.274   8.564
 5734SOL    HW117945   1.979   4.261   8.515
 5734SOL    HW217946   1.925   4.275   8.656
 5735SOL     OW17947   2.057   4.245   9.164
 5735SOL    HW117948   2.110   4.196   9.101
 5735SOL    HW217949   2.005   4.305   9.110
 5736SOL     OW17950   2.681   4.278   7.804
 5736SOL    HW117951   2.686   4.206   7.741
 5736SOL    HW217952   2.595   4.317   7.790
 5737SOL     OW17953   3.497   4.316   8.632
 5737SOL    HW117954   3.493   4.259   8.709
 5737SOL    HW217955   3.585   4.304   8.598
 5738SOL     OW17956   2.548   4.183   8.699
 5738SOL    HW117957   2.501   4.105   8.668
 5738SOL    HW217958   2.549   4.242   8.623
 5739SOL     OW17959   2.342   4.224   7.637
 5739SOL    HW117960   2.370   4.311   7.664
 5739SOL    HW217961   2.247   4.233   7.622
 5740SOL     OW17962   3.583   3.872   7.958
 5740SOL    HW117963   3.655   3.857   7.896
 5740SOL    HW217964   3.567   3.786   7.997
 5741SOL     OW17965   3.141   0.135   8.127
 5741SOL    HW117966   3.199   0.061   8.143
 5741SOL    HW217967   3.192   0.193   8.070
 5742SOL     OW17968   3.702   3.895   8.416
 5742SOL    HW117969   3.732   3.808   8.388
 5742SOL    HW217970   3.616   3.906   8.375
 5743SOL     OW17971   2.123   4.040   8.165
 5743SOL    HW117972   2.035   4.070   8.141
 5743SOL    HW217973   2.120   4.030   8.260
 5744SOL     OW17974   2.766   0.089   7.659
 5744SOL    HW117975   2.847   0.127   7.625
 5744SOL    HW217976   2.789   0.057   7.746
 5745SOL     OW17977   2.928   0.295   8.194
 5745SOL    HW117978   2.856   0.287   8.131
 5745SOL    HW217979   2.993   0.231   8.164
 5746SOL     OW17980   2.883   3.964   8.412
 5746SOL    HW117981   2.879   3.915   8.330
 5746SOL    HW217982   2.878   3.897   8.480
 5747SOL     OW17983   3.585   4.114   8.828
 5747SOL    HW117984   3.656   4.178   8.826
 5747SOL    HW217985   3.615   4.043   8.771
 5748SOL     OW17986   2.537   3.918   8.948
 5748SOL    HW117987   2.622   3.899   8.907
 5748SOL    HW217988   2.560   3.952   9.034
 5749SOL     OW17989   1.937   4.038   7.476
 5749SOL    HW117990   1.852   4.035   7.433
 5749SOL    HW217991   1.969   4.127   7.459
 5750SOL     OW17992   1.929   3.879   7.757
 5750SOL    HW117993   1.914   3.958   7.704
 5750SOL    HW217994   2.014   3.846   7.726
 5751SOL     OW17995   2.594   4.282   9.148
 5751SOL    HW117996   2.589   4.327   9.232
 5751SOL    HW217997   2.608   4.190   9.170
 5752SOL     OW17998   3.079   4.042   7.902
 5752SOL    HW117999   3.141   3.969   7.895
 5752SOL    HW218000   3.108   4.090   7.980
 5753SOL     OW18001   3.619   4.092   9.098
 5753SOL    HW118002   3.604   4.103   9.004
 5753SOL    HW218003   3.549   4.033   9.126
 5754SOL     OW18004   2.974   0.225   7.549
 5754SOL    HW118005   2.965   0.268   7.464
 5754SOL    HW218006   3.062   0.186   7.546
 5755SOL     OW18007   3.676   3.906   8.686
 5755SOL    HW118008   3.683   3.812   8.699
 5755SOL    HW218009   3.684   3.919   8.592
 5756SOL     OW18010   2.301   4.159   7.983
 5756SOL    HW118011   2.327   4.089   7.924
 5756SOL    HW218012   2.247   4.116   8.050
 5757SOL     OW18013   2.187   4.264   8.744
 5757SOL    HW118014   2.243   4.209   8.797
 5757SOL    HW218015   2.206   4.238   8.654
 5758SOL     OW18016   3.293   3.950   8.565
 5758SOL    HW118017   3.316   3.868   8.610
 5758SOL    HW218018   3.242   3.999   8.629
 5759SOL     OW18019   2.871   3.742   8.589
 5759SOL    HW118020   2.817   3.675   8.547
 5759SOL    HW218021   2.959   3.704   8.591
 5760SOL     OW18022   3.215   3.777   7.614
 5760SOL    HW118023   3.245   3.710   7.552
 5760SOL    HW218024   3.128   3.749   7.639
 5761SOL     OW18025   3.161   4.175   8.128
 5761SOL    HW118026   3.129   4.264   8.142
 5761SOL    HW218027   3.159   4.134   8.215
 5762SOL     OW18028   3.448   3.924   8.326
 5762SOL    HW118029   3.390   3.947   8.399
 5762SOL    HW218030   3.448   4.002   8.271
 5763SOL     OW18031   2.084   4.283   9.433
 5763SOL    HW118032   2.040   4.359   9.471
 5763SOL    HW218033   2.078   4.296   9.339
 5764SOL     OW18034   2.087   4.000  10.300
 5764SOL    HW118035   2.114   3.967  10.386
 5764SOL    HW218036   1.996   3.970  10.291
 5765SOL     OW18037   1.865   4.100   9.952
 5765SOL    HW118038   1.785   4.132   9.993
 5765SOL    HW218039   1.838   4.023   9.903
 5766SOL     OW18040   3.589   4.335   9.549
 5766SOL    HW118041   3.590   4.324   9.454
 5766SOL    HW218042   3.592   4.246   9.583
 5767SOL     OW18043   2.592   0.275   9.998
 5767SOL    HW118044   2.581   0.211  10.068
 5767SOL    HW218045   2.506   0.282   9.958
 5768SOL     OW18046   2.318   4.116  10.789
 5768SOL    HW118047   2.388   4.050  10.795
 5768SOL    HW218048   2.239   4.069  10.815
 5769SOL     OW18049   3.476   4.170  10.051
 5769SOL    HW118050   3.410   4.196   9.986
 5769SOL    HW218051   3.470   4.238  10.118
 5770SOL     OW18052   3.451   3.841  10.777
 5770SOL    HW118053   3.471   3.922  10.729
 5770SOL    HW218054   3.453   3.867  10.869
 5771SOL     OW18055   1.931   4.378   9.885
 5771SOL    HW118056   1.928   4.284   9.902
 5771SOL    HW218057   2.006   4.409   9.936
 5772SOL     OW18058   1.995   4.461  10.904
 5772SOL    HW118059   2.091   4.463  10.903
 5772SOL    HW218060   1.968   0.052  10.895
 5773SOL     OW18061   2.678   3.726   9.820
 5773SOL    HW118062   2.718   3.811   9.799
 5773SOL    HW218063   2.585   3.745   9.828
 5774SOL     OW18064   2.208   3.976   0.021
 5774SOL    HW118065   2.250   4.061   0.037
 5774SOL    HW218066   2.114   3.993   0.032
 5775SOL     OW18067   3.139   4.076  10.244
 5775SOL    HW118068   3.050   4.043  10.253
 5775SOL    HW218069   3.191   4.023  10.303
 5776SOL     OW18070   2.688   4.299  10.763
 5776SOL    HW118071   2.640   4.313  10.844
 5776SOL    HW218072   2.623   4.261  10.703
 5777SOL     OW18073   2.861   4.151  10.544
 5777SOL    HW118074   2.786   4.174  10.600
 5777SOL    HW218075   2.824   4.095  10.476
 5778SOL     OW18076   2.917   4.411   9.725
 5778SOL    HW118077   2.913   4.457   9.809
 5778SOL    HW218078   2.831   4.370   9.716
 5779SOL     OW18079   2.757   4.066   9.499
 5779SOL    HW118080   2.797   4.129   9.439
 5779SOL    HW218081   2.774   3.980   9.458
 5780SOL     OW18082   2.413   3.903  10.204
 5780SOL    HW118083   2.414   3.932  10.295
 5780SOL    HW218084   2.411   3.985  10.153
 5781SOL     OW18085   3.354   4.467  10.049
 5781SOL    HW118086   3.339   4.412  10.125
 5781SOL    HW218087   3.394   0.047  10.085
 5782SOL     OW18088   2.065   4.000  10.808
 5782SOL    HW118089   1.986   4.054  10.812
 5782SOL    HW218090   2.051   3.931  10.872
 5783SOL     OW18091   3.263   3.830   9.744
 5783SOL    HW118092   3.254   3.805   9.652
 5783SOL    HW218093   3.357   3.839   9.758
 5784SOL     OW18094   2.215   4.389   9.716
 5784SOL    HW118095   2.252   4.312   9.759
 5784SOL    HW218096   2.147   4.420   9.776
 5785SOL     OW18097   2.499   3.845   9.414
 5785SOL    HW118098   2.565   3.777   9.429
 5785SOL    HW218099   2.448   3.814   9.339
 5786SOL     OW18100   2.626   4.007  11.046
 5786SOL    HW118101   2.693   3.947  11.080
 5786SOL    HW218102   2.565   4.018   0.019
 5787SOL     OW18103   3.213   4.310  10.742
 5787SOL    HW118104   3.228   4.293  10.835
 5787SOL    HW218105   3.244   4.400  10.729
 5788SOL     OW18106   2.787   4.235  10.206
 5788SOL    HW118107   2.763   4.219  10.114
 5788SOL    HW218108   2.825   4.152  10.235
 5789SOL     OW18109   2.412   3.787   9.810
 5789SOL    HW118110   2.332   3.787   9.862
 5789SOL    HW218111   2.404   3.866   9.755
 5790SOL     OW18112   2.153   3.772   9.495
 5790SOL    HW118113   2.211   3.836   9.455
 5790SOL    HW218114   2.212   3.709   9.537
 5791SOL     OW18115   2.801   3.973   9.769
 5791SOL    HW118116   2.776   4.011   9.684
 5791SOL    HW218117   2.896   3.987   9.773
 5792SOL     OW18118   2.940   4.368  10.838
 5792SOL    HW118119   2.853   4.360  10.800
 5792SOL    HW218120   3.000   4.350  10.765
 5793SOL     OW18121   2.887   4.264   9.339
 5793SOL    HW118122   2.872   4.351   9.302
 5793SOL    HW218123   2.951   4.277   9.408
 5794SOL     OW18124   1.936   4.278  10.708
 5794SOL    HW118125   2.027   4.271  10.679
 5794SOL    HW218126   1.939   4.340  10.782
 5795SOL     OW18127   2.419   3.950  10.476
 5795SOL    HW118128   2.461   3.876  10.519
 5795SOL    HW218129   2.329   3.948  10.506
 5796SOL     OW18130   2.730   4.190   9.945
 5796SOL    HW118131   2.699   4.249   9.878
 5796SOL    HW218132   2.750   4.109   9.898
 5797SOL     OW18133   2.876   3.778  10.061
 5797SOL    HW118134   2.819   3.770   9.985
 5797SOL    HW218135   2.855   3.702  10.115
 5798SOL     OW18136   3.339   4.309  10.271
 5798SOL    HW118137   3.277   4.240  10.291
 5798SOL    HW218138   3.389   4.320  10.352
 5799SOL     OW18139   3.266   4.296   9.383
 5799SOL    HW118140   3.203   4.267   9.449
 5799SOL    HW218141   3.348   4.254   9.410
 5800SOL     OW18142   2.388   3.988   9.627
 5800SOL    HW118143   2.432   3.939   9.557
 5800SOL    HW218144   2.370   4.074   9.588
 5801SOL     OW18145   2.781   3.823  10.703
 5801SOL    HW118146   2.805   3.802  10.612
 5801SOL    HW218147   2.859   3.863  10.740
 5802SOL     OW18148   2.300   0.007  10.582
 5802SOL    HW118149   2.357   0.004  10.659
 5802SOL    HW218150   2.252   4.424  10.584
 5803SOL     OW18151   3.127   4.098  10.589
 5803SOL    HW118152   3.163   4.175  10.633
 5803SOL    HW218153   3.039   4.124  10.563
 5804SOL     OW18154   2.415   4.249  10.174
 5804SOL    HW118155   2.433   4.290  10.090
 5804SOL    HW218156   2.479   4.288  10.234
 5805SOL     OW18157   3.428   4.336   9.790
 5805SOL    HW118158   3.405   4.401   9.856
 5805SOL    HW218159   3.490   4.381   9.732
 5806SOL     OW18160   2.271   4.462  10.903
 5806SOL    HW118161   2.335   0.032  10.893
 5806SOL    HW218162   2.323   4.383  10.917
 5807SOL     OW18163   3.070   4.253   9.572
 5807SOL    HW118164   3.081   4.173   9.624
 5807SOL    HW218165   3.022   4.313   9.628
 5808SOL     OW18166   2.160   3.922  10.556
 5808SOL    HW118167   2.125   3.955  10.638
 5808SOL    HW218168   2.141   3.828  10.557
 5809SOL     OW18169   2.595   4.361  10.349
 5809SOL    HW118170   2.669   4.324  10.301
 5809SOL    HW218171   2.607   4.456  10.342
 5810SOL     OW18172   2.167   3.788   9.933
 5810SOL    HW118173   2.145   3.878   9.955
 5810SOL    HW218174   2.174   3.743  10.018
 5811SOL     OW18175   3.477   4.091   9.676
 5811SOL    HW118176   3.507   4.030   9.744
 5811SOL    HW218177   3.451   4.169   9.725
 5812SOL     OW18178   3.387   3.999   9.436
 5812SOL    HW118179   3.324   3.932   9.462
 5812SOL    HW218180   3.423   4.031   9.519
 5813SOL     OW18181   2.182   0.012  10.228
 5813SOL    HW118182   2.258   0.069  10.241
 5813SOL    HW218183   2.196   4.440  10.290
 5814SOL     OW18184   2.198   4.240  10.332
 5814SOL    HW118185   2.159   4.155  10.313
 5814SOL    HW218186   2.273   4.246  10.272
 5815SOL     OW18187   3.020   3.930  10.783
 5815SOL    HW118188   3.027   3.990  10.857
 5815SOL    HW218189   3.061   3.976  10.710
 5816SOL     OW18190   1.899   4.276  10.428
 5816SOL    HW118191   1.980   4.262  10.380
 5816SOL    HW218192   1.925   4.276  10.520
 5817SOL     OW18193   3.204   0.200  10.985
 5817SOL    HW118194   3.278   0.253  11.013
 5817SOL    HW218195   3.235   0.156  10.906
 5818SOL     OW18196   2.681   4.278   9.666
 5818SOL    HW118197   2.686   4.206   9.603
 5818SOL    HW218198   2.595   4.317   9.652
 5819SOL     OW18199   3.497   4.316  10.495
 5819SOL    HW118200   3.494   4.257  10.570
 5819SOL    HW218201   3.585   4.306  10.460
 5820SOL     OW18202   2.555   4.181  10.560
 5820SOL    HW118203   2.503   4.105  10.531
 5820SOL    HW218204   2.551   4.241  10.486
 5821SOL     OW18205   2.342   4.224   9.500
 5821SOL    HW118206   2.370   4.311   9.526
 5821SOL    HW218207   2.247   4.232   9.484
 5822SOL     OW18208   3.583   3.872   9.820
 5822SOL    HW118209   3.655   3.857   9.758
 5822SOL    HW218210   3.567   3.786   9.859
 5823SOL     OW18211   3.141   0.135   9.989
 5823SOL    HW118212   3.199   0.061  10.005
 5823SOL    HW218213   3.192   0.193   9.931
 5824SOL     OW18214   3.702   3.896  10.278
 5824SOL    HW118215   3.732   3.809  10.251
 5824SOL    HW218216   3.616   3.906  10.237
 5825SOL     OW18217   2.123   4.040  10.027
 5825SOL    HW118218   2.035   4.070  10.003
 5825SOL    HW218219   2.120   4.030  10.122
 5826SOL     OW18220   2.766   0.089   9.521
 5826SOL    HW118221   2.847   0.127   9.487
 5826SOL    HW218222   2.789   0.057   9.608
 5827SOL     OW18223   2.928   0.295  10.056
 5827SOL    HW118224   2.856   0.288   9.992
 5827SOL    HW218225   2.993   0.231  10.026
 5828SOL     OW18226   2.883   3.965  10.275
 5828SOL    HW118227   2.879   3.916  10.192
 5828SOL    HW218228   2.878   3.897  10.343
 5829SOL     OW18229   3.581   4.115  10.692
 5829SOL    HW118230   3.653   4.178  10.694
 5829SOL    HW218231   3.611   4.045  10.635
 5830SOL     OW18232   2.537   3.916  10.803
 5830SOL    HW118233   2.620   3.896  10.759
 5830SOL    HW218234   2.563   3.956  10.886
 5831SOL     OW18235   1.937   4.038   9.338
 5831SOL    HW118236   1.852   4.035   9.294
 5831SOL    HW218237   1.969   4.127   9.322
 5832SOL     OW18238   1.929   3.879   9.619
 5832SOL    HW118239   1.914   3.958   9.566
 5832SOL    HW218240   2.014   3.846   9.588
 5833SOL     OW18241   2.582   4.300  11.023
 5833SOL    HW118242   2.629   4.343  11.094
 5833SOL    HW218243   2.614   4.209  11.025
 5834SOL     OW18244   3.079   4.042   9.764
 5834SOL    HW118245   3.141   3.969   9.757
 5834SOL    HW218246   3.108   4.090   9.842
 5835SOL     OW18247   3.613   4.052  10.960
 5835SOL    HW118248   3.592   4.082  10.872
 5835SOL    HW218249   3.531   4.060  11.009
 5836SOL     OW18250   2.975   0.225   9.411
 5836SOL    HW118251   2.965   0.269   9.326
 5836SOL    HW218252   3.062   0.186   9.408
 5837SOL     OW18253   3.670   3.906  10.548
 5837SOL    HW118254   3.680   3.812  10.560
 5837SOL    HW218255   3.682   3.920  10.454
 5838SOL     OW18256   2.301   4.159   9.845
 5838SOL    HW118257   2.327   4.089   9.786
 5838SOL    HW218258   2.247   4.117   9.912
 5839SOL     OW18259   2.183   4.264  10.605
 5839SOL    HW118260   2.241   4.210  10.659
 5839SOL    HW218261   2.204   4.237  10.515
 5840SOL     OW18262   3.293   3.949  10.427
 5840SOL    HW118263   3.319   3.868  10.472
 5840SOL    HW218264   3.243   3.998  10.492
 5841SOL     OW18265   2.871   3.742  10.451
 5841SOL    HW118266   2.817   3.676  10.408
 5841SOL    HW218267   2.959   3.704  10.453
 5842SOL     OW18268   3.215   3.777   9.476
 5842SOL    HW118269   3.245   3.710   9.414
 5842SOL    HW218270   3.128   3.749   9.501
 5843SOL     OW18271   3.160   4.175   9.990
 5843SOL    HW118272   3.129   4.264  10.004
 5843SOL    HW218273   3.159   4.135  10.077
 5844SOL     OW18274   3.448   3.924  10.188
 5844SOL    HW118275   3.389   3.947  10.261
 5844SOL    HW218276   3.448   4.002  10.132
 5845SOL     OW18277   3.940   0.607   0.109
 5845SOL    HW118278   3.860   0.618   0.161
 5845SOL    HW218279   3.922   0.652   0.027
 5846SOL     OW18280   3.928   0.306   0.989
 5846SOL    HW118281   3.963   0.274   1.072
 5846SOL    HW218282   3.849   0.255   0.976
 5847SOL     OW18283   3.729   0.388   0.636
 5847SOL    HW118284   3.643   0.407   0.674
 5847SOL    HW218285   3.714   0.314   0.578
 5848SOL     OW18286   4.264   1.240   1.148
 5848SOL    HW118287   4.200   1.307   1.123
 5848SOL    HW218288   4.335   1.290   1.187
 5849SOL     OW18289   0.019   0.775   1.857
 5849SOL    HW118290   0.067   0.817   1.929
 5849SOL    HW218291   0.060   0.809   1.778
 5850SOL     OW18292   4.396   0.986   0.633
 5850SOL    HW118293   4.476   0.991   0.686
 5850SOL    HW218294   4.336   1.047   0.675
 5851SOL     OW18295   4.419   1.160   1.811
 5851SOL    HW118296   4.457   1.240   1.775
 5851SOL    HW218297   4.326   1.166   1.791
 5852SOL     OW18298   4.062   1.431   1.069
 5852SOL    HW118299   3.989   1.387   1.025
 5852SOL    HW218300   4.106   1.480   0.999
 5853SOL     OW18301   4.162   0.395   1.483
 5853SOL    HW118302   4.242   0.341   1.485
 5853SOL    HW218303   4.091   0.333   1.497
 5854SOL     OW18304   3.941   1.714   0.474
 5854SOL    HW118305   3.961   1.791   0.527
 5854SOL    HW218306   4.013   1.709   0.411
 5855SOL     OW18307   3.951   1.441   0.532
 5855SOL    HW118308   3.935   1.536   0.535
 5855SOL    HW218309   3.893   1.405   0.598
 5856SOL     OW18310   3.977   1.088   0.886
 5856SOL    HW118311   3.981   1.003   0.930
 5856SOL    HW218312   3.926   1.143   0.946
 5857SOL     OW18313   4.361   1.797   1.457
 5857SOL    HW118314   4.274   1.765   1.479
 5857SOL    HW218315   4.352   1.892   1.456
 5858SOL     OW18316   4.296   1.009   0.139
 5858SOL    HW118317   4.309   1.078   0.075
 5858SOL    HW218318   4.378   1.006   0.188
 5859SOL     OW18319   3.839   0.653   0.561
 5859SOL    HW118320   3.808   0.565   0.583
 5859SOL    HW218321   3.831   0.703   0.642
 5860SOL     OW18322   3.773   1.600   0.119
 5860SOL    HW118323   3.744   1.512   0.144
 5860SOL    HW218324   3.746   1.656   0.191
 5861SOL     OW18325   3.845   0.745   1.584
 5861SOL    HW118326   3.936   0.774   1.590
 5861SOL    HW218327   3.794   0.826   1.589
 5862SOL     OW18328   4.307   1.389   0.738
 5862SOL    HW118329   4.273   1.299   0.741
 5862SOL    HW218330   4.310   1.410   0.645
 5863SOL     OW18331   0.014   0.004   0.496
 5863SOL    HW118332   0.046   0.072   0.436
 5863SOL    HW218333   4.428   0.035   0.523
 5864SOL     OW18334   3.911   0.963   1.275
 5864SOL    HW118335   3.997   0.925   1.257
 5864SOL    HW218336   3.851   0.913   1.219
 5865SOL     OW18337   4.039   0.250   1.783
 5865SOL    HW118338   4.100   0.317   1.813
 5865SOL    HW218339   3.965   0.257   1.844
 5866SOL     OW18340   4.308   0.714   0.268
 5866SOL    HW118341   4.331   0.793   0.220
 5866SOL    HW218342   4.247   0.744   0.336
 5867SOL     OW18343   3.812   0.822   0.775
 5867SOL    HW118344   3.893   0.814   0.826
 5867SOL    HW218345   3.769   0.900   0.810
 5868SOL     OW18346   3.853   1.854   1.579
 5868SOL    HW118347   3.854   1.832   1.672
 5868SOL    HW218348   3.763   1.836   1.551
 5869SOL     OW18349   4.239   0.205   0.896
 5869SOL    HW118350   4.281   0.220   0.981
 5869SOL    HW218351   4.260   0.284   0.846
 5870SOL     OW18352   4.083   1.815   0.866
 5870SOL    HW118353   4.134   1.734   0.873
 5870SOL    HW218354   4.147   1.885   0.876
 5871SOL     OW18355   4.040   0.962   0.277
 5871SOL    HW118356   4.120   0.985   0.230
 5871SOL    HW218357   4.014   0.876   0.241
 5872SOL     OW18358   4.177   1.251   1.734
 5872SOL    HW118359   4.150   1.264   1.643
 5872SOL    HW218360   4.096   1.261   1.784
 5873SOL     OW18361   3.911   0.269   1.515
 5873SOL    HW118362   3.844   0.337   1.500
 5873SOL    HW218363   3.926   0.272   1.609
 5874SOL     OW18364   4.190   1.731   0.327
 5874SOL    HW118365   4.224   1.795   0.390
 5874SOL    HW218366   4.263   1.715   0.267
 5875SOL     OW18367   3.980   1.793   1.231
 5875SOL    HW118368   4.026   1.721   1.274
 5875SOL    HW218369   3.966   1.763   1.141
 5876SOL     OW18370   4.108   0.693   0.474
 5876SOL    HW118371   4.134   0.602   0.488
 5876SOL    HW218372   4.016   0.696   0.498
 5877SOL     OW18373   4.345   0.129   0.105
 5877SOL    HW118374   4.430   0.098   0.136
 5877SOL    HW218375   4.326   0.074   0.029
 5878SOL     OW18376   0.023   1.417   0.907
 5878SOL    HW118377   0.074   1.475   0.851
 5878SOL    HW218378   4.445   1.396   0.856
 5879SOL     OW18379   4.274   0.112   0.540
 5879SOL    HW118380   4.190   0.077   0.571
 5879SOL    HW218381   4.252   0.159   0.460
 5880SOL     OW18382   4.009   0.053   0.202
 5880SOL    HW118383   4.075   0.106   0.159
 5880SOL    HW218384   4.057   0.007   0.271
 5881SOL     OW18385   0.325   0.675   1.462
 5881SOL    HW118386   0.263   0.608   1.432
 5881SOL    HW218387   0.410   0.631   1.460
 5882SOL     OW18388   4.192   1.144   0.733
 5882SOL    HW118389   4.125   1.125   0.798
 5882SOL    HW218390   4.149   1.132   0.649
 5883SOL     OW18391   3.808   0.549   1.396
 5883SOL    HW118392   3.899   0.554   1.365
 5883SOL    HW218393   3.801   0.621   1.458
 5884SOL     OW18394   4.297   0.238   1.159
 5884SOL    HW118395   4.302   0.146   1.184
 5884SOL    HW218396   4.211   0.266   1.191
 5885SOL     OW18397   4.238   1.397   0.192
 5885SOL    HW118398   4.153   1.386   0.233
 5885SOL    HW218399   4.223   1.376   0.100
 5886SOL     OW18400   4.239   0.265   0.317
 5886SOL    HW118401   4.283   0.214   0.249
 5886SOL    HW218402   4.219   0.348   0.273
 5887SOL     OW18403   4.142   0.815   1.250
 5887SOL    HW118404   4.210   0.824   1.317
 5887SOL    HW218405   4.107   0.727   1.262
 5888SOL     OW18406   3.795   1.574   1.355
 5888SOL    HW118407   3.763   1.644   1.298
 5888SOL    HW218408   3.890   1.578   1.347
 5889SOL     OW18409   4.063   1.122   0.497
 5889SOL    HW118410   4.065   1.196   0.435
 5889SOL    HW218411   4.060   1.044   0.441
 5890SOL     OW18412   4.306   0.536   0.863
 5890SOL    HW118413   4.303   0.603   0.794
 5890SOL    HW218414   4.369   0.570   0.926
 5891SOL     OW18415   4.071   1.536   1.314
 5891SOL    HW118416   4.067   1.492   1.230
 5891SOL    HW218417   4.164   1.536   1.337
 5892SOL     OW18418   4.140   0.739   1.606
 5892SOL    HW118419   4.197   0.785   1.544
 5892SOL    HW218420   4.188   0.659   1.628
 5893SOL     OW18421   4.241   0.072   1.723
 5893SOL    HW118422   4.209   4.485   1.700
 5893SOL    HW218423   4.162   0.124   1.738
 5894SOL     OW18424   4.288   0.894   1.026
 5894SOL    HW118425   4.314   0.985   1.041
 5894SOL    HW218426   4.243   0.869   1.106
 5895SOL     OW18427   4.014   0.237   1.241
 5895SOL    HW118428   3.968   0.248   1.324
 5895SOL    HW218429   4.055   0.150   1.247
 5896SOL     OW18430   3.771   1.311   1.276
 5896SOL    HW118431   3.803   1.255   1.347
 5896SOL    HW218432   3.776   1.400   1.311
 5897SOL     OW18433   4.019   0.055   0.655
 5897SOL    HW118434   4.006   0.150   0.657
 5897SOL    HW218435   4.029   0.030   0.746
 5898SOL     OW18436   4.076   0.915   1.808
 5898SOL    HW118437   4.157   0.930   1.857
 5898SOL    HW218438   4.099   0.850   1.742
 5899SOL     OW18439   4.031   0.809   0.945
 5899SOL    HW118440   4.122   0.838   0.946
 5899SOL    HW218441   4.034   0.718   0.976
 5900SOL     OW18442   4.071   0.534   1.010
 5900SOL    HW118443   4.026   0.451   0.990
 5900SOL    HW218444   4.150   0.532   0.956
 5901SOL     OW18445   3.733   1.327   0.193
 5901SOL    HW118446   3.646   1.339   0.155
 5901SOL    HW218447   3.732   1.237   0.226
 5902SOL     OW18448   3.817   1.786   0.941
 5902SOL    HW118449   3.786   1.707   0.895
 5902SOL    HW218450   3.906   1.799   0.908
 5903SOL     OW18451   4.232   1.586   0.906
 5903SOL    HW118452   4.319   1.612   0.937
 5903SOL    HW218453   4.250   1.517   0.842
 5904SOL     OW18454   3.756   0.544   1.118
 5904SOL    HW118455   3.830   0.518   1.063
 5904SOL    HW218456   3.792   0.547   1.207
 5905SOL     OW18457   3.909   0.520   1.722
 5905SOL    HW118458   3.987   0.503   1.669
 5905SOL    HW218459   3.868   0.596   1.681
 5906SOL     OW18460   0.023   0.538   0.263
 5906SOL    HW118461   0.022   0.497   0.349
 5906SOL    HW218462   4.460   0.609   0.269
 5907SOL     OW18463   3.968   1.553   1.726
 5907SOL    HW118464   3.942   1.617   1.792
 5907SOL    HW218465   3.967   1.469   1.772
 5908SOL     OW18466   4.184   0.488   0.171
 5908SOL    HW118467   4.240   0.559   0.202
 5908SOL    HW218468   4.098   0.529   0.160
 5909SOL     OW18469   3.869   1.141   1.473
 5909SOL    HW118470   3.869   1.090   1.555
 5909SOL    HW218471   3.884   1.076   1.405
 5910SOL     OW18472   3.810   1.270   1.012
 5910SOL    HW118473   3.793   1.281   1.106
 5910SOL    HW218474   3.739   1.213   0.982
 5911SOL     OW18475   4.389   1.651   1.699
 5911SOL    HW118476   4.354   1.735   1.731
 5911SOL    HW218477   4.419   1.670   1.610
 5912SOL     OW18478   3.862   1.796   1.843
 5912SOL    HW118479   3.811   1.731   1.891
 5912SOL    HW218480   3.909   1.845   1.911
 5913SOL     OW18481   3.986   0.324   0.714
 5913SOL    HW118482   3.899   0.357   0.691
 5913SOL    HW218483   3.984   0.315   0.809
 5914SOL     OW18484   4.086   1.309   1.490
 5914SOL    HW118485   4.067   1.383   1.434
 5914SOL    HW218486   4.014   1.247   1.475
 5915SOL     OW18487   4.325   1.490   0.481
 5915SOL    HW118488   4.342   1.435   0.405
 5915SOL    HW218489   4.255   1.550   0.452
 5916SOL     OW18490   3.992   1.340   0.289
 5916SOL    HW118491   3.905   1.341   0.249
 5916SOL    HW218492   3.979   1.380   0.375
 5917SOL     OW18493   3.836   1.026   1.721
 5917SOL    HW118494   3.760   1.001   1.773
 5917SOL    HW218495   3.911   0.986   1.767
 5918SOL     OW18496   4.366   0.205   1.489
 5918SOL    HW118497   4.458   0.227   1.472
 5918SOL    HW218498   4.367   0.169   1.578
 5919SOL     OW18499   3.800   0.336   0.055
 5919SOL    HW118500   3.727   0.311  11.098
 5919SOL    HW218501   3.815   0.429   0.035
 5920SOL     OW18502   3.789   0.185   0.322
 5920SOL    HW118503   3.783   0.248   0.251
 5920SOL    HW218504   3.859   0.125   0.295
 5921SOL     OW18505   4.340   0.840   1.437
 5921SOL    HW118506   4.375   0.927   1.419
 5921SOL    HW218507   4.416   0.788   1.463
 5922SOL     OW18508   4.392   0.561   1.733
 5922SOL    HW118509   4.416   0.634   1.789
 5922SOL    HW218510   4.476   0.523   1.706
 5923SOL     OW18511   4.106   1.739   1.561
 5923SOL    HW118512   4.022   1.782   1.546
 5923SOL    HW218513   4.084   1.658   1.607
 5924SOL     OW18514   4.309   0.727   0.667
 5924SOL    HW118515   4.349   0.813   0.657
 5924SOL    HW218516   4.239   0.725   0.601
 5925SOL     OW18517   3.942   1.306   1.854
 5925SOL    HW118518   3.878   1.242   1.825
 5925SOL    HW218519   3.925   1.317   1.947
 5926SOL     OW18520   3.810   1.231   0.667
 5926SOL    HW118521   3.817   1.184   0.749
 5926SOL    HW218522   3.880   1.196   0.612
 5927SOL     OW18523   4.421   1.386   1.666
 5927SOL    HW118524   4.331   1.356   1.655
 5927SOL    HW218525   4.413   1.480   1.679
 5928SOL     OW18526   4.164   0.433   0.532
 5928SOL    HW118527   4.182   0.363   0.470
 5928SOL    HW218528   4.108   0.394   0.598
 5929SOL     OW18529   4.055   0.558   1.289
 5929SOL    HW118530   4.107   0.499   1.344
 5929SOL    HW218531   4.074   0.531   1.199
 5930SOL     OW18532   0.035   1.603   0.688
 5930SOL    HW118533   0.064   1.666   0.623
 5930SOL    HW218534   4.466   1.553   0.643
 5931SOL     OW18535   3.766   1.069   0.301
 5931SOL    HW118536   3.861   1.064   0.298
 5931SOL    HW218537   3.738   0.981   0.326
 5932SOL     OW18538   3.953   0.626   1.983
 5932SOL    HW118539   3.866   0.618   2.024
 5932SOL    HW218540   3.939   0.596   1.893
 5933SOL     OW18541   3.928   0.306   2.852
 5933SOL    HW118542   3.963   0.274   2.934
 5933SOL    HW218543   3.848   0.255   2.838
 5934SOL     OW18544   3.730   0.389   2.499
 5934SOL    HW118545   3.643   0.407   2.536
 5934SOL    HW218546   3.716   0.315   2.439
 5935SOL     OW18547   4.265   1.241   3.007
 5935SOL    HW118548   4.200   1.307   2.985
 5935SOL    HW218549   4.335   1.290   3.049
 5936SOL     OW18550   0.019   0.775   3.719
 5936SOL    HW118551   0.067   0.817   3.790
 5936SOL    HW218552   0.060   0.808   3.639
 5937SOL     OW18553   4.399   0.988   2.494
 5937SOL    HW118554   4.474   0.984   2.552
 5937SOL    HW218555   4.338   1.048   2.537
 5938SOL     OW18556   4.419   1.160   3.673
 5938SOL    HW118557   4.457   1.240   3.637
 5938SOL    HW218558   4.326   1.166   3.653
 5939SOL     OW18559   4.062   1.431   2.931
 5939SOL    HW118560   3.989   1.386   2.888
 5939SOL    HW218561   4.105   1.480   2.861
 5940SOL     OW18562   4.162   0.395   3.346
 5940SOL    HW118563   4.241   0.341   3.347
 5940SOL    HW218564   4.091   0.333   3.359
 5941SOL     OW18565   3.941   1.715   2.334
 5941SOL    HW118566   3.961   1.791   2.389
 5941SOL    HW218567   4.017   1.706   2.277
 5942SOL     OW18568   3.955   1.442   2.397
 5942SOL    HW118569   3.935   1.535   2.402
 5942SOL    HW218570   3.897   1.402   2.461
 5943SOL     OW18571   3.977   1.088   2.748
 5943SOL    HW118572   3.981   1.003   2.791
 5943SOL    HW218573   3.926   1.143   2.807
 5944SOL     OW18574   4.361   1.797   3.319
 5944SOL    HW118575   4.274   1.765   3.341
 5944SOL    HW218576   4.352   1.892   3.318
 5945SOL     OW18577   4.309   0.986   2.002
 5945SOL    HW118578   4.340   1.037   1.927
 5945SOL    HW218579   4.376   0.998   2.069
 5946SOL     OW18580   3.841   0.654   2.422
 5946SOL    HW118581   3.810   0.566   2.444
 5946SOL    HW218582   3.832   0.703   2.504
 5947SOL     OW18583   3.759   1.594   1.985
 5947SOL    HW118584   3.739   1.502   2.005
 5947SOL    HW218585   3.734   1.641   2.064
 5948SOL     OW18586   3.845   0.745   3.446
 5948SOL    HW118587   3.936   0.774   3.452
 5948SOL    HW218588   3.793   0.826   3.451
 5949SOL     OW18589   4.307   1.388   2.600
 5949SOL    HW118590   4.272   1.299   2.602
 5949SOL    HW218591   4.310   1.410   2.506
 5950SOL     OW18592   0.018   0.015   2.370
 5950SOL    HW118593   0.048   0.077   2.305
 5950SOL    HW218594   4.428   0.042   2.390
 5951SOL     OW18595   3.911   0.963   3.137
 5951SOL    HW118596   3.997   0.925   3.119
 5951SOL    HW218597   3.850   0.913   3.082
 5952SOL     OW18598   4.039   0.250   3.646
 5952SOL    HW118599   4.100   0.318   3.675
 5952SOL    HW218600   3.965   0.257   3.706
 5953SOL     OW18601   4.312   0.727   2.132
 5953SOL    HW118602   4.306   0.806   2.080
 5953SOL    HW218603   4.246   0.738   2.201
 5954SOL     OW18604   3.812   0.822   2.638
 5954SOL    HW118605   3.892   0.814   2.689
 5954SOL    HW218606   3.770   0.901   2.672
 5955SOL     OW18607   3.853   1.854   3.441
 5955SOL    HW118608   3.854   1.832   3.534
 5955SOL    HW218609   3.763   1.836   3.414
 5956SOL     OW18610   4.238   0.203   2.760
 5956SOL    HW118611   4.282   0.221   2.843
 5956SOL    HW218612   4.260   0.279   2.705
 5957SOL     OW18613   4.083   1.815   2.727
 5957SOL    HW118614   4.134   1.734   2.735
 5957SOL    HW218615   4.147   1.885   2.738
 5958SOL     OW18616   4.041   0.960   2.113
 5958SOL    HW118617   4.124   0.978   2.070
 5958SOL    HW218618   4.012   0.877   2.075
 5959SOL     OW18619   4.177   1.251   3.596
 5959SOL    HW118620   4.150   1.264   3.505
 5959SOL    HW218621   4.096   1.261   3.646
 5960SOL     OW18622   3.911   0.269   3.377
 5960SOL    HW118623   3.844   0.337   3.362
 5960SOL    HW218624   3.926   0.272   3.471
 5961SOL     OW18625   4.190   1.735   2.187
 5961SOL    HW118626   4.225   1.795   2.253
 5961SOL    HW218627   4.260   1.729   2.121
 5962SOL     OW18628   3.980   1.793   3.093
 5962SOL    HW118629   4.026   1.721   3.136
 5962SOL    HW218630   3.967   1.762   3.003
 5963SOL     OW18631   4.112   0.693   2.333
 5963SOL    HW118632   4.136   0.601   2.350
 5963SOL    HW218633   4.019   0.697   2.354
 5964SOL     OW18634   4.326   0.119   1.979
 5964SOL    HW118635   4.412   0.076   1.989
 5964SOL    HW218636   4.302   0.101   1.888
 5965SOL     OW18637   0.022   1.418   2.770
 5965SOL    HW118638   0.075   1.473   2.713
 5965SOL    HW218639   4.445   1.397   2.718
 5966SOL     OW18640   4.272   0.111   2.403
 5966SOL    HW118641   4.188   0.072   2.426
 5966SOL    HW218642   4.253   0.162   2.324
 5967SOL     OW18643   4.024   0.069   2.065
 5967SOL    HW118644   4.103   0.119   2.047
 5967SOL    HW218645   4.052   0.000   2.126
 5968SOL     OW18646   0.325   0.674   3.325
 5968SOL    HW118647   0.263   0.608   3.294
 5968SOL    HW218648   0.410   0.631   3.321
 5969SOL     OW18649   4.191   1.145   2.591
 5969SOL    HW118650   4.123   1.125   2.656
 5969SOL    HW218651   4.148   1.129   2.507
 5970SOL     OW18652   3.809   0.549   3.258
 5970SOL    HW118653   3.899   0.554   3.227
 5970SOL    HW218654   3.801   0.621   3.320
 5971SOL     OW18655   4.297   0.239   3.023
 5971SOL    HW118656   4.303   0.146   3.046
 5971SOL    HW218657   4.211   0.266   3.053
 5972SOL     OW18658   4.231   1.386   2.035
 5972SOL    HW118659   4.146   1.372   2.076
 5972SOL    HW218660   4.211   1.399   1.943
 5973SOL     OW18661   4.242   0.271   2.185
 5973SOL    HW118662   4.283   0.215   2.119
 5973SOL    HW218663   4.221   0.352   2.138
 5974SOL     OW18664   4.142   0.815   3.112
 5974SOL    HW118665   4.210   0.824   3.179
 5974SOL    HW218666   4.107   0.727   3.124
 5975SOL     OW18667   3.795   1.574   3.217
 5975SOL    HW118668   3.763   1.644   3.161
 5975SOL    HW218669   3.890   1.578   3.209
 5976SOL     OW18670   4.065   1.112   2.351
 5976SOL    HW118671   4.068   1.185   2.288
 5976SOL    HW218672   4.064   1.033   2.296
 5977SOL     OW18673   4.305   0.538   2.725
 5977SOL    HW118674   4.302   0.604   2.656
 5977SOL    HW218675   4.369   0.572   2.788
 5978SOL     OW18676   4.071   1.537   3.176
 5978SOL    HW118677   4.067   1.492   3.092
 5978SOL    HW218678   4.164   1.536   3.199
 5979SOL     OW18679   4.140   0.739   3.468
 5979SOL    HW118680   4.197   0.785   3.406
 5979SOL    HW218681   4.187   0.659   3.490
 5980SOL     OW18682   4.241   0.072   3.586
 5980SOL    HW118683   4.209   4.485   3.561
 5980SOL    HW218684   4.162   0.124   3.601
 5981SOL     OW18685   4.288   0.895   2.888
 5981SOL    HW118686   4.314   0.986   2.904
 5981SOL    HW218687   4.243   0.868   2.968
 5982SOL     OW18688   4.015   0.237   3.103
 5982SOL    HW118689   3.968   0.248   3.186
 5982SOL    HW218690   4.055   0.150   3.109
 5983SOL     OW18691   3.772   1.311   3.138
 5983SOL    HW118692   3.803   1.255   3.209
 5983SOL    HW218693   3.776   1.400   3.173
 5984SOL     OW18694   4.012   0.051   2.518
 5984SOL    HW118695   4.004   0.146   2.518
 5984SOL    HW218696   4.024   0.028   2.610
 5985SOL     OW18697   4.076   0.915   3.670
 5985SOL    HW118698   4.157   0.930   3.719
 5985SOL    HW218699   4.099   0.850   3.604
 5986SOL     OW18700   4.031   0.809   2.807
 5986SOL    HW118701   4.122   0.838   2.808
 5986SOL    HW218702   4.034   0.718   2.838
 5987SOL     OW18703   4.071   0.534   2.872
 5987SOL    HW118704   4.026   0.452   2.852
 5987SOL    HW218705   4.149   0.532   2.818
 5988SOL     OW18706   3.730   1.320   2.057
 5988SOL    HW118707   3.643   1.334   2.020
 5988SOL    HW218708   3.726   1.231   2.092
 5989SOL     OW18709   3.817   1.786   2.802
 5989SOL    HW118710   3.786   1.707   2.757
 5989SOL    HW218711   3.906   1.799   2.770
 5990SOL     OW18712   4.232   1.585   2.767
 5990SOL    HW118713   4.319   1.611   2.800
 5990SOL    HW218714   4.250   1.516   2.703
 5991SOL     OW18715   3.756   0.544   2.980
 5991SOL    HW118716   3.830   0.518   2.925
 5991SOL    HW218717   3.792   0.547   3.069
 5992SOL     OW18718   3.909   0.520   3.584
 5992SOL    HW118719   3.987   0.503   3.530
 5992SOL    HW218720   3.868   0.596   3.543
 5993SOL     OW18721   0.026   0.547   2.123
 5993SOL    HW118722   0.022   0.496   2.205
 5993SOL    HW218723   4.460   0.615   2.134
 5994SOL     OW18724   3.968   1.553   3.588
 5994SOL    HW118725   3.941   1.617   3.654
 5994SOL    HW218726   3.967   1.469   3.634
 5995SOL     OW18727   4.188   0.494   2.045
 5995SOL    HW118728   4.247   0.567   2.067
 5995SOL    HW218729   4.103   0.536   2.031
 5996SOL     OW18730   3.869   1.140   3.335
 5996SOL    HW118731   3.869   1.090   3.417
 5996SOL    HW218732   3.885   1.075   3.267
 5997SOL     OW18733   3.810   1.270   2.874
 5997SOL    HW118734   3.794   1.281   2.967
 5997SOL    HW218735   3.739   1.213   2.844
 5998SOL     OW18736   4.389   1.652   3.561
 5998SOL    HW118737   4.354   1.735   3.593
 5998SOL    HW218738   4.419   1.670   3.472
 5999SOL     OW18739   3.863   1.796   3.705
 5999SOL    HW118740   3.811   1.731   3.753
 5999SOL    HW218741   3.909   1.845   3.773
 6000SOL     OW18742   3.987   0.322   2.576
 6000SOL    HW118743   3.900   0.357   2.553
 6000SOL    HW218744   3.984   0.314   2.672
 6001SOL     OW18745   4.087   1.309   3.352
 6001SOL    HW118746   4.066   1.384   3.296
 6001SOL    HW218747   4.015   1.247   3.337
 6002SOL     OW18748   4.326   1.490   2.341
 6002SOL    HW118749   4.342   1.430   2.268
 6002SOL    HW218750   4.259   1.550   2.309
 6003SOL     OW18751   3.984   1.348   2.150
 6003SOL    HW118752   3.891   1.344   2.127
 6003SOL    HW218753   3.986   1.385   2.238
 6004SOL     OW18754   3.836   1.026   3.583
 6004SOL    HW118755   3.760   1.001   3.635
 6004SOL    HW218756   3.910   0.986   3.629
 6005SOL     OW18757   4.366   0.205   3.352
 6005SOL    HW118758   4.457   0.227   3.333
 6005SOL    HW218759   4.367   0.170   3.441
 6006SOL     OW18760   3.806   0.335   1.910
 6006SOL    HW118761   3.736   0.280   1.875
 6006SOL    HW218762   3.816   0.405   1.846
 6007SOL     OW18763   3.787   0.185   2.177
 6007SOL    HW118764   3.788   0.253   2.109
 6007SOL    HW218765   3.863   0.130   2.157
 6008SOL     OW18766   4.340   0.840   3.299
 6008SOL    HW118767   4.375   0.927   3.281
 6008SOL    HW218768   4.416   0.788   3.325
 6009SOL     OW18769   4.393   0.560   3.595
 6009SOL    HW118770   4.416   0.634   3.651
 6009SOL    HW218771   4.476   0.523   3.568
 6010SOL     OW18772   4.106   1.739   3.423
 6010SOL    HW118773   4.022   1.782   3.409
 6010SOL    HW218774   4.084   1.658   3.469
 6011SOL     OW18775   4.308   0.728   2.530
 6011SOL    HW118776   4.348   0.814   2.517
 6011SOL    HW218777   4.240   0.724   2.463
 6012SOL     OW18778   3.942   1.306   3.716
 6012SOL    HW118779   3.878   1.242   3.686
 6012SOL    HW218780   3.924   1.317   3.809
 6013SOL     OW18781   3.810   1.232   2.528
 6013SOL    HW118782   3.815   1.185   2.611
 6013SOL    HW218783   3.878   1.192   2.473
 6014SOL     OW18784   4.421   1.386   3.528
 6014SOL    HW118785   4.331   1.356   3.517
 6014SOL    HW218786   4.413   1.481   3.541
 6015SOL     OW18787   4.166   0.436   2.398
 6015SOL    HW118788   4.185   0.368   2.332
 6015SOL    HW218789   4.109   0.393   2.461
 6016SOL     OW18790   4.055   0.558   3.151
 6016SOL    HW118791   4.107   0.499   3.205
 6016SOL    HW218792   4.074   0.531   3.061
 6017SOL     OW18793   0.035   1.604   2.549
 6017SOL    HW118794   0.061   1.668   2.483
 6017SOL    HW218795   4.468   1.551   2.506
 6018SOL     OW18796   3.768   1.069   2.168
 6018SOL    HW118797   3.861   1.060   2.150
 6018SOL    HW218798   3.739   0.981   2.191
 6019SOL     OW18799   3.953   0.626   3.845
 6019SOL    HW118800   3.866   0.618   3.886
 6019SOL    HW218801   3.939   0.596   3.755
 6020SOL     OW18802   3.928   0.306   4.714
 6020SOL    HW118803   3.963   0.274   4.796
 6020SOL    HW218804   3.848   0.255   4.700
 6021SOL     OW18805   3.730   0.389   4.361
 6021SOL    HW118806   3.643   0.407   4.398
 6021SOL    HW218807   3.716   0.316   4.301
 6022SOL     OW18808   4.265   1.241   4.869
 6022SOL    HW118809   4.199   1.306   4.846
 6022SOL    HW218810   4.335   1.291   4.911
 6023SOL     OW18811   0.019   0.775   5.581
 6023SOL    HW118812   0.067   0.817   5.652
 6023SOL    HW218813   0.059   0.808   5.501
 6024SOL     OW18814   4.399   0.988   4.355
 6024SOL    HW118815   4.473   0.982   4.416
 6024SOL    HW218816   4.338   1.048   4.399
 6025SOL     OW18817   4.419   1.160   5.535
 6025SOL    HW118818   4.457   1.240   5.499
 6025SOL    HW218819   4.326   1.166   5.515
 6026SOL     OW18820   4.062   1.431   4.793
 6026SOL    HW118821   3.989   1.386   4.750
 6026SOL    HW218822   4.104   1.479   4.722
 6027SOL     OW18823   4.162   0.395   5.208
 6027SOL    HW118824   4.241   0.341   5.209
 6027SOL    HW218825   4.090   0.333   5.221
 6028SOL     OW18826   3.942   1.715   4.197
 6028SOL    HW118827   3.961   1.791   4.251
 6028SOL    HW218828   4.017   1.706   4.139
 6029SOL     OW18829   3.956   1.442   4.259
 6029SOL    HW118830   3.935   1.535   4.264
 6029SOL    HW218831   3.897   1.401   4.323
 6030SOL     OW18832   3.979   1.089   4.611
 6030SOL    HW118833   3.981   1.003   4.654
 6030SOL    HW218834   3.926   1.143   4.669
 6031SOL     OW18835   4.361   1.797   5.181
 6031SOL    HW118836   4.273   1.764   5.202
 6031SOL    HW218837   4.352   1.892   5.180
 6032SOL     OW18838   4.309   0.986   3.864
 6032SOL    HW118839   4.340   1.037   3.789
 6032SOL    HW218840   4.376   0.998   3.931
 6033SOL     OW18841   3.841   0.653   4.284
 6033SOL    HW118842   3.809   0.566   4.307
 6033SOL    HW218843   3.832   0.703   4.366
 6034SOL     OW18844   3.760   1.593   3.847
 6034SOL    HW118845   3.739   1.502   3.866
 6034SOL    HW218846   3.734   1.641   3.925
 6035SOL     OW18847   3.844   0.745   5.308
 6035SOL    HW118848   3.935   0.775   5.314
 6035SOL    HW218849   3.793   0.826   5.311
 6036SOL     OW18850   4.307   1.388   4.462
 6036SOL    HW118851   4.272   1.299   4.464
 6036SOL    HW218852   4.310   1.410   4.369
 6037SOL     OW18853   0.018   0.015   4.233
 6037SOL    HW118854   0.049   0.078   4.167
 6037SOL    HW218855   4.428   0.043   4.252
 6038SOL     OW18856   3.911   0.962   5.000
 6038SOL    HW118857   3.996   0.924   4.981
 6038SOL    HW218858   3.850   0.916   4.943
 6039SOL     OW18859   4.039   0.250   5.508
 6039SOL    HW118860   4.100   0.318   5.537
 6039SOL    HW218861   3.965   0.257   5.568
 6040SOL     OW18862   4.312   0.727   3.995
 6040SOL    HW118863   4.306   0.806   3.942
 6040SOL    HW218864   4.246   0.738   4.063
 6041SOL     OW18865   3.812   0.821   4.500
 6041SOL    HW118866   3.892   0.815   4.551
 6041SOL    HW218867   3.768   0.899   4.534
 6042SOL     OW18868   3.853   1.854   5.303
 6042SOL    HW118869   3.854   1.832   5.396
 6042SOL    HW218870   3.764   1.836   5.274
 6043SOL     OW18871   4.238   0.203   4.622
 6043SOL    HW118872   4.282   0.221   4.705
 6043SOL    HW218873   4.259   0.278   4.567
 6044SOL     OW18874   4.083   1.815   4.589
 6044SOL    HW118875   4.133   1.734   4.597
 6044SOL    HW218876   4.147   1.884   4.600
 6045SOL     OW18877   4.041   0.959   3.976
 6045SOL    HW118878   4.124   0.978   3.931
 6045SOL    HW218879   4.012   0.877   3.938
 6046SOL     OW18880   4.177   1.251   5.458
 6046SOL    HW118881   4.150   1.264   5.367
 6046SOL    HW218882   4.096   1.261   5.508
 6047SOL     OW18883   3.910   0.269   5.239
 6047SOL    HW118884   3.845   0.337   5.222
 6047SOL    HW218885   3.925   0.272   5.333
 6048SOL     OW18886   4.190   1.735   4.049
 6048SOL    HW118887   4.225   1.796   4.115
 6048SOL    HW218888   4.260   1.729   3.983
 6049SOL     OW18889   3.982   1.793   4.955
 6049SOL    HW118890   4.026   1.720   4.997
 6049SOL    HW218891   3.965   1.763   4.865
 6050SOL     OW18892   4.113   0.692   4.195
 6050SOL    HW118893   4.136   0.601   4.212
 6050SOL    HW218894   4.019   0.697   4.216
 6051SOL     OW18895   4.327   0.118   3.842
 6051SOL    HW118896   4.412   0.076   3.851
 6051SOL    HW218897   4.301   0.101   3.751
 6052SOL     OW18898   0.022   1.418   4.632
 6052SOL    HW118899   0.075   1.473   4.574
 6052SOL    HW218900   4.445   1.397   4.580
 6053SOL     OW18901   4.272   0.111   4.265
 6053SOL    HW118902   4.187   0.071   4.288
 6053SOL    HW218903   4.253   0.162   4.186
 6054SOL     OW18904   4.023   0.068   3.927
 6054SOL    HW118905   4.103   0.119   3.908
 6054SOL    HW218906   4.052   0.000   3.988
 6055SOL     OW18907   0.325   0.674   5.189
 6055SOL    HW118908   0.262   0.609   5.157
 6055SOL    HW218909   0.410   0.629   5.182
 6056SOL     OW18910   4.191   1.144   4.453
 6056SOL    HW118911   4.124   1.125   4.518
 6056SOL    HW218912   4.148   1.129   4.369
 6057SOL     OW18913   3.809   0.548   5.121
 6057SOL    HW118914   3.899   0.554   5.089
 6057SOL    HW218915   3.801   0.621   5.183
 6058SOL     OW18916   4.298   0.239   4.885
 6058SOL    HW118917   4.302   0.146   4.907
 6058SOL    HW218918   4.211   0.267   4.915
 6059SOL     OW18919   4.231   1.386   3.897
 6059SOL    HW118920   4.146   1.371   3.939
 6059SOL    HW218921   4.210   1.399   3.805
 6060SOL     OW18922   4.242   0.271   4.047
 6060SOL    HW118923   4.283   0.215   3.981
 6060SOL    HW218924   4.221   0.352   4.000
 6061SOL     OW18925   4.142   0.815   4.974
 6061SOL    HW118926   4.210   0.824   5.041
 6061SOL    HW218927   4.107   0.727   4.986
 6062SOL     OW18928   3.794   1.574   5.080
 6062SOL    HW118929   3.761   1.643   5.022
 6062SOL    HW218930   3.889   1.579   5.070
 6063SOL     OW18931   4.066   1.112   4.213
 6063SOL    HW118932   4.067   1.185   4.150
 6063SOL    HW218933   4.065   1.034   4.158
 6064SOL     OW18934   4.305   0.538   4.587
 6064SOL    HW118935   4.301   0.604   4.517
 6064SOL    HW218936   4.368   0.573   4.650
 6065SOL     OW18937   4.071   1.537   5.038
 6065SOL    HW118938   4.066   1.492   4.954
 6065SOL    HW218939   4.164   1.536   5.060
 6066SOL     OW18940   4.140   0.739   5.330
 6066SOL    HW118941   4.196   0.785   5.268
 6066SOL    HW218942   4.187   0.659   5.352
 6067SOL     OW18943   4.241   0.072   5.448
 6067SOL    HW118944   4.209   4.485   5.423
 6067SOL    HW218945   4.162   0.124   5.463
 6068SOL     OW18946   4.289   0.894   4.750
 6068SOL    HW118947   4.313   0.986   4.765
 6068SOL    HW218948   4.243   0.868   4.830
 6069SOL     OW18949   4.015   0.237   4.965
 6069SOL    HW118950   3.968   0.248   5.048
 6069SOL    HW218951   4.055   0.150   4.971
 6070SOL     OW18952   3.774   1.311   5.000
 6070SOL    HW118953   3.804   1.256   5.072
 6070SOL    HW218954   3.776   1.400   5.036
 6071SOL     OW18955   4.012   0.051   4.380
 6071SOL    HW118956   4.004   0.147   4.380
 6071SOL    HW218957   4.024   0.028   4.472
 6072SOL     OW18958   4.076   0.915   5.533
 6072SOL    HW118959   4.158   0.929   5.581
 6072SOL    HW218960   4.099   0.850   5.466
 6073SOL     OW18961   4.031   0.809   4.670
 6073SOL    HW118962   4.122   0.838   4.670
 6073SOL    HW218963   4.034   0.718   4.700
 6074SOL     OW18964   4.071   0.534   4.735
 6074SOL    HW118965   4.026   0.452   4.714
 6074SOL    HW218966   4.149   0.532   4.680
 6075SOL     OW18967   3.730   1.320   3.919
 6075SOL    HW118968   3.643   1.334   3.881
 6075SOL    HW218969   3.726   1.231   3.953
 6076SOL     OW18970   3.817   1.785   4.665
 6076SOL    HW118971   3.786   1.706   4.619
 6076SOL    HW218972   3.906   1.798   4.632
 6077SOL     OW18973   4.232   1.585   4.629
 6077SOL    HW118974   4.319   1.611   4.662
 6077SOL    HW218975   4.250   1.516   4.565
 6078SOL     OW18976   3.756   0.543   4.842
 6078SOL    HW118977   3.829   0.518   4.787
 6078SOL    HW218978   3.792   0.547   4.931
 6079SOL     OW18979   3.910   0.520   5.446
 6079SOL    HW118980   3.987   0.503   5.392
 6079SOL    HW218981   3.868   0.596   5.405
 6080SOL     OW18982   0.026   0.547   3.986
 6080SOL    HW118983   0.021   0.496   4.066
 6080SOL    HW218984   4.460   0.615   3.996
 6081SOL     OW18985   3.969   1.553   5.450
 6081SOL    HW118986   3.942   1.617   5.516
 6081SOL    HW218987   3.967   1.469   5.496
 6082SOL     OW18988   4.188   0.494   3.907
 6082SOL    HW118989   4.246   0.567   3.929
 6082SOL    HW218990   4.103   0.536   3.893
 6083SOL     OW18991   3.869   1.141   5.198
 6083SOL    HW118992   3.869   1.090   5.279
 6083SOL    HW218993   3.884   1.076   5.130
 6084SOL     OW18994   3.811   1.269   4.736
 6084SOL    HW118995   3.794   1.281   4.830
 6084SOL    HW218996   3.738   1.214   4.706
 6085SOL     OW18997   4.390   1.652   5.423
 6085SOL    HW118998   4.353   1.734   5.455
 6085SOL    HW218999   4.417   1.671   5.333
 6086SOL     OW19000   3.863   1.795   5.567
 6086SOL    HW119001   3.811   1.731   5.615
 6086SOL    HW219002   3.909   1.845   5.635
 6087SOL     OW19003   3.987   0.323   4.438
 6087SOL    HW119004   3.900   0.357   4.415
 6087SOL    HW219005   3.984   0.315   4.534
 6088SOL     OW19006   4.087   1.309   5.214
 6088SOL    HW119007   4.066   1.384   5.158
 6088SOL    HW219008   4.015   1.247   5.199
 6089SOL     OW19009   4.327   1.490   4.203
 6089SOL    HW119010   4.342   1.430   4.130
 6089SOL    HW219011   4.258   1.549   4.172
 6090SOL     OW19012   3.984   1.348   4.012
 6090SOL    HW119013   3.892   1.344   3.989
 6090SOL    HW219014   3.986   1.385   4.100
 6091SOL     OW19015   3.837   1.027   5.446
 6091SOL    HW119016   3.760   1.001   5.497
 6091SOL    HW219017   3.911   0.986   5.491
 6092SOL     OW19018   4.366   0.205   5.214
 6092SOL    HW119019   4.457   0.227   5.195
 6092SOL    HW219020   4.368   0.170   5.303
 6093SOL     OW19021   3.806   0.334   3.772
 6093SOL    HW119022   3.736   0.280   3.736
 6093SOL    HW219023   3.816   0.405   3.709
 6094SOL     OW19024   3.787   0.185   4.039
 6094SOL    HW119025   3.788   0.253   3.971
 6094SOL    HW219026   3.863   0.130   4.019
 6095SOL     OW19027   4.340   0.840   5.161
 6095SOL    HW119028   4.375   0.927   5.143
 6095SOL    HW219029   4.416   0.788   5.187
 6096SOL     OW19030   4.393   0.560   5.457
 6096SOL    HW119031   4.416   0.634   5.514
 6096SOL    HW219032   4.477   0.523   5.430
 6097SOL     OW19033   4.106   1.739   5.285
 6097SOL    HW119034   4.022   1.782   5.270
 6097SOL    HW219035   4.084   1.658   5.331
 6098SOL     OW19036   4.308   0.729   4.392
 6098SOL    HW119037   4.348   0.815   4.379
 6098SOL    HW219038   4.240   0.724   4.325
 6099SOL     OW19039   3.942   1.306   5.578
 6099SOL    HW119040   3.879   1.241   5.547
 6099SOL    HW219041   3.923   1.317   5.671
 6100SOL     OW19042   3.811   1.233   4.390
 6100SOL    HW119043   3.813   1.186   4.473
 6100SOL    HW219044   3.878   1.191   4.336
 6101SOL     OW19045   4.421   1.386   5.391
 6101SOL    HW119046   4.331   1.356   5.379
 6101SOL    HW219047   4.413   1.481   5.404
 6102SOL     OW19048   4.167   0.435   4.260
 6102SOL    HW119049   4.185   0.368   4.194
 6102SOL    HW219050   4.109   0.393   4.323
 6103SOL     OW19051   4.055   0.558   5.013
 6103SOL    HW119052   4.107   0.499   5.067
 6103SOL    HW219053   4.074   0.531   4.923
 6104SOL     OW19054   0.035   1.604   4.411
 6104SOL    HW119055   0.061   1.668   4.345
 6104SOL    HW219056   4.468   1.551   4.369
 6105SOL     OW19057   3.768   1.069   4.030
 6105SOL    HW119058   3.862   1.059   4.012
 6105SOL    HW219059   3.739   0.981   4.053
 6106SOL     OW19060   3.953   0.626   5.707
 6106SOL    HW119061   3.866   0.618   5.748
 6106SOL    HW219062   3.940   0.596   5.617
 6107SOL     OW19063   3.928   0.307   6.576
 6107SOL    HW119064   3.963   0.274   6.658
 6107SOL    HW219065   3.848   0.255   6.562
 6108SOL     OW19066   3.730   0.389   6.223
 6108SOL    HW119067   3.643   0.406   6.260
 6108SOL    HW219068   3.717   0.315   6.163
 6109SOL     OW19069   4.265   1.241   6.731
 6109SOL    HW119070   4.200   1.307   6.709
 6109SOL    HW219071   4.335   1.290   6.773
 6110SOL     OW19072   0.018   0.775   7.443
 6110SOL    HW119073   0.067   0.817   7.514
 6110SOL    HW219074   0.060   0.808   7.363
 6111SOL     OW19075   4.399   0.988   6.218
 6111SOL    HW119076   4.474   0.983   6.277
 6111SOL    HW219077   4.338   1.048   6.261
 6112SOL     OW19078   4.419   1.160   7.397
 6112SOL    HW119079   4.457   1.240   7.361
 6112SOL    HW219080   4.326   1.166   7.376
 6113SOL     OW19081   4.062   1.431   6.655
 6113SOL    HW119082   3.989   1.386   6.611
 6113SOL    HW219083   4.105   1.480   6.585
 6114SOL     OW19084   4.162   0.395   7.070
 6114SOL    HW119085   4.241   0.341   7.071
 6114SOL    HW219086   4.091   0.333   7.083
 6115SOL     OW19087   3.942   1.715   6.058
 6115SOL    HW119088   3.961   1.791   6.113
 6115SOL    HW219089   4.017   1.706   6.000
 6116SOL     OW19090   3.955   1.442   6.121
 6116SOL    HW119091   3.935   1.536   6.125
 6116SOL    HW219092   3.896   1.402   6.186
 6117SOL     OW19093   3.977   1.088   6.472
 6117SOL    HW119094   3.981   1.003   6.515
 6117SOL    HW219095   3.926   1.143   6.531
 6118SOL     OW19096   4.361   1.797   7.043
 6118SOL    HW119097   4.274   1.765   7.065
 6118SOL    HW219098   4.352   1.892   7.042
 6119SOL     OW19099   4.309   0.986   5.726
 6119SOL    HW119100   4.340   1.037   5.651
 6119SOL    HW219101   4.376   0.998   5.793
 6120SOL     OW19102   3.841   0.654   6.146
 6120SOL    HW119103   3.810   0.566   6.169
 6120SOL    HW219104   3.832   0.703   6.228
 6121SOL     OW19105   3.759   1.593   5.709
 6121SOL    HW119106   3.739   1.502   5.729
 6121SOL    HW219107   3.734   1.641   5.788
 6122SOL     OW19108   3.845   0.745   7.170
 6122SOL    HW119109   3.936   0.774   7.176
 6122SOL    HW219110   3.794   0.826   7.175
 6123SOL     OW19111   4.307   1.388   6.323
 6123SOL    HW119112   4.272   1.300   6.326
 6123SOL    HW219113   4.310   1.410   6.230
 6124SOL     OW19114   0.018   0.015   6.095
 6124SOL    HW119115   0.049   0.078   6.029
 6124SOL    HW219116   4.428   0.043   6.114
 6125SOL     OW19117   3.911   0.963   6.861
 6125SOL    HW119118   3.997   0.925   6.843
 6125SOL    HW219119   3.851   0.913   6.805
 6126SOL     OW19120   4.039   0.250   7.369
 6126SOL    HW119121   4.100   0.317   7.399
 6126SOL    HW219122   3.965   0.257   7.430
 6127SOL     OW19123   4.312   0.727   5.857
 6127SOL    HW119124   4.306   0.806   5.804
 6127SOL    HW219125   4.246   0.738   5.925
 6128SOL     OW19126   3.812   0.822   6.362
 6128SOL    HW119127   3.892   0.814   6.413
 6128SOL    HW219128   3.770   0.901   6.396
 6129SOL     OW19129   3.853   1.853   7.165
 6129SOL    HW119130   3.854   1.832   7.258
 6129SOL    HW219131   3.763   1.836   7.138
 6130SOL     OW19132   4.238   0.203   6.484
 6130SOL    HW119133   4.282   0.221   6.567
 6130SOL    HW219134   4.260   0.279   6.429
 6131SOL     OW19135   4.083   1.815   6.452
 6131SOL    HW119136   4.134   1.734   6.459
 6131SOL    HW219137   4.147   1.885   6.462
 6132SOL     OW19138   4.041   0.959   5.838
 6132SOL    HW119139   4.124   0.978   5.793
 6132SOL    HW219140   4.012   0.877   5.799
 6133SOL     OW19141   4.177   1.251   7.320
 6133SOL    HW119142   4.150   1.264   7.229
 6133SOL    HW219143   4.096   1.261   7.370
 6134SOL     OW19144   3.910   0.269   7.101
 6134SOL    HW119145   3.845   0.337   7.086
 6134SOL    HW219146   3.926   0.272   7.195
 6135SOL     OW19147   4.191   1.735   5.911
 6135SOL    HW119148   4.225   1.795   5.977
 6135SOL    HW219149   4.260   1.730   5.845
 6136SOL     OW19150   3.980   1.793   6.817
 6136SOL    HW119151   4.026   1.721   6.860
 6136SOL    HW219152   3.966   1.762   6.727
 6137SOL     OW19153   4.113   0.693   6.057
 6137SOL    HW119154   4.136   0.601   6.074
 6137SOL    HW219155   4.019   0.697   6.078
 6138SOL     OW19156   4.326   0.118   5.704
 6138SOL    HW119157   4.412   0.076   5.713
 6138SOL    HW219158   4.301   0.101   5.613
 6139SOL     OW19159   0.022   1.418   6.494
 6139SOL    HW119160   0.075   1.473   6.437
 6139SOL    HW219161   4.444   1.397   6.442
 6140SOL     OW19162   4.272   0.111   6.127
 6140SOL    HW119163   4.188   0.071   6.150
 6140SOL    HW219164   4.254   0.162   6.048
 6141SOL     OW19165   4.023   0.069   5.790
 6141SOL    HW119166   4.103   0.118   5.770
 6141SOL    HW219167   4.052   0.000   5.850
 6142SOL     OW19168   0.325   0.675   7.049
 6142SOL    HW119169   0.263   0.608   7.018
 6142SOL    HW219170   0.410   0.631   7.045
 6143SOL     OW19171   4.191   1.144   6.315
 6143SOL    HW119172   4.123   1.125   6.380
 6143SOL    HW219173   4.148   1.129   6.231
 6144SOL     OW19174   3.809   0.549   6.982
 6144SOL    HW119175   3.899   0.554   6.951
 6144SOL    HW219176   3.801   0.621   7.044
 6145SOL     OW19177   4.298   0.239   6.747
 6145SOL    HW119178   4.303   0.146   6.770
 6145SOL    HW219179   4.211   0.266   6.777
 6146SOL     OW19180   4.231   1.386   5.759
 6146SOL    HW119181   4.146   1.371   5.801
 6146SOL    HW219182   4.211   1.399   5.667
 6147SOL     OW19183   4.242   0.271   5.909
 6147SOL    HW119184   4.283   0.215   5.843
 6147SOL    HW219185   4.221   0.352   5.862
 6148SOL     OW19186   4.142   0.815   6.836
 6148SOL    HW119187   4.210   0.824   6.903
 6148SOL    HW219188   4.107   0.727   6.848
 6149SOL     OW19189   3.795   1.574   6.941
 6149SOL    HW119190   3.763   1.644   6.884
 6149SOL    HW219191   3.890   1.578   6.933
 6150SOL     OW19192   4.066   1.112   6.075
 6150SOL    HW119193   4.067   1.185   6.012
 6150SOL    HW219194   4.064   1.034   6.020
 6151SOL     OW19195   4.304   0.538   6.449
 6151SOL    HW119196   4.302   0.604   6.380
 6151SOL    HW219197   4.369   0.572   6.512
 6152SOL     OW19198   4.071   1.537   6.901
 6152SOL    HW119199   4.067   1.492   6.816
 6152SOL    HW219200   4.164   1.536   6.923
 6153SOL     OW19201   4.140   0.739   7.192
 6153SOL    HW119202   4.197   0.784   7.130
 6153SOL    HW219203   4.187   0.659   7.214
 6154SOL     OW19204   4.241   0.072   7.309
 6154SOL    HW119205   4.209   4.485   7.286
 6154SOL    HW219206   4.162   0.124   7.324
 6155SOL     OW19207   4.288   0.895   6.612
 6155SOL    HW119208   4.314   0.986   6.628
 6155SOL    HW219209   4.243   0.868   6.692
 6156SOL     OW19210   4.015   0.237   6.827
 6156SOL    HW119211   3.968   0.248   6.910
 6156SOL    HW219212   4.055   0.150   6.833
 6157SOL     OW19213   3.771   1.311   6.862
 6157SOL    HW119214   3.803   1.255   6.933
 6157SOL    HW219215   3.776   1.400   6.897
 6158SOL     OW19216   4.012   0.051   6.242
 6158SOL    HW119217   4.004   0.146   6.242
 6158SOL    HW219218   4.024   0.028   6.334
 6159SOL     OW19219   4.076   0.915   7.394
 6159SOL    HW119220   4.157   0.930   7.443
 6159SOL    HW219221   4.099   0.850   7.328
 6160SOL     OW19222   4.031   0.809   6.531
 6160SOL    HW119223   4.122   0.838   6.532
 6160SOL    HW219224   4.034   0.718   6.562
 6161SOL     OW19225   4.071   0.534   6.596
 6161SOL    HW119226   4.026   0.452   6.576
 6161SOL    HW219227   4.149   0.532   6.542
 6162SOL     OW19228   3.730   1.320   5.782
 6162SOL    HW119229   3.644   1.334   5.744
 6162SOL    HW219230   3.727   1.230   5.816
 6163SOL     OW19231   3.817   1.786   6.526
 6163SOL    HW119232   3.786   1.707   6.481
 6163SOL    HW219233   3.906   1.799   6.494
 6164SOL     OW19234   4.232   1.585   6.491
 6164SOL    HW119235   4.319   1.611   6.524
 6164SOL    HW219236   4.250   1.516   6.427
 6165SOL     OW19237   3.756   0.544   6.704
 6165SOL    HW119238   3.829   0.517   6.649
 6165SOL    HW219239   3.792   0.547   6.792
 6166SOL     OW19240   3.909   0.520   7.308
 6166SOL    HW119241   3.987   0.503   7.255
 6166SOL    HW219242   3.868   0.596   7.267
 6167SOL     OW19243   0.026   0.547   5.847
 6167SOL    HW119244   0.021   0.496   5.928
 6167SOL    HW219245   4.460   0.615   5.858
 6168SOL     OW19246   3.968   1.553   7.312
 6168SOL    HW119247   3.942   1.617   7.378
 6168SOL    HW219248   3.967   1.469   7.358
 6169SOL     OW19249   4.188   0.494   5.769
 6169SOL    HW119250   4.247   0.567   5.791
 6169SOL    HW219251   4.103   0.536   5.755
 6170SOL     OW19252   3.869   1.140   7.059
 6170SOL    HW119253   3.869   1.090   7.141
 6170SOL    HW219254   3.885   1.075   6.991
 6171SOL     OW19255   3.810   1.270   6.598
 6171SOL    HW119256   3.793   1.281   6.691
 6171SOL    HW219257   3.740   1.213   6.567
 6172SOL     OW19258   4.389   1.652   7.285
 6172SOL    HW119259   4.354   1.735   7.317
 6172SOL    HW219260   4.419   1.670   7.196
 6173SOL     OW19261   3.862   1.796   7.429
 6173SOL    HW119262   3.811   1.731   7.477
 6173SOL    HW219263   3.909   1.845   7.497
 6174SOL     OW19264   3.987   0.322   6.300
 6174SOL    HW119265   3.900   0.357   6.277
 6174SOL    HW219266   3.984   0.314   6.396
 6175SOL     OW19267   4.086   1.309   7.076
 6175SOL    HW119268   4.066   1.384   7.020
 6175SOL    HW219269   4.014   1.247   7.061
 6176SOL     OW19270   4.326   1.490   6.065
 6176SOL    HW119271   4.342   1.430   5.992
 6176SOL    HW219272   4.259   1.550   6.034
 6177SOL     OW19273   3.985   1.347   5.875
 6177SOL    HW119274   3.892   1.344   5.851
 6177SOL    HW219275   3.986   1.385   5.963
 6178SOL     OW19276   3.836   1.026   7.307
 6178SOL    HW119277   3.760   1.001   7.359
 6178SOL    HW219278   3.911   0.986   7.353
 6179SOL     OW19279   4.366   0.206   7.076
 6179SOL    HW119280   4.457   0.227   7.057
 6179SOL    HW219281   4.367   0.170   7.164
 6180SOL     OW19282   3.806   0.335   5.634
 6180SOL    HW119283   3.736   0.280   5.598
 6180SOL    HW219284   3.816   0.405   5.570
 6181SOL     OW19285   3.787   0.186   5.901
 6181SOL    HW119286   3.788   0.253   5.833
 6181SOL    HW219287   3.863   0.131   5.881
 6182SOL     OW19288   4.340   0.840   7.023
 6182SOL    HW119289   4.375   0.927   7.006
 6182SOL    HW219290   4.416   0.788   7.050
 6183SOL     OW19291   4.392   0.561   7.319
 6183SOL    HW119292   4.416   0.634   7.375
 6183SOL    HW219293   4.476   0.523   7.292
 6184SOL     OW19294   4.106   1.739   7.147
 6184SOL    HW119295   4.022   1.782   7.132
 6184SOL    HW219296   4.084   1.658   7.193
 6185SOL     OW19297   4.308   0.729   6.254
 6185SOL    HW119298   4.348   0.815   6.241
 6185SOL    HW219299   4.240   0.724   6.187
 6186SOL     OW19300   3.943   1.306   7.440
 6186SOL    HW119301   3.878   1.241   7.411
 6186SOL    HW219302   3.925   1.317   7.533
 6187SOL     OW19303   3.810   1.232   6.252
 6187SOL    HW119304   3.816   1.185   6.335
 6187SOL    HW219305   3.877   1.193   6.197
 6188SOL     OW19306   4.421   1.386   7.252
 6188SOL    HW119307   4.331   1.355   7.241
 6188SOL    HW219308   4.412   1.480   7.265
 6189SOL     OW19309   4.167   0.435   6.122
 6189SOL    HW119310   4.185   0.368   6.056
 6189SOL    HW219311   4.109   0.392   6.185
 6190SOL     OW19312   4.055   0.558   6.875
 6190SOL    HW119313   4.107   0.499   6.929
 6190SOL    HW219314   4.074   0.531   6.785
 6191SOL     OW19315   0.035   1.604   6.273
 6191SOL    HW119316   0.060   1.668   6.207
 6191SOL    HW219317   4.468   1.551   6.231
 6192SOL     OW19318   3.768   1.069   5.893
 6192SOL    HW119319   3.861   1.060   5.874
 6192SOL    HW219320   3.739   0.981   5.916
 6193SOL     OW19321   3.953   0.626   7.569
 6193SOL    HW119322   3.866   0.618   7.610
 6193SOL    HW219323   3.939   0.596   7.479
 6194SOL     OW19324   3.928   0.307   8.438
 6194SOL    HW119325   3.963   0.274   8.520
 6194SOL    HW219326   3.848   0.255   8.424
 6195SOL     OW19327   3.730   0.389   8.085
 6195SOL    HW119328   3.643   0.406   8.122
 6195SOL    HW219329   3.716   0.315   8.025
 6196SOL     OW19330   4.265   1.241   8.593
 6196SOL    HW119331   4.200   1.307   8.571
 6196SOL    HW219332   4.336   1.290   8.635
 6197SOL     OW19333   0.018   0.775   9.305
 6197SOL    HW119334   0.067   0.816   9.376
 6197SOL    HW219335   0.060   0.808   9.225
 6198SOL     OW19336   4.399   0.988   8.080
 6198SOL    HW119337   4.474   0.984   8.139
 6198SOL    HW219338   4.338   1.048   8.123
 6199SOL     OW19339   4.419   1.160   9.259
 6199SOL    HW119340   4.457   1.240   9.223
 6199SOL    HW219341   4.326   1.166   9.238
 6200SOL     OW19342   4.062   1.431   8.517
 6200SOL    HW119343   3.989   1.386   8.474
 6200SOL    HW219344   4.105   1.480   8.447
 6201SOL     OW19345   4.162   0.395   8.932
 6201SOL    HW119346   4.241   0.341   8.933
 6201SOL    HW219347   4.091   0.333   8.945
 6202SOL     OW19348   3.941   1.715   7.920
 6202SOL    HW119349   3.961   1.791   7.975
 6202SOL    HW219350   4.017   1.706   7.863
 6203SOL     OW19351   3.955   1.442   7.983
 6203SOL    HW119352   3.935   1.536   7.988
 6203SOL    HW219353   3.897   1.402   8.047
 6204SOL     OW19354   3.977   1.088   8.334
 6204SOL    HW119355   3.982   1.003   8.377
 6204SOL    HW219356   3.926   1.143   8.393
 6205SOL     OW19357   4.361   1.797   8.905
 6205SOL    HW119358   4.274   1.765   8.927
 6205SOL    HW219359   4.352   1.892   8.904
 6206SOL     OW19360   4.309   0.986   7.588
 6206SOL    HW119361   4.340   1.037   7.513
 6206SOL    HW219362   4.376   0.998   7.655
 6207SOL     OW19363   3.841   0.654   8.008
 6207SOL    HW119364   3.810   0.566   8.030
 6207SOL    HW219365   3.832   0.703   8.090
 6208SOL     OW19366   3.759   1.593   7.571
 6208SOL    HW119367   3.739   1.502   7.591
 6208SOL    HW219368   3.734   1.641   7.650
 6209SOL     OW19369   3.845   0.745   9.032
 6209SOL    HW119370   3.936   0.774   9.038
 6209SOL    HW219371   3.794   0.826   9.037
 6210SOL     OW19372   4.307   1.389   8.185
 6210SOL    HW119373   4.272   1.300   8.188
 6210SOL    HW219374   4.310   1.410   8.092
 6211SOL     OW19375   0.018   0.014   7.956
 6211SOL    HW119376   0.048   0.077   7.891
 6211SOL    HW219377   4.428   0.042   7.976
 6212SOL     OW19378   3.911   0.963   8.723
 6212SOL    HW119379   3.997   0.925   8.705
 6212SOL    HW219380   3.851   0.913   8.668
 6213SOL     OW19381   4.039   0.250   9.232
 6213SOL    HW119382   4.100   0.317   9.261
 6213SOL    HW219383   3.965   0.257   9.292
 6214SOL     OW19384   4.312   0.726   7.718
 6214SOL    HW119385   4.306   0.806   7.666
 6214SOL    HW219386   4.246   0.738   7.787
 6215SOL     OW19387   3.812   0.822   8.224
 6215SOL    HW119388   3.892   0.814   8.275
 6215SOL    HW219389   3.770   0.901   8.258
 6216SOL     OW19390   3.853   1.853   9.027
 6216SOL    HW119391   3.854   1.832   9.120
 6216SOL    HW219392   3.762   1.837   9.000
 6217SOL     OW19393   4.238   0.203   8.346
 6217SOL    HW119394   4.282   0.221   8.429
 6217SOL    HW219395   4.260   0.279   8.292
 6218SOL     OW19396   4.083   1.815   8.313
 6218SOL    HW119397   4.134   1.734   8.321
 6218SOL    HW219398   4.147   1.885   8.324
 6219SOL     OW19399   4.041   0.960   7.699
 6219SOL    HW119400   4.124   0.978   7.656
 6219SOL    HW219401   4.012   0.877   7.661
 6220SOL     OW19402   4.177   1.251   9.182
 6220SOL    HW119403   4.150   1.264   9.091
 6220SOL    HW219404   4.096   1.261   9.232
 6221SOL     OW19405   3.910   0.269   8.963
 6221SOL    HW119406   3.844   0.337   8.948
 6221SOL    HW219407   3.926   0.272   9.057
 6222SOL     OW19408   4.190   1.735   7.773
 6222SOL    HW119409   4.225   1.795   7.839
 6222SOL    HW219410   4.260   1.729   7.707
 6223SOL     OW19411   3.980   1.793   8.679
 6223SOL    HW119412   4.026   1.721   8.722
 6223SOL    HW219413   3.966   1.762   8.589
 6224SOL     OW19414   4.112   0.693   7.919
 6224SOL    HW119415   4.136   0.601   7.936
 6224SOL    HW219416   4.019   0.697   7.940
 6225SOL     OW19417   4.326   0.119   7.565
 6225SOL    HW119418   4.412   0.076   7.575
 6225SOL    HW219419   4.302   0.101   7.475
 6226SOL     OW19420   0.022   1.418   8.356
 6226SOL    HW119421   0.075   1.473   8.299
 6226SOL    HW219422   4.444   1.397   8.304
 6227SOL     OW19423   4.272   0.111   7.989
 6227SOL    HW119424   4.188   0.072   8.012
 6227SOL    HW219425   4.253   0.162   7.910
 6228SOL     OW19426   4.024   0.069   7.651
 6228SOL    HW119427   4.103   0.119   7.633
 6228SOL    HW219428   4.052   0.000   7.712
 6229SOL     OW19429   0.325   0.675   8.910
 6229SOL    HW119430   0.263   0.608   8.880
 6229SOL    HW219431   0.410   0.631   8.907
 6230SOL     OW19432   4.191   1.145   8.177
 6230SOL    HW119433   4.123   1.125   8.242
 6230SOL    HW219434   4.148   1.129   8.093
 6231SOL     OW19435   3.809   0.549   8.844
 6231SOL    HW119436   3.899   0.554   8.813
 6231SOL    HW219437   3.801   0.621   8.906
 6232SOL     OW19438   4.297   0.239   8.609
 6232SOL    HW119439   4.303   0.146   8.632
 6232SOL    HW219440   4.211   0.266   8.639
 6233SOL     OW19441   4.231   1.386   7.621
 6233SOL    HW119442   4.146   1.372   7.663
 6233SOL    HW219443   4.211   1.399   7.529
 6234SOL     OW19444   4.242   0.271   7.771
 6234SOL    HW119445   4.283   0.215   7.705
 6234SOL    HW219446   4.221   0.352   7.724
 6235SOL     OW19447   4.142   0.815   8.698
 6235SOL    HW119448   4.210   0.824   8.765
 6235SOL    HW219449   4.107   0.727   8.710
 6236SOL     OW19450   3.795   1.574   8.803
 6236SOL    HW119451   3.763   1.644   8.746
 6236SOL    HW219452   3.890   1.578   8.795
 6237SOL     OW19453   4.065   1.112   7.937
 6237SOL    HW119454   4.068   1.185   7.874
 6237SOL    HW219455   4.064   1.033   7.882
 6238SOL     OW19456   4.305   0.538   8.311
 6238SOL    HW119457   4.302   0.604   8.242
 6238SOL    HW219458   4.369   0.572   8.374
 6239SOL     OW19459   4.071   1.537   8.763
 6239SOL    HW119460   4.067   1.492   8.678
 6239SOL    HW219461   4.164   1.536   8.785
 6240SOL     OW19462   4.140   0.739   9.054
 6240SOL    HW119463   4.197   0.785   8.992
 6240SOL    HW219464   4.187   0.659   9.076
 6241SOL     OW19465   4.241   0.072   9.171
 6241SOL    HW119466   4.209   4.485   9.148
 6241SOL    HW219467   4.162   0.124   9.186
 6242SOL     OW19468   4.288   0.895   8.474
 6242SOL    HW119469   4.314   0.986   8.490
 6242SOL    HW219470   4.243   0.868   8.554
 6243SOL     OW19471   4.015   0.237   8.689
 6243SOL    HW119472   3.968   0.248   8.772
 6243SOL    HW219473   4.055   0.150   8.695
 6244SOL     OW19474   3.771   1.311   8.724
 6244SOL    HW119475   3.803   1.255   8.795
 6244SOL    HW219476   3.776   1.400   8.759
 6245SOL     OW19477   4.012   0.051   8.104
 6245SOL    HW119478   4.004   0.146   8.104
 6245SOL    HW219479   4.024   0.028   8.196
 6246SOL     OW19480   4.076   0.915   9.256
 6246SOL    HW119481   4.157   0.930   9.305
 6246SOL    HW219482   4.099   0.850   9.190
 6247SOL     OW19483   4.031   0.809   8.393
 6247SOL    HW119484   4.122   0.838   8.394
 6247SOL    HW219485   4.034   0.718   8.424
 6248SOL     OW19486   4.071   0.534   8.458
 6248SOL    HW119487   4.026   0.452   8.438
 6248SOL    HW219488   4.149   0.532   8.404
 6249SOL     OW19489   3.730   1.320   7.643
 6249SOL    HW119490   3.643   1.334   7.606
 6249SOL    HW219491   3.726   1.231   7.678
 6250SOL     OW19492   3.817   1.786   8.388
 6250SOL    HW119493   3.786   1.707   8.343
 6250SOL    HW219494   3.906   1.799   8.356
 6251SOL     OW19495   4.232   1.585   8.353
 6251SOL    HW119496   4.319   1.611   8.387
 6251SOL    HW219497   4.250   1.516   8.290
 6252SOL     OW19498   3.756   0.544   8.566
 6252SOL    HW119499   3.829   0.518   8.511
 6252SOL    HW219500   3.792   0.547   8.655
 6253SOL     OW19501   3.909   0.520   9.170
 6253SOL    HW119502   3.987   0.503   9.117
 6253SOL    HW219503   3.868   0.596   9.129
 6254SOL     OW19504   0.026   0.547   7.709
 6254SOL    HW119505   0.022   0.496   7.790
 6254SOL    HW219506   4.460   0.615   7.720
 6255SOL     OW19507   3.968   1.553   9.174
 6255SOL    HW119508   3.942   1.617   9.240
 6255SOL    HW219509   3.967   1.469   9.220
 6256SOL     OW19510   4.188   0.494   7.631
 6256SOL    HW119511   4.247   0.567   7.653
 6256SOL    HW219512   4.103   0.536   7.617
 6257SOL     OW19513   3.869   1.140   8.921
 6257SOL    HW119514   3.869   1.090   9.003
 6257SOL    HW219515   3.885   1.075   8.853
 6258SOL     OW19516   3.810   1.270   8.460
 6258SOL    HW119517   3.794   1.281   8.553
 6258SOL    HW219518   3.739   1.213   8.430
 6259SOL     OW19519   4.389   1.652   9.147
 6259SOL    HW119520   4.354   1.735   9.179
 6259SOL    HW219521   4.419   1.670   9.058
 6260SOL     OW19522   3.862   1.796   9.291
 6260SOL    HW119523   3.811   1.731   9.339
 6260SOL    HW219524   3.909   1.845   9.359
 6261SOL     OW19525   3.987   0.322   8.162
 6261SOL    HW119526   3.900   0.357   8.139
 6261SOL    HW219527   3.984   0.314   8.258
 6262SOL     OW19528   4.086   1.309   8.938
 6262SOL    HW119529   4.066   1.384   8.882
 6262SOL    HW219530   4.014   1.247   8.923
 6263SOL     OW19531   4.326   1.490   7.927
 6263SOL    HW119532   4.342   1.431   7.854
 6263SOL    HW219533   4.259   1.550   7.896
 6264SOL     OW19534   3.984   1.348   7.736
 6264SOL    HW119535   3.891   1.344   7.713
 6264SOL    HW219536   3.986   1.385   7.824
 6265SOL     OW19537   3.836   1.026   9.169
 6265SOL    HW119538   3.760   1.001   9.221
 6265SOL    HW219539   3.911   0.986   9.215
 6266SOL     OW19540   4.366   0.206   8.938
 6266SOL    HW119541   4.457   0.227   8.919
 6266SOL    HW219542   4.367   0.169   9.026
 6267SOL     OW19543   3.806   0.335   7.496
 6267SOL    HW119544   3.736   0.280   7.461
 6267SOL    HW219545   3.816   0.405   7.432
 6268SOL     OW19546   3.787   0.185   7.763
 6268SOL    HW119547   3.788   0.253   7.695
 6268SOL    HW219548   3.863   0.130   7.743
 6269SOL     OW19549   4.340   0.840   8.885
 6269SOL    HW119550   4.375   0.927   8.868
 6269SOL    HW219551   4.416   0.788   8.912
 6270SOL     OW19552   4.392   0.561   9.181
 6270SOL    HW119553   4.416   0.634   9.237
 6270SOL    HW219554   4.476   0.523   9.154
 6271SOL     OW19555   4.106   1.739   9.009
 6271SOL    HW119556   4.022   1.782   8.994
 6271SOL    HW219557   4.084   1.658   9.055
 6272SOL     OW19558   4.308   0.729   8.116
 6272SOL    HW119559   4.348   0.814   8.103
 6272SOL    HW219560   4.240   0.724   8.049
 6273SOL     OW19561   3.943   1.306   9.302
 6273SOL    HW119562   3.878   1.241   9.273
 6273SOL    HW219563   3.925   1.317   9.395
 6274SOL     OW19564   3.810   1.232   8.114
 6274SOL    HW119565   3.816   1.185   8.197
 6274SOL    HW219566   3.878   1.192   8.059
 6275SOL     OW19567   4.421   1.386   9.114
 6275SOL    HW119568   4.331   1.355   9.103
 6275SOL    HW219569   4.412   1.480   9.127
 6276SOL     OW19570   4.166   0.436   7.984
 6276SOL    HW119571   4.185   0.368   7.918
 6276SOL    HW219572   4.109   0.393   8.047
 6277SOL     OW19573   4.055   0.558   8.737
 6277SOL    HW119574   4.107   0.499   8.791
 6277SOL    HW219575   4.074   0.531   8.647
 6278SOL     OW19576   0.035   1.604   8.135
 6278SOL    HW119577   0.060   1.669   8.069
 6278SOL    HW219578   4.468   1.551   8.093
 6279SOL     OW19579   3.768   1.069   7.754
 6279SOL    HW119580   3.861   1.060   7.736
 6279SOL    HW219581   3.739   0.981   7.777
 6280SOL     OW19582   3.953   0.626   9.431
 6280SOL    HW119583   3.866   0.618   9.472
 6280SOL    HW219584   3.939   0.596   9.341
 6281SOL     OW19585   3.927   0.307  10.299
 6281SOL    HW119586   3.963   0.274  10.382
 6281SOL    HW219587   3.848   0.255  10.286
 6282SOL     OW19588   3.730   0.389   9.947
 6282SOL    HW119589   3.644   0.406   9.984
 6282SOL    HW219590   3.716   0.315   9.887
 6283SOL     OW19591   4.265   1.241  10.457
 6283SOL    HW119592   4.200   1.306  10.432
 6283SOL    HW219593   4.336   1.291  10.498
 6284SOL     OW19594   0.024   0.811   0.081
 6284SOL    HW119595   0.106   0.843   0.119
 6284SOL    HW219596   0.045   0.791  11.090
 6285SOL     OW19597   4.399   0.988   9.941
 6285SOL    HW119598   4.474   0.982  10.001
 6285SOL    HW219599   4.338   1.048   9.985
 6286SOL     OW19600   4.063   1.431  10.378
 6286SOL    HW119601   3.989   1.386  10.336
 6286SOL    HW219602   4.105   1.480  10.308
 6287SOL     OW19603   4.176   0.397  10.790
 6287SOL    HW119604   4.245   0.331  10.796
 6287SOL    HW219605   4.097   0.350  10.816
 6288SOL     OW19606   3.941   1.715   9.782
 6288SOL    HW119607   3.961   1.791   9.837
 6288SOL    HW219608   4.017   1.706   9.725
 6289SOL     OW19609   3.955   1.442   9.845
 6289SOL    HW119610   3.935   1.536   9.850
 6289SOL    HW219611   3.897   1.402   9.909
 6290SOL     OW19612   3.978   1.088  10.196
 6290SOL    HW119613   3.981   1.003  10.240
 6290SOL    HW219614   3.926   1.143  10.255
 6291SOL     OW19615   4.354   1.804  10.750
 6291SOL    HW119616   4.268   1.774  10.779
 6291SOL    HW219617   4.353   1.898  10.767
 6292SOL     OW19618   4.309   0.986   9.450
 6292SOL    HW119619   4.340   1.037   9.375
 6292SOL    HW219620   4.376   0.998   9.517
 6293SOL     OW19621   3.841   0.654   9.870
 6293SOL    HW119622   3.810   0.566   9.893
 6293SOL    HW219623   3.832   0.703   9.952
 6294SOL     OW19624   3.759   1.594   9.433
 6294SOL    HW119625   3.739   1.502   9.453
 6294SOL    HW219626   3.734   1.641   9.512
 6295SOL     OW19627   3.850   0.726  10.918
 6295SOL    HW119628   3.942   0.749  10.904
 6295SOL    HW219629   3.802   0.809  10.910
 6296SOL     OW19630   4.307   1.388  10.048
 6296SOL    HW119631   4.272   1.299  10.050
 6296SOL    HW219632   4.311   1.410   9.954
 6297SOL     OW19633   0.017   0.014   9.817
 6297SOL    HW119634   0.048   0.077   9.752
 6297SOL    HW219635   4.428   0.042   9.838
 6298SOL     OW19636   3.911   0.961  10.581
 6298SOL    HW119637   3.996   0.922  10.563
 6298SOL    HW219638   3.850   0.910  10.527
 6299SOL     OW19639   4.058   0.279  11.087
 6299SOL    HW119640   4.115   0.339   0.035
 6299SOL    HW219641   3.973   0.285   0.031
 6300SOL     OW19642   4.312   0.726   9.580
 6300SOL    HW119643   4.306   0.806   9.528
 6300SOL    HW219644   4.246   0.738   9.649
 6301SOL     OW19645   3.812   0.822  10.086
 6301SOL    HW119646   3.892   0.814  10.137
 6301SOL    HW219647   3.770   0.901  10.120
 6302SOL     OW19648   3.855   1.850  10.898
 6302SOL    HW119649   3.839   1.809  10.983
 6302SOL    HW219650   3.773   1.838  10.851
 6303SOL     OW19651   4.238   0.205  10.213
 6303SOL    HW119652   4.287   0.225  10.293
 6303SOL    HW219653   4.259   0.277  10.154
 6304SOL     OW19654   4.083   1.815  10.175
 6304SOL    HW119655   4.134   1.734  10.183
 6304SOL    HW219656   4.147   1.885  10.186
 6305SOL     OW19657   4.041   0.960   9.561
 6305SOL    HW119658   4.124   0.978   9.518
 6305SOL    HW219659   4.012   0.877   9.523
 6306SOL     OW19660   4.176   1.263  11.056
 6306SOL    HW119661   4.150   1.279  10.965
 6306SOL    HW219662   4.107   1.206  11.091
 6307SOL     OW19663   3.923   0.271  10.818
 6307SOL    HW119664   3.849   0.332  10.813
 6307SOL    HW219665   3.942   0.265  10.912
 6308SOL     OW19666   4.190   1.735   9.635
 6308SOL    HW119667   4.225   1.795   9.701
 6308SOL    HW219668   4.260   1.729   9.569
 6309SOL     OW19669   3.981   1.793  10.542
 6309SOL    HW119670   4.026   1.721  10.586
 6309SOL    HW219671   3.967   1.762  10.453
 6310SOL     OW19672   4.113   0.693   9.781
 6310SOL    HW119673   4.136   0.601   9.798
 6310SOL    HW219674   4.019   0.697   9.802
 6311SOL     OW19675   4.326   0.119   9.427
 6311SOL    HW119676   4.412   0.076   9.438
 6311SOL    HW219677   4.302   0.101   9.336
 6312SOL     OW19678   0.022   1.418  10.218
 6312SOL    HW119679   0.075   1.473  10.161
 6312SOL    HW219680   4.444   1.398  10.166
 6313SOL     OW19681   4.272   0.111   9.851
 6313SOL    HW119682   4.188   0.071   9.874
 6313SOL    HW219683   4.254   0.162   9.772
 6314SOL     OW19684   4.024   0.069   9.513
 6314SOL    HW119685   4.103   0.119   9.494
 6314SOL    HW219686   4.052   0.000   9.574
 6315SOL     OW19687   0.310   0.678  10.777
 6315SOL    HW119688   0.258   0.599  10.765
 6315SOL    HW219689   0.401   0.648  10.773
 6316SOL     OW19690   4.191   1.144  10.039
 6316SOL    HW119691   4.123   1.125  10.104
 6316SOL    HW219692   4.148   1.129   9.955
 6317SOL     OW19693   3.808   0.547  10.710
 6317SOL    HW119694   3.898   0.553  10.679
 6317SOL    HW219695   3.802   0.611  10.781
 6318SOL     OW19696   4.300   0.236  10.481
 6318SOL    HW119697   4.295   0.141  10.486
 6318SOL    HW219698   4.211   0.265  10.501
 6319SOL     OW19699   4.231   1.386   9.483
 6319SOL    HW119700   4.146   1.372   9.525
 6319SOL    HW219701   4.211   1.399   9.391
 6320SOL     OW19702   4.242   0.271   9.633
 6320SOL    HW119703   4.283   0.215   9.567
 6320SOL    HW219704   4.221   0.352   9.586
 6321SOL     OW19705   4.142   0.814  10.559
 6321SOL    HW119706   4.210   0.823  10.626
 6321SOL    HW219707   4.107   0.726  10.571
 6322SOL     OW19708   3.795   1.577  10.665
 6322SOL    HW119709   3.764   1.645  10.605
 6322SOL    HW219710   3.890   1.578  10.655
 6323SOL     OW19711   4.065   1.112   9.799
 6323SOL    HW119712   4.068   1.185   9.736
 6323SOL    HW219713   4.064   1.033   9.744
 6324SOL     OW19714   4.304   0.538  10.175
 6324SOL    HW119715   4.303   0.604  10.106
 6324SOL    HW219716   4.370   0.569  10.236
 6325SOL     OW19717   4.071   1.535  10.625
 6325SOL    HW119718   4.068   1.490  10.540
 6325SOL    HW219719   4.164   1.537  10.647
 6326SOL     OW19720   4.135   0.734  10.902
 6326SOL    HW119721   4.200   0.777  10.846
 6326SOL    HW219722   4.160   0.641  10.900
 6327SOL     OW19723   4.289   0.895  10.336
 6327SOL    HW119724   4.313   0.986  10.352
 6327SOL    HW219725   4.243   0.869  10.415
 6328SOL     OW19726   4.016   0.237  10.549
 6328SOL    HW119727   3.975   0.251  10.635
 6328SOL    HW219728   4.053   0.149  10.555
 6329SOL     OW19729   3.776   1.313  10.584
 6329SOL    HW119730   3.802   1.256  10.656
 6329SOL    HW219731   3.775   1.401  10.623
 6330SOL     OW19732   4.012   0.051   9.966
 6330SOL    HW119733   4.004   0.146   9.966
 6330SOL    HW219734   4.024   0.028  10.058
 6331SOL     OW19735   4.081   0.915  11.094
 6331SOL    HW119736   4.164   0.934   0.037
 6331SOL    HW219737   4.102   0.849  11.028
 6332SOL     OW19738   4.031   0.809  10.255
 6332SOL    HW119739   4.122   0.838  10.255
 6332SOL    HW219740   4.034   0.718  10.285
 6333SOL     OW19741   4.070   0.534  10.321
 6333SOL    HW119742   4.025   0.452  10.301
 6333SOL    HW219743   4.149   0.533  10.268
 6334SOL     OW19744   3.730   1.320   9.505
 6334SOL    HW119745   3.643   1.334   9.468
 6334SOL    HW219746   3.726   1.231   9.540
 6335SOL     OW19747   3.817   1.786  10.250
 6335SOL    HW119748   3.786   1.707  10.205
 6335SOL    HW219749   3.906   1.799  10.218
 6336SOL     OW19750   4.232   1.586  10.215
 6336SOL    HW119751   4.319   1.611  10.248
 6336SOL    HW219752   4.251   1.517  10.151
 6337SOL     OW19753   3.756   0.545  10.429
 6337SOL    HW119754   3.830   0.518  10.375
 6337SOL    HW219755   3.792   0.547  10.518
 6338SOL     OW19756   0.026   0.547   9.571
 6338SOL    HW119757   0.023   0.497   9.653
 6338SOL    HW219758   4.460   0.615   9.582
 6339SOL     OW19759   3.977   1.567  11.049
 6339SOL    HW119760   3.918   1.594   0.019
 6339SOL    HW219761   3.990   1.473  11.063
 6340SOL     OW19762   4.188   0.494   9.493
 6340SOL    HW119763   4.247   0.567   9.515
 6340SOL    HW219764   4.103   0.536   9.479
 6341SOL     OW19765   3.875   1.138  10.779
 6341SOL    HW119766   3.867   1.085  10.859
 6341SOL    HW219767   3.888   1.074  10.709
 6342SOL     OW19768   3.810   1.271  10.321
 6342SOL    HW119769   3.796   1.282  10.415
 6342SOL    HW219770   3.739   1.213  10.292
 6343SOL     OW19771   4.387   1.667  11.000
 6343SOL    HW119772   4.302   1.708  10.981
 6343SOL    HW219773   4.426   1.650  10.914
 6344SOL     OW19774   3.987   0.322  10.024
 6344SOL    HW119775   3.901   0.357  10.001
 6344SOL    HW219776   3.984   0.314  10.120
 6345SOL     OW19777   4.080   1.314  10.813
 6345SOL    HW119778   4.068   1.383  10.748
 6345SOL    HW219779   4.013   1.249  10.791
 6346SOL     OW19780   4.326   1.490   9.789
 6346SOL    HW119781   4.342   1.430   9.716
 6346SOL    HW219782   4.259   1.550   9.758
 6347SOL     OW19783   3.984   1.348   9.598
 6347SOL    HW119784   3.891   1.344   9.575
 6347SOL    HW219785   3.986   1.385   9.686
 6348SOL     OW19786   3.840   1.014  11.018
 6348SOL    HW119787   3.772   1.003  11.084
 6348SOL    HW219788   3.920   0.981  11.061
 6349SOL     OW19789   4.371   0.189  10.819
 6349SOL    HW119790   4.434   0.208  10.750
 6349SOL    HW219791   4.416   0.213  10.900
 6350SOL     OW19792   3.806   0.335   9.359
 6350SOL    HW119793   3.736   0.280   9.323
 6350SOL    HW219794   3.816   0.405   9.294
 6351SOL     OW19795   3.787   0.185   9.625
 6351SOL    HW119796   3.788   0.253   9.557
 6351SOL    HW219797   3.863   0.130   9.605
 6352SOL     OW19798   4.340   0.839  10.746
 6352SOL    HW119799   4.372   0.928  10.729
 6352SOL    HW219800   4.419   0.788  10.763
 6353SOL     OW19801   4.117   1.735  10.878
 6353SOL    HW119802   4.041   1.791  10.865
 6353SOL    HW219803   4.084   1.662  10.930
 6354SOL     OW19804   4.308   0.729   9.978
 6354SOL    HW119805   4.349   0.814   9.965
 6354SOL    HW219806   4.240   0.724   9.911
 6355SOL     OW19807   3.810   1.232   9.976
 6355SOL    HW119808   3.815   1.186  10.059
 6355SOL    HW219809   3.878   1.192   9.921
 6356SOL     OW19810   4.410   1.390  10.949
 6356SOL    HW119811   4.332   1.343  10.978
 6356SOL    HW219812   4.402   1.476  10.989
 6357SOL     OW19813   4.166   0.436   9.846
 6357SOL    HW119814   4.185   0.368   9.780
 6357SOL    HW219815   4.109   0.393   9.909
 6358SOL     OW19816   4.055   0.557  10.600
 6358SOL    HW119817   4.109   0.497  10.651
 6358SOL    HW219818   4.072   0.532  10.509
 6359SOL     OW19819   0.035   1.604   9.997
 6359SOL    HW119820   0.060   1.669   9.931
 6359SOL    HW219821   4.468   1.551   9.955
 6360SOL     OW19822   3.768   1.069   9.616
 6360SOL    HW119823   3.861   1.060   9.598
 6360SOL    HW219824   3.739   0.981   9.639
 6361SOL     OW19825   3.943   2.474   0.111
 6361SOL    HW119826   3.860   2.478   0.160
 6361SOL    HW219827   3.922   2.514   0.026
 6362SOL     OW19828   3.947   2.149   0.992
 6362SOL    HW119829   3.979   2.112   1.074
 6362SOL    HW219830   3.858   2.115   0.982
 6363SOL     OW19831   3.726   2.246   0.637
 6363SOL    HW119832   3.643   2.270   0.679
 6363SOL    HW219833   3.705   2.166   0.589
 6364SOL     OW19834   4.264   3.103   1.147
 6364SOL    HW119835   4.200   3.169   1.122
 6364SOL    HW219836   4.335   3.152   1.187
 6365SOL     OW19837   0.016   2.640   1.857
 6365SOL    HW119838   0.069   2.677   1.927
 6365SOL    HW219839   0.061   2.667   1.777
 6366SOL     OW19840   4.397   2.849   0.631
 6366SOL    HW119841   4.475   2.847   0.687
 6366SOL    HW219842   4.337   2.909   0.675
 6367SOL     OW19843   4.419   3.022   1.811
 6367SOL    HW119844   4.457   3.102   1.775
 6367SOL    HW219845   4.326   3.028   1.791
 6368SOL     OW19846   4.062   3.293   1.069
 6368SOL    HW119847   3.989   3.249   1.025
 6368SOL    HW219848   4.106   3.342   0.999
 6369SOL     OW19849   4.172   2.261   1.480
 6369SOL    HW119850   4.247   2.201   1.487
 6369SOL    HW219851   4.096   2.206   1.497
 6370SOL     OW19852   3.941   3.576   0.474
 6370SOL    HW119853   3.961   3.653   0.527
 6370SOL    HW219854   4.013   3.570   0.411
 6371SOL     OW19855   3.951   3.303   0.532
 6371SOL    HW119856   3.935   3.398   0.535
 6371SOL    HW219857   3.892   3.267   0.599
 6372SOL     OW19858   3.977   2.950   0.886
 6372SOL    HW119859   3.981   2.865   0.930
 6372SOL    HW219860   3.926   3.005   0.946
 6373SOL     OW19861   4.362   3.659   1.457
 6373SOL    HW119862   4.274   3.627   1.478
 6373SOL    HW219863   4.354   3.754   1.456
 6374SOL     OW19864   4.296   2.871   0.140
 6374SOL    HW119865   4.308   2.940   0.075
 6374SOL    HW219866   4.378   2.868   0.189
 6375SOL     OW19867   3.838   2.514   0.560
 6375SOL    HW119868   3.807   2.426   0.583
 6375SOL    HW219869   3.830   2.564   0.642
 6376SOL     OW19870   3.773   3.462   0.118
 6376SOL    HW119871   3.744   3.374   0.144
 6376SOL    HW219872   3.746   3.518   0.191
 6377SOL     OW19873   3.846   2.605   1.586
 6377SOL    HW119874   3.938   2.632   1.591
 6377SOL    HW219875   3.797   2.686   1.591
 6378SOL     OW19876   4.307   3.251   0.738
 6378SOL    HW119877   4.273   3.161   0.741
 6378SOL    HW219878   4.310   3.272   0.645
 6379SOL     OW19879   0.021   1.873   0.532
 6379SOL    HW119880   0.052   1.928   0.459
 6379SOL    HW219881   4.426   1.885   0.533
 6380SOL     OW19882   3.911   2.825   1.274
 6380SOL    HW119883   3.997   2.787   1.257
 6380SOL    HW219884   3.851   2.774   1.220
 6381SOL     OW19885   4.061   2.111   1.815
 6381SOL    HW119886   4.102   2.196   1.832
 6381SOL    HW219887   3.970   2.123   1.844
 6382SOL     OW19888   4.309   2.576   0.269
 6382SOL    HW119889   4.330   2.655   0.219
 6382SOL    HW219890   4.247   2.606   0.336
 6383SOL     OW19891   3.811   2.684   0.775
 6383SOL    HW119892   3.892   2.676   0.826
 6383SOL    HW219893   3.769   2.763   0.810
 6384SOL     OW19894   3.853   3.717   1.579
 6384SOL    HW119895   3.854   3.695   1.672
 6384SOL    HW219896   3.763   3.697   1.551
 6385SOL     OW19897   4.249   2.051   0.881
 6385SOL    HW119898   4.269   2.057   0.974
 6385SOL    HW219899   4.258   2.140   0.847
 6386SOL     OW19900   4.083   3.677   0.866
 6386SOL    HW119901   4.134   3.596   0.873
 6386SOL    HW219902   4.147   3.746   0.876
 6387SOL     OW19903   4.039   2.824   0.276
 6387SOL    HW119904   4.120   2.846   0.229
 6387SOL    HW219905   4.014   2.738   0.241
 6388SOL     OW19906   4.177   3.113   1.734
 6388SOL    HW119907   4.150   3.126   1.643
 6388SOL    HW219908   4.096   3.123   1.784
 6389SOL     OW19909   3.925   2.142   1.503
 6389SOL    HW119910   3.843   2.192   1.499
 6389SOL    HW219911   3.905   2.066   1.558
 6390SOL     OW19912   4.192   3.592   0.329
 6390SOL    HW119913   4.225   3.656   0.391
 6390SOL    HW219914   4.262   3.582   0.265
 6391SOL     OW19915   3.980   3.655   1.231
 6391SOL    HW119916   4.026   3.583   1.274
 6391SOL    HW219917   3.967   3.625   1.141
 6392SOL     OW19918   4.108   2.555   0.474
 6392SOL    HW119919   4.134   2.464   0.489
 6392SOL    HW219920   4.016   2.558   0.497
 6393SOL     OW19921   4.351   1.991   0.111
 6393SOL    HW119922   4.436   1.952   0.127
 6393SOL    HW219923   4.319   1.947   0.032
 6394SOL     OW19924   0.023   3.280   0.908
 6394SOL    HW119925   0.074   3.337   0.851
 6394SOL    HW219926   4.445   3.259   0.856
 6395SOL     OW19927   4.259   1.927   0.498
 6395SOL    HW119928   4.179   1.931   0.551
 6395SOL    HW219929   4.255   2.006   0.444
 6396SOL     OW19930   4.007   1.911   0.201
 6396SOL    HW119931   4.050   1.966   0.135
 6396SOL    HW219932   4.074   1.847   0.226
 6397SOL     OW19933   0.328   2.532   1.452
 6397SOL    HW119934   0.264   2.464   1.430
 6397SOL    HW219935   0.411   2.486   1.462
 6398SOL     OW19936   4.193   3.006   0.733
 6398SOL    HW119937   4.125   2.987   0.798
 6398SOL    HW219938   4.149   2.994   0.649
 6399SOL     OW19939   3.804   2.416   1.392
 6399SOL    HW119940   3.896   2.415   1.365
 6399SOL    HW219941   3.800   2.486   1.457
 6400SOL     OW19942   4.282   2.072   1.149
 6400SOL    HW119943   4.327   2.010   1.206
 6400SOL    HW219944   4.195   2.081   1.188
 6401SOL     OW19945   4.238   3.259   0.192
 6401SOL    HW119946   4.153   3.248   0.234
 6401SOL    HW219947   4.223   3.237   0.100
 6402SOL     OW19948   4.248   2.133   0.322
 6402SOL    HW119949   4.286   2.077   0.255
 6402SOL    HW219950   4.223   2.213   0.277
 6403SOL     OW19951   4.141   2.675   1.250
 6403SOL    HW119952   4.208   2.685   1.318
 6403SOL    HW219953   4.106   2.587   1.263
 6404SOL     OW19954   3.795   3.436   1.355
 6404SOL    HW119955   3.763   3.506   1.298
 6404SOL    HW219956   3.890   3.439   1.347
 6405SOL     OW19957   4.062   2.984   0.497
 6405SOL    HW119958   4.065   3.057   0.435
 6405SOL    HW219959   4.060   2.906   0.441
 6406SOL     OW19960   4.302   2.399   0.865
 6406SOL    HW119961   4.301   2.465   0.796
 6406SOL    HW219962   4.368   2.429   0.927
 6407SOL     OW19963   4.071   3.398   1.314
 6407SOL    HW119964   4.067   3.354   1.230
 6407SOL    HW219965   4.164   3.399   1.337
 6408SOL     OW19966   4.138   2.604   1.605
 6408SOL    HW119967   4.198   2.647   1.544
 6408SOL    HW219968   4.180   2.520   1.625
 6409SOL     OW19969   4.233   1.914   1.733
 6409SOL    HW119970   4.186   1.854   1.675
 6409SOL    HW219971   4.169   1.981   1.755
 6410SOL     OW19972   4.288   2.756   1.027
 6410SOL    HW119973   4.313   2.847   1.042
 6410SOL    HW219974   4.242   2.730   1.107
 6411SOL     OW19975   4.023   2.061   1.248
 6411SOL    HW119976   3.985   2.093   1.329
 6411SOL    HW219977   4.004   1.968   1.247
 6412SOL     OW19978   3.769   3.173   1.276
 6412SOL    HW119979   3.802   3.117   1.347
 6412SOL    HW219980   3.775   3.262   1.311
 6413SOL     OW19981   4.020   1.927   0.627
 6413SOL    HW119982   4.003   2.018   0.650
 6413SOL    HW219983   4.033   1.883   0.711
 6414SOL     OW19984   4.075   2.776   1.809
 6414SOL    HW119985   4.157   2.792   1.857
 6414SOL    HW219986   4.098   2.712   1.742
 6415SOL     OW19987   4.030   2.670   0.945
 6415SOL    HW119988   4.122   2.699   0.946
 6415SOL    HW219989   4.033   2.579   0.975
 6416SOL     OW19990   4.065   2.391   1.009
 6416SOL    HW119991   4.028   2.304   0.994
 6416SOL    HW219992   4.145   2.393   0.956
 6417SOL     OW19993   3.733   3.189   0.194
 6417SOL    HW119994   3.646   3.201   0.155
 6417SOL    HW219995   3.732   3.099   0.226
 6418SOL     OW19996   3.817   3.648   0.941
 6418SOL    HW119997   3.787   3.569   0.895
 6418SOL    HW219998   3.906   3.661   0.908
 6419SOL     OW19999   4.232   3.447   0.906
 6419SOL    HW120000   4.319   3.473   0.938
 6419SOL    HW220001   4.250   3.379   0.841
 6420SOL     OW20002   3.759   2.408   1.116
 6420SOL    HW120003   3.838   2.392   1.065
 6420SOL    HW220004   3.789   2.410   1.207
 6421SOL     OW20005   3.915   2.382   1.729
 6421SOL    HW120006   3.971   2.342   1.663
 6421SOL    HW220007   3.874   2.457   1.685
 6422SOL     OW20008   0.025   2.402   0.263
 6422SOL    HW120009   0.023   2.359   0.349
 6422SOL    HW220010   4.460   2.472   0.270
 6423SOL     OW20011   3.968   3.415   1.725
 6423SOL    HW120012   3.942   3.479   1.791
 6423SOL    HW220013   3.967   3.331   1.772
 6424SOL     OW20014   4.183   2.351   0.174
 6424SOL    HW120015   4.240   2.421   0.204
 6424SOL    HW220016   4.098   2.392   0.161
 6425SOL     OW20017   3.868   3.002   1.473
 6425SOL    HW120018   3.869   2.952   1.554
 6425SOL    HW220019   3.885   2.937   1.404
 6426SOL     OW20020   3.810   3.132   1.012
 6426SOL    HW120021   3.793   3.143   1.106
 6426SOL    HW220022   3.739   3.074   0.982
 6427SOL     OW20023   4.389   3.513   1.700
 6427SOL    HW120024   4.354   3.597   1.731
 6427SOL    HW220025   4.420   3.533   1.611
 6428SOL     OW20026   3.863   3.657   1.843
 6428SOL    HW120027   3.812   3.593   1.891
 6428SOL    HW220028   3.908   3.708   1.910
 6429SOL     OW20029   3.984   2.182   0.715
 6429SOL    HW120030   3.896   2.214   0.694
 6429SOL    HW220031   3.983   2.172   0.811
 6430SOL     OW20032   4.086   3.171   1.490
 6430SOL    HW120033   4.067   3.245   1.434
 6430SOL    HW220034   4.014   3.109   1.474
 6431SOL     OW20035   4.325   3.353   0.481
 6431SOL    HW120036   4.341   3.297   0.405
 6431SOL    HW220037   4.257   3.413   0.451
 6432SOL     OW20038   3.992   3.203   0.289
 6432SOL    HW120039   3.905   3.203   0.249
 6432SOL    HW220040   3.979   3.242   0.375
 6433SOL     OW20041   3.837   2.888   1.721
 6433SOL    HW120042   3.760   2.863   1.773
 6433SOL    HW220043   3.911   2.848   1.766
 6434SOL     OW20044   4.388   2.068   1.494
 6434SOL    HW120045   4.478   2.070   1.460
 6434SOL    HW220046   4.399   2.055   1.588
 6435SOL     OW20047   3.808   2.201   0.047
 6435SOL    HW120048   3.733   2.172  11.095
 6435SOL    HW220049   3.823   2.291   0.019
 6436SOL     OW20050   3.787   2.020   0.313
 6436SOL    HW120051   3.778   2.100   0.261
 6436SOL    HW220052   3.870   1.982   0.283
 6437SOL     OW20053   4.339   2.701   1.436
 6437SOL    HW120054   4.378   2.787   1.421
 6437SOL    HW220055   4.413   2.645   1.459
 6438SOL     OW20056   4.394   2.419   1.739
 6438SOL    HW120057   4.416   2.495   1.793
 6438SOL    HW220058   4.478   2.387   1.707
 6439SOL     OW20059   4.106   3.602   1.561
 6439SOL    HW120060   4.022   3.644   1.546
 6439SOL    HW220061   4.085   3.520   1.607
 6440SOL     OW20062   4.308   2.590   0.668
 6440SOL    HW120063   4.348   2.676   0.657
 6440SOL    HW220064   4.238   2.587   0.602
 6441SOL     OW20065   3.942   3.168   1.854
 6441SOL    HW120066   3.879   3.103   1.825
 6441SOL    HW220067   3.926   3.179   1.948
 6442SOL     OW20068   3.810   3.093   0.667
 6442SOL    HW120069   3.818   3.046   0.749
 6442SOL    HW220070   3.880   3.058   0.612
 6443SOL     OW20071   4.421   3.248   1.666
 6443SOL    HW120072   4.331   3.217   1.655
 6443SOL    HW220073   4.412   3.342   1.679
 6444SOL     OW20074   4.162   2.296   0.534
 6444SOL    HW120075   4.182   2.227   0.470
 6444SOL    HW220076   4.104   2.253   0.597
 6445SOL     OW20077   4.054   2.417   1.289
 6445SOL    HW120078   4.108   2.361   1.345
 6445SOL    HW220079   4.075   2.390   1.199
 6446SOL     OW20080   0.035   3.465   0.688
 6446SOL    HW120081   0.064   3.528   0.622
 6446SOL    HW220082   4.466   3.414   0.643
 6447SOL     OW20083   3.766   2.931   0.301
 6447SOL    HW120084   3.861   2.926   0.297
 6447SOL    HW220085   3.738   2.843   0.326
 6448SOL     OW20086   3.953   2.486   1.986
 6448SOL    HW120087   3.864   2.483   2.021
 6448SOL    HW220088   3.943   2.460   1.895
 6449SOL     OW20089   3.947   2.149   2.854
 6449SOL    HW120090   3.979   2.112   2.936
 6449SOL    HW220091   3.858   2.115   2.844
 6450SOL     OW20092   3.726   2.245   2.500
 6450SOL    HW120093   3.643   2.271   2.542
 6450SOL    HW220094   3.704   2.166   2.451
 6451SOL     OW20095   4.265   3.103   3.007
 6451SOL    HW120096   4.200   3.169   2.985
 6451SOL    HW220097   4.336   3.152   3.050
 6452SOL     OW20098   0.016   2.640   3.719
 6452SOL    HW120099   0.069   2.677   3.789
 6452SOL    HW220100   0.061   2.666   3.639
 6453SOL     OW20101   4.399   2.850   2.493
 6453SOL    HW120102   4.474   2.843   2.553
 6453SOL    HW220103   4.339   2.910   2.537
 6454SOL     OW20104   4.419   3.022   3.673
 6454SOL    HW120105   4.457   3.102   3.637
 6454SOL    HW220106   4.326   3.028   3.653
 6455SOL     OW20107   4.062   3.293   2.931
 6455SOL    HW120108   3.989   3.249   2.887
 6455SOL    HW220109   4.106   3.342   2.861
 6456SOL     OW20110   4.172   2.261   3.342
 6456SOL    HW120111   4.247   2.201   3.349
 6456SOL    HW220112   4.096   2.206   3.359
 6457SOL     OW20113   3.942   3.577   2.334
 6457SOL    HW120114   3.961   3.653   2.389
 6457SOL    HW220115   4.018   3.568   2.277
 6458SOL     OW20116   3.955   3.304   2.397
 6458SOL    HW120117   3.935   3.398   2.401
 6458SOL    HW220118   3.896   3.264   2.461
 6459SOL     OW20119   3.977   2.950   2.748
 6459SOL    HW120120   3.982   2.865   2.791
 6459SOL    HW220121   3.926   3.005   2.808
 6460SOL     OW20122   4.362   3.658   3.319
 6460SOL    HW120123   4.275   3.627   3.340
 6460SOL    HW220124   4.355   3.754   3.318
 6461SOL     OW20125   4.308   2.849   2.003
 6461SOL    HW120126   4.340   2.898   1.927
 6461SOL    HW220127   4.376   2.860   2.069
 6462SOL     OW20128   3.840   2.514   2.422
 6462SOL    HW120129   3.808   2.427   2.444
 6462SOL    HW220130   3.831   2.564   2.504
 6463SOL     OW20131   3.758   3.456   1.985
 6463SOL    HW120132   3.739   3.364   2.005
 6463SOL    HW220133   3.733   3.503   2.064
 6464SOL     OW20134   3.846   2.605   3.447
 6464SOL    HW120135   3.938   2.631   3.453
 6464SOL    HW220136   3.797   2.686   3.454
 6465SOL     OW20137   4.307   3.250   2.599
 6465SOL    HW120138   4.272   3.161   2.602
 6465SOL    HW220139   4.310   3.272   2.506
 6466SOL     OW20140   0.022   1.870   2.387
 6466SOL    HW120141   0.052   1.930   2.319
 6466SOL    HW220142   4.427   1.884   2.391
 6467SOL     OW20143   3.911   2.825   3.136
 6467SOL    HW120144   3.997   2.787   3.119
 6467SOL    HW220145   3.851   2.774   3.083
 6468SOL     OW20146   4.061   2.111   3.677
 6468SOL    HW120147   4.102   2.196   3.694
 6468SOL    HW220148   3.970   2.122   3.706
 6469SOL     OW20149   4.312   2.588   2.132
 6469SOL    HW120150   4.307   2.668   2.079
 6469SOL    HW220151   4.245   2.601   2.200
 6470SOL     OW20152   3.811   2.684   2.638
 6470SOL    HW120153   3.892   2.675   2.688
 6470SOL    HW220154   3.770   2.763   2.672
 6471SOL     OW20155   3.852   3.716   3.441
 6471SOL    HW120156   3.854   3.694   3.534
 6471SOL    HW220157   3.763   3.698   3.414
 6472SOL     OW20158   4.248   2.050   2.742
 6472SOL    HW120159   4.269   2.057   2.836
 6472SOL    HW220160   4.259   2.139   2.709
 6473SOL     OW20161   4.083   3.676   2.728
 6473SOL    HW120162   4.134   3.596   2.735
 6473SOL    HW220163   4.147   3.747   2.738
 6474SOL     OW20164   4.042   2.822   2.114
 6474SOL    HW120165   4.125   2.841   2.070
 6474SOL    HW220166   4.013   2.739   2.075
 6475SOL     OW20167   4.177   3.113   3.596
 6475SOL    HW120168   4.151   3.126   3.505
 6475SOL    HW220169   4.096   3.123   3.646
 6476SOL     OW20170   3.925   2.142   3.365
 6476SOL    HW120171   3.843   2.191   3.361
 6476SOL    HW220172   3.905   2.066   3.421
 6477SOL     OW20173   4.191   3.597   2.188
 6477SOL    HW120174   4.225   3.657   2.253
 6477SOL    HW220175   4.259   3.594   2.120
 6478SOL     OW20176   3.980   3.655   3.093
 6478SOL    HW120177   4.026   3.583   3.136
 6478SOL    HW220178   3.967   3.624   3.003
 6479SOL     OW20179   4.112   2.554   2.334
 6479SOL    HW120180   4.136   2.463   2.350
 6479SOL    HW220181   4.019   2.559   2.354
 6480SOL     OW20182   4.340   1.969   1.981
 6480SOL    HW120183   4.435   1.955   1.980
 6480SOL    HW220184   4.312   1.947   1.892
 6481SOL     OW20185   0.022   3.280   2.770
 6481SOL    HW120186   0.075   3.335   2.713
 6481SOL    HW220187   4.444   3.259   2.718
 6482SOL     OW20188   4.259   1.928   2.362
 6482SOL    HW120189   4.180   1.932   2.416
 6482SOL    HW220190   4.255   2.005   2.307
 6483SOL     OW20191   4.017   1.911   2.047
 6483SOL    HW120192   4.078   1.973   2.008
 6483SOL    HW220193   4.073   1.847   2.091
 6484SOL     OW20194   0.327   2.532   3.313
 6484SOL    HW120195   0.264   2.464   3.292
 6484SOL    HW220196   0.411   2.486   3.324
 6485SOL     OW20197   4.191   3.006   2.591
 6485SOL    HW120198   4.123   2.987   2.656
 6485SOL    HW220199   4.148   2.991   2.507
 6486SOL     OW20200   3.804   2.416   3.254
 6486SOL    HW120201   3.896   2.415   3.226
 6486SOL    HW220202   3.800   2.486   3.319
 6487SOL     OW20203   4.282   2.071   3.011
 6487SOL    HW120204   4.327   2.010   3.069
 6487SOL    HW220205   4.195   2.081   3.050
 6488SOL     OW20206   4.231   3.248   2.035
 6488SOL    HW120207   4.146   3.234   2.076
 6488SOL    HW220208   4.211   3.261   1.943
 6489SOL     OW20209   4.244   2.128   2.182
 6489SOL    HW120210   4.286   2.073   2.116
 6489SOL    HW220211   4.223   2.210   2.137
 6490SOL     OW20212   4.141   2.675   3.112
 6490SOL    HW120213   4.208   2.685   3.180
 6490SOL    HW220214   4.106   2.587   3.125
 6491SOL     OW20215   3.795   3.436   3.217
 6491SOL    HW120216   3.764   3.506   3.160
 6491SOL    HW220217   3.890   3.439   3.209
 6492SOL     OW20218   4.065   2.974   2.351
 6492SOL    HW120219   4.068   3.047   2.288
 6492SOL    HW220220   4.064   2.896   2.297
 6493SOL     OW20221   4.301   2.399   2.727
 6493SOL    HW120222   4.301   2.466   2.659
 6493SOL    HW220223   4.368   2.429   2.789
 6494SOL     OW20224   4.071   3.398   3.177
 6494SOL    HW120225   4.067   3.354   3.092
 6494SOL    HW220226   4.164   3.399   3.199
 6495SOL     OW20227   4.138   2.604   3.467
 6495SOL    HW120228   4.198   2.647   3.406
 6495SOL    HW220229   4.179   2.520   3.487
 6496SOL     OW20230   4.233   1.914   3.595
 6496SOL    HW120231   4.186   1.854   3.537
 6496SOL    HW220232   4.169   1.982   3.617
 6497SOL     OW20233   4.288   2.757   2.889
 6497SOL    HW120234   4.313   2.848   2.904
 6497SOL    HW220235   4.242   2.730   2.969
 6498SOL     OW20236   4.023   2.061   3.109
 6498SOL    HW120237   3.985   2.093   3.191
 6498SOL    HW220238   4.004   1.968   3.109
 6499SOL     OW20239   3.770   3.173   3.138
 6499SOL    HW120240   3.802   3.117   3.209
 6499SOL    HW220241   3.775   3.262   3.173
 6500SOL     OW20242   4.019   1.927   2.488
 6500SOL    HW120243   4.002   2.018   2.511
 6500SOL    HW220244   4.033   1.883   2.572
 6501SOL     OW20245   4.075   2.777   3.671
 6501SOL    HW120246   4.157   2.791   3.719
 6501SOL    HW220247   4.098   2.713   3.604
 6502SOL     OW20248   4.030   2.670   2.807
 6502SOL    HW120249   4.122   2.699   2.808
 6502SOL    HW220250   4.033   2.579   2.837
 6503SOL     OW20251   4.064   2.391   2.870
 6503SOL    HW120252   4.028   2.304   2.855
 6503SOL    HW220253   4.145   2.393   2.818
 6504SOL     OW20254   3.729   3.182   2.058
 6504SOL    HW120255   3.643   3.196   2.020
 6504SOL    HW220256   3.726   3.093   2.092
 6505SOL     OW20257   3.817   3.647   2.802
 6505SOL    HW120258   3.787   3.569   2.757
 6505SOL    HW220259   3.906   3.661   2.770
 6506SOL     OW20260   4.232   3.447   2.768
 6506SOL    HW120261   4.319   3.473   2.801
 6506SOL    HW220262   4.251   3.379   2.703
 6507SOL     OW20263   3.759   2.408   2.978
 6507SOL    HW120264   3.839   2.393   2.927
 6507SOL    HW220265   3.789   2.410   3.069
 6508SOL     OW20266   3.915   2.382   3.591
 6508SOL    HW120267   3.971   2.342   3.524
 6508SOL    HW220268   3.874   2.457   3.547
 6509SOL     OW20269   0.029   2.414   2.123
 6509SOL    HW120270   0.022   2.358   2.200
 6509SOL    HW220271   4.461   2.481   2.136
 6510SOL     OW20272   3.968   3.415   3.588
 6510SOL    HW120273   3.942   3.479   3.653
 6510SOL    HW220274   3.966   3.331   3.634
 6511SOL     OW20275   4.187   2.354   2.049
 6511SOL    HW120276   4.247   2.427   2.069
 6511SOL    HW220277   4.102   2.396   2.034
 6512SOL     OW20278   3.869   3.002   3.335
 6512SOL    HW120279   3.869   2.952   3.416
 6512SOL    HW220280   3.885   2.937   3.266
 6513SOL     OW20281   3.810   3.132   2.874
 6513SOL    HW120282   3.793   3.143   2.968
 6513SOL    HW220283   3.740   3.074   2.844
 6514SOL     OW20284   4.389   3.513   3.562
 6514SOL    HW120285   4.354   3.597   3.594
 6514SOL    HW220286   4.420   3.533   3.473
 6515SOL     OW20287   3.863   3.657   3.705
 6515SOL    HW120288   3.812   3.593   3.753
 6515SOL    HW220289   3.908   3.708   3.772
 6516SOL     OW20290   3.984   2.181   2.577
 6516SOL    HW120291   3.896   2.214   2.556
 6516SOL    HW220292   3.984   2.172   2.672
 6517SOL     OW20293   4.086   3.171   3.352
 6517SOL    HW120294   4.066   3.246   3.296
 6517SOL    HW220295   4.014   3.109   3.336
 6518SOL     OW20296   4.326   3.352   2.341
 6518SOL    HW120297   4.342   3.293   2.268
 6518SOL    HW220298   4.259   3.413   2.309
 6519SOL     OW20299   3.984   3.210   2.150
 6519SOL    HW120300   3.891   3.206   2.127
 6519SOL    HW220301   3.986   3.247   2.238
 6520SOL     OW20302   3.836   2.888   3.583
 6520SOL    HW120303   3.760   2.863   3.635
 6520SOL    HW220304   3.910   2.848   3.628
 6521SOL     OW20305   4.388   2.068   3.356
 6521SOL    HW120306   4.478   2.070   3.322
 6521SOL    HW220307   4.398   2.055   3.450
 6522SOL     OW20308   3.803   2.193   1.896
 6522SOL    HW120309   3.716   2.175   1.863
 6522SOL    HW220310   3.833   2.269   1.845
 6523SOL     OW20311   3.791   2.017   2.170
 6523SOL    HW120312   3.777   2.097   2.119
 6523SOL    HW220313   3.876   1.985   2.140
 6524SOL     OW20314   4.339   2.701   3.298
 6524SOL    HW120315   4.378   2.787   3.283
 6524SOL    HW220316   4.413   2.644   3.321
 6525SOL     OW20317   4.394   2.419   3.601
 6525SOL    HW120318   4.416   2.495   3.655
 6525SOL    HW220319   4.478   2.388   3.569
 6526SOL     OW20320   4.106   3.602   3.423
 6526SOL    HW120321   4.022   3.644   3.408
 6526SOL    HW220322   4.085   3.520   3.469
 6527SOL     OW20323   4.307   2.591   2.531
 6527SOL    HW120324   4.349   2.676   2.518
 6527SOL    HW220325   4.239   2.586   2.464
 6528SOL     OW20326   3.942   3.168   3.716
 6528SOL    HW120327   3.878   3.103   3.687
 6528SOL    HW220328   3.926   3.179   3.810
 6529SOL     OW20329   3.810   3.094   2.528
 6529SOL    HW120330   3.817   3.047   2.611
 6529SOL    HW220331   3.878   3.054   2.472
 6530SOL     OW20332   4.421   3.248   3.528
 6530SOL    HW120333   4.331   3.217   3.517
 6530SOL    HW220334   4.412   3.342   3.541
 6531SOL     OW20335   4.165   2.295   2.397
 6531SOL    HW120336   4.181   2.228   2.330
 6531SOL    HW220337   4.106   2.253   2.459
 6532SOL     OW20338   4.054   2.417   3.151
 6532SOL    HW120339   4.108   2.361   3.207
 6532SOL    HW220340   4.075   2.389   3.061
 6533SOL     OW20341   0.035   3.466   2.549
 6533SOL    HW120342   0.060   3.531   2.483
 6533SOL    HW220343   4.468   3.413   2.506
 6534SOL     OW20344   3.767   2.931   2.168
 6534SOL    HW120345   3.861   2.922   2.151
 6534SOL    HW220346   3.739   2.843   2.191
 6535SOL     OW20347   3.953   2.486   3.848
 6535SOL    HW120348   3.864   2.483   3.884
 6535SOL    HW220349   3.943   2.460   3.757
 6536SOL     OW20350   3.948   2.149   4.716
 6536SOL    HW120351   3.979   2.112   4.799
 6536SOL    HW220352   3.859   2.115   4.706
 6537SOL     OW20353   3.726   2.245   4.361
 6537SOL    HW120354   3.644   2.271   4.403
 6537SOL    HW220355   3.704   2.165   4.312
 6538SOL     OW20356   4.266   3.103   4.869
 6538SOL    HW120357   4.200   3.169   4.847
 6538SOL    HW220358   4.335   3.152   4.912
 6539SOL     OW20359   0.017   2.639   5.581
 6539SOL    HW120360   0.068   2.678   5.651
 6539SOL    HW220361   0.061   2.667   5.501
 6540SOL     OW20362   4.399   2.850   4.355
 6540SOL    HW120363   4.473   2.843   4.415
 6540SOL    HW220364   4.339   2.910   4.399
 6541SOL     OW20365   4.419   3.022   5.535
 6541SOL    HW120366   4.457   3.102   5.499
 6541SOL    HW220367   4.326   3.028   5.515
 6542SOL     OW20368   4.062   3.293   4.793
 6542SOL    HW120369   3.989   3.248   4.750
 6542SOL    HW220370   4.105   3.342   4.723
 6543SOL     OW20371   4.172   2.261   5.204
 6543SOL    HW120372   4.246   2.201   5.211
 6543SOL    HW220373   4.095   2.206   5.221
 6544SOL     OW20374   3.942   3.577   4.196
 6544SOL    HW120375   3.961   3.653   4.251
 6544SOL    HW220376   4.018   3.568   4.138
 6545SOL     OW20377   3.955   3.304   4.259
 6545SOL    HW120378   3.935   3.398   4.263
 6545SOL    HW220379   3.896   3.264   4.323
 6546SOL     OW20380   3.977   2.950   4.610
 6546SOL    HW120381   3.981   2.865   4.653
 6546SOL    HW220382   3.926   3.005   4.670
 6547SOL     OW20383   4.362   3.658   5.181
 6547SOL    HW120384   4.274   3.627   5.202
 6547SOL    HW220385   4.355   3.754   5.181
 6548SOL     OW20386   4.308   2.849   3.865
 6548SOL    HW120387   4.340   2.898   3.789
 6548SOL    HW220388   4.376   2.860   3.931
 6549SOL     OW20389   3.840   2.514   4.284
 6549SOL    HW120390   3.808   2.427   4.306
 6549SOL    HW220391   3.831   2.564   4.366
 6550SOL     OW20392   3.758   3.456   3.847
 6550SOL    HW120393   3.739   3.364   3.867
 6550SOL    HW220394   3.733   3.503   3.926
 6551SOL     OW20395   3.845   2.604   5.309
 6551SOL    HW120396   3.936   2.633   5.316
 6551SOL    HW220397   3.794   2.685   5.313
 6552SOL     OW20398   4.307   3.250   4.462
 6552SOL    HW120399   4.272   3.161   4.464
 6552SOL    HW220400   4.310   3.272   4.368
 6553SOL     OW20401   0.022   1.871   4.249
 6553SOL    HW120402   0.052   1.931   4.180
 6553SOL    HW220403   4.428   1.884   4.254
 6554SOL     OW20404   3.911   2.826   4.997
 6554SOL    HW120405   3.997   2.787   4.980
 6554SOL    HW220406   3.850   2.773   4.946
 6555SOL     OW20407   4.061   2.111   5.540
 6555SOL    HW120408   4.101   2.196   5.555
 6555SOL    HW220409   3.970   2.122   5.568
 6556SOL     OW20410   4.312   2.588   3.995
 6556SOL    HW120411   4.307   2.668   3.941
 6556SOL    HW220412   4.245   2.601   4.062
 6557SOL     OW20413   3.811   2.684   4.499
 6557SOL    HW120414   3.892   2.675   4.550
 6557SOL    HW220415   3.769   2.763   4.534
 6558SOL     OW20416   3.853   3.717   5.303
 6558SOL    HW120417   3.854   3.695   5.396
 6558SOL    HW220418   3.763   3.697   5.275
 6559SOL     OW20419   4.249   2.050   4.605
 6559SOL    HW120420   4.269   2.058   4.698
 6559SOL    HW220421   4.258   2.139   4.571
 6560SOL     OW20422   4.083   3.676   4.590
 6560SOL    HW120423   4.134   3.596   4.597
 6560SOL    HW220424   4.147   3.747   4.600
 6561SOL     OW20425   4.041   2.822   3.976
 6561SOL    HW120426   4.125   2.841   3.932
 6561SOL    HW220427   4.012   2.739   3.937
 6562SOL     OW20428   4.177   3.113   5.458
 6562SOL    HW120429   4.151   3.126   5.367
 6562SOL    HW220430   4.096   3.123   5.508
 6563SOL     OW20431   3.924   2.142   5.228
 6563SOL    HW120432   3.843   2.192   5.222
 6563SOL    HW220433   3.903   2.067   5.282
 6564SOL     OW20434   4.191   3.597   4.050
 6564SOL    HW120435   4.225   3.657   4.115
 6564SOL    HW220436   4.259   3.594   3.982
 6565SOL     OW20437   3.980   3.655   4.955
 6565SOL    HW120438   4.026   3.583   4.998
 6565SOL    HW220439   3.966   3.625   4.865
 6566SOL     OW20440   4.113   2.554   4.196
 6566SOL    HW120441   4.136   2.463   4.212
 6566SOL    HW220442   4.019   2.558   4.216
 6567SOL     OW20443   4.340   1.969   3.842
 6567SOL    HW120444   4.435   1.955   3.841
 6567SOL    HW220445   4.311   1.947   3.754
 6568SOL     OW20446   0.022   3.280   4.632
 6568SOL    HW120447   0.075   3.335   4.574
 6568SOL    HW220448   4.444   3.259   4.580
 6569SOL     OW20449   4.260   1.928   4.224
 6569SOL    HW120450   4.180   1.931   4.278
 6569SOL    HW220451   4.255   2.005   4.169
 6570SOL     OW20452   4.017   1.911   3.909
 6570SOL    HW120453   4.079   1.973   3.870
 6570SOL    HW220454   4.072   1.847   3.953
 6571SOL     OW20455   0.328   2.532   5.176
 6571SOL    HW120456   0.263   2.465   5.155
 6571SOL    HW220457   0.410   2.484   5.185
 6572SOL     OW20458   4.191   3.006   4.453
 6572SOL    HW120459   4.123   2.987   4.518
 6572SOL    HW220460   4.148   2.991   4.369
 6573SOL     OW20461   3.804   2.416   5.116
 6573SOL    HW120462   3.896   2.416   5.089
 6573SOL    HW220463   3.799   2.485   5.181
 6574SOL     OW20464   4.282   2.072   4.873
 6574SOL    HW120465   4.326   2.009   4.930
 6574SOL    HW220466   4.195   2.082   4.912
 6575SOL     OW20467   4.231   3.248   3.897
 6575SOL    HW120468   4.146   3.234   3.938
 6575SOL    HW220469   4.211   3.261   3.805
 6576SOL     OW20470   4.244   2.128   4.044
 6576SOL    HW120471   4.286   2.073   3.978
 6576SOL    HW220472   4.223   2.210   3.999
 6577SOL     OW20473   4.141   2.676   4.974
 6577SOL    HW120474   4.208   2.685   5.042
 6577SOL    HW220475   4.106   2.587   4.987
 6578SOL     OW20476   3.795   3.436   5.079
 6578SOL    HW120477   3.763   3.506   5.022
 6578SOL    HW220478   3.890   3.439   5.071
 6579SOL     OW20479   4.065   2.974   4.213
 6579SOL    HW120480   4.068   3.047   4.150
 6579SOL    HW220481   4.064   2.896   4.159
 6580SOL     OW20482   4.301   2.399   4.589
 6580SOL    HW120483   4.301   2.466   4.520
 6580SOL    HW220484   4.368   2.430   4.651
 6581SOL     OW20485   4.071   3.399   5.038
 6581SOL    HW120486   4.067   3.354   4.954
 6581SOL    HW220487   4.164   3.398   5.061
 6582SOL     OW20488   4.138   2.605   5.329
 6582SOL    HW120489   4.198   2.647   5.268
 6582SOL    HW220490   4.178   2.520   5.348
 6583SOL     OW20491   4.233   1.914   5.458
 6583SOL    HW120492   4.186   1.854   5.399
 6583SOL    HW220493   4.169   1.981   5.479
 6584SOL     OW20494   4.289   2.757   4.751
 6584SOL    HW120495   4.313   2.848   4.766
 6584SOL    HW220496   4.242   2.730   4.830
 6585SOL     OW20497   4.024   2.062   4.972
 6585SOL    HW120498   3.984   2.094   5.053
 6585SOL    HW220499   4.005   1.968   4.971
 6586SOL     OW20500   3.771   3.173   5.000
 6586SOL    HW120501   3.802   3.117   5.071
 6586SOL    HW220502   3.775   3.262   5.036
 6587SOL     OW20503   4.020   1.927   4.350
 6587SOL    HW120504   4.002   2.019   4.373
 6587SOL    HW220505   4.033   1.883   4.434
 6588SOL     OW20506   4.075   2.777   5.533
 6588SOL    HW120507   4.157   2.791   5.581
 6588SOL    HW220508   4.098   2.713   5.466
 6589SOL     OW20509   4.030   2.670   4.669
 6589SOL    HW120510   4.122   2.698   4.670
 6589SOL    HW220511   4.033   2.579   4.699
 6590SOL     OW20512   4.065   2.391   4.733
 6590SOL    HW120513   4.028   2.304   4.718
 6590SOL    HW220514   4.145   2.393   4.680
 6591SOL     OW20515   3.729   3.182   3.920
 6591SOL    HW120516   3.643   3.196   3.882
 6591SOL    HW220517   3.726   3.093   3.954
 6592SOL     OW20518   3.817   3.647   4.664
 6592SOL    HW120519   3.787   3.569   4.619
 6592SOL    HW220520   3.906   3.661   4.632
 6593SOL     OW20521   4.232   3.447   4.629
 6593SOL    HW120522   4.319   3.473   4.662
 6593SOL    HW220523   4.250   3.378   4.565
 6594SOL     OW20524   3.758   2.404   4.842
 6594SOL    HW120525   3.838   2.391   4.790
 6594SOL    HW220526   3.788   2.409   4.932
 6595SOL     OW20527   3.916   2.382   5.453
 6595SOL    HW120528   3.969   2.341   5.385
 6595SOL    HW220529   3.874   2.456   5.410
 6596SOL     OW20530   0.029   2.415   3.985
 6596SOL    HW120531   0.021   2.357   4.062
 6596SOL    HW220532   4.461   2.481   3.998
 6597SOL     OW20533   3.968   3.415   5.450
 6597SOL    HW120534   3.942   3.479   5.516
 6597SOL    HW220535   3.966   3.331   5.496
 6598SOL     OW20536   4.187   2.355   3.911
 6598SOL    HW120537   4.246   2.427   3.931
 6598SOL    HW220538   4.102   2.396   3.896
 6599SOL     OW20539   3.869   3.003   5.197
 6599SOL    HW120540   3.869   2.952   5.278
 6599SOL    HW220541   3.885   2.938   5.128
 6600SOL     OW20542   3.810   3.132   4.736
 6600SOL    HW120543   3.793   3.143   4.830
 6600SOL    HW220544   3.740   3.074   4.706
 6601SOL     OW20545   4.389   3.514   5.423
 6601SOL    HW120546   4.354   3.597   5.455
 6601SOL    HW220547   4.419   3.533   5.335
 6602SOL     OW20548   3.863   3.657   5.567
 6602SOL    HW120549   3.812   3.593   5.615
 6602SOL    HW220550   3.908   3.708   5.635
 6603SOL     OW20551   3.984   2.182   4.439
 6603SOL    HW120552   3.896   2.214   4.417
 6603SOL    HW220553   3.983   2.172   4.534
 6604SOL     OW20554   4.087   3.171   5.214
 6604SOL    HW120555   4.066   3.246   5.158
 6604SOL    HW220556   4.015   3.109   5.199
 6605SOL     OW20557   4.326   3.352   4.203
 6605SOL    HW120558   4.342   3.293   4.130
 6605SOL    HW220559   4.259   3.413   4.171
 6606SOL     OW20560   3.984   3.210   4.012
 6606SOL    HW120561   3.891   3.206   3.989
 6606SOL    HW220562   3.986   3.247   4.100
 6607SOL     OW20563   3.837   2.891   5.446
 6607SOL    HW120564   3.760   2.864   5.496
 6607SOL    HW220565   3.910   2.849   5.491
 6608SOL     OW20566   4.388   2.068   5.218
 6608SOL    HW120567   4.478   2.070   5.184
 6608SOL    HW220568   4.398   2.056   5.312
 6609SOL     OW20569   3.804   2.193   3.758
 6609SOL    HW120570   3.716   2.175   3.726
 6609SOL    HW220571   3.833   2.268   3.707
 6610SOL     OW20572   3.791   2.017   4.032
 6610SOL    HW120573   3.777   2.097   3.981
 6610SOL    HW220574   3.876   1.985   4.002
 6611SOL     OW20575   4.339   2.701   5.160
 6611SOL    HW120576   4.378   2.787   5.144
 6611SOL    HW220577   4.413   2.645   5.183
 6612SOL     OW20578   4.394   2.418   5.464
 6612SOL    HW120579   4.416   2.495   5.517
 6612SOL    HW220580   4.479   2.387   5.431
 6613SOL     OW20581   4.106   3.602   5.285
 6613SOL    HW120582   4.022   3.644   5.270
 6613SOL    HW220583   4.084   3.520   5.331
 6614SOL     OW20584   4.307   2.591   4.393
 6614SOL    HW120585   4.349   2.676   4.380
 6614SOL    HW220586   4.239   2.586   4.326
 6615SOL     OW20587   3.942   3.168   5.577
 6615SOL    HW120588   3.879   3.102   5.548
 6615SOL    HW220589   3.924   3.178   5.671
 6616SOL     OW20590   3.810   3.094   4.389
 6616SOL    HW120591   3.817   3.047   4.473
 6616SOL    HW220592   3.877   3.054   4.334
 6617SOL     OW20593   4.421   3.248   5.390
 6617SOL    HW120594   4.331   3.217   5.379
 6617SOL    HW220595   4.413   3.343   5.403
 6618SOL     OW20596   4.165   2.295   4.259
 6618SOL    HW120597   4.181   2.228   4.192
 6618SOL    HW220598   4.106   2.253   4.321
 6619SOL     OW20599   4.054   2.418   5.013
 6619SOL    HW120600   4.108   2.361   5.069
 6619SOL    HW220601   4.075   2.390   4.924
 6620SOL     OW20602   0.035   3.466   4.411
 6620SOL    HW120603   0.060   3.531   4.345
 6620SOL    HW220604   4.468   3.413   4.369
 6621SOL     OW20605   3.767   2.931   4.030
 6621SOL    HW120606   3.861   2.922   4.013
 6621SOL    HW220607   3.739   2.843   4.053
 6622SOL     OW20608   3.953   2.485   5.710
 6622SOL    HW120609   3.864   2.483   5.745
 6622SOL    HW220610   3.944   2.460   5.619
 6623SOL     OW20611   3.947   2.149   6.578
 6623SOL    HW120612   3.979   2.112   6.660
 6623SOL    HW220613   3.858   2.115   6.568
 6624SOL     OW20614   3.726   2.245   6.223
 6624SOL    HW120615   3.644   2.271   6.265
 6624SOL    HW220616   3.704   2.165   6.175
 6625SOL     OW20617   4.265   3.103   6.731
 6625SOL    HW120618   4.200   3.169   6.709
 6625SOL    HW220619   4.335   3.152   6.774
 6626SOL     OW20620   0.017   2.639   7.443
 6626SOL    HW120621   0.068   2.677   7.514
 6626SOL    HW220622   0.061   2.667   7.363
 6627SOL     OW20623   4.399   2.850   6.217
 6627SOL    HW120624   4.473   2.843   6.277
 6627SOL    HW220625   4.339   2.910   6.261
 6628SOL     OW20626   4.419   3.022   7.397
 6628SOL    HW120627   4.457   3.102   7.361
 6628SOL    HW220628   4.326   3.028   7.377
 6629SOL     OW20629   4.062   3.293   6.655
 6629SOL    HW120630   3.989   3.248   6.611
 6629SOL    HW220631   4.105   3.342   6.585
 6630SOL     OW20632   4.172   2.261   7.066
 6630SOL    HW120633   4.247   2.201   7.073
 6630SOL    HW220634   4.096   2.206   7.083
 6631SOL     OW20635   3.941   3.577   6.058
 6631SOL    HW120636   3.961   3.653   6.113
 6631SOL    HW220637   4.017   3.568   6.000
 6632SOL     OW20638   3.955   3.304   6.121
 6632SOL    HW120639   3.935   3.398   6.125
 6632SOL    HW220640   3.897   3.264   6.185
 6633SOL     OW20641   3.977   2.950   6.472
 6633SOL    HW120642   3.981   2.865   6.515
 6633SOL    HW220643   3.926   3.005   6.531
 6634SOL     OW20644   4.362   3.658   7.043
 6634SOL    HW120645   4.275   3.627   7.064
 6634SOL    HW220646   4.355   3.754   7.042
 6635SOL     OW20647   4.309   2.849   5.727
 6635SOL    HW120648   4.340   2.898   5.651
 6635SOL    HW220649   4.376   2.860   5.793
 6636SOL     OW20650   3.841   2.514   6.146
 6636SOL    HW120651   3.808   2.427   6.167
 6636SOL    HW220652   3.832   2.564   6.228
 6637SOL     OW20653   3.758   3.456   5.709
 6637SOL    HW120654   3.739   3.364   5.729
 6637SOL    HW220655   3.733   3.503   5.789
 6638SOL     OW20656   3.846   2.605   7.171
 6638SOL    HW120657   3.938   2.632   7.177
 6638SOL    HW220658   3.797   2.686   7.178
 6639SOL     OW20659   4.307   3.250   6.323
 6639SOL    HW120660   4.272   3.161   6.326
 6639SOL    HW220661   4.310   3.272   6.230
 6640SOL     OW20662   0.022   1.871   6.111
 6640SOL    HW120663   0.052   1.931   6.042
 6640SOL    HW220664   4.428   1.884   6.115
 6641SOL     OW20665   3.911   2.825   6.860
 6641SOL    HW120666   3.997   2.786   6.843
 6641SOL    HW220667   3.851   2.774   6.806
 6642SOL     OW20668   4.061   2.111   7.401
 6642SOL    HW120669   4.102   2.196   7.418
 6642SOL    HW220670   3.970   2.123   7.430
 6643SOL     OW20671   4.312   2.589   5.857
 6643SOL    HW120672   4.306   2.668   5.803
 6643SOL    HW220673   4.245   2.601   5.924
 6644SOL     OW20674   3.811   2.684   6.362
 6644SOL    HW120675   3.892   2.676   6.412
 6644SOL    HW220676   3.769   2.763   6.396
 6645SOL     OW20677   3.852   3.716   7.165
 6645SOL    HW120678   3.854   3.694   7.258
 6645SOL    HW220679   3.763   3.698   7.138
 6646SOL     OW20680   4.249   2.050   6.467
 6646SOL    HW120681   4.269   2.057   6.560
 6646SOL    HW220682   4.258   2.139   6.433
 6647SOL     OW20683   4.083   3.676   6.451
 6647SOL    HW120684   4.134   3.596   6.459
 6647SOL    HW220685   4.147   3.747   6.462
 6648SOL     OW20686   4.042   2.822   5.838
 6648SOL    HW120687   4.124   2.840   5.794
 6648SOL    HW220688   4.012   2.739   5.799
 6649SOL     OW20689   4.177   3.113   7.320
 6649SOL    HW120690   4.150   3.126   7.229
 6649SOL    HW220691   4.096   3.123   7.370
 6650SOL     OW20692   3.925   2.142   7.089
 6650SOL    HW120693   3.844   2.192   7.085
 6650SOL    HW220694   3.905   2.067   7.145
 6651SOL     OW20695   4.191   3.597   5.912
 6651SOL    HW120696   4.225   3.657   5.977
 6651SOL    HW220697   4.259   3.594   5.844
 6652SOL     OW20698   3.980   3.655   6.817
 6652SOL    HW120699   4.026   3.583   6.860
 6652SOL    HW220700   3.967   3.624   6.727
 6653SOL     OW20701   4.113   2.554   6.058
 6653SOL    HW120702   4.136   2.463   6.074
 6653SOL    HW220703   4.019   2.558   6.078
 6654SOL     OW20704   4.340   1.968   5.705
 6654SOL    HW120705   4.435   1.955   5.703
 6654SOL    HW220706   4.311   1.947   5.616
 6655SOL     OW20707   0.022   3.280   6.494
 6655SOL    HW120708   0.075   3.335   6.436
 6655SOL    HW220709   4.444   3.259   6.442
 6656SOL     OW20710   4.260   1.928   6.086
 6656SOL    HW120711   4.180   1.931   6.140
 6656SOL    HW220712   4.255   2.005   6.031
 6657SOL     OW20713   4.016   1.911   5.771
 6657SOL    HW120714   4.077   1.973   5.731
 6657SOL    HW220715   4.073   1.847   5.815
 6658SOL     OW20716   0.328   2.533   7.037
 6658SOL    HW120717   0.264   2.464   7.016
 6658SOL    HW220718   0.410   2.486   7.047
 6659SOL     OW20719   4.191   3.006   6.315
 6659SOL    HW120720   4.123   2.987   6.380
 6659SOL    HW220721   4.148   2.991   6.231
 6660SOL     OW20722   3.804   2.415   6.979
 6660SOL    HW120723   3.896   2.415   6.951
 6660SOL    HW220724   3.800   2.486   7.044
 6661SOL     OW20725   4.282   2.071   6.735
 6661SOL    HW120726   4.327   2.010   6.793
 6661SOL    HW220727   4.195   2.081   6.774
 6662SOL     OW20728   4.231   3.248   5.759
 6662SOL    HW120729   4.146   3.233   5.800
 6662SOL    HW220730   4.211   3.261   5.667
 6663SOL     OW20731   4.244   2.128   5.906
 6663SOL    HW120732   4.286   2.073   5.840
 6663SOL    HW220733   4.223   2.210   5.861
 6664SOL     OW20734   4.141   2.675   6.836
 6664SOL    HW120735   4.208   2.685   6.903
 6664SOL    HW220736   4.106   2.587   6.849
 6665SOL     OW20737   3.795   3.436   6.941
 6665SOL    HW120738   3.763   3.506   6.884
 6665SOL    HW220739   3.890   3.439   6.933
 6666SOL     OW20740   4.065   2.974   6.075
 6666SOL    HW120741   4.068   3.047   6.012
 6666SOL    HW220742   4.064   2.896   6.020
 6667SOL     OW20743   4.301   2.399   6.452
 6667SOL    HW120744   4.301   2.466   6.383
 6667SOL    HW220745   4.368   2.429   6.513
 6668SOL     OW20746   4.071   3.399   6.901
 6668SOL    HW120747   4.067   3.354   6.816
 6668SOL    HW220748   4.164   3.399   6.923
 6669SOL     OW20749   4.138   2.604   7.191
 6669SOL    HW120750   4.198   2.647   7.130
 6669SOL    HW220751   4.180   2.520   7.211
 6670SOL     OW20752   4.233   1.914   7.319
 6670SOL    HW120753   4.186   1.854   7.261
 6670SOL    HW220754   4.169   1.981   7.341
 6671SOL     OW20755   4.289   2.757   6.613
 6671SOL    HW120756   4.313   2.848   6.628
 6671SOL    HW220757   4.243   2.730   6.693
 6672SOL     OW20758   4.023   2.061   6.833
 6672SOL    HW120759   3.985   2.093   6.915
 6672SOL    HW220760   4.004   1.968   6.833
 6673SOL     OW20761   3.771   3.173   6.862
 6673SOL    HW120762   3.802   3.117   6.933
 6673SOL    HW220763   3.776   3.262   6.897
 6674SOL     OW20764   4.019   1.927   6.212
 6674SOL    HW120765   4.002   2.018   6.235
 6674SOL    HW220766   4.033   1.883   6.296
 6675SOL     OW20767   4.075   2.777   7.395
 6675SOL    HW120768   4.157   2.791   7.443
 6675SOL    HW220769   4.098   2.713   7.328
 6676SOL     OW20770   4.030   2.670   6.531
 6676SOL    HW120771   4.122   2.699   6.532
 6676SOL    HW220772   4.033   2.579   6.561
 6677SOL     OW20773   4.064   2.391   6.595
 6677SOL    HW120774   4.028   2.304   6.579
 6677SOL    HW220775   4.145   2.393   6.542
 6678SOL     OW20776   3.730   3.182   5.782
 6678SOL    HW120777   3.643   3.196   5.744
 6678SOL    HW220778   3.727   3.092   5.816
 6679SOL     OW20779   3.817   3.647   6.526
 6679SOL    HW120780   3.787   3.569   6.481
 6679SOL    HW220781   3.906   3.661   6.494
 6680SOL     OW20782   4.232   3.447   6.491
 6680SOL    HW120783   4.319   3.473   6.525
 6680SOL    HW220784   4.250   3.378   6.427
 6681SOL     OW20785   3.759   2.407   6.702
 6681SOL    HW120786   3.838   2.393   6.650
 6681SOL    HW220787   3.790   2.410   6.793
 6682SOL     OW20788   3.915   2.382   7.315
 6682SOL    HW120789   3.971   2.343   7.249
 6682SOL    HW220790   3.874   2.457   7.271
 6683SOL     OW20791   0.029   2.415   5.848
 6683SOL    HW120792   0.020   2.357   5.923
 6683SOL    HW220793   4.461   2.481   5.860
 6684SOL     OW20794   3.968   3.415   7.312
 6684SOL    HW120795   3.942   3.479   7.377
 6684SOL    HW220796   3.966   3.331   7.358
 6685SOL     OW20797   4.187   2.355   5.773
 6685SOL    HW120798   4.246   2.427   5.793
 6685SOL    HW220799   4.102   2.396   5.758
 6686SOL     OW20800   3.869   3.002   7.059
 6686SOL    HW120801   3.869   2.952   7.140
 6686SOL    HW220802   3.885   2.937   6.990
 6687SOL     OW20803   3.810   3.132   6.598
 6687SOL    HW120804   3.793   3.143   6.692
 6687SOL    HW220805   3.739   3.075   6.568
 6688SOL     OW20806   4.389   3.513   7.286
 6688SOL    HW120807   4.354   3.597   7.318
 6688SOL    HW220808   4.420   3.533   7.198
 6689SOL     OW20809   3.863   3.657   7.429
 6689SOL    HW120810   3.812   3.593   7.477
 6689SOL    HW220811   3.908   3.708   7.496
 6690SOL     OW20812   3.984   2.181   6.301
 6690SOL    HW120813   3.897   2.214   6.279
 6690SOL    HW220814   3.983   2.172   6.396
 6691SOL     OW20815   4.086   3.170   7.076
 6691SOL    HW120816   4.066   3.246   7.020
 6691SOL    HW220817   4.014   3.109   7.061
 6692SOL     OW20818   4.326   3.352   6.065
 6692SOL    HW120819   4.342   3.292   5.992
 6692SOL    HW220820   4.259   3.413   6.033
 6693SOL     OW20821   3.984   3.210   5.874
 6693SOL    HW120822   3.892   3.206   5.851
 6693SOL    HW220823   3.986   3.247   5.962
 6694SOL     OW20824   3.836   2.888   7.307
 6694SOL    HW120825   3.760   2.863   7.359
 6694SOL    HW220826   3.910   2.848   7.352
 6695SOL     OW20827   4.388   2.068   7.080
 6695SOL    HW120828   4.478   2.070   7.046
 6695SOL    HW220829   4.399   2.056   7.174
 6696SOL     OW20830   3.803   2.193   5.620
 6696SOL    HW120831   3.716   2.174   5.586
 6696SOL    HW220832   3.833   2.269   5.570
 6697SOL     OW20833   3.791   2.018   5.893
 6697SOL    HW120834   3.776   2.097   5.842
 6697SOL    HW220835   3.876   1.985   5.864
 6698SOL     OW20836   4.339   2.701   7.022
 6698SOL    HW120837   4.378   2.787   7.007
 6698SOL    HW220838   4.413   2.644   7.045
 6699SOL     OW20839   4.394   2.419   7.325
 6699SOL    HW120840   4.416   2.495   7.379
 6699SOL    HW220841   4.478   2.387   7.293
 6700SOL     OW20842   4.106   3.602   7.147
 6700SOL    HW120843   4.022   3.644   7.132
 6700SOL    HW220844   4.085   3.521   7.193
 6701SOL     OW20845   4.308   2.591   6.255
 6701SOL    HW120846   4.349   2.676   6.242
 6701SOL    HW220847   4.239   2.586   6.188
 6702SOL     OW20848   3.943   3.168   7.440
 6702SOL    HW120849   3.878   3.103   7.411
 6702SOL    HW220850   3.926   3.179   7.534
 6703SOL     OW20851   3.810   3.094   6.252
 6703SOL    HW120852   3.817   3.047   6.335
 6703SOL    HW220853   3.877   3.054   6.196
 6704SOL     OW20854   4.421   3.248   7.251
 6704SOL    HW120855   4.331   3.217   7.241
 6704SOL    HW220856   4.412   3.342   7.265
 6705SOL     OW20857   4.166   2.294   6.122
 6705SOL    HW120858   4.181   2.228   6.054
 6705SOL    HW220859   4.106   2.253   6.183
 6706SOL     OW20860   4.054   2.417   6.875
 6706SOL    HW120861   4.108   2.361   6.931
 6706SOL    HW220862   4.075   2.390   6.785
 6707SOL     OW20863   0.035   3.466   6.273
 6707SOL    HW120864   0.060   3.531   6.207
 6707SOL    HW220865   4.468   3.413   6.231
 6708SOL     OW20866   3.768   2.931   5.893
 6708SOL    HW120867   3.861   2.922   5.875
 6708SOL    HW220868   3.739   2.843   5.915
 6709SOL     OW20869   3.953   2.486   7.572
 6709SOL    HW120870   3.864   2.483   7.608
 6709SOL    HW220871   3.943   2.460   7.481
 6710SOL     OW20872   3.947   2.149   8.440
 6710SOL    HW120873   3.979   2.112   8.522
 6710SOL    HW220874   3.858   2.115   8.430
 6711SOL     OW20875   3.725   2.245   8.086
 6711SOL    HW120876   3.643   2.272   8.128
 6711SOL    HW220877   3.703   2.166   8.037
 6712SOL     OW20878   4.266   3.103   8.593
 6712SOL    HW120879   4.200   3.169   8.571
 6712SOL    HW220880   4.335   3.152   8.636
 6713SOL     OW20881   0.017   2.639   9.305
 6713SOL    HW120882   0.068   2.677   9.376
 6713SOL    HW220883   0.061   2.667   9.225
 6714SOL     OW20884   4.399   2.850   8.079
 6714SOL    HW120885   4.474   2.843   8.139
 6714SOL    HW220886   4.339   2.910   8.123
 6715SOL     OW20887   4.419   3.022   9.259
 6715SOL    HW120888   4.457   3.102   9.223
 6715SOL    HW220889   4.326   3.028   9.239
 6716SOL     OW20890   4.062   3.293   8.517
 6716SOL    HW120891   3.989   3.248   8.474
 6716SOL    HW220892   4.105   3.342   8.447
 6717SOL     OW20893   4.172   2.261   8.928
 6717SOL    HW120894   4.247   2.201   8.935
 6717SOL    HW220895   4.096   2.206   8.945
 6718SOL     OW20896   3.942   3.577   7.920
 6718SOL    HW120897   3.961   3.653   7.975
 6718SOL    HW220898   4.018   3.568   7.863
 6719SOL     OW20899   3.955   3.304   7.983
 6719SOL    HW120900   3.935   3.398   7.987
 6719SOL    HW220901   3.897   3.264   8.047
 6720SOL     OW20902   3.977   2.950   8.334
 6720SOL    HW120903   3.981   2.865   8.377
 6720SOL    HW220904   3.926   3.005   8.393
 6721SOL     OW20905   4.362   3.658   8.905
 6721SOL    HW120906   4.275   3.627   8.926
 6721SOL    HW220907   4.355   3.754   8.904
 6722SOL     OW20908   4.308   2.849   7.589
 6722SOL    HW120909   4.340   2.898   7.513
 6722SOL    HW220910   4.376   2.860   7.655
 6723SOL     OW20911   3.840   2.514   8.008
 6723SOL    HW120912   3.808   2.427   8.030
 6723SOL    HW220913   3.831   2.564   8.090
 6724SOL     OW20914   3.758   3.456   7.571
 6724SOL    HW120915   3.739   3.364   7.591
 6724SOL    HW220916   3.733   3.503   7.650
 6725SOL     OW20917   3.846   2.605   9.034
 6725SOL    HW120918   3.937   2.632   9.039
 6725SOL    HW220919   3.796   2.686   9.039
 6726SOL     OW20920   4.307   3.251   8.185
 6726SOL    HW120921   4.272   3.162   8.188
 6726SOL    HW220922   4.310   3.272   8.092
 6727SOL     OW20923   0.022   1.870   7.973
 6727SOL    HW120924   0.052   1.930   7.905
 6727SOL    HW220925   4.427   1.884   7.977
 6728SOL     OW20926   3.911   2.825   8.722
 6728SOL    HW120927   3.997   2.786   8.705
 6728SOL    HW220928   3.850   2.774   8.669
 6729SOL     OW20929   4.061   2.111   9.263
 6729SOL    HW120930   4.102   2.196   9.280
 6729SOL    HW220931   3.970   2.123   9.292
 6730SOL     OW20932   4.311   2.588   7.718
 6730SOL    HW120933   4.306   2.668   7.665
 6730SOL    HW220934   4.245   2.601   7.786
 6731SOL     OW20935   3.811   2.684   8.224
 6731SOL    HW120936   3.892   2.676   8.274
 6731SOL    HW220937   3.769   2.763   8.258
 6732SOL     OW20938   3.852   3.717   9.027
 6732SOL    HW120939   3.854   3.694   9.120
 6732SOL    HW220940   3.763   3.698   9.000
 6733SOL     OW20941   4.249   2.050   8.328
 6733SOL    HW120942   4.269   2.057   8.422
 6733SOL    HW220943   4.258   2.140   8.295
 6734SOL     OW20944   4.083   3.676   8.313
 6734SOL    HW120945   4.134   3.596   8.321
 6734SOL    HW220946   4.147   3.747   8.324
 6735SOL     OW20947   4.042   2.822   7.700
 6735SOL    HW120948   4.125   2.841   7.656
 6735SOL    HW220949   4.012   2.739   7.661
 6736SOL     OW20950   4.177   3.113   9.182
 6736SOL    HW120951   4.150   3.126   9.091
 6736SOL    HW220952   4.096   3.123   9.232
 6737SOL     OW20953   3.925   2.142   8.951
 6737SOL    HW120954   3.843   2.192   8.947
 6737SOL    HW220955   3.904   2.067   9.007
 6738SOL     OW20956   4.191   3.597   7.774
 6738SOL    HW120957   4.225   3.657   7.839
 6738SOL    HW220958   4.259   3.594   7.706
 6739SOL     OW20959   3.980   3.655   8.679
 6739SOL    HW120960   4.026   3.583   8.722
 6739SOL    HW220961   3.967   3.624   8.589
 6740SOL     OW20962   4.113   2.554   7.920
 6740SOL    HW120963   4.136   2.463   7.936
 6740SOL    HW220964   4.019   2.559   7.940
 6741SOL     OW20965   4.340   1.969   7.567
 6741SOL    HW120966   4.435   1.955   7.566
 6741SOL    HW220967   4.312   1.947   7.478
 6742SOL     OW20968   0.022   3.280   8.356
 6742SOL    HW120969   0.075   3.335   8.298
 6742SOL    HW220970   4.444   3.259   8.304
 6743SOL     OW20971   4.259   1.928   7.948
 6743SOL    HW120972   4.180   1.931   8.002
 6743SOL    HW220973   4.255   2.005   7.893
 6744SOL     OW20974   4.017   1.911   7.633
 6744SOL    HW120975   4.078   1.973   7.594
 6744SOL    HW220976   4.073   1.847   7.677
 6745SOL     OW20977   0.328   2.532   8.899
 6745SOL    HW120978   0.264   2.464   8.879
 6745SOL    HW220979   0.410   2.485   8.909
 6746SOL     OW20980   4.191   3.006   8.177
 6746SOL    HW120981   4.123   2.987   8.242
 6746SOL    HW220982   4.148   2.991   8.093
 6747SOL     OW20983   3.804   2.416   8.840
 6747SOL    HW120984   3.896   2.415   8.813
 6747SOL    HW220985   3.800   2.486   8.905
 6748SOL     OW20986   4.282   2.071   8.597
 6748SOL    HW120987   4.327   2.010   8.655
 6748SOL    HW220988   4.195   2.081   8.636
 6749SOL     OW20989   4.231   3.248   7.621
 6749SOL    HW120990   4.146   3.233   7.663
 6749SOL    HW220991   4.211   3.261   7.529
 6750SOL     OW20992   4.244   2.128   7.768
 6750SOL    HW120993   4.286   2.073   7.702
 6750SOL    HW220994   4.223   2.210   7.723
 6751SOL     OW20995   4.141   2.675   8.698
 6751SOL    HW120996   4.208   2.685   8.765
 6751SOL    HW220997   4.106   2.587   8.711
 6752SOL     OW20998   3.795   3.436   8.803
 6752SOL    HW120999   3.763   3.506   8.746
 6752SOL    HW221000   3.890   3.439   8.795
 6753SOL     OW21001   4.065   2.974   7.937
 6753SOL    HW121002   4.068   3.047   7.874
 6753SOL    HW221003   4.064   2.896   7.882
 6754SOL     OW21004   4.301   2.399   8.313
 6754SOL    HW121005   4.301   2.466   8.244
 6754SOL    HW221006   4.368   2.429   8.375
 6755SOL     OW21007   4.071   3.399   8.763
 6755SOL    HW121008   4.067   3.354   8.678
 6755SOL    HW221009   4.164   3.399   8.785
 6756SOL     OW21010   4.138   2.604   9.053
 6756SOL    HW121011   4.198   2.647   8.992
 6756SOL    HW221012   4.180   2.520   9.073
 6757SOL     OW21013   4.233   1.914   9.181
 6757SOL    HW121014   4.186   1.854   9.123
 6757SOL    HW221015   4.169   1.981   9.203
 6758SOL     OW21016   4.288   2.757   8.475
 6758SOL    HW121017   4.313   2.848   8.490
 6758SOL    HW221018   4.242   2.730   8.554
 6759SOL     OW21019   4.023   2.061   8.695
 6759SOL    HW121020   3.985   2.093   8.777
 6759SOL    HW221021   4.004   1.968   8.695
 6760SOL     OW21022   3.771   3.173   8.724
 6760SOL    HW121023   3.803   3.117   8.795
 6760SOL    HW221024   3.776   3.262   8.759
 6761SOL     OW21025   4.019   1.927   8.074
 6761SOL    HW121026   4.002   2.018   8.097
 6761SOL    HW221027   4.033   1.883   8.158
 6762SOL     OW21028   4.075   2.777   9.257
 6762SOL    HW121029   4.157   2.791   9.305
 6762SOL    HW221030   4.098   2.713   9.190
 6763SOL     OW21031   4.030   2.670   8.393
 6763SOL    HW121032   4.122   2.699   8.394
 6763SOL    HW221033   4.033   2.579   8.423
 6764SOL     OW21034   4.065   2.391   8.457
 6764SOL    HW121035   4.028   2.304   8.441
 6764SOL    HW221036   4.145   2.393   8.404
 6765SOL     OW21037   3.729   3.182   7.643
 6765SOL    HW121038   3.643   3.196   7.606
 6765SOL    HW221039   3.726   3.093   7.678
 6766SOL     OW21040   3.817   3.647   8.388
 6766SOL    HW121041   3.787   3.569   8.343
 6766SOL    HW221042   3.906   3.661   8.356
 6767SOL     OW21043   4.232   3.447   8.354
 6767SOL    HW121044   4.319   3.472   8.387
 6767SOL    HW221045   4.250   3.378   8.289
 6768SOL     OW21046   3.759   2.407   8.564
 6768SOL    HW121047   3.839   2.393   8.513
 6768SOL    HW221048   3.789   2.410   8.655
 6769SOL     OW21049   3.915   2.382   9.177
 6769SOL    HW121050   3.971   2.342   9.110
 6769SOL    HW221051   3.874   2.457   9.133
 6770SOL     OW21052   0.029   2.414   7.709
 6770SOL    HW121053   0.022   2.358   7.787
 6770SOL    HW221054   4.461   2.480   7.722
 6771SOL     OW21055   3.968   3.415   9.174
 6771SOL    HW121056   3.942   3.479   9.239
 6771SOL    HW221057   3.966   3.331   9.220
 6772SOL     OW21058   4.187   2.354   7.634
 6772SOL    HW121059   4.247   2.427   7.655
 6772SOL    HW221060   4.102   2.396   7.620
 6773SOL     OW21061   3.869   3.002   8.921
 6773SOL    HW121062   3.869   2.952   9.002
 6773SOL    HW221063   3.885   2.938   8.852
 6774SOL     OW21064   3.810   3.132   8.460
 6774SOL    HW121065   3.793   3.143   8.554
 6774SOL    HW221066   3.739   3.075   8.430
 6775SOL     OW21067   4.389   3.513   9.148
 6775SOL    HW121068   4.354   3.597   9.180
 6775SOL    HW221069   4.420   3.533   9.059
 6776SOL     OW21070   3.863   3.657   9.291
 6776SOL    HW121071   3.812   3.593   9.339
 6776SOL    HW221072   3.908   3.708   9.358
 6777SOL     OW21073   3.984   2.181   8.163
 6777SOL    HW121074   3.896   2.214   8.142
 6777SOL    HW221075   3.983   2.172   8.258
 6778SOL     OW21076   4.086   3.170   8.938
 6778SOL    HW121077   4.066   3.246   8.882
 6778SOL    HW221078   4.014   3.109   8.923
 6779SOL     OW21079   4.326   3.352   7.927
 6779SOL    HW121080   4.342   3.293   7.854
 6779SOL    HW221081   4.259   3.413   7.895
 6780SOL     OW21082   3.984   3.210   7.736
 6780SOL    HW121083   3.891   3.206   7.713
 6780SOL    HW221084   3.986   3.247   7.824
 6781SOL     OW21085   3.837   2.889   9.169
 6781SOL    HW121086   3.760   2.863   9.221
 6781SOL    HW221087   3.910   2.848   9.215
 6782SOL     OW21088   4.388   2.068   8.942
 6782SOL    HW121089   4.478   2.070   8.908
 6782SOL    HW221090   4.398   2.056   9.036
 6783SOL     OW21091   3.804   2.193   7.482
 6783SOL    HW121092   3.715   2.175   7.450
 6783SOL    HW221093   3.833   2.268   7.431
 6784SOL     OW21094   3.791   2.017   7.756
 6784SOL    HW121095   3.776   2.097   7.705
 6784SOL    HW221096   3.876   1.985   7.726
 6785SOL     OW21097   4.339   2.701   8.884
 6785SOL    HW121098   4.378   2.787   8.869
 6785SOL    HW221099   4.413   2.644   8.907
 6786SOL     OW21100   4.394   2.419   9.187
 6786SOL    HW121101   4.416   2.495   9.241
 6786SOL    HW221102   4.478   2.387   9.155
 6787SOL     OW21103   4.106   3.602   9.009
 6787SOL    HW121104   4.022   3.644   8.994
 6787SOL    HW221105   4.085   3.521   9.055
 6788SOL     OW21106   4.307   2.591   8.117
 6788SOL    HW121107   4.349   2.676   8.104
 6788SOL    HW221108   4.239   2.587   8.050
 6789SOL     OW21109   3.943   3.168   9.302
 6789SOL    HW121110   3.879   3.103   9.273
 6789SOL    HW221111   3.925   3.179   9.395
 6790SOL     OW21112   3.810   3.094   8.114
 6790SOL    HW121113   3.816   3.047   8.197
 6790SOL    HW221114   3.878   3.054   8.059
 6791SOL     OW21115   4.421   3.248   9.114
 6791SOL    HW121116   4.331   3.217   9.103
 6791SOL    HW221117   4.412   3.342   9.127
 6792SOL     OW21118   4.165   2.295   7.983
 6792SOL    HW121119   4.181   2.228   7.916
 6792SOL    HW221120   4.105   2.253   8.045
 6793SOL     OW21121   4.054   2.417   8.737
 6793SOL    HW121122   4.108   2.361   8.793
 6793SOL    HW221123   4.075   2.390   8.647
 6794SOL     OW21124   0.035   3.466   8.135
 6794SOL    HW121125   0.060   3.531   8.069
 6794SOL    HW221126   4.468   3.413   8.093
 6795SOL     OW21127   3.768   2.931   7.754
 6795SOL    HW121128   3.861   2.922   7.737
 6795SOL    HW221129   3.739   2.843   7.777
 6796SOL     OW21130   3.953   2.486   9.434
 6796SOL    HW121131   3.864   2.483   9.470
 6796SOL    HW221132   3.943   2.460   9.343
 6797SOL     OW21133   3.947   2.149  10.301
 6797SOL    HW121134   3.979   2.113  10.384
 6797SOL    HW221135   3.858   2.115  10.292
 6798SOL     OW21136   3.725   2.245   9.948
 6798SOL    HW121137   3.643   2.271   9.990
 6798SOL    HW221138   3.704   2.166   9.899
 6799SOL     OW21139   4.266   3.103  10.456
 6799SOL    HW121140   4.200   3.168  10.432
 6799SOL    HW221141   4.335   3.153  10.498
 6800SOL     OW21142   0.023   2.675   0.080
 6800SOL    HW121143   0.106   2.705   0.119
 6800SOL    HW221144   0.046   2.652  11.090
 6801SOL     OW21145   4.399   2.850   9.941
 6801SOL    HW121146   4.473   2.843  10.001
 6801SOL    HW221147   4.339   2.910   9.985
 6802SOL     OW21148   4.063   3.292  10.378
 6802SOL    HW121149   3.989   3.249  10.336
 6802SOL    HW221150   4.106   3.342  10.308
 6803SOL     OW21151   4.178   2.264  10.794
 6803SOL    HW121152   4.247   2.198  10.798
 6803SOL    HW221153   4.098   2.216  10.816
 6804SOL     OW21154   3.942   3.577   9.782
 6804SOL    HW121155   3.961   3.653   9.837
 6804SOL    HW221156   4.018   3.568   9.725
 6805SOL     OW21157   3.955   3.304   9.845
 6805SOL    HW121158   3.935   3.398   9.849
 6805SOL    HW221159   3.896   3.264   9.909
 6806SOL     OW21160   3.977   2.950  10.196
 6806SOL    HW121161   3.981   2.865  10.240
 6806SOL    HW221162   3.926   3.006  10.255
 6807SOL     OW21163   4.355   3.666  10.751
 6807SOL    HW121164   4.269   3.635  10.780
 6807SOL    HW221165   4.354   3.760  10.768
 6808SOL     OW21166   4.308   2.849   9.451
 6808SOL    HW121167   4.340   2.898   9.375
 6808SOL    HW221168   4.376   2.860   9.517
 6809SOL     OW21169   3.840   2.514   9.870
 6809SOL    HW121170   3.808   2.427   9.892
 6809SOL    HW221171   3.831   2.564   9.952
 6810SOL     OW21172   3.758   3.456   9.433
 6810SOL    HW121173   3.739   3.364   9.453
 6810SOL    HW221174   3.733   3.503   9.512
 6811SOL     OW21175   3.850   2.588  10.918
 6811SOL    HW121176   3.942   2.610  10.904
 6811SOL    HW221177   3.804   2.671  10.910
 6812SOL     OW21178   4.307   3.250  10.048
 6812SOL    HW121179   4.272   3.161  10.050
 6812SOL    HW221180   4.310   3.272   9.954
 6813SOL     OW21181   0.022   1.870   9.835
 6813SOL    HW121182   0.052   1.930   9.767
 6813SOL    HW221183   4.427   1.884   9.839
 6814SOL     OW21184   3.911   2.823  10.580
 6814SOL    HW121185   3.997   2.784  10.563
 6814SOL    HW221186   3.850   2.771  10.529
 6815SOL     OW21187   4.070   2.118   0.020
 6815SOL    HW121188   4.118   2.194   0.053
 6815SOL    HW221189   3.977   2.141   0.033
 6816SOL     OW21190   4.312   2.589   9.580
 6816SOL    HW121191   4.306   2.668   9.527
 6816SOL    HW221192   4.245   2.601   9.648
 6817SOL     OW21193   3.811   2.684  10.086
 6817SOL    HW121194   3.892   2.676  10.136
 6817SOL    HW221195   3.769   2.763  10.120
 6818SOL     OW21196   3.856   3.710  10.898
 6818SOL    HW121197   3.839   3.672  10.984
 6818SOL    HW221198   3.772   3.702  10.852
 6819SOL     OW21199   4.249   2.051  10.191
 6819SOL    HW121200   4.269   2.058  10.284
 6819SOL    HW221201   4.259   2.140  10.157
 6820SOL     OW21202   4.083   3.676  10.175
 6820SOL    HW121203   4.134   3.596  10.183
 6820SOL    HW221204   4.147   3.747  10.186
 6821SOL     OW21205   4.042   2.822   9.562
 6821SOL    HW121206   4.125   2.841   9.518
 6821SOL    HW221207   4.012   2.739   9.523
 6822SOL     OW21208   4.176   3.125  11.056
 6822SOL    HW121209   4.150   3.141  10.965
 6822SOL    HW221210   4.108   3.068  11.091
 6823SOL     OW21211   3.929   2.140  10.807
 6823SOL    HW121212   3.847   2.190  10.806
 6823SOL    HW221213   3.913   2.070  10.870
 6824SOL     OW21214   4.191   3.597   9.636
 6824SOL    HW121215   4.225   3.657   9.701
 6824SOL    HW221216   4.259   3.594   9.568
 6825SOL     OW21217   3.981   3.655  10.542
 6825SOL    HW121218   4.026   3.583  10.586
 6825SOL    HW221219   3.967   3.623  10.453
 6826SOL     OW21220   4.113   2.554   9.782
 6826SOL    HW121221   4.136   2.463   9.798
 6826SOL    HW221222   4.019   2.559   9.802
 6827SOL     OW21223   4.340   1.969   9.429
 6827SOL    HW121224   4.435   1.955   9.427
 6827SOL    HW221225   4.312   1.947   9.340
 6828SOL     OW21226   0.022   3.281  10.218
 6828SOL    HW121227   0.075   3.335  10.160
 6828SOL    HW221228   4.444   3.260  10.166
 6829SOL     OW21229   4.259   1.928   9.810
 6829SOL    HW121230   4.180   1.931   9.864
 6829SOL    HW221231   4.255   2.005   9.755
 6830SOL     OW21232   4.017   1.911   9.495
 6830SOL    HW121233   4.078   1.973   9.456
 6830SOL    HW221234   4.073   1.847   9.539
 6831SOL     OW21235   0.312   2.535  10.767
 6831SOL    HW121236   0.259   2.456  10.765
 6831SOL    HW221237   0.402   2.503  10.774
 6832SOL     OW21238   4.191   3.006  10.039
 6832SOL    HW121239   4.123   2.987  10.104
 6832SOL    HW221240   4.148   2.990   9.955
 6833SOL     OW21241   3.803   2.414  10.706
 6833SOL    HW121242   3.895   2.414  10.678
 6833SOL    HW221243   3.800   2.475  10.779
 6834SOL     OW21244   4.283   2.071  10.460
 6834SOL    HW121245   4.325   2.003  10.514
 6834SOL    HW221246   4.195   2.080  10.498
 6835SOL     OW21247   4.231   3.248   9.483
 6835SOL    HW121248   4.146   3.233   9.525
 6835SOL    HW221249   4.211   3.261   9.391
 6836SOL     OW21250   4.244   2.128   9.630
 6836SOL    HW121251   4.286   2.073   9.564
 6836SOL    HW221252   4.223   2.210   9.585
 6837SOL     OW21253   4.141   2.675  10.559
 6837SOL    HW121254   4.208   2.684  10.627
 6837SOL    HW221255   4.107   2.586  10.572
 6838SOL     OW21256   3.795   3.439  10.664
 6838SOL    HW121257   3.765   3.508  10.605
 6838SOL    HW221258   3.890   3.440  10.655
 6839SOL     OW21259   4.065   2.974   9.799
 6839SOL    HW121260   4.068   3.047   9.736
 6839SOL    HW221261   4.064   2.896   9.744
 6840SOL     OW21262   4.301   2.399  10.176
 6840SOL    HW121263   4.301   2.466  10.107
 6840SOL    HW221264   4.369   2.427  10.237
 6841SOL     OW21265   4.071   3.397  10.625
 6841SOL    HW121266   4.068   3.352  10.540
 6841SOL    HW221267   4.164   3.398  10.648
 6842SOL     OW21268   4.135   2.594  10.902
 6842SOL    HW121269   4.200   2.638  10.847
 6842SOL    HW221270   4.159   2.502  10.899
 6843SOL     OW21271   4.289   2.757  10.337
 6843SOL    HW121272   4.312   2.848  10.352
 6843SOL    HW221273   4.242   2.730  10.416
 6844SOL     OW21274   4.024   2.062  10.556
 6844SOL    HW121275   3.989   2.094  10.639
 6844SOL    HW221276   4.005   1.968  10.557
 6845SOL     OW21277   3.775   3.175  10.584
 6845SOL    HW121278   3.801   3.118  10.656
 6845SOL    HW221279   3.775   3.263  10.623
 6846SOL     OW21280   4.019   1.927   9.936
 6846SOL    HW121281   4.002   2.018   9.959
 6846SOL    HW221282   4.033   1.883  10.020
 6847SOL     OW21283   4.081   2.778  11.093
 6847SOL    HW121284   4.164   2.795   0.037
 6847SOL    HW221285   4.102   2.711  11.028
 6848SOL     OW21286   4.030   2.670  10.255
 6848SOL    HW121287   4.122   2.698  10.255
 6848SOL    HW221288   4.033   2.579  10.285
 6849SOL     OW21289   4.064   2.391  10.319
 6849SOL    HW121290   4.027   2.304  10.304
 6849SOL    HW221291   4.145   2.393  10.267
 6850SOL     OW21292   3.729   3.182   9.506
 6850SOL    HW121293   3.643   3.196   9.468
 6850SOL    HW221294   3.726   3.093   9.540
 6851SOL     OW21295   3.817   3.648  10.250
 6851SOL    HW121296   3.786   3.569  10.204
 6851SOL    HW221297   3.906   3.661  10.218
 6852SOL     OW21298   4.232   3.448  10.215
 6852SOL    HW121299   4.319   3.473  10.248
 6852SOL    HW221300   4.251   3.379  10.151
 6853SOL     OW21301   3.760   2.408  10.427
 6853SOL    HW121302   3.839   2.393  10.376
 6853SOL    HW221303   3.789   2.410  10.518
 6854SOL     OW21304   0.029   2.414   9.571
 6854SOL    HW121305   0.022   2.358   9.648
 6854SOL    HW221306   4.461   2.481   9.584
 6855SOL     OW21307   3.979   3.428  11.050
 6855SOL    HW121308   3.918   3.456   0.019
 6855SOL    HW221309   3.989   3.334  11.063
 6856SOL     OW21310   4.187   2.354   9.497
 6856SOL    HW121311   4.247   2.427   9.517
 6856SOL    HW221312   4.102   2.396   9.482
 6857SOL     OW21313   3.875   3.000  10.779
 6857SOL    HW121314   3.868   2.947  10.858
 6857SOL    HW221315   3.888   2.936  10.709
 6858SOL     OW21316   3.810   3.132  10.321
 6858SOL    HW121317   3.796   3.144  10.415
 6858SOL    HW221318   3.739   3.075  10.293
 6859SOL     OW21319   4.389   3.529  11.000
 6859SOL    HW121320   4.304   3.570  10.984
 6859SOL    HW221321   4.424   3.513  10.912
 6860SOL     OW21322   3.984   2.181  10.025
 6860SOL    HW121323   3.896   2.214  10.004
 6860SOL    HW221324   3.984   2.172  10.120
 6861SOL     OW21325   4.080   3.176  10.813
 6861SOL    HW121326   4.068   3.246  10.748
 6861SOL    HW221327   4.013   3.111  10.791
 6862SOL     OW21328   4.326   3.352   9.789
 6862SOL    HW121329   4.342   3.293   9.716
 6862SOL    HW221330   4.259   3.413   9.757
 6863SOL     OW21331   3.984   3.210   9.598
 6863SOL    HW121332   3.891   3.206   9.575
 6863SOL    HW221333   3.986   3.247   9.686
 6864SOL     OW21334   3.840   2.876  11.018
 6864SOL    HW121335   3.772   2.864  11.083
 6864SOL    HW221336   3.920   2.843  11.060
 6865SOL     OW21337   4.396   2.068  10.810
 6865SOL    HW121338   4.474   2.078  10.755
 6865SOL    HW221339   4.428   2.079  10.899
 6866SOL     OW21340   3.804   2.193   9.344
 6866SOL    HW121341   3.716   2.175   9.311
 6866SOL    HW221342   3.833   2.269   9.293
 6867SOL     OW21343   3.791   2.017   9.618
 6867SOL    HW121344   3.776   2.097   9.567
 6867SOL    HW221345   3.876   1.985   9.588
 6868SOL     OW21346   4.339   2.701  10.746
 6868SOL    HW121347   4.375   2.787  10.730
 6868SOL    HW221348   4.415   2.644  10.758
 6869SOL     OW21349   4.117   3.596  10.877
 6869SOL    HW121350   4.040   3.652  10.864
 6869SOL    HW221351   4.085   3.523  10.930
 6870SOL     OW21352   4.308   2.591   9.979
 6870SOL    HW121353   4.349   2.676   9.966
 6870SOL    HW221354   4.239   2.586   9.912
 6871SOL     OW21355   3.810   3.094   9.976
 6871SOL    HW121356   3.816   3.047  10.059
 6871SOL    HW221357   3.878   3.054   9.921
 6872SOL     OW21358   4.410   3.252  10.949
 6872SOL    HW121359   4.332   3.205  10.978
 6872SOL    HW221360   4.403   3.338  10.989
 6873SOL     OW21361   4.165   2.295   9.845
 6873SOL    HW121362   4.181   2.228   9.778
 6873SOL    HW221363   4.106   2.253   9.907
 6874SOL     OW21364   4.054   2.416  10.600
 6874SOL    HW121365   4.109   2.359  10.654
 6874SOL    HW221366   4.074   2.390  10.510
 6875SOL     OW21367   0.035   3.466   9.997
 6875SOL    HW121368   0.060   3.531   9.931
 6875SOL    HW221369   4.468   3.413   9.955
 6876SOL     OW21370   3.768   2.931   9.616
 6876SOL    HW121371   3.861   2.922   9.599
 6876SOL    HW221372   3.739   2.843   9.639
 6877SOL     OW21373   3.921   4.298   0.088
 6877SOL    HW121374   3.901   4.357   0.160
 6877SOL    HW221375   3.934   4.356   0.012
 6878SOL     OW21376   3.947   4.008   0.991
 6878SOL    HW121377   3.977   3.971   1.074
 6878SOL    HW221378   3.857   3.974   0.982
 6879SOL     OW21379   3.727   4.102   0.644
 6879SOL    HW121380   3.645   4.131   0.684
 6879SOL    HW221381   3.702   4.025   0.592
 6880SOL     OW21382   0.062   0.006   1.858
 6880SOL    HW121383   0.118   0.068   1.904
 6880SOL    HW221384   0.076   0.024   1.766
 6881SOL     OW21385   4.174   4.115   1.476
 6881SOL    HW121386   4.249   4.057   1.486
 6881SOL    HW221387   4.098   4.061   1.499
 6882SOL     OW21388   3.808   4.370   0.560
 6882SOL    HW121389   3.794   4.280   0.589
 6882SOL    HW221390   3.871   4.406   0.623
 6883SOL     OW21391   3.840   4.478   1.583
 6883SOL    HW121392   3.905   4.499   1.650
 6883SOL    HW221393   3.809   0.063   1.552
 6884SOL     OW21394   0.021   3.736   0.532
 6884SOL    HW121395   0.052   3.791   0.460
 6884SOL    HW221396   4.426   3.747   0.532
 6885SOL     OW21397   4.061   3.974   1.812
 6885SOL    HW121398   4.100   4.058   1.836
 6885SOL    HW221399   3.969   3.982   1.840
 6886SOL     OW21400   4.249   3.911   0.881
 6886SOL    HW121401   4.269   3.917   0.974
 6886SOL    HW221402   4.258   4.000   0.848
 6887SOL     OW21403   3.923   4.003   1.507
 6887SOL    HW121404   3.838   4.046   1.498
 6887SOL    HW221405   3.906   3.926   1.561
 6888SOL     OW21406   4.092   4.387   0.408
 6888SOL    HW121407   4.129   4.314   0.456
 6888SOL    HW221408   4.021   4.419   0.464
 6889SOL     OW21409   4.343   3.839   0.119
 6889SOL    HW121410   4.435   3.812   0.122
 6889SOL    HW221411   4.314   3.816   0.031
 6890SOL     OW21412   4.259   3.790   0.499
 6890SOL    HW121413   4.179   3.792   0.551
 6890SOL    HW221414   4.254   3.868   0.444
 6891SOL     OW21415   4.009   3.773   0.202
 6891SOL    HW121416   4.051   3.827   0.135
 6891SOL    HW221417   4.076   3.708   0.226
 6892SOL     OW21418   0.368   4.389   1.528
 6892SOL    HW121419   0.318   4.369   1.449
 6892SOL    HW221420   0.434   4.320   1.533
 6893SOL     OW21421   3.801   4.280   1.394
 6893SOL    HW121422   3.892   4.272   1.365
 6893SOL    HW221423   3.801   4.354   1.455
 6894SOL     OW21424   4.282   3.932   1.149
 6894SOL    HW121425   4.328   3.873   1.208
 6894SOL    HW221426   4.195   3.943   1.188
 6895SOL     OW21427   4.248   3.995   0.323
 6895SOL    HW121428   4.282   3.934   0.257
 6895SOL    HW221429   4.225   4.074   0.274
 6896SOL     OW21430   4.157   0.011   1.276
 6896SOL    HW121431   4.221   0.006   1.348
 6896SOL    HW221432   4.115   4.426   1.275
 6897SOL     OW21433   4.308   4.262   0.875
 6897SOL    HW121434   4.316   4.334   0.812
 6897SOL    HW221435   4.376   4.279   0.940
 6898SOL     OW21436   4.233   3.776   1.734
 6898SOL    HW121437   4.186   3.716   1.675
 6898SOL    HW221438   4.169   3.844   1.754
 6899SOL     OW21439   4.023   3.923   1.248
 6899SOL    HW121440   3.984   3.955   1.329
 6899SOL    HW221441   4.004   3.829   1.247
 6900SOL     OW21442   4.020   3.789   0.627
 6900SOL    HW121443   4.003   3.881   0.650
 6900SOL    HW221444   4.033   3.746   0.711
 6901SOL     OW21445   4.040   0.012   0.919
 6901SOL    HW121446   4.114   0.072   0.926
 6901SOL    HW221447   4.062   4.439   0.977
 6902SOL     OW21448   4.073   4.243   1.018
 6902SOL    HW121449   4.032   4.159   0.997
 6902SOL    HW221450   4.152   4.245   0.963
 6903SOL     OW21451   3.759   4.274   1.115
 6903SOL    HW121452   3.838   4.257   1.064
 6903SOL    HW221453   3.789   4.274   1.206
 6904SOL     OW21454   3.917   4.247   1.719
 6904SOL    HW121455   3.968   4.193   1.659
 6904SOL    HW221456   3.865   4.303   1.662
 6905SOL     OW21457   0.003   4.295   0.287
 6905SOL    HW121458   0.024   4.216   0.336
 6905SOL    HW221459   4.494   4.363   0.353
 6906SOL     OW21460   4.192   4.214   0.172
 6906SOL    HW121461   4.245   4.281   0.215
 6906SOL    HW221462   4.104   4.250   0.171
 6907SOL     OW21463   3.985   4.045   0.716
 6907SOL    HW121464   3.896   4.072   0.694
 6907SOL    HW221465   3.983   4.032   0.811
 6908SOL     OW21466   4.390   3.929   1.494
 6908SOL    HW121467   4.480   3.938   1.462
 6908SOL    HW221468   4.400   3.922   1.589
 6909SOL     OW21469   3.805   4.049   0.059
 6909SOL    HW121470   3.739   4.048  11.090
 6909SOL    HW221471   3.833   4.141   0.063
 6910SOL     OW21472   3.787   3.882   0.311
 6910SOL    HW121473   3.773   3.954   0.250
 6910SOL    HW221474   3.871   3.844   0.284
 6911SOL     OW21475   4.406   4.272   1.751
 6911SOL    HW121476   4.425   4.353   1.797
 6911SOL    HW221477   4.491   4.241   1.719
 6912SOL     OW21478   4.173   4.156   0.543
 6912SOL    HW121479   4.189   4.089   0.477
 6912SOL    HW221480   4.110   4.116   0.603
 6913SOL     OW21481   4.047   4.264   1.291
 6913SOL    HW121482   4.103   4.208   1.345
 6913SOL    HW221483   4.069   4.240   1.201
 6914SOL     OW21484   3.949   4.290   1.987
 6914SOL    HW121485   3.895   4.361   2.023
 6914SOL    HW221486   3.938   4.296   1.892
 6915SOL     OW21487   3.947   4.007   2.852
 6915SOL    HW121488   3.977   3.971   2.936
 6915SOL    HW221489   3.857   3.975   2.844
 6916SOL     OW21490   3.727   4.100   2.505
 6916SOL    HW121491   3.646   4.132   2.546
 6916SOL    HW221492   3.700   4.023   2.455
 6917SOL     OW21493   0.062   0.006   3.721
 6917SOL    HW121494   0.118   0.068   3.766
 6917SOL    HW221495   0.076   0.024   3.628
 6918SOL     OW21496   4.174   4.115   3.338
 6918SOL    HW121497   4.249   4.057   3.348
 6918SOL    HW221498   4.098   4.061   3.361
 6919SOL     OW21499   3.792   4.378   2.435
 6919SOL    HW121500   3.793   4.284   2.454
 6919SOL    HW221501   3.868   4.412   2.482
 6920SOL     OW21502   3.841   4.478   3.445
 6920SOL    HW121503   3.905   4.499   3.512
 6920SOL    HW221504   3.809   0.063   3.414
 6921SOL     OW21505   0.022   3.732   2.387
 6921SOL    HW121506   0.052   3.792   2.319
 6921SOL    HW221507   4.427   3.745   2.391
 6922SOL     OW21508   4.061   3.974   3.674
 6922SOL    HW121509   4.100   4.058   3.698
 6922SOL    HW221510   3.969   3.982   3.702
 6923SOL     OW21511   4.248   3.910   2.743
 6923SOL    HW121512   4.268   3.917   2.836
 6923SOL    HW221513   4.259   3.999   2.709
 6924SOL     OW21514   3.923   4.003   3.368
 6924SOL    HW121515   3.838   4.047   3.360
 6924SOL    HW221516   3.906   3.927   3.423
 6925SOL     OW21517   4.090   4.394   2.274
 6925SOL    HW121518   4.128   4.317   2.317
 6925SOL    HW221519   4.023   4.425   2.335
 6926SOL     OW21520   4.338   3.826   1.983
 6926SOL    HW121521   4.434   3.821   1.978
 6926SOL    HW221522   4.309   3.806   1.893
 6927SOL     OW21523   4.260   3.790   2.364
 6927SOL    HW121524   4.180   3.793   2.417
 6927SOL    HW221525   4.254   3.866   2.307
 6928SOL     OW21526   4.017   3.772   2.047
 6928SOL    HW121527   4.078   3.835   2.010
 6928SOL    HW221528   4.073   3.708   2.091
 6929SOL     OW21529   0.368   4.389   3.390
 6929SOL    HW121530   0.318   4.369   3.311
 6929SOL    HW221531   0.434   4.320   3.394
 6930SOL     OW21532   3.801   4.280   3.257
 6930SOL    HW121533   3.892   4.272   3.227
 6930SOL    HW221534   3.801   4.354   3.317
 6931SOL     OW21535   4.281   3.931   3.010
 6931SOL    HW121536   4.328   3.874   3.071
 6931SOL    HW221537   4.195   3.943   3.050
 6932SOL     OW21538   4.244   3.988   2.184
 6932SOL    HW121539   4.285   3.931   2.118
 6932SOL    HW221540   4.228   4.070   2.139
 6933SOL     OW21541   4.157   0.011   3.138
 6933SOL    HW121542   4.221   0.006   3.209
 6933SOL    HW221543   4.115   4.426   3.137
 6934SOL     OW21544   4.307   4.262   2.736
 6934SOL    HW121545   4.315   4.334   2.674
 6934SOL    HW221546   4.375   4.280   2.801
 6935SOL     OW21547   4.233   3.776   3.596
 6935SOL    HW121548   4.186   3.716   3.537
 6935SOL    HW221549   4.169   3.844   3.616
 6936SOL     OW21550   4.023   3.923   3.110
 6936SOL    HW121551   3.984   3.955   3.191
 6936SOL    HW221552   4.004   3.829   3.109
 6937SOL     OW21553   4.019   3.789   2.488
 6937SOL    HW121554   4.002   3.880   2.511
 6937SOL    HW221555   4.033   3.745   2.573
 6938SOL     OW21556   4.039   0.012   2.783
 6938SOL    HW121557   4.113   0.073   2.788
 6938SOL    HW221558   4.063   4.440   2.841
 6939SOL     OW21559   4.073   4.242   2.881
 6939SOL    HW121560   4.032   4.159   2.859
 6939SOL    HW221561   4.152   4.245   2.826
 6940SOL     OW21562   3.759   4.273   2.977
 6940SOL    HW121563   3.838   4.258   2.926
 6940SOL    HW221564   3.789   4.274   3.068
 6941SOL     OW21565   3.917   4.247   3.581
 6941SOL    HW121566   3.969   4.193   3.520
 6941SOL    HW221567   3.865   4.304   3.525
 6942SOL     OW21568   0.005   4.297   2.142
 6942SOL    HW121569   0.023   4.213   2.185
 6942SOL    HW221570   4.484   4.356   2.215
 6943SOL     OW21571   4.202   4.211   2.047
 6943SOL    HW121572   4.254   4.290   2.065
 6943SOL    HW221573   4.112   4.243   2.039
 6944SOL     OW21574   3.985   4.044   2.578
 6944SOL    HW121575   3.896   4.072   2.556
 6944SOL    HW221576   3.983   4.032   2.673
 6945SOL     OW21577   4.390   3.928   3.356
 6945SOL    HW121578   4.480   3.938   3.324
 6945SOL    HW221579   4.400   3.922   3.451
 6946SOL     OW21580   3.800   4.040   1.891
 6946SOL    HW121581   3.714   4.034   1.849
 6946SOL    HW221582   3.832   4.127   1.867
 6947SOL     OW21583   3.791   3.879   2.170
 6947SOL    HW121584   3.776   3.958   2.118
 6947SOL    HW221585   3.876   3.847   2.140
 6948SOL     OW21586   4.406   4.271   3.613
 6948SOL    HW121587   4.425   4.353   3.658
 6948SOL    HW221588   4.491   4.241   3.581
 6949SOL     OW21589   4.175   4.155   2.406
 6949SOL    HW121590   4.187   4.091   2.336
 6949SOL    HW221591   4.111   4.115   2.465
 6950SOL     OW21592   4.047   4.264   3.153
 6950SOL    HW121593   4.103   4.208   3.207
 6950SOL    HW221594   4.069   4.240   3.063
 6951SOL     OW21595   3.948   4.290   3.849
 6951SOL    HW121596   3.895   4.361   3.885
 6951SOL    HW221597   3.938   4.296   3.754
 6952SOL     OW21598   3.947   4.007   4.714
 6952SOL    HW121599   3.977   3.971   4.798
 6952SOL    HW221600   3.857   3.975   4.706
 6953SOL     OW21601   3.727   4.100   4.368
 6953SOL    HW121602   3.646   4.132   4.408
 6953SOL    HW221603   3.700   4.023   4.317
 6954SOL     OW21604   0.062   0.006   5.583
 6954SOL    HW121605   0.119   0.068   5.628
 6954SOL    HW221606   0.076   0.023   5.490
 6955SOL     OW21607   4.174   4.115   5.200
 6955SOL    HW121608   4.249   4.057   5.210
 6955SOL    HW221609   4.098   4.061   5.223
 6956SOL     OW21610   3.794   4.377   4.295
 6956SOL    HW121611   3.793   4.284   4.316
 6956SOL    HW221612   3.869   4.412   4.344
 6957SOL     OW21613   3.841   4.478   5.307
 6957SOL    HW121614   3.905   4.500   5.374
 6957SOL    HW221615   3.809   0.063   5.276
 6958SOL     OW21616   0.022   3.732   4.249
 6958SOL    HW121617   0.052   3.792   4.181
 6958SOL    HW221618   4.427   3.745   4.253
 6959SOL     OW21619   4.061   3.974   5.537
 6959SOL    HW121620   4.100   4.058   5.560
 6959SOL    HW221621   3.969   3.982   5.565
 6960SOL     OW21622   4.248   3.909   4.605
 6960SOL    HW121623   4.268   3.917   4.698
 6960SOL    HW221624   4.259   3.998   4.571
 6961SOL     OW21625   3.923   4.003   5.230
 6961SOL    HW121626   3.838   4.046   5.222
 6961SOL    HW221627   3.906   3.926   5.284
 6962SOL     OW21628   4.090   4.393   4.136
 6962SOL    HW121629   4.128   4.317   4.179
 6962SOL    HW221630   4.022   4.424   4.196
 6963SOL     OW21631   4.338   3.826   3.845
 6963SOL    HW121632   4.434   3.821   3.840
 6963SOL    HW221633   4.309   3.806   3.756
 6964SOL     OW21634   4.260   3.790   4.226
 6964SOL    HW121635   4.180   3.793   4.279
 6964SOL    HW221636   4.254   3.866   4.169
 6965SOL     OW21637   4.017   3.772   3.909
 6965SOL    HW121638   4.078   3.836   3.872
 6965SOL    HW221639   4.073   3.708   3.953
 6966SOL     OW21640   0.368   4.390   5.251
 6966SOL    HW121641   0.317   4.369   5.173
 6966SOL    HW221642   0.434   4.320   5.256
 6967SOL     OW21643   3.801   4.280   5.119
 6967SOL    HW121644   3.892   4.272   5.090
 6967SOL    HW221645   3.801   4.354   5.179
 6968SOL     OW21646   4.282   3.932   4.873
 6968SOL    HW121647   4.328   3.873   4.933
 6968SOL    HW221648   4.195   3.943   4.912
 6969SOL     OW21649   4.245   3.988   4.046
 6969SOL    HW121650   4.285   3.932   3.980
 6969SOL    HW221651   4.228   4.070   4.001
 6970SOL     OW21652   4.158   0.011   4.999
 6970SOL    HW121653   4.221   0.006   5.071
 6970SOL    HW221654   4.115   4.426   4.999
 6971SOL     OW21655   4.307   4.262   4.598
 6971SOL    HW121656   4.314   4.334   4.535
 6971SOL    HW221657   4.375   4.281   4.663
 6972SOL     OW21658   4.233   3.776   5.458
 6972SOL    HW121659   4.186   3.716   5.399
 6972SOL    HW221660   4.169   3.844   5.478
 6973SOL     OW21661   4.023   3.923   4.972
 6973SOL    HW121662   3.984   3.955   5.053
 6973SOL    HW221663   4.004   3.829   4.971
 6974SOL     OW21664   4.019   3.789   4.350
 6974SOL    HW121665   4.002   3.880   4.373
 6974SOL    HW221666   4.033   3.745   4.435
 6975SOL     OW21667   4.039   0.012   4.645
 6975SOL    HW121668   4.113   0.073   4.651
 6975SOL    HW221669   4.064   4.440   4.703
 6976SOL     OW21670   4.073   4.242   4.743
 6976SOL    HW121671   4.032   4.159   4.722
 6976SOL    HW221672   4.152   4.245   4.688
 6977SOL     OW21673   3.759   4.272   4.840
 6977SOL    HW121674   3.838   4.258   4.788
 6977SOL    HW221675   3.789   4.274   4.930
 6978SOL     OW21676   3.917   4.246   5.443
 6978SOL    HW121677   3.968   4.193   5.382
 6978SOL    HW221678   3.865   4.304   5.387
 6979SOL     OW21679   0.005   4.297   4.004
 6979SOL    HW121680   0.022   4.212   4.047
 6979SOL    HW221681   4.484   4.356   4.077
 6980SOL     OW21682   4.202   4.211   3.909
 6980SOL    HW121683   4.253   4.290   3.927
 6980SOL    HW221684   4.112   4.243   3.901
 6981SOL     OW21685   3.985   4.044   4.440
 6981SOL    HW121686   3.896   4.072   4.418
 6981SOL    HW221687   3.983   4.032   4.535
 6982SOL     OW21688   4.390   3.928   5.218
 6982SOL    HW121689   4.480   3.938   5.185
 6982SOL    HW221690   4.400   3.922   5.313
 6983SOL     OW21691   3.800   4.040   3.752
 6983SOL    HW121692   3.714   4.034   3.710
 6983SOL    HW221693   3.832   4.127   3.730
 6984SOL     OW21694   3.791   3.879   4.032
 6984SOL    HW121695   3.776   3.958   3.981
 6984SOL    HW221696   3.876   3.847   4.002
 6985SOL     OW21697   4.406   4.271   5.475
 6985SOL    HW121698   4.425   4.353   5.520
 6985SOL    HW221699   4.491   4.241   5.443
 6986SOL     OW21700   4.176   4.155   4.268
 6986SOL    HW121701   4.187   4.091   4.198
 6986SOL    HW221702   4.112   4.115   4.327
 6987SOL     OW21703   4.047   4.264   5.015
 6987SOL    HW121704   4.103   4.208   5.069
 6987SOL    HW221705   4.069   4.240   4.925
 6988SOL     OW21706   3.949   4.290   5.711
 6988SOL    HW121707   3.895   4.361   5.746
 6988SOL    HW221708   3.938   4.296   5.616
 6989SOL     OW21709   3.947   4.007   6.576
 6989SOL    HW121710   3.977   3.971   6.660
 6989SOL    HW221711   3.857   3.975   6.568
 6990SOL     OW21712   3.727   4.100   6.229
 6990SOL    HW121713   3.646   4.132   6.270
 6990SOL    HW221714   3.700   4.023   6.179
 6991SOL     OW21715   0.062   0.006   7.445
 6991SOL    HW121716   0.118   0.068   7.490
 6991SOL    HW221717   0.076   0.024   7.352
 6992SOL     OW21718   4.174   4.115   7.062
 6992SOL    HW121719   4.249   4.057   7.072
 6992SOL    HW221720   4.098   4.061   7.085
 6993SOL     OW21721   3.792   4.378   6.159
 6993SOL    HW121722   3.793   4.284   6.178
 6993SOL    HW221723   3.868   4.412   6.206
 6994SOL     OW21724   3.841   4.478   7.168
 6994SOL    HW121725   3.905   4.499   7.236
 6994SOL    HW221726   3.809   0.063   7.138
 6995SOL     OW21727   0.022   3.732   6.111
 6995SOL    HW121728   0.052   3.792   6.043
 6995SOL    HW221729   4.427   3.745   6.115
 6996SOL     OW21730   4.061   3.974   7.398
 6996SOL    HW121731   4.100   4.058   7.422
 6996SOL    HW221732   3.970   3.982   7.426
 6997SOL     OW21733   4.248   3.910   6.467
 6997SOL    HW121734   4.268   3.917   6.560
 6997SOL    HW221735   4.259   3.999   6.433
 6998SOL     OW21736   3.923   4.003   7.092
 6998SOL    HW121737   3.838   4.046   7.084
 6998SOL    HW221738   3.906   3.927   7.147
 6999SOL     OW21739   4.090   4.394   5.998
 6999SOL    HW121740   4.128   4.317   6.041
 6999SOL    HW221741   4.023   4.425   6.059
 7000SOL     OW21742   4.338   3.826   5.707
 7000SOL    HW121743   4.434   3.821   5.702
 7000SOL    HW221744   4.309   3.806   5.618
 7001SOL     OW21745   4.260   3.790   6.088
 7001SOL    HW121746   4.180   3.793   6.141
 7001SOL    HW221747   4.254   3.866   6.031
 7002SOL     OW21748   4.017   3.772   5.771
 7002SOL    HW121749   4.078   3.835   5.734
 7002SOL    HW221750   4.073   3.708   5.815
 7003SOL     OW21751   0.368   4.389   7.114
 7003SOL    HW121752   0.318   4.369   7.035
 7003SOL    HW221753   0.434   4.320   7.118
 7004SOL     OW21754   3.801   4.280   6.980
 7004SOL    HW121755   3.892   4.272   6.951
 7004SOL    HW221756   3.801   4.354   7.041
 7005SOL     OW21757   4.281   3.931   6.734
 7005SOL    HW121758   4.328   3.874   6.795
 7005SOL    HW221759   4.195   3.943   6.774
 7006SOL     OW21760   4.245   3.988   5.908
 7006SOL    HW121761   4.285   3.931   5.842
 7006SOL    HW221762   4.228   4.070   5.863
 7007SOL     OW21763   4.157   0.011   6.862
 7007SOL    HW121764   4.221   0.006   6.933
 7007SOL    HW221765   4.115   4.426   6.861
 7008SOL     OW21766   4.307   4.262   6.461
 7008SOL    HW121767   4.315   4.334   6.398
 7008SOL    HW221768   4.375   4.280   6.525
 7009SOL     OW21769   4.233   3.776   7.320
 7009SOL    HW121770   4.186   3.716   7.261
 7009SOL    HW221771   4.169   3.844   7.340
 7010SOL     OW21772   4.023   3.923   6.834
 7010SOL    HW121773   3.984   3.955   6.915
 7010SOL    HW221774   4.004   3.829   6.833
 7011SOL     OW21775   4.019   3.789   6.212
 7011SOL    HW121776   4.002   3.880   6.235
 7011SOL    HW221777   4.033   3.745   6.297
 7012SOL     OW21778   4.039   0.012   6.507
 7012SOL    HW121779   4.113   0.073   6.513
 7012SOL    HW221780   4.063   4.440   6.565
 7013SOL     OW21781   4.073   4.242   6.605
 7013SOL    HW121782   4.032   4.159   6.583
 7013SOL    HW221783   4.152   4.245   6.550
 7014SOL     OW21784   3.759   4.273   6.701
 7014SOL    HW121785   3.838   4.258   6.650
 7014SOL    HW221786   3.789   4.274   6.792
 7015SOL     OW21787   3.917   4.247   7.305
 7015SOL    HW121788   3.968   4.193   7.245
 7015SOL    HW221789   3.865   4.303   7.248
 7016SOL     OW21790   0.005   4.297   5.866
 7016SOL    HW121791   0.022   4.212   5.909
 7016SOL    HW221792   4.484   4.356   5.939
 7017SOL     OW21793   4.202   4.211   5.772
 7017SOL    HW121794   4.254   4.290   5.789
 7017SOL    HW221795   4.112   4.243   5.763
 7018SOL     OW21796   3.985   4.044   6.302
 7018SOL    HW121797   3.896   4.072   6.280
 7018SOL    HW221798   3.983   4.032   6.397
 7019SOL     OW21799   4.390   3.928   7.080
 7019SOL    HW121800   4.480   3.938   7.048
 7019SOL    HW221801   4.400   3.922   7.175
 7020SOL     OW21802   3.800   4.040   5.615
 7020SOL    HW121803   3.714   4.034   5.572
 7020SOL    HW221804   3.832   4.127   5.591
 7021SOL     OW21805   3.791   3.879   5.894
 7021SOL    HW121806   3.776   3.958   5.842
 7021SOL    HW221807   3.876   3.847   5.864
 7022SOL     OW21808   4.406   4.272   7.336
 7022SOL    HW121809   4.425   4.353   7.382
 7022SOL    HW221810   4.491   4.241   7.305
 7023SOL     OW21811   4.175   4.155   6.130
 7023SOL    HW121812   4.187   4.091   6.060
 7023SOL    HW221813   4.111   4.115   6.189
 7024SOL     OW21814   4.047   4.264   6.877
 7024SOL    HW121815   4.103   4.208   6.931
 7024SOL    HW221816   4.069   4.240   6.787
 7025SOL     OW21817   3.949   4.290   7.573
 7025SOL    HW121818   3.894   4.360   7.609
 7025SOL    HW221819   3.937   4.296   7.478
 7026SOL     OW21820   3.947   4.007   8.438
 7026SOL    HW121821   3.977   3.971   8.522
 7026SOL    HW221822   3.857   3.974   8.430
 7027SOL     OW21823   3.727   4.100   8.091
 7027SOL    HW121824   3.646   4.132   8.131
 7027SOL    HW221825   3.700   4.023   8.041
 7028SOL     OW21826   0.062   0.006   9.306
 7028SOL    HW121827   0.118   0.068   9.352
 7028SOL    HW221828   0.076   0.024   9.214
 7029SOL     OW21829   4.174   4.115   8.924
 7029SOL    HW121830   4.249   4.057   8.934
 7029SOL    HW221831   4.098   4.061   8.947
 7030SOL     OW21832   3.792   4.378   8.021
 7030SOL    HW121833   3.793   4.284   8.040
 7030SOL    HW221834   3.868   4.412   8.068
 7031SOL     OW21835   3.841   4.478   9.030
 7031SOL    HW121836   3.905   4.499   9.098
 7031SOL    HW221837   3.809   0.063   9.000
 7032SOL     OW21838   0.022   3.732   7.973
 7032SOL    HW121839   0.052   3.792   7.905
 7032SOL    HW221840   4.427   3.745   7.977
 7033SOL     OW21841   4.061   3.974   9.260
 7033SOL    HW121842   4.100   4.058   9.284
 7033SOL    HW221843   3.969   3.982   9.288
 7034SOL     OW21844   4.248   3.910   8.329
 7034SOL    HW121845   4.268   3.916   8.422
 7034SOL    HW221846   4.259   3.999   8.295
 7035SOL     OW21847   3.923   4.003   8.955
 7035SOL    HW121848   3.838   4.046   8.946
 7035SOL    HW221849   3.906   3.926   9.009
 7036SOL     OW21850   4.090   4.394   7.860
 7036SOL    HW121851   4.127   4.317   7.903
 7036SOL    HW221852   4.024   4.425   7.921
 7037SOL     OW21853   4.338   3.826   7.569
 7037SOL    HW121854   4.434   3.821   7.565
 7037SOL    HW221855   4.309   3.807   7.479
 7038SOL     OW21856   4.260   3.790   7.950
 7038SOL    HW121857   4.180   3.793   8.003
 7038SOL    HW221858   4.254   3.866   7.893
 7039SOL     OW21859   4.017   3.772   7.633
 7039SOL    HW121860   4.078   3.836   7.596
 7039SOL    HW221861   4.073   3.708   7.677
 7040SOL     OW21862   0.368   4.389   8.976
 7040SOL    HW121863   0.318   4.369   8.897
 7040SOL    HW221864   0.434   4.320   8.980
 7041SOL     OW21865   3.801   4.280   8.842
 7041SOL    HW121866   3.892   4.272   8.813
 7041SOL    HW221867   3.801   4.354   8.903
 7042SOL     OW21868   4.281   3.931   8.596
 7042SOL    HW121869   4.328   3.874   8.657
 7042SOL    HW221870   4.195   3.943   8.636
 7043SOL     OW21871   4.244   3.988   7.770
 7043SOL    HW121872   4.285   3.932   7.704
 7043SOL    HW221873   4.228   4.070   7.725
 7044SOL     OW21874   4.157   0.011   8.724
 7044SOL    HW121875   4.221   0.006   8.795
 7044SOL    HW221876   4.115   4.426   8.723
 7045SOL     OW21877   4.308   4.262   8.323
 7045SOL    HW121878   4.315   4.334   8.260
 7045SOL    HW221879   4.376   4.280   8.388
 7046SOL     OW21880   4.233   3.776   9.182
 7046SOL    HW121881   4.186   3.716   9.123
 7046SOL    HW221882   4.169   3.844   9.202
 7047SOL     OW21883   4.023   3.923   8.696
 7047SOL    HW121884   3.984   3.955   8.777
 7047SOL    HW221885   4.004   3.829   8.695
 7048SOL     OW21886   4.019   3.789   8.074
 7048SOL    HW121887   4.002   3.880   8.097
 7048SOL    HW221888   4.033   3.745   8.159
 7049SOL     OW21889   4.039   0.012   8.369
 7049SOL    HW121890   4.113   0.073   8.374
 7049SOL    HW221891   4.063   4.440   8.427
 7050SOL     OW21892   4.073   4.242   8.467
 7050SOL    HW121893   4.032   4.159   8.445
 7050SOL    HW221894   4.152   4.245   8.412
 7051SOL     OW21895   3.759   4.273   8.563
 7051SOL    HW121896   3.838   4.258   8.512
 7051SOL    HW221897   3.789   4.274   8.654
 7052SOL     OW21898   3.917   4.247   9.167
 7052SOL    HW121899   3.968   4.193   9.107
 7052SOL    HW221900   3.865   4.303   9.110
 7053SOL     OW21901   0.005   4.297   7.729
 7053SOL    HW121902   0.022   4.213   7.771
 7053SOL    HW221903   4.485   4.356   7.801
 7054SOL     OW21904   4.202   4.211   7.633
 7054SOL    HW121905   4.254   4.290   7.651
 7054SOL    HW221906   4.112   4.243   7.625
 7055SOL     OW21907   3.985   4.044   8.164
 7055SOL    HW121908   3.896   4.072   8.142
 7055SOL    HW221909   3.983   4.032   8.259
 7056SOL     OW21910   4.390   3.928   8.942
 7056SOL    HW121911   4.480   3.938   8.910
 7056SOL    HW221912   4.400   3.922   9.037
 7057SOL     OW21913   3.800   4.040   7.476
 7057SOL    HW121914   3.714   4.034   7.435
 7057SOL    HW221915   3.832   4.127   7.453
 7058SOL     OW21916   3.791   3.879   7.756
 7058SOL    HW121917   3.776   3.958   7.705
 7058SOL    HW221918   3.876   3.847   7.726
 7059SOL     OW21919   4.406   4.272   9.198
 7059SOL    HW121920   4.425   4.353   9.245
 7059SOL    HW221921   4.491   4.241   9.167
 7060SOL     OW21922   4.175   4.156   7.992
 7060SOL    HW121923   4.187   4.091   7.922
 7060SOL    HW221924   4.111   4.116   8.051
 7061SOL     OW21925   4.047   4.264   8.739
 7061SOL    HW121926   4.103   4.208   8.793
 7061SOL    HW221927   4.069   4.240   8.649
 7062SOL     OW21928   3.949   4.290   9.435
 7062SOL    HW121929   3.895   4.361   9.470
 7062SOL    HW221930   3.938   4.296   9.340
 7063SOL     OW21931   3.947   4.007  10.300
 7063SOL    HW121932   3.977   3.971  10.384
 7063SOL    HW221933   3.857   3.975  10.292
 7064SOL     OW21934   3.727   4.100   9.953
 7064SOL    HW121935   3.646   4.131   9.993
 7064SOL    HW221936   3.700   4.022   9.903
 7065SOL     OW21937   4.181   4.122  10.795
 7065SOL    HW121938   4.249   4.054  10.799
 7065SOL    HW221939   4.100   4.076  10.818
 7066SOL     OW21940   3.792   4.378   9.884
 7066SOL    HW121941   3.792   4.284   9.902
 7066SOL    HW221942   3.868   4.413   9.930
 7067SOL     OW21943   3.853   4.460  10.904
 7067SOL    HW121944   3.949   4.465  10.908
 7067SOL    HW221945   3.825   0.051  10.898
 7068SOL     OW21946   0.022   3.731   9.835
 7068SOL    HW121947   0.052   3.792   9.767
 7068SOL    HW221948   4.427   3.745   9.839
 7069SOL     OW21949   4.069   3.978   0.018
 7069SOL    HW121950   4.112   4.059   0.046
 7069SOL    HW221951   3.976   3.994   0.031
 7070SOL     OW21952   4.248   3.910  10.192
 7070SOL    HW121953   4.269   3.918  10.285
 7070SOL    HW221954   4.259   3.999  10.157
 7071SOL     OW21955   3.929   4.003  10.808
 7071SOL    HW121956   3.848   4.055  10.810
 7071SOL    HW221957   3.915   3.934  10.873
 7072SOL     OW21958   4.090   4.394   9.722
 7072SOL    HW121959   4.128   4.317   9.765
 7072SOL    HW221960   4.024   4.426   9.784
 7073SOL     OW21961   4.338   3.826   9.431
 7073SOL    HW121962   4.434   3.821   9.427
 7073SOL    HW221963   4.309   3.806   9.341
 7074SOL     OW21964   4.260   3.790   9.812
 7074SOL    HW121965   4.180   3.793   9.865
 7074SOL    HW221966   4.254   3.866   9.755
 7075SOL     OW21967   4.017   3.772   9.495
 7075SOL    HW121968   4.078   3.836   9.458
 7075SOL    HW221969   4.073   3.708   9.539
 7076SOL     OW21970   0.331   4.387  10.813
 7076SOL    HW121971   0.241   4.355  10.807
 7076SOL    HW221972   0.385   4.313  10.785
 7077SOL     OW21973   3.800   4.278  10.707
 7077SOL    HW121974   3.890   4.270  10.678
 7077SOL    HW221975   3.803   4.339  10.781
 7078SOL     OW21976   4.283   3.933  10.461
 7078SOL    HW121977   4.324   3.864  10.514
 7078SOL    HW221978   4.195   3.942  10.498
 7079SOL     OW21979   4.244   3.988   9.632
 7079SOL    HW121980   4.285   3.931   9.566
 7079SOL    HW221981   4.228   4.070   9.587
 7080SOL     OW21982   4.157   0.008  10.577
 7080SOL    HW121983   4.222   0.000  10.647
 7080SOL    HW221984   4.109   4.425  10.580
 7081SOL     OW21985   4.308   4.262  10.185
 7081SOL    HW121986   4.316   4.334  10.123
 7081SOL    HW221987   4.376   4.277  10.250
 7082SOL     OW21988   4.126   4.461  10.911
 7082SOL    HW121989   4.192   0.027  10.889
 7082SOL    HW221990   4.173   4.378  10.904
 7083SOL     OW21991   4.024   3.923  10.557
 7083SOL    HW121992   3.987   3.956  10.639
 7083SOL    HW221993   4.004   3.830  10.557
 7084SOL     OW21994   4.019   3.789   9.936
 7084SOL    HW121995   4.002   3.880   9.959
 7084SOL    HW221996   4.033   3.745  10.021
 7085SOL     OW21997   4.039   0.013  10.231
 7085SOL    HW121998   4.113   0.073  10.238
 7085SOL    HW221999   4.063   4.440  10.289
 7086SOL     OW22000   4.073   4.242  10.329
 7086SOL    HW122001   4.032   4.159  10.307
 7086SOL    HW222002   4.152   4.245  10.274
 7087SOL     OW22003   3.759   4.275  10.427
 7087SOL    HW122004   3.839   4.259  10.377
 7087SOL    HW222005   3.788   4.275  10.518
 7088SOL     OW22006   0.004   4.297   9.591
 7088SOL    HW122007   0.023   4.213   9.633
 7088SOL    HW222008   4.485   4.357   9.663
 7089SOL     OW22009   4.202   4.211   9.495
 7089SOL    HW122010   4.254   4.289   9.513
 7089SOL    HW222011   4.112   4.243   9.487
 7090SOL     OW22012   3.985   4.044  10.026
 7090SOL    HW122013   3.896   4.072  10.004
 7090SOL    HW222014   3.983   4.032  10.121
 7091SOL     OW22015   4.397   3.931  10.812
 7091SOL    HW122016   4.474   3.941  10.756
 7091SOL    HW222017   4.430   3.943  10.901
 7092SOL     OW22018   3.800   4.040   9.338
 7092SOL    HW122019   3.714   4.034   9.297
 7092SOL    HW222020   3.832   4.127   9.315
 7093SOL     OW22021   3.791   3.879   9.618
 7093SOL    HW122022   3.776   3.958   9.566
 7093SOL    HW222023   3.876   3.847   9.588
 7094SOL     OW22024   4.175   4.156   9.854
 7094SOL    HW122025   4.187   4.091   9.784
 7094SOL    HW222026   4.111   4.115   9.913
 7095SOL     OW22027   4.047   4.262  10.601
 7095SOL    HW122028   4.103   4.206  10.655
 7095SOL    HW222029   4.068   4.237  10.511
   4.50000   4.50000  11.10000
