Built with Packmol
23964
    1LIG      O    1   2.347   2.340   0.013
    1LIG      C    2   2.412   2.390   0.131
    1LIG     C1    3   2.341   2.337   0.258
    1LIG     O1    4   2.405   2.387   0.378
    1LIG     C2    5   2.340   2.338   0.498
    1LIG     C3    6   2.411   2.393   0.622
    1LIG     O2    7   2.347   2.345   0.741
    1LIG     C4    8   2.410   2.395   0.861
    1LIG     C5    9   2.338   2.340   0.986
    1LIG     O3   10   2.401   2.390   1.106
    1LIG     C6   11   2.336   2.341   1.225
    1LIG     C7   12   2.408   2.397   1.349
    1LIG     O4   13   2.344   2.349   1.470
    1LIG     C8   14   2.408   2.399   1.589
    1LIG     C9   15   2.335   2.343   1.713
    1LIG     O5   16   2.399   2.393   1.832
    1LIG    C10   17   2.335   2.344   1.952
    1LIG    C11   18   2.407   2.400   2.076
    1LIG     O6   19   2.343   2.351   2.195
    1LIG    C12   20   2.406   2.400   2.315
    1LIG    C13   21   2.333   2.345   2.439
    1LIG     O7   22   2.397   2.394   2.559
    1LIG    C14   23   2.333   2.345   2.679
    1LIG    C15   24   2.405   2.400   2.804
    1LIG     O8   25   2.341   2.351   2.924
    1LIG    C16   26   2.405   2.401   3.043
    1LIG    C17   27   2.334   2.346   3.168
    1LIG     O9   28   2.397   2.395   3.288
    1LIG    C18   29   2.332   2.346   3.407
    1LIG    C19   30   2.404   2.401   3.531
    1LIG    O10   31   2.341   2.352   3.651
    1LIG    C20   32   2.405   2.402   3.770
    1LIG    C21   33   2.332   2.346   3.894
    1LIG    O11   34   2.396   2.395   4.014
    1LIG    C22   35   2.332   2.346   4.133
    1LIG    C23   36   2.404   2.402   4.257
    1LIG    O12   37   2.340   2.353   4.377
    1LIG    C24   38   2.404   2.402   4.497
    1LIG    C25   39   2.332   2.347   4.622
    1LIG    O13   40   2.395   2.396   4.742
    1LIG    C26   41   2.331   2.347   4.861
    1LIG    C27   42   2.403   2.402   4.985
    1LIG    O14   43   2.339   2.353   5.105
    1LIG    C28   44   2.404   2.402   5.225
    1LIG    C29   45   2.332   2.346   5.349
    1LIG    O15   46   2.396   2.395   5.469
    1LIG    C30   47   2.332   2.346   5.588
    1LIG    C31   48   2.404   2.401   5.712
    1LIG    O16   49   2.340   2.352   5.831
    1LIG    C32   50   2.404   2.401   5.951
    1LIG    C33   51   2.332   2.346   6.076
    1LIG    O17   52   2.396   2.395   6.195
    1LIG    C34   53   2.332   2.345   6.315
    1LIG    C35   54   2.404   2.400   6.439
    1LIG    O18   55   2.340   2.351   6.559
    1LIG    C36   56   2.404   2.400   6.679
    1LIG    C37   57   2.333   2.345   6.803
    1LIG    O19   58   2.397   2.394   6.923
    1LIG    C38   59   2.333   2.344   7.042
    1LIG    C39   60   2.404   2.399   7.167
    1LIG    O20   61   2.341   2.350   7.287
    1LIG    C40   62   2.405   2.399   7.406
    1LIG    C41   63   2.334   2.344   7.531
    1LIG    O21   64   2.397   2.393   7.651
    1LIG    C42   65   2.333   2.343   7.770
    1LIG    C43   66   2.405   2.398   7.894
    1LIG    O22   67   2.342   2.349   8.014
    1LIG    C44   68   2.406   2.398   8.134
    1LIG    C45   69   2.334   2.342   8.258
    1LIG    O23   70   2.398   2.391   8.377
    1LIG    C46   71   2.334   2.342   8.497
    1LIG    C47   72   2.407   2.398   8.621
    1LIG    O24   73   2.343   2.348   8.740
    1LIG    C48   74   2.406   2.397   8.861
    1LIG    C49   75   2.334   2.341   8.984
    1LIG    O25   76   2.398   2.390   9.104
    1LIG    C50   77   2.335   2.341   9.224
    1LIG    C51   78   2.407   2.397   9.348
    1LIG    O26   79   2.344   2.347   9.467
    1LIG    C52   80   2.407   2.396   9.587
    1LIG    C53   81   2.335   2.339   9.711
    1LIG    O27   82   2.399   2.389   9.830
    1LIG    C54   83   2.336   2.339   9.950
    1LIG    C55   84   2.408   2.395  10.075
    1LIG    O28   85   2.344   2.345  10.195
    1LIG    C56   86   2.408   2.394  10.315
    1LIG    C57   87   2.337   2.338  10.440
    1LIG    O29   88   2.401   2.387  10.561
    1LIG    C58   89   2.337   2.337  10.680
    1LIG    C59   90   2.408   2.392  10.805
    1LIG      H   91   2.409   2.500   0.129
    1LIG     H1   92   2.517   2.359   0.130
    1LIG     H2   93   2.344   2.228   0.258
    1LIG     H3   94   2.236   2.368   0.257
    1LIG     H4   95   2.343   2.228   0.499
    1LIG     H5   96   2.235   2.369   0.498
    1LIG     H6   97   2.409   2.503   0.620
    1LIG     H7   98   2.517   2.362   0.621
    1LIG     H8   99   2.408   2.504   0.862
    1LIG     H9  100   2.515   2.364   0.864
    1LIG    H10  101   2.341   2.231   0.985
    1LIG    H11  102   2.233   2.371   0.984
    1LIG    H12  103   2.339   2.232   1.227
    1LIG    H13  104   2.231   2.372   1.226
    1LIG    H14  105   2.405   2.507   1.347
    1LIG    H15  106   2.513   2.366   1.348
    1LIG    H16  107   2.405   2.508   1.590
    1LIG    H17  108   2.513   2.368   1.591
    1LIG    H18  109   2.338   2.234   1.711
    1LIG    H19  110   2.230   2.374   1.711
    1LIG    H20  111   2.337   2.234   1.954
    1LIG    H21  112   2.229   2.375   1.954
    1LIG    H22  113   2.404   2.509   2.074
    1LIG    H23  114   2.512   2.369   2.075
    1LIG    H24  115   2.403   2.509   2.317
    1LIG    H25  116   2.511   2.369   2.317
    1LIG    H26  117   2.336   2.235   2.438
    1LIG    H27  118   2.228   2.376   2.438
    1LIG    H28  119   2.336   2.235   2.681
    1LIG    H29  120   2.228   2.376   2.680
    1LIG    H30  121   2.402   2.510   2.802
    1LIG    H31  122   2.510   2.369   2.803
    1LIG    H32  123   2.402   2.511   3.044
    1LIG    H33  124   2.510   2.370   3.045
    1LIG    H34  125   2.336   2.237   3.166
    1LIG    H35  126   2.228   2.377   3.166
    1LIG    H36  127   2.335   2.236   3.408
    1LIG    H37  128   2.227   2.377   3.408
    1LIG    H38  129   2.401   2.511   3.529
    1LIG    H39  130   2.509   2.370   3.529
    1LIG    H40  131   2.402   2.511   3.772
    1LIG    H41  132   2.510   2.371   3.772
    1LIG    H42  133   2.335   2.237   3.892
    1LIG    H43  134   2.227   2.377   3.892
    1LIG    H44  135   2.335   2.237   4.135
    1LIG    H45  136   2.227   2.377   4.135
    1LIG    H46  137   2.401   2.512   4.256
    1LIG    H47  138   2.510   2.371   4.256
    1LIG    H48  139   2.401   2.511   4.499
    1LIG    H49  140   2.509   2.371   4.499
    1LIG    H50  141   2.335   2.237   4.620
    1LIG    H51  142   2.227   2.378   4.620
    1LIG    H52  143   2.334   2.237   4.863
    1LIG    H53  144   2.226   2.378   4.863
    1LIG    H54  145   2.400   2.512   4.984
    1LIG    H55  146   2.508   2.371   4.983
    1LIG    H56  147   2.401   2.511   5.226
    1LIG    H57  148   2.509   2.371   5.226
    1LIG    H58  149   2.335   2.237   5.347
    1LIG    H59  150   2.227   2.377   5.348
    1LIG    H60  151   2.335   2.236   5.590
    1LIG    H61  152   2.227   2.377   5.590
    1LIG    H62  153   2.401   2.511   5.711
    1LIG    H63  154   2.509   2.370   5.710
    1LIG    H64  155   2.401   2.510   5.953
    1LIG    H65  156   2.509   2.370   5.953
    1LIG    H66  157   2.335   2.236   6.074
    1LIG    H67  158   2.227   2.377   6.074
    1LIG    H68  159   2.335   2.236   6.316
    1LIG    H69  160   2.227   2.376   6.316
    1LIG    H70  161   2.401   2.510   6.438
    1LIG    H71  162   2.509   2.370   6.438
    1LIG    H72  163   2.401   2.510   6.680
    1LIG    H73  164   2.510   2.370   6.680
    1LIG    H74  165   2.336   2.236   6.802
    1LIG    H75  166   2.228   2.376   6.802
    1LIG    H76  167   2.336   2.235   7.043
    1LIG    H77  168   2.228   2.375   7.044
    1LIG    H78  169   2.401   2.508   7.166
    1LIG    H79  170   2.510   2.368   7.166
    1LIG    H80  171   2.402   2.509   7.408
    1LIG    H81  172   2.510   2.369   7.407
    1LIG    H82  173   2.337   2.234   7.529
    1LIG    H83  174   2.228   2.374   7.530
    1LIG    H84  175   2.337   2.233   7.771
    1LIG    H85  176   2.228   2.373   7.772
    1LIG    H86  177   2.402   2.508   7.892
    1LIG    H87  178   2.511   2.368   7.892
    1LIG    H88  179   2.403   2.508   8.135
    1LIG    H89  180   2.511   2.368   8.135
    1LIG    H90  181   2.337   2.233   8.256
    1LIG    H91  182   2.229   2.373   8.256
    1LIG    H92  183   2.338   2.232   8.499
    1LIG    H93  184   2.229   2.372   8.499
    1LIG    H94  185   2.403   2.507   8.620
    1LIG    H95  186   2.512   2.367   8.619
    1LIG    H96  187   2.403   2.506   8.862
    1LIG    H97  188   2.511   2.366   8.862
    1LIG    H98  189   2.338   2.231   8.983
    1LIG    H99  190   2.229   2.371   8.983
    1LIG   H100  191   2.338   2.231   9.225
    1LIG   H101  192   2.230   2.371   9.226
    1LIG   H102  193   2.404   2.506   9.346
    1LIG   H103  194   2.512   2.366   9.346
    1LIG   H104  195   2.404   2.505   9.589
    1LIG   H105  196   2.512   2.365   9.589
    1LIG   H106  197   2.339   2.230   9.709
    1LIG   H107  198   2.230   2.370   9.710
    1LIG   H108  199   2.340   2.230   9.952
    1LIG   H109  200   2.231   2.370   9.952
    1LIG   H110  201   2.404   2.504  10.074
    1LIG   H111  202   2.513   2.364  10.074
    1LIG   H112  203   2.405   2.504  10.317
    1LIG   H113  204   2.514   2.364  10.316
    1LIG   H114  205   2.341   2.229  10.438
    1LIG   H115  206   2.232   2.369  10.439
    1LIG   H116  207   2.341   2.227  10.680
    1LIG   H117  208   2.232   2.369  10.681
    1LIG   H118  209   2.513   2.362  10.805
    1LIG   H119  210   2.361   2.355  10.898
    1MOL     C1  211   2.923   2.367   5.431
    1MOL     H1  212   3.012   2.427   5.451
    1MOL     O1  213   2.897   2.294   5.549
    1MOL     C2  214   2.776   2.215   5.543
    1MOL     H2  215   2.691   2.279   5.518
    1MOL     C3  216   2.752   2.159   5.684
    1MOL     H3  217   2.848   2.156   5.737
    1MOL     H4  218   2.712   2.057   5.678
    1MOL     O2  219   2.663   2.241   5.759
    1MOL     H5  220   2.576   2.197   5.758
    1MOL     C4  221   2.945   2.271   5.313
    1MOL     H6  222   3.034   2.211   5.334
    1MOL     O3  223   2.970   2.339   5.191
    1MOL     H7  224   2.916   2.421   5.190
    1MOL     C5  225   2.824   2.179   5.299
    1MOL     H8  226   2.737   2.240   5.271
    1MOL     O4  227   2.846   2.078   5.201
    1MOL     H9  228   2.881   2.124   5.123
    1MOL     C6  229   2.790   2.110   5.431
    1MOL    H10  230   2.867   2.036   5.456
    1MOL     O5  231   2.664   2.045   5.409
    1MOL     C7  232   2.644   1.911   5.449
    1MOL    H11  233   2.739   1.863   5.473
    1MOL     O6  234   2.565   1.903   5.566
    1MOL     C8  235   2.436   1.967   5.554
    1MOL    H12  236   2.450   2.073   5.526
    1MOL     C9  237   2.373   1.963   5.692
    1MOL    H13  238   2.389   1.864   5.736
    1MOL    H14  239   2.265   1.981   5.684
    1MOL     O7  240   2.435   2.064   5.773
    1MOL    H15  241   2.412   2.049   5.865
    1MOL    C10  242   2.574   1.841   5.332
    1MOL    H16  243   2.563   1.735   5.358
    1MOL     O8  244   2.647   1.846   5.211
    1MOL    H17  245   2.693   1.933   5.206
    1MOL    C11  246   2.434   1.901   5.314
    1MOL    H18  247   2.445   2.005   5.283
    1MOL     O9  248   2.361   1.828   5.215
    1MOL    H19  249   2.422   1.818   5.139
    1MOL    C12  250   2.353   1.899   5.444
    1MOL    H20  251   2.330   1.796   5.472
    1MOL    O10  252   2.234   1.973   5.420
    1MOL    C13  253   2.106   1.913   5.439
    1MOL    H21  254   2.118   1.806   5.459
    1MOL    O11  255   2.040   1.967   5.551
    1MOL    C14  256   2.014   2.108   5.546
    1MOL    H22  257   2.110   2.162   5.546
    1MOL    C15  258   1.937   2.145   5.672
    1MOL    H23  259   1.933   2.255   5.678
    1MOL    H24  260   1.993   2.107   5.759
    1MOL    O12  261   1.807   2.089   5.665
    1MOL    H25  262   1.753   2.131   5.733
    1MOL    C16  263   2.024   1.937   5.312
    1MOL    H26  264   1.926   1.890   5.327
    1MOL    O13  265   2.079   1.879   5.195
    1MOL    H27  266   2.177   1.882   5.200
    1MOL    C17  267   2.004   2.087   5.294
    1MOL    H28  268   2.102   2.134   5.280
    1MOL    O14  269   1.921   2.114   5.181
    1MOL    H29  270   1.954   2.057   5.110
    1MOL    C18  271   1.938   2.148   5.417
    1MOL    H30  272   1.834   2.114   5.424
    1MOL    O15  273   1.944   2.290   5.401
    1MOL    C19  274   1.828   2.369   5.417
    1MOL    H31  275   1.739   2.306   5.430
    1MOL    O16  276   1.836   2.450   5.533
    1MOL    C20  277   1.951   2.537   5.537
    1MOL    H32  278   2.042   2.476   5.539
    1MOL    C21  279   1.944   2.616   5.667
    1MOL    H33  280   2.041   2.665   5.682
    1MOL    H34  281   1.927   2.545   5.749
    1MOL    O17  282   1.838   2.711   5.658
    1MOL    H35  283   1.846   2.770   5.735
    1MOL    C22  284   1.816   2.457   5.292
    1MOL    H36  285   1.727   2.519   5.302
    1MOL    O18  286   1.801   2.383   5.172
    1MOL    H37  287   1.858   2.304   5.175
    1MOL    C23  288   1.939   2.548   5.284
    1MOL    H38  289   2.028   2.485   5.270
    1MOL    O19  290   1.928   2.640   5.176
    1MOL    H39  291   1.899   2.588   5.099
    1MOL    C24  292   1.958   2.628   5.412
    1MOL    H40  293   1.881   2.705   5.419
    1MOL    O20  294   2.088   2.687   5.403
    1MOL    C25  295   2.110   2.820   5.443
    1MOL    H41  296   2.015   2.868   5.471
    1MOL    O21  297   2.191   2.826   5.559
    1MOL    C26  298   2.320   2.761   5.544
    1MOL    H42  299   2.302   2.657   5.515
    1MOL    C27  300   2.391   2.763   5.680
    1MOL    H43  301   2.448   2.671   5.692
    1MOL    H44  302   2.313   2.764   5.757
    1MOL    O22  303   2.474   2.876   5.701
    1MOL    H45  304   2.565   2.846   5.683
    1MOL    C28  305   2.177   2.892   5.325
    1MOL    H46  306   2.189   2.998   5.351
    1MOL    O23  307   2.100   2.888   5.206
    1MOL    H47  308   2.062   2.798   5.197
    1MOL    C29  309   2.316   2.831   5.303
    1MOL    H48  310   2.304   2.727   5.270
    1MOL    O24  311   2.388   2.905   5.203
    1MOL    H49  312   2.325   2.918   5.130
    1MOL    C30  313   2.397   2.832   5.431
    1MOL    H50  314   2.419   2.935   5.462
    1MOL    O25  315   2.519   2.763   5.402
    1MOL    C31  316   2.642   2.822   5.436
    1MOL    H51  317   2.629   2.928   5.461
    1MOL    O26  318   2.699   2.762   5.552
    1MOL    C32  319   2.720   2.619   5.541
    1MOL    H52  320   2.624   2.570   5.521
    1MOL    C33  321   2.770   2.571   5.679
    1MOL    H53  322   2.825   2.654   5.725
    1MOL    H54  323   2.840   2.488   5.665
    1MOL    O27  324   2.663   2.534   5.764
    1MOL    H55  325   2.658   2.436   5.763
    1MOL    C34  326   2.736   2.804   5.316
    1MOL    H56  327   2.831   2.855   5.339
    1MOL    O28  328   2.686   2.863   5.198
    1MOL    H57  329   2.588   2.855   5.197
    1MOL    C35  330   2.764   2.655   5.296
    1MOL    H58  331   2.669   2.607   5.269
    1MOL    O29  332   2.860   2.634   5.193
    1MOL    H59  333   2.832   2.690   5.119
    1MOL    C36  334   2.814   2.589   5.423
    1MOL    H60  335   2.917   2.623   5.445
    1MOL    O30  336   2.815   2.449   5.395
    2SOL     OW  337   0.230   0.628   0.113
    2SOL    HW1  338   0.137   0.626   0.150
    2SOL    HW2  339   0.231   0.589   0.021
    3SOL     OW  340   0.225   0.275   0.996
    3SOL    HW1  341   0.260   0.258   1.088
    3SOL    HW2  342   0.137   0.230   0.984
    4SOL     OW  343   0.019   0.368   0.647
    4SOL    HW1  344  -0.063   0.411   0.686
    4SOL    HW2  345  -0.009   0.295   0.584
    5SOL     OW  346   0.569   1.275   1.165
    5SOL    HW1  347   0.476   1.268   1.128
    5SOL    HW2  348   0.580   1.364   1.209
    6SOL     OW  349   1.555   1.511   0.703
    6SOL    HW1  350   1.498   1.495   0.784
    6SOL    HW2  351   1.496   1.521   0.623
    7SOL     OW  352   1.135   0.703   0.717
    7SOL    HW1  353   1.192   0.781   0.692
    7SOL    HW2  354   1.075   0.729   0.793
    8SOL     OW  355   1.755   0.607   0.231
    8SOL    HW1  356   1.743   0.594   0.132
    8SOL    HW2  357   1.725   0.526   0.280
    9SOL     OW  358   0.768   1.144   1.023
    9SOL    HW1  359   0.690   1.161   1.083
    9SOL    HW2  360   0.802   1.231   0.987
   10SOL     OW  361   0.850   0.798   1.823
   10SOL    HW1  362   0.846   0.874   1.888
   10SOL    HW2  363   0.872   0.834   1.732
   11SOL     OW  364   0.685   1.012   0.665
   11SOL    HW1  365   0.754   0.996   0.735
   11SOL    HW2  366   0.612   1.069   0.703
   12SOL     OW  367   0.686   1.161   1.803
   12SOL    HW1  368   0.746   1.240   1.817
   12SOL    HW2  369   0.600   1.192   1.762
   13SOL     OW  370   0.335   1.435   1.061
   13SOL    HW1  371   0.257   1.404   1.008
   13SOL    HW2  372   0.393   1.493   1.004
   14SOL     OW  373   1.460   1.505   1.339
   14SOL    HW1  374   1.484   1.599   1.365
   14SOL    HW2  375   1.444   1.451   1.421
   15SOL     OW  376   0.438   0.392   1.499
   15SOL    HW1  377   0.520   0.336   1.508
   15SOL    HW2  378   0.357   0.334   1.503
   16SOL     OW  379   1.603   0.447   0.737
   16SOL    HW1  380   1.529   0.493   0.687
   16SOL    HW2  381   1.654   0.515   0.790
   17SOL     OW  382   0.231   1.713   0.483
   17SOL    HW1  383   0.265   1.790   0.537
   17SOL    HW2  384   0.275   1.713   0.393
   18SOL     OW  385   1.127   1.341   1.690
   18SOL    HW1  386   1.174   1.341   1.778
   18SOL    HW2  387   1.079   1.254   1.679
   19SOL     OW  388   0.230   1.434   0.538
   19SOL    HW1  389   0.204   1.530   0.538
   19SOL    HW2  390   0.159   1.380   0.583
   20SOL     OW  391   0.240   1.091   0.886
   20SOL    HW1  392   0.254   1.007   0.938
   20SOL    HW2  393   0.185   1.155   0.941
   21SOL     OW  394   0.620   1.786   1.439
   21SOL    HW1  395   0.528   1.769   1.474
   21SOL    HW2  396   0.648   1.878   1.465
   22SOL     OW  397   0.606   0.964   0.123
   22SOL    HW1  398   0.613   1.048   0.069
   22SOL    HW2  399   0.652   0.977   0.211
   23SOL     OW  400   1.594   0.114   1.480
   23SOL    HW1  401   1.576   0.181   1.408
   23SOL    HW2  402   1.591   0.160   1.569
   24SOL     OW  403   0.122   0.643   0.563
   24SOL    HW1  404   0.077   0.555   0.580
   24SOL    HW2  405   0.121   0.697   0.647
   25SOL     OW  406   1.842   1.767   0.359
   25SOL    HW1  407   1.896   1.738   0.439
   25SOL    HW2  408   1.872   1.857   0.330
   26SOL     OW  409   0.027   1.596   0.117
   26SOL    HW1  410   0.008   1.500   0.138
   26SOL    HW2  411  -0.006   1.654   0.192
   27SOL     OW  412   1.689   0.922   0.612
   27SOL    HW1  413   1.784   0.893   0.620
   27SOL    HW2  414   1.681   0.987   0.537
   28SOL     OW  415   1.641   1.108   0.432
   28SOL    HW1  416   1.727   1.110   0.380
   28SOL    HW2  417   1.655   1.155   0.520
   29SOL     OW  418   0.113   0.737   1.597
   29SOL    HW1  419   0.201   0.724   1.642
   29SOL    HW2  420   0.100   0.834   1.575
   30SOL     OW  421   0.613   1.365   0.726
   30SOL    HW1  422   0.564   1.278   0.735
   30SOL    HW2  423   0.590   1.408   0.639
   31SOL     OW  424   1.293   1.228   1.423
   31SOL    HW1  425   1.330   1.155   1.365
   31SOL    HW2  426   1.345   1.233   1.508
   32SOL     OW  427   0.809   0.004   0.502
   32SOL    HW1  428   0.849   0.095   0.493
   32SOL    HW2  429   0.709   0.012   0.508
   33SOL     OW  430   0.197   0.976   1.264
   33SOL    HW1  431   0.286   0.931   1.250
   33SOL    HW2  432   0.124   0.911   1.245
   34SOL     OW  433   1.525   0.999   0.190
   34SOL    HW1  434   1.462   0.923   0.203
   34SOL    HW2  435   1.573   1.017   0.276
   35SOL     OW  436   1.187   1.792   1.616
   35SOL    HW1  437   1.211   1.852   1.540
   35SOL    HW2  438   1.194   1.697   1.586
   36SOL     OW  439   0.317   0.251   1.801
   36SOL    HW1  440   0.388   0.322   1.807
   36SOL    HW2  441   0.229   0.290   1.829
   37SOL     OW  442   1.466   1.417   0.953
   37SOL    HW1  443   1.407   1.423   1.033
   37SOL    HW2  444   1.451   1.329   0.907
   38SOL     OW  445   1.667   1.714   0.572
   38SOL    HW1  446   1.626   1.691   0.484
   38SOL    HW2  447   1.649   1.640   0.637
   39SOL     OW  448   0.598   0.729   0.270
   39SOL    HW1  449   0.622   0.798   0.202
   39SOL    HW2  450   0.520   0.762   0.324
   40SOL     OW  451   1.281   0.345   0.944
   40SOL    HW1  452   1.195   0.295   0.931
   40SOL    HW2  453   1.343   0.291   1.000
   41SOL     OW  454   1.576   1.662   0.307
   41SOL    HW1  455   1.665   1.708   0.310
   41SOL    HW2  456   1.555   1.638   0.212
   42SOL     OW  457   0.807   0.605   1.465
   42SOL    HW1  458   0.760   0.602   1.554
   42SOL    HW2  459   0.756   0.550   1.399
   43SOL     OW  460   1.394   0.469   1.674
   43SOL    HW1  461   1.374   0.512   1.762
   43SOL    HW2  462   1.472   0.407   1.683
   44SOL     OW  463   0.973   0.890   1.572
   44SOL    HW1  464   1.019   0.806   1.543
   44SOL    HW2  465   0.917   0.924   1.497
   45SOL     OW  466   0.991   0.410   1.242
   45SOL    HW1  467   0.914   0.444   1.296
   45SOL    HW2  468   0.957   0.359   1.163
   46SOL     OW  469   1.041   0.701   0.429
   46SOL    HW1  470   1.067   0.697   0.525
   46SOL    HW2  471   0.956   0.650   0.415
   47SOL     OW  472   0.076   0.811   0.789
   47SOL    HW1  473   0.175   0.799   0.798
   47SOL    HW2  474   0.052   0.906   0.810
   48SOL     OW  475   0.130   1.821   1.571
   48SOL    HW1  476   0.120   1.806   1.670
   48SOL    HW2  477   0.044   1.857   1.535
   49SOL     OW  478   0.865   0.348   0.195
   49SOL    HW1  479   0.924   0.411   0.146
   49SOL    HW2  480   0.884   0.254   0.166
   50SOL     OW  481   1.719   0.585   1.831
   50SOL    HW1  482   1.693   0.674   1.795
   50SOL    HW2  483   1.717   0.517   1.758
   51SOL     OW  484   1.362   1.144   0.545
   51SOL    HW1  485   1.445   1.115   0.497
   51SOL    HW2  486   1.313   1.211   0.489
   52SOL     OW  487   0.550   0.196   0.885
   52SOL    HW1  488   0.545   0.191   0.985
   52SOL    HW2  489   0.552   0.292   0.856
   53SOL     OW  490   1.008   1.456   0.477
   53SOL    HW1  491   0.962   1.528   0.425
   53SOL    HW2  492   1.004   1.476   0.575
   54SOL     OW  493   0.351   1.801   0.853
   54SOL    HW1  494   0.401   1.715   0.859
   54SOL    HW2  495   0.416   1.878   0.850
   55SOL     OW  496   1.795   1.066   0.873
   55SOL    HW1  497   1.733   1.051   0.797
   55SOL    HW2  498   1.743   1.077   0.958
   56SOL     OW  499   1.227   1.550   1.506
   56SOL    HW1  500   1.233   1.473   1.570
   56SOL    HW2  501   1.175   1.524   1.426
   57SOL     OW  502   0.321   0.943   0.242
   57SOL    HW1  503   0.403   0.982   0.200
   57SOL    HW2  504   0.294   0.861   0.193
   58SOL     OW  505   1.458   0.735   0.728
   58SOL    HW1  506   1.453   0.670   0.803
   58SOL    HW2  507   1.538   0.794   0.741
   59SOL     OW  508   0.461   1.266   1.727
   59SOL    HW1  509   0.411   1.267   1.641
   59SOL    HW2  510   0.398   1.248   1.803
   60SOL     OW  511   1.111   1.776   0.237
   60SOL    HW1  512   1.051   1.714   0.287
   60SOL    HW2  513   1.142   1.732   0.152
   61SOL     OW  514   0.202   0.285   1.498
   61SOL    HW1  515   0.122   0.345   1.485
   61SOL    HW2  516   0.192   0.236   1.584
   62SOL     OW  517   1.632   1.377   0.081
   62SOL    HW1  518   1.600   1.471   0.071
   62SOL    HW2  519   1.556   1.314   0.069
   63SOL     OW  520   0.464   1.743   0.323
   63SOL    HW1  521   0.497   1.782   0.409
   63SOL    HW2  522   0.540   1.736   0.258
   64SOL     OW  523   1.400   0.107   0.426
   64SOL    HW1  524   1.376   0.070   0.336
   64SOL    HW2  525   1.499   0.123   0.430
   65SOL     OW  526   0.249   1.785   1.241
   65SOL    HW1  527   0.306   1.720   1.291
   65SOL    HW2  528   0.233   1.752   1.148
   66SOL     OW  529   0.940   1.698   0.904
   66SOL    HW1  530   1.020   1.641   0.925
   66SOL    HW2  531   0.891   1.658   0.827
   67SOL     OW  532   0.382   0.700   0.480
   67SOL    HW1  533   0.427   0.610   0.477
   67SOL    HW2  534   0.288   0.689   0.513
   68SOL     OW  535   1.547   0.222   1.729
   68SOL    HW1  536   1.542   0.259   1.821
   68SOL    HW2  537   1.475   0.153   1.717
   69SOL     OW  538   0.614   0.122   0.117
   69SOL    HW1  539   0.712   0.100   0.124
   69SOL    HW2  540   0.583   0.105   0.024
   70SOL     OW  541   0.781   0.264   1.749
   70SOL    HW1  542   0.848   0.203   1.792
   70SOL    HW2  543   0.708   0.283   1.814
   71SOL     OW  544   0.888   1.514   1.195
   71SOL    HW1  545   0.865   1.489   1.101
   71SOL    HW2  546   0.949   1.445   1.234
   72SOL     OW  547   1.351   0.590   1.433
   72SOL    HW1  548   1.379   0.547   1.518
   72SOL    HW2  549   1.376   0.686   1.434
   73SOL     OW  550   0.803   1.402   0.924
   73SOL    HW1  551   0.893   1.416   0.882
   73SOL    HW2  552   0.732   1.404   0.853
   74SOL     OW  553   0.922   0.503   0.899
   74SOL    HW1  554   0.897   0.494   0.803
   74SOL    HW2  555   0.970   0.421   0.930
   75SOL     OW  556   0.539   0.064   0.512
   75SOL    HW1  557   0.458   0.065   0.570
   75SOL    HW2  558   0.542   0.147   0.457
   76SOL     OW  559   1.434   1.188   0.041
   76SOL    HW1  560   1.466   1.112   0.098
   76SOL    HW2  561   1.342   1.215   0.071
   77SOL     OW  562   0.297   0.035   0.171
   77SOL    HW1  563   0.346   0.119   0.150
   77SOL    HW2  564   0.359  -0.030   0.216
   78SOL     OW  565   0.935   0.236   0.480
   78SOL    HW1  566   0.887   0.277   0.402
   78SOL    HW2  567   1.034   0.234   0.461
   79SOL     OW  568   1.076   0.683   1.464
   79SOL    HW1  569   0.996   0.622   1.467
   79SOL    HW2  570   1.157   0.630   1.440
   80SOL     OW  571   1.227   1.570   0.793
   80SOL    HW1  572   1.248   1.644   0.728
   80SOL    HW2  573   1.295   1.570   0.866
   81SOL     OW  574   0.459   1.152   0.741
   81SOL    HW1  575   0.388   1.125   0.806
   81SOL    HW2  576   0.433   1.124   0.648
   82SOL     OW  577   1.271   1.797   0.591
   82SOL    HW1  578   1.315   1.861   0.527
   82SOL    HW2  579   1.221   1.849   0.661
   83SOL     OW  580   1.032   0.549   0.016
   83SOL    HW1  581   0.991   0.631  -0.023
   83SOL    HW2  582   1.096   0.575   0.089
   84SOL     OW  583   0.078   0.556   1.386
   84SOL    HW1  584   0.170   0.555   1.345
   84SOL    HW2  585   0.072   0.630   1.453
   85SOL     OW  586   0.561   0.222   1.147
   85SOL    HW1  587   0.599   0.138   1.184
   85SOL    HW2  588   0.473   0.241   1.191
   86SOL     OW  589   0.866   0.454   0.642
   86SOL    HW1  590   0.834   0.526   0.580
   86SOL    HW2  591   0.890   0.373   0.589
   87SOL     OW  592   1.017   0.039   0.753
   87SOL    HW1  593   0.945   0.044   0.684
   87SOL    HW2  594   0.993  -0.030   0.822
   88SOL     OW  595   1.429   1.173   0.867
   88SOL    HW1  596   1.374   1.089   0.860
   88SOL    HW2  597   1.455   1.202   0.775
   89SOL     OW  598   1.466   0.590   0.992
   89SOL    HW1  599   1.436   0.495   0.999
   89SOL    HW2  600   1.539   0.606   1.058
   90SOL     OW  601   1.857   0.833   0.377
   90SOL    HW1  602   1.899   0.769   0.441
   90SOL    HW2  603   1.819   0.782   0.299
   91SOL     OW  604   0.488   1.385   0.174
   91SOL    HW1  605   0.401   1.370   0.221
   91SOL    HW2  606   0.471   1.411   0.079
   92SOL     OW  607   1.664   1.280   0.657
   92SOL    HW1  608   1.763   1.288   0.671
   92SOL    HW2  609   1.619   1.364   0.688
   93SOL     OW  610   1.390   0.575   0.078
   93SOL    HW1  611   1.336   0.554   0.159
   93SOL    HW2  612   1.481   0.534   0.087
   94SOL     OW  613   0.527   0.256   0.328
   94SOL    HW1  614   0.554   0.197   0.253
   94SOL    HW2  615   0.527   0.351   0.297
   95SOL     OW  616   1.754   1.223   1.588
   95SOL    HW1  617   1.845   1.184   1.575
   95SOL    HW2  618   1.762   1.319   1.612
   96SOL     OW  619   1.064   1.347   1.340
   96SOL    HW1  620   0.984   1.324   1.395
   96SOL    HW2  621   1.147   1.321   1.389
   97SOL     OW  622   1.592   1.629   1.625
   97SOL    HW1  623   1.619   1.663   1.535
   97SOL    HW2  624   1.671   1.591   1.671
   98SOL     OW  625   1.111   1.195   1.100
   98SOL    HW1  626   1.071   1.239   1.181
   98SOL    HW2  627   1.070   1.232   1.017
   99SOL     OW  628   1.638   1.099   1.079
   99SOL    HW1  629   1.643   1.180   1.138
   99SOL    HW2  630   1.552   1.101   1.028
  100SOL     OW  631   0.915   0.089   1.402
  100SOL    HW1  632   0.940   0.069   1.307
  100SOL    HW2  633   0.987   0.145   1.444
  101SOL     OW  634   0.980   1.116   1.719
  101SOL    HW1  635   0.881   1.122   1.729
  101SOL    HW2  636   1.003   1.036   1.663
  102SOL     OW  637   0.705   1.050   0.368
  102SOL    HW1  638   0.691   1.057   0.467
  102SOL    HW2  639   0.789   0.999   0.350
  103SOL     OW  640   0.410   0.813   1.251
  103SOL    HW1  641   0.496   0.825   1.301
  103SOL    HW2  642   0.368   0.726   1.278
  104SOL     OW  643   1.274   0.386   1.262
  104SOL    HW1  644   1.295   0.460   1.326
  104SOL    HW2  645   1.185   0.403   1.219
  105SOL     OW  646   0.064   1.564   1.331
  105SOL    HW1  647   0.018   1.646   1.297
  105SOL    HW2  648   0.162   1.583   1.340
  106SOL     OW  649   0.367   1.100   0.501
  106SOL    HW1  650   0.360   1.183   0.445
  106SOL    HW2  651   0.371   1.020   0.441
  107SOL     OW  652   0.566   0.537   0.865
  107SOL    HW1  653   0.578   0.603   0.791
  107SOL    HW2  654   0.612   0.571   0.948
  108SOL     OW  655   1.252   1.348   0.388
  108SOL    HW1  656   1.302   1.425   0.428
  108SOL    HW2  657   1.157   1.350   0.420
  109SOL     OW  658   1.272   1.445   1.142
  109SOL    HW1  659   1.319   1.458   1.229
  109SOL    HW2  660   1.206   1.371   1.151
  110SOL     OW  661   1.582   0.639   0.472
  110SOL    HW1  662   1.551   0.700   0.545
  110SOL    HW2  663   1.632   0.691   0.403
  111SOL     OW  664   0.354   1.510   1.329
  111SOL    HW1  665   0.333   1.466   1.242
  111SOL    HW2  666   0.451   1.536   1.332
  112SOL     OW  667   0.402   0.751   1.598
  112SOL    HW1  668   0.470   0.806   1.551
  112SOL    HW2  669   0.442   0.663   1.625
  113SOL     OW  670   1.587   0.779   1.670
  113SOL    HW1  671   1.495   0.817   1.665
  113SOL    HW2  672   1.647   0.826   1.605
  114SOL     OW  673   1.013   0.105   1.770
  114SOL    HW1  674   1.019   0.190   1.718
  114SOL    HW2  675   1.045   0.029   1.713
  115SOL     OW  676   0.504   0.050   1.740
  115SOL    HW1  677   0.462  -0.007   1.670
  115SOL    HW2  678   0.438   0.119   1.772
  116SOL     OW  679   0.573   0.870   1.029
  116SOL    HW1  680   0.617   0.959   1.020
  116SOL    HW2  681   0.510   0.870   1.106
  117SOL     OW  682   1.360   0.862   1.045
  117SOL    HW1  683   1.285   0.862   0.979
  117SOL    HW2  684   1.397   0.770   1.054
  118SOL     OW  685   1.209   0.525   0.275
  118SOL    HW1  686   1.222   0.441   0.329
  118SOL    HW2  687   1.180   0.599   0.335
  119SOL     OW  688   0.307   0.213   1.231
  119SOL    HW1  689   0.284   0.250   1.321
  119SOL    HW2  690   0.277   0.118   1.225
  120SOL     OW  691   0.037   1.310   1.282
  120SOL    HW1  692   0.090   1.261   1.350
  120SOL    HW2  693   0.059   1.408   1.287
  121SOL     OW  694   0.732   0.634   1.064
  121SOL    HW1  695   0.791   0.608   0.988
  121SOL    HW2  696   0.704   0.730   1.053
  122SOL     OW  697   1.728   0.935   1.854
  122SOL    HW1  698   1.682   0.928   1.765
  122SOL    HW2  699   1.666   0.979   1.920
  123SOL     OW  700   0.307   0.063   0.618
  123SOL    HW1  701   0.296   0.157   0.651
  123SOL    HW2  702   0.302   0.000   0.695
  124SOL     OW  703   1.622   0.367   0.374
  124SOL    HW1  704   1.624   0.291   0.438
  124SOL    HW2  705   1.574   0.444   0.414
  125SOL     OW  706   1.023   0.766   0.966
  125SOL    HW1  707   1.038   0.787   1.062
  125SOL    HW2  708   0.993   0.671   0.957
  126SOL     OW  709   0.980   1.573   1.700
  126SOL    HW1  710   0.960   1.617   1.612
  126SOL    HW2  711   1.019   1.482   1.684
  127SOL     OW  712   1.859   1.518   1.605
  127SOL    HW1  713   1.873   1.545   1.510
  127SOL    HW2  714   1.942   1.540   1.658
  128SOL     OW  715   0.350   0.898   1.804
  128SOL    HW1  716   0.426   0.942   1.852
  128SOL    HW2  717   0.385   0.851   1.722
  129SOL     OW  718   1.540   0.274   0.125
  129SOL    HW1  719   1.479   0.199   0.148
  129SOL    HW2  720   1.562   0.326   0.208
  130SOL     OW  721   1.303   0.838   0.042
  130SOL    HW1  722   1.337   0.745   0.057
  130SOL    HW2  723   1.321   0.865  -0.053
  131SOL     OW  724   1.068   1.333   0.849
  131SOL    HW1  725   1.075   1.249   0.794
  131SOL    HW2  726   1.130   1.402   0.813
  132SOL     OW  727   0.319   0.810   0.949
  132SOL    HW1  728   0.412   0.846   0.954
  132SOL    HW2  729   0.313   0.725   1.001
  133SOL     OW  730   0.339   0.509   1.006
  133SOL    HW1  731   0.287   0.426   0.989
  133SOL    HW2  732   0.416   0.514   0.942
  134SOL     OW  733   1.138   0.380   1.678
  134SOL    HW1  734   1.093   0.443   1.742
  134SOL    HW2  735   1.231   0.411   1.661
  135SOL     OW  736   1.160   0.207   1.477
  135SOL    HW1  737   1.160   0.271   1.554
  135SOL    HW2  738   1.188   0.255   1.394
  136SOL     OW  739   0.008   1.326   0.200
  136SOL    HW1  740  -0.085   1.347   0.169
  136SOL    HW2  741   0.018   1.227   0.213
  137SOL     OW  742   0.088   1.801   0.927
  137SOL    HW1  743   0.046   1.715   0.900
  137SOL    HW2  744   0.182   1.804   0.893
  138SOL     OW  745   0.504   1.568   0.910
  138SOL    HW1  746   0.570   1.642   0.919
  138SOL    HW2  747   0.548   1.489   0.868
  139SOL     OW  748   1.002   0.796   1.238
  139SOL    HW1  749   1.043   0.764   1.324
  139SOL    HW2  750   0.906   0.769   1.235
  140SOL     OW  751   0.040   0.544   1.114
  140SOL    HW1  752   0.125   0.511   1.073
  140SOL    HW2  753   0.053   0.559   1.212
  141SOL     OW  754   0.189   0.520   1.722
  141SOL    HW1  755   0.248   0.480   1.652
  141SOL    HW2  756   0.131   0.591   1.681
  142SOL     OW  757   1.369   0.950   1.660
  142SOL    HW1  758   1.408   1.039   1.680
  142SOL    HW2  759   1.379   0.930   1.563
  143SOL     OW  760   0.815   0.572   0.325
  143SOL    HW1  761   0.822   0.483   0.279
  143SOL    HW2  762   0.721   0.606   0.317
  144SOL     OW  763   1.657   0.604   1.206
  144SOL    HW1  764   1.619   0.535   1.268
  144SOL    HW2  765   1.739   0.568   1.162
  145SOL     OW  766   0.252   1.564   1.744
  145SOL    HW1  767   0.222   1.621   1.820
  145SOL    HW2  768   0.245   1.467   1.770
  146SOL     OW  769   0.671   0.464   1.269
  146SOL    HW1  770   0.637   0.375   1.239
  146SOL    HW2  771   0.697   0.518   1.189
  147SOL     OW  772   0.930   1.678   1.465
  147SOL    HW1  773   0.906   1.660   1.370
  147SOL    HW2  774   0.960   1.772   1.475
  148SOL     OW  775   0.473   0.500   0.191
  148SOL    HW1  776   0.534   0.580   0.195
  148SOL    HW2  777   0.378   0.531   0.198
  149SOL     OW  778   0.159   1.137   1.466
  149SOL    HW1  779   0.181   1.076   1.542
  149SOL    HW2  780   0.169   1.088   1.380
  150SOL     OW  781   1.347   1.059   1.234
  150SOL    HW1  782   1.371   0.996   1.160
  150SOL    HW2  783   1.257   1.099   1.216
  151SOL     OW  784   1.302   0.855   0.309
  151SOL    HW1  785   1.216   0.824   0.351
  151SOL    HW2  786   1.298   0.841   0.210
  152SOL     OW  787   1.759   1.747   1.154
  152SOL    HW1  788   1.820   1.777   1.081
  152SOL    HW2  789   1.721   1.658   1.132
  153SOL     OW  790   1.252   1.731   1.128
  153SOL    HW1  791   1.336   1.736   1.074
  153SOL    HW2  792   1.229   1.635   1.146
  154SOL     OW  793   0.083   1.258   1.022
  154SOL    HW1  794   0.078   1.257   1.122
  154SOL    HW2  795   0.000   1.217   0.984
  155SOL     OW  796   0.688   1.662   1.716
  155SOL    HW1  797   0.632   1.743   1.725
  155SOL    HW2  798   0.740   1.666   1.630
  156SOL     OW  799   0.903   0.086   0.133
  156SOL    HW1  800   0.954   0.087   0.047
  156SOL    HW2  801   0.959   0.044   0.204
  157SOL     OW  802   1.726   0.135   0.523
  157SOL    HW1  803   1.799   0.118   0.456
  157SOL    HW2  804   1.695   0.048   0.561
  158SOL     OW  805   1.388   1.573   0.477
  158SOL    HW1  806   1.455   1.585   0.403
  158SOL    HW2  807   1.348   1.662   0.500
  159SOL     OW  808   0.130   1.794   1.851
  159SOL    HW1  809   0.089   1.720   1.904
  159SOL    HW2  810   0.194   1.845   1.909
  160SOL     OW  811   1.280   0.927   0.672
  160SOL    HW1  812   1.340   0.846   0.674
  160SOL    HW2  813   1.320   0.996   0.612
  161SOL     OW  814   0.830   1.273   1.422
  161SOL    HW1  815   0.825   1.306   1.517
  161SOL    HW2  816   0.744   1.292   1.376
  162SOL     OW  817   0.672   1.616   0.154
  162SOL    HW1  818   0.681   1.626   0.055
  162SOL    HW2  819   0.632   1.527   0.175
  163SOL     OW  820   1.650   1.720   1.394
  163SOL    HW1  821   1.703   1.730   1.310
  163SOL    HW2  822   1.623   1.810   1.428
  164SOL     OW  823   1.841   0.175   0.963
  164SOL    HW1  824   1.880   0.090   0.927
  164SOL    HW2  825   1.743   0.177   0.944
  165SOL     OW  826   0.263   0.326   0.720
  165SOL    HW1  827   0.184   0.377   0.686
  165SOL    HW2  828   0.254   0.311   0.818
  166SOL     OW  829   1.194   1.612   0.031
  166SOL    HW1  830   1.200   1.519   0.068
  166SOL    HW2  831   1.135   1.612  -0.049
  167SOL     OW  832   0.822   1.002   1.372
  167SOL    HW1  833   0.862   1.001   1.280
  167SOL    HW2  834   0.832   1.094   1.412
  168SOL     OW  835   0.916   0.910   0.291
  168SOL    HW1  836   0.979   0.948   0.223
  168SOL    HW2  837   0.956   0.827   0.330
  169SOL     OW  838   1.504   1.607   0.044
  169SOL    HW1  839   1.412   1.644   0.051
  169SOL    HW2  840   1.542   1.627  -0.046
  170SOL     OW  841   0.372   1.288   1.490
  170SOL    HW1  842   0.359   1.381   1.456
  170SOL    HW2  843   0.288   1.236   1.477
  171SOL     OW  844   1.614   1.292   1.289
  171SOL    HW1  845   1.674   1.295   1.369
  171SOL    HW2  846   1.539   1.356   1.302
  172SOL     OW  847   1.039   1.098   0.696
  172SOL    HW1  848   0.969   1.051   0.750
  172SOL    HW2  849   1.098   1.030   0.653
  173SOL     OW  850   1.014   0.236   0.971
  173SOL    HW1  851   1.006   0.200   0.878
  173SOL    HW2  852   1.012   0.160   1.036
  174SOL     OW  853   0.590   1.487   0.491
  174SOL    HW1  854   0.632   1.429   0.421
  174SOL    HW2  855   0.546   1.566   0.447
  175SOL     OW  856   1.709   0.385   1.381
  175SOL    HW1  857   1.782   0.454   1.385
  175SOL    HW2  858   1.737   0.310   1.322
  176SOL     OW  859   0.255   1.348   0.290
  176SOL    HW1  860   0.159   1.349   0.263
  176SOL    HW2  861   0.267   1.401   0.374
  177SOL     OW  862   0.105   1.013   1.726
  177SOL    HW1  863   0.028   0.980   1.780
  177SOL    HW2  864   0.190   0.983   1.768
  178SOL     OW  865   0.672   0.203   1.489
  178SOL    HW1  866   0.762   0.187   1.449
  178SOL    HW2  867   0.680   0.208   1.588
  179SOL     OW  868   0.075   0.345   0.033
  179SOL    HW1  869  -0.017   0.317   0.004
  179SOL    HW2  870   0.106   0.422  -0.023
  180SOL     OW  871   1.440   0.856   1.398
  180SOL    HW1  872   1.383   0.908   1.335
  180SOL    HW2  873   1.536   0.868   1.374
  181SOL     OW  874   0.072   0.166   0.318
  181SOL    HW1  875   0.055   0.249   0.264
  181SOL    HW2  876   0.162   0.129   0.296
  182SOL     OW  877   1.183   1.335   0.119
  182SOL    HW1  878   1.084   1.324   0.121
  182SOL    HW2  879   1.217   1.350   0.212
  183SOL     OW  880   0.613   0.842   1.431
  183SOL    HW1  881   0.669   0.923   1.414
  183SOL    HW2  882   0.672   0.762   1.434
  184SOL     OW  883   1.493   1.767   0.959
  184SOL    HW1  884   1.526   1.831   0.890
  184SOL    HW2  885   1.559   1.761   1.034
  185SOL     OW  886   0.716   0.565   1.708
  185SOL    HW1  887   0.735   0.630   1.782
  185SOL    HW2  888   0.776   0.485   1.717
  186SOL     OW  889   1.450   1.220   1.633
  186SOL    HW1  890   1.441   1.210   1.732
  186SOL    HW2  891   1.546   1.213   1.607
  187SOL     OW  892   0.390   1.741   1.560
  187SOL    HW1  893   0.299   1.782   1.558
  187SOL    HW2  894   0.383   1.647   1.592
  188SOL     OW  895   1.674   0.883   1.254
  188SOL    HW1  896   1.647   0.794   1.217
  188SOL    HW2  897   1.675   0.951   1.181
  189SOL     OW  898   1.225   0.325   0.449
  189SOL    HW1  899   1.290   0.251   0.438
  189SOL    HW2  900   1.245   0.375   0.533
  190SOL     OW  901   0.594   0.745   0.652
  190SOL    HW1  902   0.644   0.830   0.633
  190SOL    HW2  903   0.506   0.747   0.604
  191SOL     OW  904   1.777   0.342   1.642
  191SOL    HW1  905   1.760   0.373   1.548
  191SOL    HW2  906   1.693   0.305   1.680
  192SOL     OW  907   1.730   0.934   1.517
  192SOL    HW1  908   1.768   1.025   1.532
  192SOL    HW2  909   1.722   0.917   1.418
  193SOL     OW  910   0.859   1.374   0.016
  193SOL    HW1  911   0.813   1.389   0.104
  193SOL    HW2  912   0.903   1.459  -0.014
  194SOL     OW  913   0.661   1.790   0.953
  194SOL    HW1  914   0.615   1.878   0.940
  194SOL    HW2  915   0.760   1.802   0.946
  195SOL     OW  916   0.859   0.956   0.861
  195SOL    HW1  917   0.913   0.887   0.909
  195SOL    HW2  918   0.827   1.025   0.927
  196SOL     OW  919   1.083   0.984   0.087
  196SOL    HW1  920   1.060   1.037   0.005
  196SOL    HW2  921   1.164   0.928   0.068
  197SOL     OW  922   1.861   1.569   0.851
  197SOL    HW1  923   1.790   1.557   0.781
  197SOL    HW2  924   1.862   1.490   0.911
  198SOL     OW  925   0.221   1.314   1.844
  198SOL    HW1  926   0.156   1.241   1.823
  198SOL    HW2  927   0.225   1.328   1.942
  199SOL     OW  928   0.079   1.240   0.653
  199SOL    HW1  929   0.078   1.193   0.741
  199SOL    HW2  930   0.161   1.212   0.602
  200SOL     OW  931   0.672   1.391   1.624
  200SOL    HW1  932   0.594   1.341   1.662
  200SOL    HW2  933   0.669   1.486   1.655
  201SOL     OW  934   1.824   0.192   1.227
  201SOL    HW1  935   1.820   0.102   1.271
  201SOL    HW2  936   1.827   0.181   1.128
  202SOL     OW  937   0.428   0.424   0.520
  202SOL    HW1  938   0.458   0.352   0.458
  202SOL    HW2  939   0.389   0.384   0.603
  203SOL     OW  940   1.705   1.487   1.104
  203SOL    HW1  941   1.612   1.462   1.077
  203SOL    HW2  942   1.731   1.437   1.186
  204SOL     OW  943   0.317   0.547   1.280
  204SOL    HW1  944   0.355   0.488   1.352
  204SOL    HW2  945   0.357   0.521   1.192
  205SOL     OW  946   0.812   1.586   0.687
  205SOL    HW1  947   0.844   1.596   0.593
  205SOL    HW2  948   0.733   1.524   0.689
  206SOL     OW  949   1.424   0.214   1.112
  206SOL    HW1  950   1.476   0.149   1.167
  206SOL    HW2  951   1.375   0.277   1.173
  207SOL     OW  952   1.001   0.034   1.154
  207SOL    HW1  953   0.938  -0.038   1.123
  207SOL    HW2  954   1.094  -0.002   1.154
  208SOL     OW  955   0.770   1.330   0.301
  208SOL    HW1  956   0.724   1.243   0.318
  208SOL    HW2  957   0.861   1.327   0.342
  209SOL     OW  958   0.618   1.567   1.284
  209SOL    HW1  959   0.613   1.649   1.341
  209SOL    HW2  960   0.707   1.564   1.239
  210SOL     OW  961   1.352   0.052   0.168
  210SOL    HW1  962   1.387   0.011   0.084
  210SOL    HW2  963   1.262   0.014   0.188
  211SOL     OW  964   1.300   0.453   0.691
  211SOL    HW1  965   1.241   0.533   0.695
  211SOL    HW2  966   1.315   0.418   0.784
  212SOL     OW  967   1.593   0.221   0.882
  212SOL    HW1  968   1.509   0.220   0.936
  212SOL    HW2  969   1.595   0.304   0.826
  213SOL     OW  970   0.039   1.077   0.300
  213SOL    HW1  971   0.138   1.066   0.291
  213SOL    HW2  972  -0.001   0.991   0.332
  214SOL     OW  973   0.875   1.646   0.337
  214SOL    HW1  974   0.798   1.611   0.283
  214SOL    HW2  975   0.843   1.717   0.399
  215SOL     OW  976   0.230   0.628   1.975
  215SOL    HW1  977   0.137   0.626   2.012
  215SOL    HW2  978   0.231   0.589   1.883
  216SOL     OW  979   0.225   0.275   2.858
  216SOL    HW1  980   0.260   0.258   2.950
  216SOL    HW2  981   0.137   0.230   2.846
  217SOL     OW  982   0.019   0.368   2.509
  217SOL    HW1  983  -0.063   0.411   2.548
  217SOL    HW2  984  -0.009   0.295   2.446
  218SOL     OW  985   0.569   1.275   3.027
  218SOL    HW1  986   0.476   1.268   2.990
  218SOL    HW2  987   0.580   1.364   3.071
  219SOL     OW  988   1.555   1.511   2.565
  219SOL    HW1  989   1.498   1.495   2.646
  219SOL    HW2  990   1.496   1.521   2.485
  220SOL     OW  991   1.135   0.703   2.579
  220SOL    HW1  992   1.192   0.781   2.554
  220SOL    HW2  993   1.075   0.729   2.655
  221SOL     OW  994   1.755   0.607   2.093
  221SOL    HW1  995   1.743   0.594   1.994
  221SOL    HW2  996   1.725   0.526   2.142
  222SOL     OW  997   0.768   1.144   2.885
  222SOL    HW1  998   0.690   1.161   2.945
  222SOL    HW2  999   0.802   1.231   2.849
  223SOL     OW 1000   0.850   0.798   3.685
  223SOL    HW1 1001   0.846   0.874   3.750
  223SOL    HW2 1002   0.872   0.834   3.594
  224SOL     OW 1003   0.685   1.012   2.527
  224SOL    HW1 1004   0.754   0.996   2.597
  224SOL    HW2 1005   0.612   1.069   2.565
  225SOL     OW 1006   0.686   1.161   3.665
  225SOL    HW1 1007   0.746   1.240   3.679
  225SOL    HW2 1008   0.600   1.192   3.624
  226SOL     OW 1009   0.335   1.435   2.923
  226SOL    HW1 1010   0.257   1.404   2.870
  226SOL    HW2 1011   0.393   1.493   2.866
  227SOL     OW 1012   1.460   1.505   3.201
  227SOL    HW1 1013   1.484   1.599   3.227
  227SOL    HW2 1014   1.444   1.451   3.283
  228SOL     OW 1015   0.438   0.392   3.361
  228SOL    HW1 1016   0.520   0.336   3.370
  228SOL    HW2 1017   0.357   0.334   3.365
  229SOL     OW 1018   1.603   0.447   2.599
  229SOL    HW1 1019   1.529   0.493   2.549
  229SOL    HW2 1020   1.654   0.515   2.652
  230SOL     OW 1021   0.231   1.713   2.345
  230SOL    HW1 1022   0.265   1.790   2.399
  230SOL    HW2 1023   0.275   1.713   2.255
  231SOL     OW 1024   1.127   1.341   3.552
  231SOL    HW1 1025   1.174   1.341   3.640
  231SOL    HW2 1026   1.079   1.254   3.541
  232SOL     OW 1027   0.230   1.434   2.400
  232SOL    HW1 1028   0.204   1.530   2.400
  232SOL    HW2 1029   0.159   1.380   2.445
  233SOL     OW 1030   0.240   1.091   2.748
  233SOL    HW1 1031   0.254   1.007   2.800
  233SOL    HW2 1032   0.185   1.155   2.803
  234SOL     OW 1033   0.620   1.786   3.301
  234SOL    HW1 1034   0.528   1.769   3.336
  234SOL    HW2 1035   0.648   1.878   3.327
  235SOL     OW 1036   0.606   0.964   1.985
  235SOL    HW1 1037   0.613   1.048   1.931
  235SOL    HW2 1038   0.652   0.977   2.073
  236SOL     OW 1039   1.594   0.114   3.342
  236SOL    HW1 1040   1.576   0.181   3.270
  236SOL    HW2 1041   1.591   0.160   3.431
  237SOL     OW 1042   0.122   0.643   2.425
  237SOL    HW1 1043   0.077   0.555   2.442
  237SOL    HW2 1044   0.121   0.697   2.509
  238SOL     OW 1045   1.842   1.767   2.221
  238SOL    HW1 1046   1.896   1.738   2.301
  238SOL    HW2 1047   1.872   1.857   2.192
  239SOL     OW 1048   0.027   1.596   1.979
  239SOL    HW1 1049   0.008   1.500   2.000
  239SOL    HW2 1050  -0.006   1.654   2.054
  240SOL     OW 1051   1.689   0.922   2.474
  240SOL    HW1 1052   1.784   0.893   2.482
  240SOL    HW2 1053   1.681   0.987   2.399
  241SOL     OW 1054   1.641   1.108   2.294
  241SOL    HW1 1055   1.727   1.110   2.242
  241SOL    HW2 1056   1.655   1.155   2.382
  242SOL     OW 1057   0.113   0.737   3.459
  242SOL    HW1 1058   0.201   0.724   3.504
  242SOL    HW2 1059   0.100   0.834   3.437
  243SOL     OW 1060   0.613   1.365   2.588
  243SOL    HW1 1061   0.564   1.278   2.597
  243SOL    HW2 1062   0.590   1.408   2.501
  244SOL     OW 1063   1.293   1.228   3.285
  244SOL    HW1 1064   1.330   1.155   3.227
  244SOL    HW2 1065   1.345   1.233   3.370
  245SOL     OW 1066   0.809   0.004   2.364
  245SOL    HW1 1067   0.849   0.095   2.355
  245SOL    HW2 1068   0.709   0.012   2.370
  246SOL     OW 1069   0.197   0.976   3.126
  246SOL    HW1 1070   0.286   0.931   3.112
  246SOL    HW2 1071   0.124   0.911   3.107
  247SOL     OW 1072   1.525   0.999   2.052
  247SOL    HW1 1073   1.462   0.923   2.065
  247SOL    HW2 1074   1.573   1.017   2.138
  248SOL     OW 1075   1.187   1.792   3.478
  248SOL    HW1 1076   1.211   1.852   3.402
  248SOL    HW2 1077   1.194   1.697   3.448
  249SOL     OW 1078   0.317   0.251   3.663
  249SOL    HW1 1079   0.388   0.322   3.669
  249SOL    HW2 1080   0.229   0.290   3.691
  250SOL     OW 1081   1.466   1.417   2.815
  250SOL    HW1 1082   1.407   1.423   2.895
  250SOL    HW2 1083   1.451   1.329   2.769
  251SOL     OW 1084   1.667   1.714   2.434
  251SOL    HW1 1085   1.626   1.691   2.346
  251SOL    HW2 1086   1.649   1.640   2.499
  252SOL     OW 1087   0.598   0.729   2.132
  252SOL    HW1 1088   0.622   0.798   2.064
  252SOL    HW2 1089   0.520   0.762   2.186
  253SOL     OW 1090   1.281   0.345   2.806
  253SOL    HW1 1091   1.195   0.295   2.793
  253SOL    HW2 1092   1.343   0.291   2.862
  254SOL     OW 1093   1.576   1.662   2.169
  254SOL    HW1 1094   1.665   1.708   2.172
  254SOL    HW2 1095   1.555   1.638   2.074
  255SOL     OW 1096   0.807   0.605   3.327
  255SOL    HW1 1097   0.760   0.602   3.416
  255SOL    HW2 1098   0.756   0.550   3.261
  256SOL     OW 1099   1.394   0.469   3.536
  256SOL    HW1 1100   1.374   0.512   3.624
  256SOL    HW2 1101   1.472   0.407   3.545
  257SOL     OW 1102   0.973   0.890   3.434
  257SOL    HW1 1103   1.019   0.806   3.405
  257SOL    HW2 1104   0.917   0.924   3.359
  258SOL     OW 1105   0.991   0.410   3.104
  258SOL    HW1 1106   0.914   0.444   3.158
  258SOL    HW2 1107   0.957   0.359   3.025
  259SOL     OW 1108   1.041   0.701   2.291
  259SOL    HW1 1109   1.067   0.697   2.387
  259SOL    HW2 1110   0.956   0.650   2.277
  260SOL     OW 1111   0.076   0.811   2.651
  260SOL    HW1 1112   0.175   0.799   2.660
  260SOL    HW2 1113   0.052   0.906   2.672
  261SOL     OW 1114   0.130   1.821   3.433
  261SOL    HW1 1115   0.120   1.806   3.532
  261SOL    HW2 1116   0.044   1.857   3.397
  262SOL     OW 1117   0.865   0.348   2.057
  262SOL    HW1 1118   0.924   0.411   2.008
  262SOL    HW2 1119   0.884   0.254   2.028
  263SOL     OW 1120   1.719   0.585   3.693
  263SOL    HW1 1121   1.693   0.674   3.657
  263SOL    HW2 1122   1.717   0.517   3.620
  264SOL     OW 1123   1.362   1.144   2.407
  264SOL    HW1 1124   1.445   1.115   2.359
  264SOL    HW2 1125   1.313   1.211   2.351
  265SOL     OW 1126   0.550   0.196   2.747
  265SOL    HW1 1127   0.545   0.191   2.847
  265SOL    HW2 1128   0.552   0.292   2.718
  266SOL     OW 1129   1.008   1.456   2.339
  266SOL    HW1 1130   0.962   1.528   2.287
  266SOL    HW2 1131   1.004   1.476   2.437
  267SOL     OW 1132   0.351   1.801   2.715
  267SOL    HW1 1133   0.401   1.715   2.721
  267SOL    HW2 1134   0.416   1.878   2.712
  268SOL     OW 1135   1.795   1.066   2.735
  268SOL    HW1 1136   1.733   1.051   2.659
  268SOL    HW2 1137   1.743   1.077   2.820
  269SOL     OW 1138   1.227   1.550   3.368
  269SOL    HW1 1139   1.233   1.473   3.432
  269SOL    HW2 1140   1.175   1.524   3.288
  270SOL     OW 1141   0.321   0.943   2.104
  270SOL    HW1 1142   0.403   0.982   2.062
  270SOL    HW2 1143   0.294   0.861   2.055
  271SOL     OW 1144   1.458   0.735   2.590
  271SOL    HW1 1145   1.453   0.670   2.665
  271SOL    HW2 1146   1.538   0.794   2.603
  272SOL     OW 1147   0.461   1.266   3.589
  272SOL    HW1 1148   0.411   1.267   3.503
  272SOL    HW2 1149   0.398   1.248   3.665
  273SOL     OW 1150   1.111   1.776   2.099
  273SOL    HW1 1151   1.051   1.714   2.149
  273SOL    HW2 1152   1.142   1.732   2.014
  274SOL     OW 1153   0.202   0.285   3.360
  274SOL    HW1 1154   0.122   0.345   3.347
  274SOL    HW2 1155   0.192   0.236   3.446
  275SOL     OW 1156   1.632   1.377   1.943
  275SOL    HW1 1157   1.600   1.471   1.933
  275SOL    HW2 1158   1.556   1.314   1.931
  276SOL     OW 1159   0.464   1.743   2.185
  276SOL    HW1 1160   0.497   1.782   2.271
  276SOL    HW2 1161   0.540   1.736   2.120
  277SOL     OW 1162   1.400   0.107   2.288
  277SOL    HW1 1163   1.376   0.070   2.198
  277SOL    HW2 1164   1.499   0.123   2.292
  278SOL     OW 1165   0.249   1.785   3.103
  278SOL    HW1 1166   0.306   1.720   3.153
  278SOL    HW2 1167   0.233   1.752   3.010
  279SOL     OW 1168   0.940   1.698   2.766
  279SOL    HW1 1169   1.020   1.641   2.787
  279SOL    HW2 1170   0.891   1.658   2.689
  280SOL     OW 1171   0.382   0.700   2.342
  280SOL    HW1 1172   0.427   0.610   2.339
  280SOL    HW2 1173   0.288   0.689   2.375
  281SOL     OW 1174   1.547   0.222   3.591
  281SOL    HW1 1175   1.542   0.259   3.683
  281SOL    HW2 1176   1.475   0.153   3.579
  282SOL     OW 1177   0.614   0.122   1.979
  282SOL    HW1 1178   0.712   0.100   1.986
  282SOL    HW2 1179   0.583   0.105   1.886
  283SOL     OW 1180   0.781   0.264   3.611
  283SOL    HW1 1181   0.848   0.203   3.654
  283SOL    HW2 1182   0.708   0.283   3.676
  284SOL     OW 1183   0.888   1.514   3.057
  284SOL    HW1 1184   0.865   1.489   2.963
  284SOL    HW2 1185   0.949   1.445   3.096
  285SOL     OW 1186   1.351   0.590   3.295
  285SOL    HW1 1187   1.379   0.547   3.380
  285SOL    HW2 1188   1.376   0.686   3.296
  286SOL     OW 1189   0.803   1.402   2.786
  286SOL    HW1 1190   0.893   1.416   2.744
  286SOL    HW2 1191   0.732   1.404   2.715
  287SOL     OW 1192   0.922   0.503   2.761
  287SOL    HW1 1193   0.897   0.494   2.665
  287SOL    HW2 1194   0.970   0.421   2.792
  288SOL     OW 1195   0.539   0.064   2.374
  288SOL    HW1 1196   0.458   0.065   2.432
  288SOL    HW2 1197   0.542   0.147   2.319
  289SOL     OW 1198   1.434   1.188   1.903
  289SOL    HW1 1199   1.466   1.112   1.960
  289SOL    HW2 1200   1.342   1.215   1.933
  290SOL     OW 1201   0.297   0.035   2.033
  290SOL    HW1 1202   0.346   0.119   2.012
  290SOL    HW2 1203   0.359  -0.030   2.078
  291SOL     OW 1204   0.935   0.236   2.342
  291SOL    HW1 1205   0.887   0.277   2.264
  291SOL    HW2 1206   1.034   0.234   2.323
  292SOL     OW 1207   1.076   0.683   3.326
  292SOL    HW1 1208   0.996   0.622   3.329
  292SOL    HW2 1209   1.157   0.630   3.302
  293SOL     OW 1210   1.227   1.570   2.655
  293SOL    HW1 1211   1.248   1.644   2.590
  293SOL    HW2 1212   1.295   1.570   2.728
  294SOL     OW 1213   0.459   1.152   2.603
  294SOL    HW1 1214   0.388   1.125   2.668
  294SOL    HW2 1215   0.433   1.124   2.510
  295SOL     OW 1216   1.271   1.797   2.453
  295SOL    HW1 1217   1.315   1.861   2.389
  295SOL    HW2 1218   1.221   1.849   2.523
  296SOL     OW 1219   1.032   0.549   1.878
  296SOL    HW1 1220   0.991   0.631   1.839
  296SOL    HW2 1221   1.096   0.575   1.951
  297SOL     OW 1222   0.078   0.556   3.248
  297SOL    HW1 1223   0.170   0.555   3.207
  297SOL    HW2 1224   0.072   0.630   3.315
  298SOL     OW 1225   0.561   0.222   3.009
  298SOL    HW1 1226   0.599   0.138   3.046
  298SOL    HW2 1227   0.473   0.241   3.053
  299SOL     OW 1228   0.866   0.454   2.504
  299SOL    HW1 1229   0.834   0.526   2.442
  299SOL    HW2 1230   0.890   0.373   2.451
  300SOL     OW 1231   1.017   0.039   2.615
  300SOL    HW1 1232   0.945   0.044   2.546
  300SOL    HW2 1233   0.993  -0.030   2.684
  301SOL     OW 1234   1.429   1.173   2.729
  301SOL    HW1 1235   1.374   1.089   2.722
  301SOL    HW2 1236   1.455   1.202   2.637
  302SOL     OW 1237   1.466   0.590   2.854
  302SOL    HW1 1238   1.436   0.495   2.861
  302SOL    HW2 1239   1.539   0.606   2.920
  303SOL     OW 1240   1.857   0.833   2.239
  303SOL    HW1 1241   1.899   0.769   2.303
  303SOL    HW2 1242   1.819   0.782   2.161
  304SOL     OW 1243   0.488   1.385   2.036
  304SOL    HW1 1244   0.401   1.370   2.083
  304SOL    HW2 1245   0.471   1.411   1.941
  305SOL     OW 1246   1.664   1.280   2.519
  305SOL    HW1 1247   1.763   1.288   2.533
  305SOL    HW2 1248   1.619   1.364   2.550
  306SOL     OW 1249   1.390   0.575   1.940
  306SOL    HW1 1250   1.336   0.554   2.021
  306SOL    HW2 1251   1.481   0.534   1.949
  307SOL     OW 1252   0.527   0.256   2.190
  307SOL    HW1 1253   0.554   0.197   2.115
  307SOL    HW2 1254   0.527   0.351   2.159
  308SOL     OW 1255   1.754   1.223   3.450
  308SOL    HW1 1256   1.845   1.184   3.437
  308SOL    HW2 1257   1.762   1.319   3.474
  309SOL     OW 1258   1.064   1.347   3.202
  309SOL    HW1 1259   0.984   1.324   3.257
  309SOL    HW2 1260   1.147   1.321   3.251
  310SOL     OW 1261   1.592   1.629   3.487
  310SOL    HW1 1262   1.619   1.663   3.397
  310SOL    HW2 1263   1.671   1.591   3.533
  311SOL     OW 1264   1.111   1.195   2.962
  311SOL    HW1 1265   1.071   1.239   3.043
  311SOL    HW2 1266   1.070   1.232   2.879
  312SOL     OW 1267   1.638   1.099   2.941
  312SOL    HW1 1268   1.643   1.180   3.000
  312SOL    HW2 1269   1.552   1.101   2.890
  313SOL     OW 1270   0.915   0.089   3.264
  313SOL    HW1 1271   0.940   0.069   3.169
  313SOL    HW2 1272   0.987   0.145   3.306
  314SOL     OW 1273   0.980   1.116   3.581
  314SOL    HW1 1274   0.881   1.122   3.591
  314SOL    HW2 1275   1.003   1.036   3.525
  315SOL     OW 1276   0.705   1.050   2.230
  315SOL    HW1 1277   0.691   1.057   2.329
  315SOL    HW2 1278   0.789   0.999   2.212
  316SOL     OW 1279   0.410   0.813   3.113
  316SOL    HW1 1280   0.496   0.825   3.163
  316SOL    HW2 1281   0.368   0.726   3.140
  317SOL     OW 1282   1.274   0.386   3.124
  317SOL    HW1 1283   1.295   0.460   3.188
  317SOL    HW2 1284   1.185   0.403   3.081
  318SOL     OW 1285   0.064   1.564   3.193
  318SOL    HW1 1286   0.018   1.646   3.159
  318SOL    HW2 1287   0.162   1.583   3.202
  319SOL     OW 1288   0.367   1.100   2.363
  319SOL    HW1 1289   0.360   1.183   2.307
  319SOL    HW2 1290   0.371   1.020   2.303
  320SOL     OW 1291   0.566   0.537   2.727
  320SOL    HW1 1292   0.578   0.603   2.653
  320SOL    HW2 1293   0.612   0.571   2.810
  321SOL     OW 1294   1.252   1.348   2.250
  321SOL    HW1 1295   1.302   1.425   2.290
  321SOL    HW2 1296   1.157   1.350   2.282
  322SOL     OW 1297   1.272   1.445   3.004
  322SOL    HW1 1298   1.319   1.458   3.091
  322SOL    HW2 1299   1.206   1.371   3.013
  323SOL     OW 1300   1.582   0.639   2.334
  323SOL    HW1 1301   1.551   0.700   2.407
  323SOL    HW2 1302   1.632   0.691   2.265
  324SOL     OW 1303   0.354   1.510   3.191
  324SOL    HW1 1304   0.333   1.466   3.104
  324SOL    HW2 1305   0.451   1.536   3.194
  325SOL     OW 1306   0.402   0.751   3.460
  325SOL    HW1 1307   0.470   0.806   3.413
  325SOL    HW2 1308   0.442   0.663   3.487
  326SOL     OW 1309   1.587   0.779   3.532
  326SOL    HW1 1310   1.495   0.817   3.527
  326SOL    HW2 1311   1.647   0.826   3.467
  327SOL     OW 1312   1.013   0.105   3.632
  327SOL    HW1 1313   1.019   0.190   3.580
  327SOL    HW2 1314   1.045   0.029   3.575
  328SOL     OW 1315   0.504   0.050   3.602
  328SOL    HW1 1316   0.462  -0.007   3.532
  328SOL    HW2 1317   0.438   0.119   3.634
  329SOL     OW 1318   0.573   0.870   2.891
  329SOL    HW1 1319   0.617   0.959   2.882
  329SOL    HW2 1320   0.510   0.870   2.968
  330SOL     OW 1321   1.360   0.862   2.907
  330SOL    HW1 1322   1.285   0.862   2.841
  330SOL    HW2 1323   1.397   0.770   2.916
  331SOL     OW 1324   1.209   0.525   2.137
  331SOL    HW1 1325   1.222   0.441   2.191
  331SOL    HW2 1326   1.180   0.599   2.197
  332SOL     OW 1327   0.307   0.213   3.093
  332SOL    HW1 1328   0.284   0.250   3.183
  332SOL    HW2 1329   0.277   0.118   3.087
  333SOL     OW 1330   0.037   1.310   3.144
  333SOL    HW1 1331   0.090   1.261   3.212
  333SOL    HW2 1332   0.059   1.408   3.149
  334SOL     OW 1333   0.732   0.634   2.926
  334SOL    HW1 1334   0.791   0.608   2.850
  334SOL    HW2 1335   0.704   0.730   2.915
  335SOL     OW 1336   1.728   0.935   3.716
  335SOL    HW1 1337   1.682   0.928   3.627
  335SOL    HW2 1338   1.666   0.979   3.782
  336SOL     OW 1339   0.307   0.063   2.480
  336SOL    HW1 1340   0.296   0.157   2.513
  336SOL    HW2 1341   0.302   0.000   2.557
  337SOL     OW 1342   1.622   0.367   2.236
  337SOL    HW1 1343   1.624   0.291   2.300
  337SOL    HW2 1344   1.574   0.444   2.276
  338SOL     OW 1345   1.023   0.766   2.828
  338SOL    HW1 1346   1.038   0.787   2.924
  338SOL    HW2 1347   0.993   0.671   2.819
  339SOL     OW 1348   0.980   1.573   3.562
  339SOL    HW1 1349   0.960   1.617   3.474
  339SOL    HW2 1350   1.019   1.482   3.546
  340SOL     OW 1351   1.859   1.518   3.467
  340SOL    HW1 1352   1.873   1.545   3.372
  340SOL    HW2 1353   1.942   1.540   3.520
  341SOL     OW 1354   0.350   0.898   3.666
  341SOL    HW1 1355   0.426   0.942   3.714
  341SOL    HW2 1356   0.385   0.851   3.584
  342SOL     OW 1357   1.540   0.274   1.987
  342SOL    HW1 1358   1.479   0.199   2.010
  342SOL    HW2 1359   1.562   0.326   2.070
  343SOL     OW 1360   1.303   0.838   1.904
  343SOL    HW1 1361   1.337   0.745   1.919
  343SOL    HW2 1362   1.321   0.865   1.809
  344SOL     OW 1363   1.068   1.333   2.711
  344SOL    HW1 1364   1.075   1.249   2.656
  344SOL    HW2 1365   1.130   1.402   2.675
  345SOL     OW 1366   0.319   0.810   2.811
  345SOL    HW1 1367   0.412   0.846   2.816
  345SOL    HW2 1368   0.313   0.725   2.863
  346SOL     OW 1369   0.339   0.509   2.868
  346SOL    HW1 1370   0.287   0.426   2.851
  346SOL    HW2 1371   0.416   0.514   2.804
  347SOL     OW 1372   1.138   0.380   3.540
  347SOL    HW1 1373   1.093   0.443   3.604
  347SOL    HW2 1374   1.231   0.411   3.523
  348SOL     OW 1375   1.160   0.207   3.339
  348SOL    HW1 1376   1.160   0.271   3.416
  348SOL    HW2 1377   1.188   0.255   3.256
  349SOL     OW 1378   0.008   1.326   2.062
  349SOL    HW1 1379  -0.085   1.347   2.031
  349SOL    HW2 1380   0.018   1.227   2.075
  350SOL     OW 1381   0.088   1.801   2.789
  350SOL    HW1 1382   0.046   1.715   2.762
  350SOL    HW2 1383   0.182   1.804   2.755
  351SOL     OW 1384   0.504   1.568   2.772
  351SOL    HW1 1385   0.570   1.642   2.781
  351SOL    HW2 1386   0.548   1.489   2.730
  352SOL     OW 1387   1.002   0.796   3.100
  352SOL    HW1 1388   1.043   0.764   3.186
  352SOL    HW2 1389   0.906   0.769   3.097
  353SOL     OW 1390   0.040   0.544   2.976
  353SOL    HW1 1391   0.125   0.511   2.935
  353SOL    HW2 1392   0.053   0.559   3.074
  354SOL     OW 1393   0.189   0.520   3.584
  354SOL    HW1 1394   0.248   0.480   3.514
  354SOL    HW2 1395   0.131   0.591   3.543
  355SOL     OW 1396   1.369   0.950   3.522
  355SOL    HW1 1397   1.408   1.039   3.542
  355SOL    HW2 1398   1.379   0.930   3.425
  356SOL     OW 1399   0.815   0.572   2.187
  356SOL    HW1 1400   0.822   0.483   2.141
  356SOL    HW2 1401   0.721   0.606   2.179
  357SOL     OW 1402   1.657   0.604   3.068
  357SOL    HW1 1403   1.619   0.535   3.130
  357SOL    HW2 1404   1.739   0.568   3.024
  358SOL     OW 1405   0.252   1.564   3.606
  358SOL    HW1 1406   0.222   1.621   3.682
  358SOL    HW2 1407   0.245   1.467   3.632
  359SOL     OW 1408   0.671   0.464   3.131
  359SOL    HW1 1409   0.637   0.375   3.101
  359SOL    HW2 1410   0.697   0.518   3.051
  360SOL     OW 1411   0.930   1.678   3.327
  360SOL    HW1 1412   0.906   1.660   3.232
  360SOL    HW2 1413   0.960   1.772   3.337
  361SOL     OW 1414   0.473   0.500   2.053
  361SOL    HW1 1415   0.534   0.580   2.057
  361SOL    HW2 1416   0.378   0.531   2.060
  362SOL     OW 1417   0.159   1.137   3.328
  362SOL    HW1 1418   0.181   1.076   3.404
  362SOL    HW2 1419   0.169   1.088   3.242
  363SOL     OW 1420   1.347   1.059   3.096
  363SOL    HW1 1421   1.371   0.996   3.022
  363SOL    HW2 1422   1.257   1.099   3.078
  364SOL     OW 1423   1.302   0.855   2.171
  364SOL    HW1 1424   1.216   0.824   2.213
  364SOL    HW2 1425   1.298   0.841   2.072
  365SOL     OW 1426   1.759   1.747   3.016
  365SOL    HW1 1427   1.820   1.777   2.943
  365SOL    HW2 1428   1.721   1.658   2.994
  366SOL     OW 1429   1.252   1.731   2.990
  366SOL    HW1 1430   1.336   1.736   2.936
  366SOL    HW2 1431   1.229   1.635   3.008
  367SOL     OW 1432   0.083   1.258   2.884
  367SOL    HW1 1433   0.078   1.257   2.984
  367SOL    HW2 1434   0.000   1.217   2.846
  368SOL     OW 1435   0.688   1.662   3.578
  368SOL    HW1 1436   0.632   1.743   3.587
  368SOL    HW2 1437   0.740   1.666   3.492
  369SOL     OW 1438   1.726   0.135   2.385
  369SOL    HW1 1439   1.799   0.118   2.318
  369SOL    HW2 1440   1.695   0.048   2.423
  370SOL     OW 1441   1.388   1.573   2.339
  370SOL    HW1 1442   1.455   1.585   2.265
  370SOL    HW2 1443   1.348   1.662   2.362
  371SOL     OW 1444   0.130   1.794   3.713
  371SOL    HW1 1445   0.089   1.720   3.766
  371SOL    HW2 1446   0.194   1.845   3.771
  372SOL     OW 1447   1.280   0.927   2.534
  372SOL    HW1 1448   1.340   0.846   2.536
  372SOL    HW2 1449   1.320   0.996   2.474
  373SOL     OW 1450   0.830   1.273   3.284
  373SOL    HW1 1451   0.825   1.306   3.379
  373SOL    HW2 1452   0.744   1.292   3.238
  374SOL     OW 1453   0.672   1.616   2.016
  374SOL    HW1 1454   0.681   1.626   1.917
  374SOL    HW2 1455   0.632   1.527   2.037
  375SOL     OW 1456   1.650   1.720   3.256
  375SOL    HW1 1457   1.703   1.730   3.172
  375SOL    HW2 1458   1.623   1.810   3.290
  376SOL     OW 1459   1.841   0.175   2.825
  376SOL    HW1 1460   1.880   0.090   2.789
  376SOL    HW2 1461   1.743   0.177   2.806
  377SOL     OW 1462   0.263   0.326   2.582
  377SOL    HW1 1463   0.184   0.377   2.548
  377SOL    HW2 1464   0.254   0.311   2.680
  378SOL     OW 1465   1.194   1.612   1.893
  378SOL    HW1 1466   1.200   1.519   1.930
  378SOL    HW2 1467   1.135   1.612   1.813
  379SOL     OW 1468   0.822   1.002   3.234
  379SOL    HW1 1469   0.862   1.001   3.142
  379SOL    HW2 1470   0.832   1.094   3.274
  380SOL     OW 1471   0.916   0.910   2.153
  380SOL    HW1 1472   0.979   0.948   2.085
  380SOL    HW2 1473   0.956   0.827   2.192
  381SOL     OW 1474   1.504   1.607   1.906
  381SOL    HW1 1475   1.412   1.644   1.913
  381SOL    HW2 1476   1.542   1.627   1.816
  382SOL     OW 1477   0.372   1.288   3.352
  382SOL    HW1 1478   0.359   1.381   3.318
  382SOL    HW2 1479   0.288   1.236   3.339
  383SOL     OW 1480   1.614   1.292   3.151
  383SOL    HW1 1481   1.674   1.295   3.231
  383SOL    HW2 1482   1.539   1.356   3.164
  384SOL     OW 1483   1.039   1.098   2.558
  384SOL    HW1 1484   0.969   1.051   2.612
  384SOL    HW2 1485   1.098   1.030   2.515
  385SOL     OW 1486   1.014   0.236   2.833
  385SOL    HW1 1487   1.006   0.200   2.740
  385SOL    HW2 1488   1.012   0.160   2.898
  386SOL     OW 1489   0.590   1.487   2.353
  386SOL    HW1 1490   0.632   1.429   2.283
  386SOL    HW2 1491   0.546   1.566   2.309
  387SOL     OW 1492   1.709   0.385   3.243
  387SOL    HW1 1493   1.782   0.454   3.247
  387SOL    HW2 1494   1.737   0.310   3.184
  388SOL     OW 1495   0.255   1.348   2.152
  388SOL    HW1 1496   0.159   1.349   2.125
  388SOL    HW2 1497   0.267   1.401   2.236
  389SOL     OW 1498   0.105   1.013   3.588
  389SOL    HW1 1499   0.028   0.980   3.642
  389SOL    HW2 1500   0.190   0.983   3.630
  390SOL     OW 1501   0.672   0.203   3.351
  390SOL    HW1 1502   0.762   0.187   3.311
  390SOL    HW2 1503   0.680   0.208   3.450
  391SOL     OW 1504   0.075   0.345   1.895
  391SOL    HW1 1505  -0.017   0.317   1.866
  391SOL    HW2 1506   0.106   0.422   1.839
  392SOL     OW 1507   1.440   0.856   3.260
  392SOL    HW1 1508   1.383   0.908   3.197
  392SOL    HW2 1509   1.536   0.868   3.236
  393SOL     OW 1510   0.072   0.166   2.180
  393SOL    HW1 1511   0.055   0.249   2.126
  393SOL    HW2 1512   0.162   0.129   2.158
  394SOL     OW 1513   1.183   1.335   1.981
  394SOL    HW1 1514   1.084   1.324   1.983
  394SOL    HW2 1515   1.217   1.350   2.074
  395SOL     OW 1516   0.613   0.842   3.293
  395SOL    HW1 1517   0.669   0.923   3.276
  395SOL    HW2 1518   0.672   0.762   3.296
  396SOL     OW 1519   1.493   1.767   2.821
  396SOL    HW1 1520   1.526   1.831   2.752
  396SOL    HW2 1521   1.559   1.761   2.896
  397SOL     OW 1522   0.716   0.565   3.570
  397SOL    HW1 1523   0.735   0.630   3.644
  397SOL    HW2 1524   0.776   0.485   3.579
  398SOL     OW 1525   1.450   1.220   3.495
  398SOL    HW1 1526   1.441   1.210   3.594
  398SOL    HW2 1527   1.546   1.213   3.469
  399SOL     OW 1528   0.390   1.741   3.422
  399SOL    HW1 1529   0.299   1.782   3.420
  399SOL    HW2 1530   0.383   1.647   3.454
  400SOL     OW 1531   1.674   0.883   3.116
  400SOL    HW1 1532   1.647   0.794   3.079
  400SOL    HW2 1533   1.675   0.951   3.043
  401SOL     OW 1534   1.225   0.325   2.311
  401SOL    HW1 1535   1.290   0.251   2.300
  401SOL    HW2 1536   1.245   0.375   2.395
  402SOL     OW 1537   0.594   0.745   2.514
  402SOL    HW1 1538   0.644   0.830   2.495
  402SOL    HW2 1539   0.506   0.747   2.466
  403SOL     OW 1540   1.777   0.342   3.504
  403SOL    HW1 1541   1.760   0.373   3.410
  403SOL    HW2 1542   1.693   0.305   3.542
  404SOL     OW 1543   1.730   0.934   3.379
  404SOL    HW1 1544   1.768   1.025   3.394
  404SOL    HW2 1545   1.722   0.917   3.280
  405SOL     OW 1546   0.859   1.374   1.878
  405SOL    HW1 1547   0.813   1.389   1.966
  405SOL    HW2 1548   0.903   1.459   1.848
  406SOL     OW 1549   0.661   1.790   2.815
  406SOL    HW1 1550   0.615   1.878   2.802
  406SOL    HW2 1551   0.760   1.802   2.808
  407SOL     OW 1552   0.859   0.956   2.723
  407SOL    HW1 1553   0.913   0.887   2.771
  407SOL    HW2 1554   0.827   1.025   2.789
  408SOL     OW 1555   1.083   0.984   1.949
  408SOL    HW1 1556   1.060   1.037   1.867
  408SOL    HW2 1557   1.164   0.928   1.930
  409SOL     OW 1558   1.861   1.569   2.713
  409SOL    HW1 1559   1.790   1.557   2.643
  409SOL    HW2 1560   1.862   1.490   2.773
  410SOL     OW 1561   0.221   1.314   3.706
  410SOL    HW1 1562   0.156   1.241   3.685
  410SOL    HW2 1563   0.225   1.328   3.804
  411SOL     OW 1564   0.079   1.240   2.515
  411SOL    HW1 1565   0.078   1.193   2.603
  411SOL    HW2 1566   0.161   1.212   2.464
  412SOL     OW 1567   0.672   1.391   3.486
  412SOL    HW1 1568   0.594   1.341   3.524
  412SOL    HW2 1569   0.669   1.486   3.517
  413SOL     OW 1570   1.824   0.192   3.089
  413SOL    HW1 1571   1.820   0.102   3.133
  413SOL    HW2 1572   1.827   0.181   2.990
  414SOL     OW 1573   0.428   0.424   2.382
  414SOL    HW1 1574   0.458   0.352   2.320
  414SOL    HW2 1575   0.389   0.384   2.465
  415SOL     OW 1576   1.705   1.487   2.966
  415SOL    HW1 1577   1.612   1.462   2.939
  415SOL    HW2 1578   1.731   1.437   3.048
  416SOL     OW 1579   0.317   0.547   3.142
  416SOL    HW1 1580   0.355   0.488   3.214
  416SOL    HW2 1581   0.357   0.521   3.054
  417SOL     OW 1582   0.812   1.586   2.549
  417SOL    HW1 1583   0.844   1.596   2.455
  417SOL    HW2 1584   0.733   1.524   2.551
  418SOL     OW 1585   1.424   0.214   2.974
  418SOL    HW1 1586   1.476   0.149   3.029
  418SOL    HW2 1587   1.375   0.277   3.035
  419SOL     OW 1588   1.001   0.034   3.016
  419SOL    HW1 1589   0.938  -0.038   2.985
  419SOL    HW2 1590   1.094  -0.002   3.016
  420SOL     OW 1591   0.770   1.330   2.163
  420SOL    HW1 1592   0.724   1.243   2.180
  420SOL    HW2 1593   0.861   1.327   2.204
  421SOL     OW 1594   0.618   1.567   3.146
  421SOL    HW1 1595   0.613   1.649   3.203
  421SOL    HW2 1596   0.707   1.564   3.101
  422SOL     OW 1597   1.352   0.052   2.030
  422SOL    HW1 1598   1.387   0.011   1.946
  422SOL    HW2 1599   1.262   0.014   2.050
  423SOL     OW 1600   1.300   0.453   2.553
  423SOL    HW1 1601   1.241   0.533   2.557
  423SOL    HW2 1602   1.315   0.418   2.646
  424SOL     OW 1603   1.593   0.221   2.744
  424SOL    HW1 1604   1.509   0.220   2.798
  424SOL    HW2 1605   1.595   0.304   2.688
  425SOL     OW 1606   0.039   1.077   2.162
  425SOL    HW1 1607   0.138   1.066   2.153
  425SOL    HW2 1608  -0.001   0.991   2.194
  426SOL     OW 1609   0.875   1.646   2.199
  426SOL    HW1 1610   0.798   1.611   2.145
  426SOL    HW2 1611   0.843   1.717   2.261
  427SOL     OW 1612   0.230   0.628   3.837
  427SOL    HW1 1613   0.137   0.626   3.874
  427SOL    HW2 1614   0.231   0.589   3.745
  428SOL     OW 1615   0.225   0.275   4.720
  428SOL    HW1 1616   0.260   0.258   4.812
  428SOL    HW2 1617   0.137   0.230   4.708
  429SOL     OW 1618   0.019   0.368   4.371
  429SOL    HW1 1619  -0.063   0.411   4.410
  429SOL    HW2 1620  -0.009   0.295   4.308
  430SOL     OW 1621   0.569   1.275   4.889
  430SOL    HW1 1622   0.476   1.268   4.852
  430SOL    HW2 1623   0.580   1.364   4.933
  431SOL     OW 1624   1.555   1.511   4.427
  431SOL    HW1 1625   1.498   1.495   4.508
  431SOL    HW2 1626   1.496   1.521   4.347
  432SOL     OW 1627   1.135   0.703   4.441
  432SOL    HW1 1628   1.192   0.781   4.416
  432SOL    HW2 1629   1.075   0.729   4.517
  433SOL     OW 1630   1.755   0.607   3.955
  433SOL    HW1 1631   1.743   0.594   3.856
  433SOL    HW2 1632   1.725   0.526   4.004
  434SOL     OW 1633   0.768   1.144   4.747
  434SOL    HW1 1634   0.690   1.161   4.807
  434SOL    HW2 1635   0.802   1.231   4.711
  435SOL     OW 1636   0.850   0.798   5.547
  435SOL    HW1 1637   0.846   0.874   5.612
  435SOL    HW2 1638   0.872   0.834   5.456
  436SOL     OW 1639   0.685   1.012   4.389
  436SOL    HW1 1640   0.754   0.996   4.459
  436SOL    HW2 1641   0.612   1.069   4.427
  437SOL     OW 1642   0.686   1.161   5.527
  437SOL    HW1 1643   0.746   1.240   5.541
  437SOL    HW2 1644   0.600   1.192   5.486
  438SOL     OW 1645   0.335   1.435   4.785
  438SOL    HW1 1646   0.257   1.404   4.732
  438SOL    HW2 1647   0.393   1.493   4.728
  439SOL     OW 1648   1.460   1.505   5.063
  439SOL    HW1 1649   1.484   1.599   5.089
  439SOL    HW2 1650   1.444   1.451   5.145
  440SOL     OW 1651   0.438   0.392   5.223
  440SOL    HW1 1652   0.520   0.336   5.232
  440SOL    HW2 1653   0.357   0.334   5.227
  441SOL     OW 1654   1.603   0.447   4.461
  441SOL    HW1 1655   1.529   0.493   4.411
  441SOL    HW2 1656   1.654   0.515   4.514
  442SOL     OW 1657   0.231   1.713   4.207
  442SOL    HW1 1658   0.265   1.790   4.261
  442SOL    HW2 1659   0.275   1.713   4.117
  443SOL     OW 1660   1.127   1.341   5.414
  443SOL    HW1 1661   1.174   1.341   5.502
  443SOL    HW2 1662   1.079   1.254   5.403
  444SOL     OW 1663   0.230   1.434   4.262
  444SOL    HW1 1664   0.204   1.530   4.262
  444SOL    HW2 1665   0.159   1.380   4.307
  445SOL     OW 1666   0.240   1.091   4.610
  445SOL    HW1 1667   0.254   1.007   4.662
  445SOL    HW2 1668   0.185   1.155   4.665
  446SOL     OW 1669   0.620   1.786   5.163
  446SOL    HW1 1670   0.528   1.769   5.198
  446SOL    HW2 1671   0.648   1.878   5.189
  447SOL     OW 1672   0.606   0.964   3.847
  447SOL    HW1 1673   0.613   1.048   3.793
  447SOL    HW2 1674   0.652   0.977   3.935
  448SOL     OW 1675   1.594   0.114   5.204
  448SOL    HW1 1676   1.576   0.181   5.132
  448SOL    HW2 1677   1.591   0.160   5.293
  449SOL     OW 1678   0.122   0.643   4.287
  449SOL    HW1 1679   0.077   0.555   4.304
  449SOL    HW2 1680   0.121   0.697   4.371
  450SOL     OW 1681   1.842   1.767   4.083
  450SOL    HW1 1682   1.896   1.738   4.163
  450SOL    HW2 1683   1.872   1.857   4.054
  451SOL     OW 1684   0.027   1.596   3.841
  451SOL    HW1 1685   0.008   1.500   3.862
  451SOL    HW2 1686  -0.006   1.654   3.916
  452SOL     OW 1687   1.689   0.922   4.336
  452SOL    HW1 1688   1.784   0.893   4.344
  452SOL    HW2 1689   1.681   0.987   4.261
  453SOL     OW 1690   1.641   1.108   4.156
  453SOL    HW1 1691   1.727   1.110   4.104
  453SOL    HW2 1692   1.655   1.155   4.244
  454SOL     OW 1693   0.113   0.737   5.321
  454SOL    HW1 1694   0.201   0.724   5.366
  454SOL    HW2 1695   0.100   0.834   5.299
  455SOL     OW 1696   0.613   1.365   4.450
  455SOL    HW1 1697   0.564   1.278   4.459
  455SOL    HW2 1698   0.590   1.408   4.363
  456SOL     OW 1699   1.293   1.228   5.147
  456SOL    HW1 1700   1.330   1.155   5.089
  456SOL    HW2 1701   1.345   1.233   5.232
  457SOL     OW 1702   0.809   0.004   4.226
  457SOL    HW1 1703   0.849   0.095   4.217
  457SOL    HW2 1704   0.709   0.012   4.232
  458SOL     OW 1705   0.197   0.976   4.988
  458SOL    HW1 1706   0.286   0.931   4.974
  458SOL    HW2 1707   0.124   0.911   4.969
  459SOL     OW 1708   1.525   0.999   3.914
  459SOL    HW1 1709   1.462   0.923   3.927
  459SOL    HW2 1710   1.573   1.017   4.000
  460SOL     OW 1711   1.187   1.792   5.340
  460SOL    HW1 1712   1.211   1.852   5.264
  460SOL    HW2 1713   1.194   1.697   5.310
  461SOL     OW 1714   0.317   0.251   5.525
  461SOL    HW1 1715   0.388   0.322   5.531
  461SOL    HW2 1716   0.229   0.290   5.553
  462SOL     OW 1717   1.466   1.417   4.677
  462SOL    HW1 1718   1.407   1.423   4.757
  462SOL    HW2 1719   1.451   1.329   4.631
  463SOL     OW 1720   1.667   1.714   4.296
  463SOL    HW1 1721   1.626   1.691   4.208
  463SOL    HW2 1722   1.649   1.640   4.361
  464SOL     OW 1723   0.598   0.729   3.994
  464SOL    HW1 1724   0.622   0.798   3.926
  464SOL    HW2 1725   0.520   0.762   4.048
  465SOL     OW 1726   1.281   0.345   4.668
  465SOL    HW1 1727   1.195   0.295   4.655
  465SOL    HW2 1728   1.343   0.291   4.724
  466SOL     OW 1729   1.576   1.662   4.031
  466SOL    HW1 1730   1.665   1.708   4.034
  466SOL    HW2 1731   1.555   1.638   3.936
  467SOL     OW 1732   0.807   0.605   5.189
  467SOL    HW1 1733   0.760   0.602   5.278
  467SOL    HW2 1734   0.756   0.550   5.123
  468SOL     OW 1735   1.394   0.469   5.398
  468SOL    HW1 1736   1.374   0.512   5.486
  468SOL    HW2 1737   1.472   0.407   5.407
  469SOL     OW 1738   0.973   0.890   5.296
  469SOL    HW1 1739   1.019   0.806   5.267
  469SOL    HW2 1740   0.917   0.924   5.221
  470SOL     OW 1741   0.991   0.410   4.966
  470SOL    HW1 1742   0.914   0.444   5.020
  470SOL    HW2 1743   0.957   0.359   4.887
  471SOL     OW 1744   1.041   0.701   4.153
  471SOL    HW1 1745   1.067   0.697   4.249
  471SOL    HW2 1746   0.956   0.650   4.139
  472SOL     OW 1747   0.076   0.811   4.513
  472SOL    HW1 1748   0.175   0.799   4.522
  472SOL    HW2 1749   0.052   0.906   4.534
  473SOL     OW 1750   0.130   1.821   5.295
  473SOL    HW1 1751   0.120   1.806   5.394
  473SOL    HW2 1752   0.044   1.857   5.259
  474SOL     OW 1753   0.865   0.348   3.919
  474SOL    HW1 1754   0.924   0.411   3.870
  474SOL    HW2 1755   0.884   0.254   3.890
  475SOL     OW 1756   1.719   0.585   5.555
  475SOL    HW1 1757   1.693   0.674   5.519
  475SOL    HW2 1758   1.717   0.517   5.482
  476SOL     OW 1759   1.362   1.144   4.269
  476SOL    HW1 1760   1.445   1.115   4.221
  476SOL    HW2 1761   1.313   1.211   4.213
  477SOL     OW 1762   0.550   0.196   4.609
  477SOL    HW1 1763   0.545   0.191   4.709
  477SOL    HW2 1764   0.552   0.292   4.580
  478SOL     OW 1765   1.008   1.456   4.201
  478SOL    HW1 1766   0.962   1.528   4.149
  478SOL    HW2 1767   1.004   1.476   4.299
  479SOL     OW 1768   0.351   1.801   4.577
  479SOL    HW1 1769   0.401   1.715   4.583
  479SOL    HW2 1770   0.416   1.878   4.574
  480SOL     OW 1771   1.795   1.066   4.597
  480SOL    HW1 1772   1.733   1.051   4.521
  480SOL    HW2 1773   1.743   1.077   4.682
  481SOL     OW 1774   1.227   1.550   5.230
  481SOL    HW1 1775   1.233   1.473   5.294
  481SOL    HW2 1776   1.175   1.524   5.150
  482SOL     OW 1777   0.321   0.943   3.966
  482SOL    HW1 1778   0.403   0.982   3.924
  482SOL    HW2 1779   0.294   0.861   3.917
  483SOL     OW 1780   1.458   0.735   4.452
  483SOL    HW1 1781   1.453   0.670   4.527
  483SOL    HW2 1782   1.538   0.794   4.465
  484SOL     OW 1783   0.461   1.266   5.451
  484SOL    HW1 1784   0.411   1.267   5.365
  484SOL    HW2 1785   0.398   1.248   5.527
  485SOL     OW 1786   1.111   1.776   3.961
  485SOL    HW1 1787   1.051   1.714   4.011
  485SOL    HW2 1788   1.142   1.732   3.876
  486SOL     OW 1789   0.202   0.285   5.222
  486SOL    HW1 1790   0.122   0.345   5.209
  486SOL    HW2 1791   0.192   0.236   5.308
  487SOL     OW 1792   1.632   1.377   3.805
  487SOL    HW1 1793   1.600   1.471   3.795
  487SOL    HW2 1794   1.556   1.314   3.793
  488SOL     OW 1795   0.464   1.743   4.047
  488SOL    HW1 1796   0.497   1.782   4.133
  488SOL    HW2 1797   0.540   1.736   3.982
  489SOL     OW 1798   1.400   0.107   4.150
  489SOL    HW1 1799   1.376   0.070   4.060
  489SOL    HW2 1800   1.499   0.123   4.154
  490SOL     OW 1801   0.249   1.785   4.965
  490SOL    HW1 1802   0.306   1.720   5.015
  490SOL    HW2 1803   0.233   1.752   4.872
  491SOL     OW 1804   0.940   1.698   4.628
  491SOL    HW1 1805   1.020   1.641   4.649
  491SOL    HW2 1806   0.891   1.658   4.551
  492SOL     OW 1807   0.382   0.700   4.204
  492SOL    HW1 1808   0.427   0.610   4.201
  492SOL    HW2 1809   0.288   0.689   4.237
  493SOL     OW 1810   1.547   0.222   5.453
  493SOL    HW1 1811   1.542   0.259   5.545
  493SOL    HW2 1812   1.475   0.153   5.441
  494SOL     OW 1813   0.614   0.122   3.841
  494SOL    HW1 1814   0.712   0.100   3.848
  494SOL    HW2 1815   0.583   0.105   3.748
  495SOL     OW 1816   0.781   0.264   5.473
  495SOL    HW1 1817   0.848   0.203   5.516
  495SOL    HW2 1818   0.708   0.283   5.538
  496SOL     OW 1819   0.888   1.514   4.919
  496SOL    HW1 1820   0.865   1.489   4.825
  496SOL    HW2 1821   0.949   1.445   4.958
  497SOL     OW 1822   1.351   0.590   5.157
  497SOL    HW1 1823   1.379   0.547   5.242
  497SOL    HW2 1824   1.376   0.686   5.158
  498SOL     OW 1825   0.803   1.402   4.648
  498SOL    HW1 1826   0.893   1.416   4.606
  498SOL    HW2 1827   0.732   1.404   4.577
  499SOL     OW 1828   0.922   0.503   4.623
  499SOL    HW1 1829   0.897   0.494   4.527
  499SOL    HW2 1830   0.970   0.421   4.654
  500SOL     OW 1831   0.539   0.064   4.236
  500SOL    HW1 1832   0.458   0.065   4.294
  500SOL    HW2 1833   0.542   0.147   4.181
  501SOL     OW 1834   1.434   1.188   3.765
  501SOL    HW1 1835   1.466   1.112   3.822
  501SOL    HW2 1836   1.342   1.215   3.795
  502SOL     OW 1837   0.297   0.035   3.895
  502SOL    HW1 1838   0.346   0.119   3.874
  502SOL    HW2 1839   0.359  -0.030   3.940
  503SOL     OW 1840   0.935   0.236   4.204
  503SOL    HW1 1841   0.887   0.277   4.126
  503SOL    HW2 1842   1.034   0.234   4.185
  504SOL     OW 1843   1.076   0.683   5.188
  504SOL    HW1 1844   0.996   0.622   5.191
  504SOL    HW2 1845   1.157   0.630   5.164
  505SOL     OW 1846   1.227   1.570   4.517
  505SOL    HW1 1847   1.248   1.644   4.452
  505SOL    HW2 1848   1.295   1.570   4.590
  506SOL     OW 1849   0.459   1.152   4.465
  506SOL    HW1 1850   0.388   1.125   4.530
  506SOL    HW2 1851   0.433   1.124   4.372
  507SOL     OW 1852   1.271   1.797   4.315
  507SOL    HW1 1853   1.315   1.861   4.251
  507SOL    HW2 1854   1.221   1.849   4.385
  508SOL     OW 1855   1.032   0.549   3.740
  508SOL    HW1 1856   0.991   0.631   3.701
  508SOL    HW2 1857   1.096   0.575   3.813
  509SOL     OW 1858   0.078   0.556   5.110
  509SOL    HW1 1859   0.170   0.555   5.069
  509SOL    HW2 1860   0.072   0.630   5.177
  510SOL     OW 1861   0.561   0.222   4.871
  510SOL    HW1 1862   0.599   0.138   4.908
  510SOL    HW2 1863   0.473   0.241   4.915
  511SOL     OW 1864   0.866   0.454   4.366
  511SOL    HW1 1865   0.834   0.526   4.304
  511SOL    HW2 1866   0.890   0.373   4.313
  512SOL     OW 1867   1.017   0.039   4.477
  512SOL    HW1 1868   0.945   0.044   4.408
  512SOL    HW2 1869   0.993  -0.030   4.546
  513SOL     OW 1870   1.429   1.173   4.591
  513SOL    HW1 1871   1.374   1.089   4.584
  513SOL    HW2 1872   1.455   1.202   4.499
  514SOL     OW 1873   1.466   0.590   4.716
  514SOL    HW1 1874   1.436   0.495   4.723
  514SOL    HW2 1875   1.539   0.606   4.782
  515SOL     OW 1876   1.857   0.833   4.101
  515SOL    HW1 1877   1.899   0.769   4.165
  515SOL    HW2 1878   1.819   0.782   4.023
  516SOL     OW 1879   0.488   1.385   3.898
  516SOL    HW1 1880   0.401   1.370   3.945
  516SOL    HW2 1881   0.471   1.411   3.803
  517SOL     OW 1882   1.664   1.280   4.381
  517SOL    HW1 1883   1.763   1.288   4.395
  517SOL    HW2 1884   1.619   1.364   4.412
  518SOL     OW 1885   1.390   0.575   3.802
  518SOL    HW1 1886   1.336   0.554   3.883
  518SOL    HW2 1887   1.481   0.534   3.811
  519SOL     OW 1888   0.527   0.256   4.052
  519SOL    HW1 1889   0.554   0.197   3.977
  519SOL    HW2 1890   0.527   0.351   4.021
  520SOL     OW 1891   1.754   1.223   5.312
  520SOL    HW1 1892   1.845   1.184   5.299
  520SOL    HW2 1893   1.762   1.319   5.336
  521SOL     OW 1894   1.064   1.347   5.064
  521SOL    HW1 1895   0.984   1.324   5.119
  521SOL    HW2 1896   1.147   1.321   5.113
  522SOL     OW 1897   1.592   1.629   5.349
  522SOL    HW1 1898   1.619   1.663   5.259
  522SOL    HW2 1899   1.671   1.591   5.395
  523SOL     OW 1900   1.111   1.195   4.824
  523SOL    HW1 1901   1.071   1.239   4.905
  523SOL    HW2 1902   1.070   1.232   4.741
  524SOL     OW 1903   1.638   1.099   4.803
  524SOL    HW1 1904   1.643   1.180   4.862
  524SOL    HW2 1905   1.552   1.101   4.752
  525SOL     OW 1906   0.915   0.089   5.126
  525SOL    HW1 1907   0.940   0.069   5.031
  525SOL    HW2 1908   0.987   0.145   5.168
  526SOL     OW 1909   0.980   1.116   5.443
  526SOL    HW1 1910   0.881   1.122   5.453
  526SOL    HW2 1911   1.003   1.036   5.387
  527SOL     OW 1912   0.705   1.050   4.092
  527SOL    HW1 1913   0.691   1.057   4.191
  527SOL    HW2 1914   0.789   0.999   4.074
  528SOL     OW 1915   0.410   0.813   4.975
  528SOL    HW1 1916   0.496   0.825   5.025
  528SOL    HW2 1917   0.368   0.726   5.002
  529SOL     OW 1918   1.274   0.386   4.986
  529SOL    HW1 1919   1.295   0.460   5.050
  529SOL    HW2 1920   1.185   0.403   4.943
  530SOL     OW 1921   0.064   1.564   5.055
  530SOL    HW1 1922   0.018   1.646   5.021
  530SOL    HW2 1923   0.162   1.583   5.064
  531SOL     OW 1924   0.367   1.100   4.225
  531SOL    HW1 1925   0.360   1.183   4.169
  531SOL    HW2 1926   0.371   1.020   4.165
  532SOL     OW 1927   0.566   0.537   4.589
  532SOL    HW1 1928   0.578   0.603   4.515
  532SOL    HW2 1929   0.612   0.571   4.672
  533SOL     OW 1930   1.252   1.348   4.112
  533SOL    HW1 1931   1.302   1.425   4.152
  533SOL    HW2 1932   1.157   1.350   4.144
  534SOL     OW 1933   1.272   1.445   4.866
  534SOL    HW1 1934   1.319   1.458   4.953
  534SOL    HW2 1935   1.206   1.371   4.875
  535SOL     OW 1936   1.582   0.639   4.196
  535SOL    HW1 1937   1.551   0.700   4.269
  535SOL    HW2 1938   1.632   0.691   4.127
  536SOL     OW 1939   0.354   1.510   5.053
  536SOL    HW1 1940   0.333   1.466   4.966
  536SOL    HW2 1941   0.451   1.536   5.056
  537SOL     OW 1942   0.402   0.751   5.322
  537SOL    HW1 1943   0.470   0.806   5.275
  537SOL    HW2 1944   0.442   0.663   5.349
  538SOL     OW 1945   1.587   0.779   5.394
  538SOL    HW1 1946   1.495   0.817   5.389
  538SOL    HW2 1947   1.647   0.826   5.329
  539SOL     OW 1948   1.013   0.105   5.494
  539SOL    HW1 1949   1.019   0.190   5.442
  539SOL    HW2 1950   1.045   0.029   5.437
  540SOL     OW 1951   0.504   0.050   5.464
  540SOL    HW1 1952   0.462  -0.007   5.394
  540SOL    HW2 1953   0.438   0.119   5.496
  541SOL     OW 1954   0.573   0.870   4.753
  541SOL    HW1 1955   0.617   0.959   4.744
  541SOL    HW2 1956   0.510   0.870   4.830
  542SOL     OW 1957   1.360   0.862   4.769
  542SOL    HW1 1958   1.285   0.862   4.703
  542SOL    HW2 1959   1.397   0.770   4.778
  543SOL     OW 1960   1.209   0.525   3.999
  543SOL    HW1 1961   1.222   0.441   4.053
  543SOL    HW2 1962   1.180   0.599   4.059
  544SOL     OW 1963   0.307   0.213   4.955
  544SOL    HW1 1964   0.284   0.250   5.045
  544SOL    HW2 1965   0.277   0.118   4.949
  545SOL     OW 1966   0.037   1.310   5.006
  545SOL    HW1 1967   0.090   1.261   5.074
  545SOL    HW2 1968   0.059   1.408   5.011
  546SOL     OW 1969   0.732   0.634   4.788
  546SOL    HW1 1970   0.791   0.608   4.712
  546SOL    HW2 1971   0.704   0.730   4.777
  547SOL     OW 1972   1.728   0.935   5.578
  547SOL    HW1 1973   1.682   0.928   5.489
  547SOL    HW2 1974   1.666   0.979   5.644
  548SOL     OW 1975   0.307   0.063   4.342
  548SOL    HW1 1976   0.296   0.157   4.375
  548SOL    HW2 1977   0.302   0.000   4.419
  549SOL     OW 1978   1.622   0.367   4.098
  549SOL    HW1 1979   1.624   0.291   4.162
  549SOL    HW2 1980   1.574   0.444   4.138
  550SOL     OW 1981   1.023   0.766   4.690
  550SOL    HW1 1982   1.038   0.787   4.786
  550SOL    HW2 1983   0.993   0.671   4.681
  551SOL     OW 1984   0.980   1.573   5.424
  551SOL    HW1 1985   0.960   1.617   5.336
  551SOL    HW2 1986   1.019   1.482   5.408
  552SOL     OW 1987   1.859   1.518   5.329
  552SOL    HW1 1988   1.873   1.545   5.234
  552SOL    HW2 1989   1.942   1.540   5.382
  553SOL     OW 1990   0.350   0.898   5.528
  553SOL    HW1 1991   0.426   0.942   5.576
  553SOL    HW2 1992   0.385   0.851   5.446
  554SOL     OW 1993   1.540   0.274   3.849
  554SOL    HW1 1994   1.479   0.199   3.872
  554SOL    HW2 1995   1.562   0.326   3.932
  555SOL     OW 1996   1.303   0.838   3.766
  555SOL    HW1 1997   1.337   0.745   3.781
  555SOL    HW2 1998   1.321   0.865   3.671
  556SOL     OW 1999   1.068   1.333   4.573
  556SOL    HW1 2000   1.075   1.249   4.518
  556SOL    HW2 2001   1.130   1.402   4.537
  557SOL     OW 2002   0.319   0.810   4.673
  557SOL    HW1 2003   0.412   0.846   4.678
  557SOL    HW2 2004   0.313   0.725   4.725
  558SOL     OW 2005   0.339   0.509   4.730
  558SOL    HW1 2006   0.287   0.426   4.713
  558SOL    HW2 2007   0.416   0.514   4.666
  559SOL     OW 2008   1.138   0.380   5.402
  559SOL    HW1 2009   1.093   0.443   5.466
  559SOL    HW2 2010   1.231   0.411   5.385
  560SOL     OW 2011   1.160   0.207   5.201
  560SOL    HW1 2012   1.160   0.271   5.278
  560SOL    HW2 2013   1.188   0.255   5.118
  561SOL     OW 2014   0.008   1.326   3.924
  561SOL    HW1 2015  -0.085   1.347   3.893
  561SOL    HW2 2016   0.018   1.227   3.937
  562SOL     OW 2017   0.088   1.801   4.651
  562SOL    HW1 2018   0.046   1.715   4.624
  562SOL    HW2 2019   0.182   1.804   4.617
  563SOL     OW 2020   0.504   1.568   4.634
  563SOL    HW1 2021   0.570   1.642   4.643
  563SOL    HW2 2022   0.548   1.489   4.592
  564SOL     OW 2023   1.002   0.796   4.962
  564SOL    HW1 2024   1.043   0.764   5.048
  564SOL    HW2 2025   0.906   0.769   4.959
  565SOL     OW 2026   0.040   0.544   4.838
  565SOL    HW1 2027   0.125   0.511   4.797
  565SOL    HW2 2028   0.053   0.559   4.936
  566SOL     OW 2029   0.189   0.520   5.446
  566SOL    HW1 2030   0.248   0.480   5.376
  566SOL    HW2 2031   0.131   0.591   5.405
  567SOL     OW 2032   1.369   0.950   5.384
  567SOL    HW1 2033   1.408   1.039   5.404
  567SOL    HW2 2034   1.379   0.930   5.287
  568SOL     OW 2035   0.815   0.572   4.049
  568SOL    HW1 2036   0.822   0.483   4.003
  568SOL    HW2 2037   0.721   0.606   4.041
  569SOL     OW 2038   1.657   0.604   4.930
  569SOL    HW1 2039   1.619   0.535   4.992
  569SOL    HW2 2040   1.739   0.568   4.886
  570SOL     OW 2041   0.252   1.564   5.468
  570SOL    HW1 2042   0.222   1.621   5.544
  570SOL    HW2 2043   0.245   1.467   5.494
  571SOL     OW 2044   0.671   0.464   4.993
  571SOL    HW1 2045   0.637   0.375   4.963
  571SOL    HW2 2046   0.697   0.518   4.913
  572SOL     OW 2047   0.930   1.678   5.189
  572SOL    HW1 2048   0.906   1.660   5.094
  572SOL    HW2 2049   0.960   1.772   5.199
  573SOL     OW 2050   0.473   0.500   3.915
  573SOL    HW1 2051   0.534   0.580   3.919
  573SOL    HW2 2052   0.378   0.531   3.922
  574SOL     OW 2053   0.159   1.137   5.190
  574SOL    HW1 2054   0.181   1.076   5.266
  574SOL    HW2 2055   0.169   1.088   5.104
  575SOL     OW 2056   1.347   1.059   4.958
  575SOL    HW1 2057   1.371   0.996   4.884
  575SOL    HW2 2058   1.257   1.099   4.940
  576SOL     OW 2059   1.302   0.855   4.033
  576SOL    HW1 2060   1.216   0.824   4.075
  576SOL    HW2 2061   1.298   0.841   3.934
  577SOL     OW 2062   1.759   1.747   4.878
  577SOL    HW1 2063   1.820   1.777   4.805
  577SOL    HW2 2064   1.721   1.658   4.856
  578SOL     OW 2065   1.252   1.731   4.852
  578SOL    HW1 2066   1.336   1.736   4.798
  578SOL    HW2 2067   1.229   1.635   4.870
  579SOL     OW 2068   0.083   1.258   4.746
  579SOL    HW1 2069   0.078   1.257   4.846
  579SOL    HW2 2070   0.000   1.217   4.708
  580SOL     OW 2071   0.688   1.662   5.440
  580SOL    HW1 2072   0.632   1.743   5.449
  580SOL    HW2 2073   0.740   1.666   5.354
  581SOL     OW 2074   1.726   0.135   4.247
  581SOL    HW1 2075   1.799   0.118   4.180
  581SOL    HW2 2076   1.695   0.048   4.285
  582SOL     OW 2077   1.388   1.573   4.201
  582SOL    HW1 2078   1.455   1.585   4.127
  582SOL    HW2 2079   1.348   1.662   4.224
  583SOL     OW 2080   0.130   1.794   5.575
  583SOL    HW1 2081   0.089   1.720   5.628
  583SOL    HW2 2082   0.194   1.845   5.633
  584SOL     OW 2083   1.280   0.927   4.396
  584SOL    HW1 2084   1.340   0.846   4.398
  584SOL    HW2 2085   1.320   0.996   4.336
  585SOL     OW 2086   0.830   1.273   5.146
  585SOL    HW1 2087   0.825   1.306   5.241
  585SOL    HW2 2088   0.744   1.292   5.100
  586SOL     OW 2089   0.672   1.616   3.878
  586SOL    HW1 2090   0.681   1.626   3.779
  586SOL    HW2 2091   0.632   1.527   3.899
  587SOL     OW 2092   1.650   1.720   5.118
  587SOL    HW1 2093   1.703   1.730   5.034
  587SOL    HW2 2094   1.623   1.810   5.152
  588SOL     OW 2095   1.841   0.175   4.687
  588SOL    HW1 2096   1.880   0.090   4.651
  588SOL    HW2 2097   1.743   0.177   4.668
  589SOL     OW 2098   0.263   0.326   4.444
  589SOL    HW1 2099   0.184   0.377   4.410
  589SOL    HW2 2100   0.254   0.311   4.542
  590SOL     OW 2101   1.194   1.612   3.755
  590SOL    HW1 2102   1.200   1.519   3.792
  590SOL    HW2 2103   1.135   1.612   3.675
  591SOL     OW 2104   0.822   1.002   5.096
  591SOL    HW1 2105   0.862   1.001   5.004
  591SOL    HW2 2106   0.832   1.094   5.136
  592SOL     OW 2107   0.916   0.910   4.015
  592SOL    HW1 2108   0.979   0.948   3.947
  592SOL    HW2 2109   0.956   0.827   4.054
  593SOL     OW 2110   1.504   1.607   3.768
  593SOL    HW1 2111   1.412   1.644   3.775
  593SOL    HW2 2112   1.542   1.627   3.678
  594SOL     OW 2113   0.372   1.288   5.214
  594SOL    HW1 2114   0.359   1.381   5.180
  594SOL    HW2 2115   0.288   1.236   5.201
  595SOL     OW 2116   1.614   1.292   5.013
  595SOL    HW1 2117   1.674   1.295   5.093
  595SOL    HW2 2118   1.539   1.356   5.026
  596SOL     OW 2119   1.039   1.098   4.420
  596SOL    HW1 2120   0.969   1.051   4.474
  596SOL    HW2 2121   1.098   1.030   4.377
  597SOL     OW 2122   1.014   0.236   4.695
  597SOL    HW1 2123   1.006   0.200   4.602
  597SOL    HW2 2124   1.012   0.160   4.760
  598SOL     OW 2125   0.590   1.487   4.215
  598SOL    HW1 2126   0.632   1.429   4.145
  598SOL    HW2 2127   0.546   1.566   4.171
  599SOL     OW 2128   1.709   0.385   5.105
  599SOL    HW1 2129   1.782   0.454   5.109
  599SOL    HW2 2130   1.737   0.310   5.046
  600SOL     OW 2131   0.255   1.348   4.014
  600SOL    HW1 2132   0.159   1.349   3.987
  600SOL    HW2 2133   0.267   1.401   4.098
  601SOL     OW 2134   0.105   1.013   5.450
  601SOL    HW1 2135   0.028   0.980   5.504
  601SOL    HW2 2136   0.190   0.983   5.492
  602SOL     OW 2137   0.672   0.203   5.213
  602SOL    HW1 2138   0.762   0.187   5.173
  602SOL    HW2 2139   0.680   0.208   5.312
  603SOL     OW 2140   0.075   0.345   3.757
  603SOL    HW1 2141  -0.017   0.317   3.728
  603SOL    HW2 2142   0.106   0.422   3.701
  604SOL     OW 2143   1.440   0.856   5.122
  604SOL    HW1 2144   1.383   0.908   5.059
  604SOL    HW2 2145   1.536   0.868   5.098
  605SOL     OW 2146   0.072   0.166   4.042
  605SOL    HW1 2147   0.055   0.249   3.988
  605SOL    HW2 2148   0.162   0.129   4.020
  606SOL     OW 2149   1.183   1.335   3.843
  606SOL    HW1 2150   1.084   1.324   3.845
  606SOL    HW2 2151   1.217   1.350   3.936
  607SOL     OW 2152   0.613   0.842   5.155
  607SOL    HW1 2153   0.669   0.923   5.138
  607SOL    HW2 2154   0.672   0.762   5.158
  608SOL     OW 2155   1.493   1.767   4.683
  608SOL    HW1 2156   1.526   1.831   4.614
  608SOL    HW2 2157   1.559   1.761   4.758
  609SOL     OW 2158   0.716   0.565   5.432
  609SOL    HW1 2159   0.735   0.630   5.506
  609SOL    HW2 2160   0.776   0.485   5.441
  610SOL     OW 2161   1.450   1.220   5.357
  610SOL    HW1 2162   1.441   1.210   5.456
  610SOL    HW2 2163   1.546   1.213   5.331
  611SOL     OW 2164   0.390   1.741   5.284
  611SOL    HW1 2165   0.299   1.782   5.282
  611SOL    HW2 2166   0.383   1.647   5.316
  612SOL     OW 2167   1.674   0.883   4.978
  612SOL    HW1 2168   1.647   0.794   4.941
  612SOL    HW2 2169   1.675   0.951   4.905
  613SOL     OW 2170   1.225   0.325   4.173
  613SOL    HW1 2171   1.290   0.251   4.162
  613SOL    HW2 2172   1.245   0.375   4.257
  614SOL     OW 2173   0.594   0.745   4.376
  614SOL    HW1 2174   0.644   0.830   4.357
  614SOL    HW2 2175   0.506   0.747   4.328
  615SOL     OW 2176   1.777   0.342   5.366
  615SOL    HW1 2177   1.760   0.373   5.272
  615SOL    HW2 2178   1.693   0.305   5.404
  616SOL     OW 2179   1.730   0.934   5.241
  616SOL    HW1 2180   1.768   1.025   5.256
  616SOL    HW2 2181   1.722   0.917   5.142
  617SOL     OW 2182   0.859   1.374   3.740
  617SOL    HW1 2183   0.813   1.389   3.828
  617SOL    HW2 2184   0.903   1.459   3.710
  618SOL     OW 2185   0.661   1.790   4.677
  618SOL    HW1 2186   0.615   1.878   4.664
  618SOL    HW2 2187   0.760   1.802   4.670
  619SOL     OW 2188   0.859   0.956   4.585
  619SOL    HW1 2189   0.913   0.887   4.633
  619SOL    HW2 2190   0.827   1.025   4.651
  620SOL     OW 2191   1.083   0.984   3.811
  620SOL    HW1 2192   1.060   1.037   3.729
  620SOL    HW2 2193   1.164   0.928   3.792
  621SOL     OW 2194   1.861   1.569   4.575
  621SOL    HW1 2195   1.790   1.557   4.505
  621SOL    HW2 2196   1.862   1.490   4.635
  622SOL     OW 2197   0.221   1.314   5.568
  622SOL    HW1 2198   0.156   1.241   5.547
  622SOL    HW2 2199   0.225   1.328   5.666
  623SOL     OW 2200   0.079   1.240   4.377
  623SOL    HW1 2201   0.078   1.193   4.465
  623SOL    HW2 2202   0.161   1.212   4.326
  624SOL     OW 2203   0.672   1.391   5.348
  624SOL    HW1 2204   0.594   1.341   5.386
  624SOL    HW2 2205   0.669   1.486   5.379
  625SOL     OW 2206   1.824   0.192   4.951
  625SOL    HW1 2207   1.820   0.102   4.995
  625SOL    HW2 2208   1.827   0.181   4.852
  626SOL     OW 2209   0.428   0.424   4.244
  626SOL    HW1 2210   0.458   0.352   4.182
  626SOL    HW2 2211   0.389   0.384   4.327
  627SOL     OW 2212   1.705   1.487   4.828
  627SOL    HW1 2213   1.612   1.462   4.801
  627SOL    HW2 2214   1.731   1.437   4.910
  628SOL     OW 2215   0.317   0.547   5.004
  628SOL    HW1 2216   0.355   0.488   5.076
  628SOL    HW2 2217   0.357   0.521   4.916
  629SOL     OW 2218   0.812   1.586   4.411
  629SOL    HW1 2219   0.844   1.596   4.317
  629SOL    HW2 2220   0.733   1.524   4.413
  630SOL     OW 2221   1.424   0.214   4.836
  630SOL    HW1 2222   1.476   0.149   4.891
  630SOL    HW2 2223   1.375   0.277   4.897
  631SOL     OW 2224   1.001   0.034   4.878
  631SOL    HW1 2225   0.938  -0.038   4.847
  631SOL    HW2 2226   1.094  -0.002   4.878
  632SOL     OW 2227   0.770   1.330   4.025
  632SOL    HW1 2228   0.724   1.243   4.042
  632SOL    HW2 2229   0.861   1.327   4.066
  633SOL     OW 2230   0.618   1.567   5.008
  633SOL    HW1 2231   0.613   1.649   5.065
  633SOL    HW2 2232   0.707   1.564   4.963
  634SOL     OW 2233   1.352   0.052   3.892
  634SOL    HW1 2234   1.387   0.011   3.808
  634SOL    HW2 2235   1.262   0.014   3.912
  635SOL     OW 2236   1.300   0.453   4.415
  635SOL    HW1 2237   1.241   0.533   4.419
  635SOL    HW2 2238   1.315   0.418   4.508
  636SOL     OW 2239   1.593   0.221   4.606
  636SOL    HW1 2240   1.509   0.220   4.660
  636SOL    HW2 2241   1.595   0.304   4.550
  637SOL     OW 2242   0.039   1.077   4.024
  637SOL    HW1 2243   0.138   1.066   4.015
  637SOL    HW2 2244  -0.001   0.991   4.056
  638SOL     OW 2245   0.875   1.646   4.061
  638SOL    HW1 2246   0.798   1.611   4.007
  638SOL    HW2 2247   0.843   1.717   4.123
  639SOL     OW 2248   0.230   0.628   5.699
  639SOL    HW1 2249   0.137   0.626   5.736
  639SOL    HW2 2250   0.231   0.589   5.607
  640SOL     OW 2251   0.225   0.275   6.582
  640SOL    HW1 2252   0.260   0.258   6.674
  640SOL    HW2 2253   0.137   0.230   6.570
  641SOL     OW 2254   0.019   0.368   6.233
  641SOL    HW1 2255  -0.063   0.411   6.272
  641SOL    HW2 2256  -0.009   0.295   6.170
  642SOL     OW 2257   0.569   1.275   6.751
  642SOL    HW1 2258   0.476   1.268   6.714
  642SOL    HW2 2259   0.580   1.364   6.795
  643SOL     OW 2260   1.555   1.511   6.289
  643SOL    HW1 2261   1.498   1.495   6.370
  643SOL    HW2 2262   1.496   1.521   6.209
  644SOL     OW 2263   1.135   0.703   6.303
  644SOL    HW1 2264   1.192   0.781   6.278
  644SOL    HW2 2265   1.075   0.729   6.379
  645SOL     OW 2266   1.755   0.607   5.817
  645SOL    HW1 2267   1.743   0.594   5.718
  645SOL    HW2 2268   1.725   0.526   5.866
  646SOL     OW 2269   0.768   1.144   6.609
  646SOL    HW1 2270   0.690   1.161   6.669
  646SOL    HW2 2271   0.802   1.231   6.573
  647SOL     OW 2272   0.850   0.798   7.409
  647SOL    HW1 2273   0.846   0.874   7.474
  647SOL    HW2 2274   0.872   0.834   7.318
  648SOL     OW 2275   0.685   1.012   6.251
  648SOL    HW1 2276   0.754   0.996   6.321
  648SOL    HW2 2277   0.612   1.069   6.289
  649SOL     OW 2278   0.686   1.161   7.389
  649SOL    HW1 2279   0.746   1.240   7.403
  649SOL    HW2 2280   0.600   1.192   7.348
  650SOL     OW 2281   0.335   1.435   6.647
  650SOL    HW1 2282   0.257   1.404   6.594
  650SOL    HW2 2283   0.393   1.493   6.590
  651SOL     OW 2284   1.460   1.505   6.925
  651SOL    HW1 2285   1.484   1.599   6.951
  651SOL    HW2 2286   1.444   1.451   7.007
  652SOL     OW 2287   0.438   0.392   7.085
  652SOL    HW1 2288   0.520   0.336   7.094
  652SOL    HW2 2289   0.357   0.334   7.089
  653SOL     OW 2290   1.603   0.447   6.323
  653SOL    HW1 2291   1.529   0.493   6.273
  653SOL    HW2 2292   1.654   0.515   6.376
  654SOL     OW 2293   0.231   1.713   6.069
  654SOL    HW1 2294   0.265   1.790   6.123
  654SOL    HW2 2295   0.275   1.713   5.979
  655SOL     OW 2296   1.127   1.341   7.276
  655SOL    HW1 2297   1.174   1.341   7.364
  655SOL    HW2 2298   1.079   1.254   7.265
  656SOL     OW 2299   0.230   1.434   6.124
  656SOL    HW1 2300   0.204   1.530   6.124
  656SOL    HW2 2301   0.159   1.380   6.169
  657SOL     OW 2302   0.240   1.091   6.472
  657SOL    HW1 2303   0.254   1.007   6.524
  657SOL    HW2 2304   0.185   1.155   6.527
  658SOL     OW 2305   0.620   1.786   7.025
  658SOL    HW1 2306   0.528   1.769   7.060
  658SOL    HW2 2307   0.648   1.878   7.051
  659SOL     OW 2308   0.606   0.964   5.709
  659SOL    HW1 2309   0.613   1.048   5.655
  659SOL    HW2 2310   0.652   0.977   5.797
  660SOL     OW 2311   1.594   0.114   7.066
  660SOL    HW1 2312   1.576   0.181   6.994
  660SOL    HW2 2313   1.591   0.160   7.155
  661SOL     OW 2314   0.122   0.643   6.149
  661SOL    HW1 2315   0.077   0.555   6.166
  661SOL    HW2 2316   0.121   0.697   6.233
  662SOL     OW 2317   1.842   1.767   5.945
  662SOL    HW1 2318   1.896   1.738   6.025
  662SOL    HW2 2319   1.872   1.857   5.916
  663SOL     OW 2320   0.027   1.596   5.703
  663SOL    HW1 2321   0.008   1.500   5.724
  663SOL    HW2 2322  -0.006   1.654   5.778
  664SOL     OW 2323   1.689   0.922   6.198
  664SOL    HW1 2324   1.784   0.893   6.206
  664SOL    HW2 2325   1.681   0.987   6.123
  665SOL     OW 2326   1.641   1.108   6.018
  665SOL    HW1 2327   1.727   1.110   5.966
  665SOL    HW2 2328   1.655   1.155   6.106
  666SOL     OW 2329   0.113   0.737   7.183
  666SOL    HW1 2330   0.201   0.724   7.228
  666SOL    HW2 2331   0.100   0.834   7.161
  667SOL     OW 2332   0.613   1.365   6.312
  667SOL    HW1 2333   0.564   1.278   6.321
  667SOL    HW2 2334   0.590   1.408   6.225
  668SOL     OW 2335   1.293   1.228   7.009
  668SOL    HW1 2336   1.330   1.155   6.951
  668SOL    HW2 2337   1.345   1.233   7.094
  669SOL     OW 2338   0.809   0.004   6.088
  669SOL    HW1 2339   0.849   0.095   6.079
  669SOL    HW2 2340   0.709   0.012   6.094
  670SOL     OW 2341   0.197   0.976   6.850
  670SOL    HW1 2342   0.286   0.931   6.836
  670SOL    HW2 2343   0.124   0.911   6.831
  671SOL     OW 2344   1.525   0.999   5.776
  671SOL    HW1 2345   1.462   0.923   5.789
  671SOL    HW2 2346   1.573   1.017   5.862
  672SOL     OW 2347   1.187   1.792   7.202
  672SOL    HW1 2348   1.211   1.852   7.126
  672SOL    HW2 2349   1.194   1.697   7.172
  673SOL     OW 2350   0.317   0.251   7.387
  673SOL    HW1 2351   0.388   0.322   7.393
  673SOL    HW2 2352   0.229   0.290   7.415
  674SOL     OW 2353   1.466   1.417   6.539
  674SOL    HW1 2354   1.407   1.423   6.619
  674SOL    HW2 2355   1.451   1.329   6.493
  675SOL     OW 2356   1.667   1.714   6.158
  675SOL    HW1 2357   1.626   1.691   6.070
  675SOL    HW2 2358   1.649   1.640   6.223
  676SOL     OW 2359   0.598   0.729   5.856
  676SOL    HW1 2360   0.622   0.798   5.788
  676SOL    HW2 2361   0.520   0.762   5.910
  677SOL     OW 2362   1.281   0.345   6.530
  677SOL    HW1 2363   1.195   0.295   6.517
  677SOL    HW2 2364   1.343   0.291   6.586
  678SOL     OW 2365   1.576   1.662   5.893
  678SOL    HW1 2366   1.665   1.708   5.896
  678SOL    HW2 2367   1.555   1.638   5.798
  679SOL     OW 2368   0.807   0.605   7.051
  679SOL    HW1 2369   0.760   0.602   7.140
  679SOL    HW2 2370   0.756   0.550   6.985
  680SOL     OW 2371   1.394   0.469   7.260
  680SOL    HW1 2372   1.374   0.512   7.348
  680SOL    HW2 2373   1.472   0.407   7.269
  681SOL     OW 2374   0.973   0.890   7.158
  681SOL    HW1 2375   1.019   0.806   7.129
  681SOL    HW2 2376   0.917   0.924   7.083
  682SOL     OW 2377   0.991   0.410   6.828
  682SOL    HW1 2378   0.914   0.444   6.882
  682SOL    HW2 2379   0.957   0.359   6.749
  683SOL     OW 2380   1.041   0.701   6.015
  683SOL    HW1 2381   1.067   0.697   6.111
  683SOL    HW2 2382   0.956   0.650   6.001
  684SOL     OW 2383   0.076   0.811   6.375
  684SOL    HW1 2384   0.175   0.799   6.384
  684SOL    HW2 2385   0.052   0.906   6.396
  685SOL     OW 2386   0.130   1.821   7.157
  685SOL    HW1 2387   0.120   1.806   7.256
  685SOL    HW2 2388   0.044   1.857   7.121
  686SOL     OW 2389   0.865   0.348   5.781
  686SOL    HW1 2390   0.924   0.411   5.732
  686SOL    HW2 2391   0.884   0.254   5.752
  687SOL     OW 2392   1.719   0.585   7.417
  687SOL    HW1 2393   1.693   0.674   7.381
  687SOL    HW2 2394   1.717   0.517   7.344
  688SOL     OW 2395   1.362   1.144   6.131
  688SOL    HW1 2396   1.445   1.115   6.083
  688SOL    HW2 2397   1.313   1.211   6.075
  689SOL     OW 2398   0.550   0.196   6.471
  689SOL    HW1 2399   0.545   0.191   6.571
  689SOL    HW2 2400   0.552   0.292   6.442
  690SOL     OW 2401   1.008   1.456   6.063
  690SOL    HW1 2402   0.962   1.528   6.011
  690SOL    HW2 2403   1.004   1.476   6.161
  691SOL     OW 2404   0.351   1.801   6.439
  691SOL    HW1 2405   0.401   1.715   6.445
  691SOL    HW2 2406   0.416   1.878   6.436
  692SOL     OW 2407   1.795   1.066   6.459
  692SOL    HW1 2408   1.733   1.051   6.383
  692SOL    HW2 2409   1.743   1.077   6.544
  693SOL     OW 2410   1.227   1.550   7.092
  693SOL    HW1 2411   1.233   1.473   7.156
  693SOL    HW2 2412   1.175   1.524   7.012
  694SOL     OW 2413   0.321   0.943   5.828
  694SOL    HW1 2414   0.403   0.982   5.786
  694SOL    HW2 2415   0.294   0.861   5.779
  695SOL     OW 2416   1.458   0.735   6.314
  695SOL    HW1 2417   1.453   0.670   6.389
  695SOL    HW2 2418   1.538   0.794   6.327
  696SOL     OW 2419   0.461   1.266   7.313
  696SOL    HW1 2420   0.411   1.267   7.227
  696SOL    HW2 2421   0.398   1.248   7.389
  697SOL     OW 2422   1.111   1.776   5.823
  697SOL    HW1 2423   1.051   1.714   5.873
  697SOL    HW2 2424   1.142   1.732   5.738
  698SOL     OW 2425   0.202   0.285   7.084
  698SOL    HW1 2426   0.122   0.345   7.071
  698SOL    HW2 2427   0.192   0.236   7.170
  699SOL     OW 2428   1.632   1.377   5.667
  699SOL    HW1 2429   1.600   1.471   5.657
  699SOL    HW2 2430   1.556   1.314   5.655
  700SOL     OW 2431   0.464   1.743   5.909
  700SOL    HW1 2432   0.497   1.782   5.995
  700SOL    HW2 2433   0.540   1.736   5.844
  701SOL     OW 2434   1.400   0.107   6.012
  701SOL    HW1 2435   1.376   0.070   5.922
  701SOL    HW2 2436   1.499   0.123   6.016
  702SOL     OW 2437   0.249   1.785   6.827
  702SOL    HW1 2438   0.306   1.720   6.877
  702SOL    HW2 2439   0.233   1.752   6.734
  703SOL     OW 2440   0.940   1.698   6.490
  703SOL    HW1 2441   1.020   1.641   6.511
  703SOL    HW2 2442   0.891   1.658   6.413
  704SOL     OW 2443   0.382   0.700   6.066
  704SOL    HW1 2444   0.427   0.610   6.063
  704SOL    HW2 2445   0.288   0.689   6.099
  705SOL     OW 2446   1.547   0.222   7.315
  705SOL    HW1 2447   1.542   0.259   7.407
  705SOL    HW2 2448   1.475   0.153   7.303
  706SOL     OW 2449   0.614   0.122   5.703
  706SOL    HW1 2450   0.712   0.100   5.710
  706SOL    HW2 2451   0.583   0.105   5.610
  707SOL     OW 2452   0.781   0.264   7.335
  707SOL    HW1 2453   0.848   0.203   7.378
  707SOL    HW2 2454   0.708   0.283   7.400
  708SOL     OW 2455   0.888   1.514   6.781
  708SOL    HW1 2456   0.865   1.489   6.687
  708SOL    HW2 2457   0.949   1.445   6.820
  709SOL     OW 2458   1.351   0.590   7.019
  709SOL    HW1 2459   1.379   0.547   7.104
  709SOL    HW2 2460   1.376   0.686   7.020
  710SOL     OW 2461   0.803   1.402   6.510
  710SOL    HW1 2462   0.893   1.416   6.468
  710SOL    HW2 2463   0.732   1.404   6.439
  711SOL     OW 2464   0.922   0.503   6.485
  711SOL    HW1 2465   0.897   0.494   6.389
  711SOL    HW2 2466   0.970   0.421   6.516
  712SOL     OW 2467   0.539   0.064   6.098
  712SOL    HW1 2468   0.458   0.065   6.156
  712SOL    HW2 2469   0.542   0.147   6.043
  713SOL     OW 2470   1.434   1.188   5.627
  713SOL    HW1 2471   1.466   1.112   5.684
  713SOL    HW2 2472   1.342   1.215   5.657
  714SOL     OW 2473   0.297   0.035   5.757
  714SOL    HW1 2474   0.346   0.119   5.736
  714SOL    HW2 2475   0.359  -0.030   5.802
  715SOL     OW 2476   0.935   0.236   6.066
  715SOL    HW1 2477   0.887   0.277   5.988
  715SOL    HW2 2478   1.034   0.234   6.047
  716SOL     OW 2479   1.076   0.683   7.050
  716SOL    HW1 2480   0.996   0.622   7.053
  716SOL    HW2 2481   1.157   0.630   7.026
  717SOL     OW 2482   1.227   1.570   6.379
  717SOL    HW1 2483   1.248   1.644   6.314
  717SOL    HW2 2484   1.295   1.570   6.452
  718SOL     OW 2485   0.459   1.152   6.327
  718SOL    HW1 2486   0.388   1.125   6.392
  718SOL    HW2 2487   0.433   1.124   6.234
  719SOL     OW 2488   1.271   1.797   6.177
  719SOL    HW1 2489   1.315   1.861   6.113
  719SOL    HW2 2490   1.221   1.849   6.247
  720SOL     OW 2491   1.032   0.549   5.602
  720SOL    HW1 2492   0.991   0.631   5.563
  720SOL    HW2 2493   1.096   0.575   5.675
  721SOL     OW 2494   0.078   0.556   6.972
  721SOL    HW1 2495   0.170   0.555   6.931
  721SOL    HW2 2496   0.072   0.630   7.039
  722SOL     OW 2497   0.561   0.222   6.733
  722SOL    HW1 2498   0.599   0.138   6.770
  722SOL    HW2 2499   0.473   0.241   6.777
  723SOL     OW 2500   0.866   0.454   6.228
  723SOL    HW1 2501   0.834   0.526   6.166
  723SOL    HW2 2502   0.890   0.373   6.175
  724SOL     OW 2503   1.017   0.039   6.339
  724SOL    HW1 2504   0.945   0.044   6.270
  724SOL    HW2 2505   0.993  -0.030   6.408
  725SOL     OW 2506   1.429   1.173   6.453
  725SOL    HW1 2507   1.374   1.089   6.446
  725SOL    HW2 2508   1.455   1.202   6.361
  726SOL     OW 2509   1.466   0.590   6.578
  726SOL    HW1 2510   1.436   0.495   6.585
  726SOL    HW2 2511   1.539   0.606   6.644
  727SOL     OW 2512   1.857   0.833   5.963
  727SOL    HW1 2513   1.899   0.769   6.027
  727SOL    HW2 2514   1.819   0.782   5.885
  728SOL     OW 2515   0.488   1.385   5.760
  728SOL    HW1 2516   0.401   1.370   5.807
  728SOL    HW2 2517   0.471   1.411   5.665
  729SOL     OW 2518   1.664   1.280   6.243
  729SOL    HW1 2519   1.763   1.288   6.257
  729SOL    HW2 2520   1.619   1.364   6.274
  730SOL     OW 2521   1.390   0.575   5.664
  730SOL    HW1 2522   1.336   0.554   5.745
  730SOL    HW2 2523   1.481   0.534   5.673
  731SOL     OW 2524   0.527   0.256   5.914
  731SOL    HW1 2525   0.554   0.197   5.839
  731SOL    HW2 2526   0.527   0.351   5.883
  732SOL     OW 2527   1.754   1.223   7.174
  732SOL    HW1 2528   1.845   1.184   7.161
  732SOL    HW2 2529   1.762   1.319   7.198
  733SOL     OW 2530   1.064   1.347   6.926
  733SOL    HW1 2531   0.984   1.324   6.981
  733SOL    HW2 2532   1.147   1.321   6.975
  734SOL     OW 2533   1.592   1.629   7.211
  734SOL    HW1 2534   1.619   1.663   7.121
  734SOL    HW2 2535   1.671   1.591   7.257
  735SOL     OW 2536   1.111   1.195   6.686
  735SOL    HW1 2537   1.071   1.239   6.767
  735SOL    HW2 2538   1.070   1.232   6.603
  736SOL     OW 2539   1.638   1.099   6.665
  736SOL    HW1 2540   1.643   1.180   6.724
  736SOL    HW2 2541   1.552   1.101   6.614
  737SOL     OW 2542   0.915   0.089   6.988
  737SOL    HW1 2543   0.940   0.069   6.893
  737SOL    HW2 2544   0.987   0.145   7.030
  738SOL     OW 2545   0.980   1.116   7.305
  738SOL    HW1 2546   0.881   1.122   7.315
  738SOL    HW2 2547   1.003   1.036   7.249
  739SOL     OW 2548   0.705   1.050   5.954
  739SOL    HW1 2549   0.691   1.057   6.053
  739SOL    HW2 2550   0.789   0.999   5.936
  740SOL     OW 2551   0.410   0.813   6.837
  740SOL    HW1 2552   0.496   0.825   6.887
  740SOL    HW2 2553   0.368   0.726   6.864
  741SOL     OW 2554   1.274   0.386   6.848
  741SOL    HW1 2555   1.295   0.460   6.912
  741SOL    HW2 2556   1.185   0.403   6.805
  742SOL     OW 2557   0.064   1.564   6.917
  742SOL    HW1 2558   0.018   1.646   6.883
  742SOL    HW2 2559   0.162   1.583   6.926
  743SOL     OW 2560   0.367   1.100   6.087
  743SOL    HW1 2561   0.360   1.183   6.031
  743SOL    HW2 2562   0.371   1.020   6.027
  744SOL     OW 2563   0.566   0.537   6.451
  744SOL    HW1 2564   0.578   0.603   6.377
  744SOL    HW2 2565   0.612   0.571   6.534
  745SOL     OW 2566   1.252   1.348   5.974
  745SOL    HW1 2567   1.302   1.425   6.014
  745SOL    HW2 2568   1.157   1.350   6.006
  746SOL     OW 2569   1.272   1.445   6.728
  746SOL    HW1 2570   1.319   1.458   6.815
  746SOL    HW2 2571   1.206   1.371   6.737
  747SOL     OW 2572   1.582   0.639   6.058
  747SOL    HW1 2573   1.551   0.700   6.131
  747SOL    HW2 2574   1.632   0.691   5.989
  748SOL     OW 2575   0.354   1.510   6.915
  748SOL    HW1 2576   0.333   1.466   6.828
  748SOL    HW2 2577   0.451   1.536   6.918
  749SOL     OW 2578   0.402   0.751   7.184
  749SOL    HW1 2579   0.470   0.806   7.137
  749SOL    HW2 2580   0.442   0.663   7.211
  750SOL     OW 2581   1.587   0.779   7.256
  750SOL    HW1 2582   1.495   0.817   7.251
  750SOL    HW2 2583   1.647   0.826   7.191
  751SOL     OW 2584   1.013   0.105   7.356
  751SOL    HW1 2585   1.019   0.190   7.304
  751SOL    HW2 2586   1.045   0.029   7.299
  752SOL     OW 2587   0.504   0.050   7.326
  752SOL    HW1 2588   0.462  -0.007   7.256
  752SOL    HW2 2589   0.438   0.119   7.358
  753SOL     OW 2590   0.573   0.870   6.615
  753SOL    HW1 2591   0.617   0.959   6.606
  753SOL    HW2 2592   0.510   0.870   6.692
  754SOL     OW 2593   1.360   0.862   6.631
  754SOL    HW1 2594   1.285   0.862   6.565
  754SOL    HW2 2595   1.397   0.770   6.640
  755SOL     OW 2596   1.209   0.525   5.861
  755SOL    HW1 2597   1.222   0.441   5.915
  755SOL    HW2 2598   1.180   0.599   5.921
  756SOL     OW 2599   0.307   0.213   6.817
  756SOL    HW1 2600   0.284   0.250   6.907
  756SOL    HW2 2601   0.277   0.118   6.811
  757SOL     OW 2602   0.037   1.310   6.868
  757SOL    HW1 2603   0.090   1.261   6.936
  757SOL    HW2 2604   0.059   1.408   6.873
  758SOL     OW 2605   0.732   0.634   6.650
  758SOL    HW1 2606   0.791   0.608   6.574
  758SOL    HW2 2607   0.704   0.730   6.639
  759SOL     OW 2608   1.728   0.935   7.440
  759SOL    HW1 2609   1.682   0.928   7.351
  759SOL    HW2 2610   1.666   0.979   7.506
  760SOL     OW 2611   0.307   0.063   6.204
  760SOL    HW1 2612   0.296   0.157   6.237
  760SOL    HW2 2613   0.302   0.000   6.281
  761SOL     OW 2614   1.622   0.367   5.960
  761SOL    HW1 2615   1.624   0.291   6.024
  761SOL    HW2 2616   1.574   0.444   6.000
  762SOL     OW 2617   1.023   0.766   6.552
  762SOL    HW1 2618   1.038   0.787   6.648
  762SOL    HW2 2619   0.993   0.671   6.543
  763SOL     OW 2620   0.980   1.573   7.286
  763SOL    HW1 2621   0.960   1.617   7.198
  763SOL    HW2 2622   1.019   1.482   7.270
  764SOL     OW 2623   1.859   1.518   7.191
  764SOL    HW1 2624   1.873   1.545   7.096
  764SOL    HW2 2625   1.942   1.540   7.244
  765SOL     OW 2626   0.350   0.898   7.390
  765SOL    HW1 2627   0.426   0.942   7.438
  765SOL    HW2 2628   0.385   0.851   7.308
  766SOL     OW 2629   1.540   0.274   5.711
  766SOL    HW1 2630   1.479   0.199   5.734
  766SOL    HW2 2631   1.562   0.326   5.794
  767SOL     OW 2632   1.303   0.838   5.628
  767SOL    HW1 2633   1.337   0.745   5.643
  767SOL    HW2 2634   1.321   0.865   5.533
  768SOL     OW 2635   1.068   1.333   6.435
  768SOL    HW1 2636   1.075   1.249   6.380
  768SOL    HW2 2637   1.130   1.402   6.399
  769SOL     OW 2638   0.319   0.810   6.535
  769SOL    HW1 2639   0.412   0.846   6.540
  769SOL    HW2 2640   0.313   0.725   6.587
  770SOL     OW 2641   0.339   0.509   6.592
  770SOL    HW1 2642   0.287   0.426   6.575
  770SOL    HW2 2643   0.416   0.514   6.528
  771SOL     OW 2644   1.138   0.380   7.264
  771SOL    HW1 2645   1.093   0.443   7.328
  771SOL    HW2 2646   1.231   0.411   7.247
  772SOL     OW 2647   1.160   0.207   7.063
  772SOL    HW1 2648   1.160   0.271   7.140
  772SOL    HW2 2649   1.188   0.255   6.980
  773SOL     OW 2650   0.008   1.326   5.786
  773SOL    HW1 2651  -0.085   1.347   5.755
  773SOL    HW2 2652   0.018   1.227   5.799
  774SOL     OW 2653   0.088   1.801   6.513
  774SOL    HW1 2654   0.046   1.715   6.486
  774SOL    HW2 2655   0.182   1.804   6.479
  775SOL     OW 2656   0.504   1.568   6.496
  775SOL    HW1 2657   0.570   1.642   6.505
  775SOL    HW2 2658   0.548   1.489   6.454
  776SOL     OW 2659   1.002   0.796   6.824
  776SOL    HW1 2660   1.043   0.764   6.910
  776SOL    HW2 2661   0.906   0.769   6.821
  777SOL     OW 2662   0.040   0.544   6.700
  777SOL    HW1 2663   0.125   0.511   6.659
  777SOL    HW2 2664   0.053   0.559   6.798
  778SOL     OW 2665   0.189   0.520   7.308
  778SOL    HW1 2666   0.248   0.480   7.238
  778SOL    HW2 2667   0.131   0.591   7.267
  779SOL     OW 2668   1.369   0.950   7.246
  779SOL    HW1 2669   1.408   1.039   7.266
  779SOL    HW2 2670   1.379   0.930   7.149
  780SOL     OW 2671   0.815   0.572   5.911
  780SOL    HW1 2672   0.822   0.483   5.865
  780SOL    HW2 2673   0.721   0.606   5.903
  781SOL     OW 2674   1.657   0.604   6.792
  781SOL    HW1 2675   1.619   0.535   6.854
  781SOL    HW2 2676   1.739   0.568   6.748
  782SOL     OW 2677   0.252   1.564   7.330
  782SOL    HW1 2678   0.222   1.621   7.406
  782SOL    HW2 2679   0.245   1.467   7.356
  783SOL     OW 2680   0.671   0.464   6.855
  783SOL    HW1 2681   0.637   0.375   6.825
  783SOL    HW2 2682   0.697   0.518   6.775
  784SOL     OW 2683   0.930   1.678   7.051
  784SOL    HW1 2684   0.906   1.660   6.956
  784SOL    HW2 2685   0.960   1.772   7.061
  785SOL     OW 2686   0.473   0.500   5.777
  785SOL    HW1 2687   0.534   0.580   5.781
  785SOL    HW2 2688   0.378   0.531   5.784
  786SOL     OW 2689   0.159   1.137   7.052
  786SOL    HW1 2690   0.181   1.076   7.128
  786SOL    HW2 2691   0.169   1.088   6.966
  787SOL     OW 2692   1.347   1.059   6.820
  787SOL    HW1 2693   1.371   0.996   6.746
  787SOL    HW2 2694   1.257   1.099   6.802
  788SOL     OW 2695   1.302   0.855   5.895
  788SOL    HW1 2696   1.216   0.824   5.937
  788SOL    HW2 2697   1.298   0.841   5.796
  789SOL     OW 2698   1.759   1.747   6.740
  789SOL    HW1 2699   1.820   1.777   6.667
  789SOL    HW2 2700   1.721   1.658   6.718
  790SOL     OW 2701   1.252   1.731   6.714
  790SOL    HW1 2702   1.336   1.736   6.660
  790SOL    HW2 2703   1.229   1.635   6.732
  791SOL     OW 2704   0.083   1.258   6.608
  791SOL    HW1 2705   0.078   1.257   6.708
  791SOL    HW2 2706   0.000   1.217   6.570
  792SOL     OW 2707   0.688   1.662   7.302
  792SOL    HW1 2708   0.632   1.743   7.311
  792SOL    HW2 2709   0.740   1.666   7.216
  793SOL     OW 2710   1.726   0.135   6.109
  793SOL    HW1 2711   1.799   0.118   6.042
  793SOL    HW2 2712   1.695   0.048   6.147
  794SOL     OW 2713   1.388   1.573   6.063
  794SOL    HW1 2714   1.455   1.585   5.989
  794SOL    HW2 2715   1.348   1.662   6.086
  795SOL     OW 2716   0.130   1.794   7.437
  795SOL    HW1 2717   0.089   1.720   7.490
  795SOL    HW2 2718   0.194   1.845   7.495
  796SOL     OW 2719   1.280   0.927   6.258
  796SOL    HW1 2720   1.340   0.846   6.260
  796SOL    HW2 2721   1.320   0.996   6.198
  797SOL     OW 2722   0.830   1.273   7.008
  797SOL    HW1 2723   0.825   1.306   7.103
  797SOL    HW2 2724   0.744   1.292   6.962
  798SOL     OW 2725   0.672   1.616   5.740
  798SOL    HW1 2726   0.681   1.626   5.641
  798SOL    HW2 2727   0.632   1.527   5.761
  799SOL     OW 2728   1.650   1.720   6.980
  799SOL    HW1 2729   1.703   1.730   6.896
  799SOL    HW2 2730   1.623   1.810   7.014
  800SOL     OW 2731   1.841   0.175   6.549
  800SOL    HW1 2732   1.880   0.090   6.513
  800SOL    HW2 2733   1.743   0.177   6.530
  801SOL     OW 2734   0.263   0.326   6.306
  801SOL    HW1 2735   0.184   0.377   6.272
  801SOL    HW2 2736   0.254   0.311   6.404
  802SOL     OW 2737   1.194   1.612   5.617
  802SOL    HW1 2738   1.200   1.519   5.654
  802SOL    HW2 2739   1.135   1.612   5.537
  803SOL     OW 2740   0.822   1.002   6.958
  803SOL    HW1 2741   0.862   1.001   6.866
  803SOL    HW2 2742   0.832   1.094   6.998
  804SOL     OW 2743   0.916   0.910   5.877
  804SOL    HW1 2744   0.979   0.948   5.809
  804SOL    HW2 2745   0.956   0.827   5.916
  805SOL     OW 2746   1.504   1.607   5.630
  805SOL    HW1 2747   1.412   1.644   5.637
  805SOL    HW2 2748   1.542   1.627   5.540
  806SOL     OW 2749   0.372   1.288   7.076
  806SOL    HW1 2750   0.359   1.381   7.042
  806SOL    HW2 2751   0.288   1.236   7.063
  807SOL     OW 2752   1.614   1.292   6.875
  807SOL    HW1 2753   1.674   1.295   6.955
  807SOL    HW2 2754   1.539   1.356   6.888
  808SOL     OW 2755   1.039   1.098   6.282
  808SOL    HW1 2756   0.969   1.051   6.336
  808SOL    HW2 2757   1.098   1.030   6.239
  809SOL     OW 2758   1.014   0.236   6.557
  809SOL    HW1 2759   1.006   0.200   6.464
  809SOL    HW2 2760   1.012   0.160   6.622
  810SOL     OW 2761   0.590   1.487   6.077
  810SOL    HW1 2762   0.632   1.429   6.007
  810SOL    HW2 2763   0.546   1.566   6.033
  811SOL     OW 2764   1.709   0.385   6.967
  811SOL    HW1 2765   1.782   0.454   6.971
  811SOL    HW2 2766   1.737   0.310   6.908
  812SOL     OW 2767   0.255   1.348   5.876
  812SOL    HW1 2768   0.159   1.349   5.849
  812SOL    HW2 2769   0.267   1.401   5.960
  813SOL     OW 2770   0.105   1.013   7.312
  813SOL    HW1 2771   0.028   0.980   7.366
  813SOL    HW2 2772   0.190   0.983   7.354
  814SOL     OW 2773   0.672   0.203   7.075
  814SOL    HW1 2774   0.762   0.187   7.035
  814SOL    HW2 2775   0.680   0.208   7.174
  815SOL     OW 2776   0.075   0.345   5.619
  815SOL    HW1 2777  -0.017   0.317   5.590
  815SOL    HW2 2778   0.106   0.422   5.563
  816SOL     OW 2779   1.440   0.856   6.984
  816SOL    HW1 2780   1.383   0.908   6.921
  816SOL    HW2 2781   1.536   0.868   6.960
  817SOL     OW 2782   0.072   0.166   5.904
  817SOL    HW1 2783   0.055   0.249   5.850
  817SOL    HW2 2784   0.162   0.129   5.882
  818SOL     OW 2785   1.183   1.335   5.705
  818SOL    HW1 2786   1.084   1.324   5.707
  818SOL    HW2 2787   1.217   1.350   5.798
  819SOL     OW 2788   0.613   0.842   7.017
  819SOL    HW1 2789   0.669   0.923   7.000
  819SOL    HW2 2790   0.672   0.762   7.020
  820SOL     OW 2791   1.493   1.767   6.545
  820SOL    HW1 2792   1.526   1.831   6.476
  820SOL    HW2 2793   1.559   1.761   6.620
  821SOL     OW 2794   0.716   0.565   7.294
  821SOL    HW1 2795   0.735   0.630   7.368
  821SOL    HW2 2796   0.776   0.485   7.303
  822SOL     OW 2797   1.450   1.220   7.219
  822SOL    HW1 2798   1.441   1.210   7.318
  822SOL    HW2 2799   1.546   1.213   7.193
  823SOL     OW 2800   0.390   1.741   7.146
  823SOL    HW1 2801   0.299   1.782   7.144
  823SOL    HW2 2802   0.383   1.647   7.178
  824SOL     OW 2803   1.674   0.883   6.840
  824SOL    HW1 2804   1.647   0.794   6.803
  824SOL    HW2 2805   1.675   0.951   6.767
  825SOL     OW 2806   1.225   0.325   6.035
  825SOL    HW1 2807   1.290   0.251   6.024
  825SOL    HW2 2808   1.245   0.375   6.119
  826SOL     OW 2809   0.594   0.745   6.238
  826SOL    HW1 2810   0.644   0.830   6.219
  826SOL    HW2 2811   0.506   0.747   6.190
  827SOL     OW 2812   1.777   0.342   7.228
  827SOL    HW1 2813   1.760   0.373   7.134
  827SOL    HW2 2814   1.693   0.305   7.266
  828SOL     OW 2815   1.730   0.934   7.103
  828SOL    HW1 2816   1.768   1.025   7.118
  828SOL    HW2 2817   1.722   0.917   7.004
  829SOL     OW 2818   0.859   1.374   5.602
  829SOL    HW1 2819   0.813   1.389   5.690
  829SOL    HW2 2820   0.903   1.459   5.572
  830SOL     OW 2821   0.661   1.790   6.539
  830SOL    HW1 2822   0.615   1.878   6.526
  830SOL    HW2 2823   0.760   1.802   6.532
  831SOL     OW 2824   0.859   0.956   6.447
  831SOL    HW1 2825   0.913   0.887   6.495
  831SOL    HW2 2826   0.827   1.025   6.513
  832SOL     OW 2827   1.083   0.984   5.673
  832SOL    HW1 2828   1.060   1.037   5.591
  832SOL    HW2 2829   1.164   0.928   5.654
  833SOL     OW 2830   1.861   1.569   6.437
  833SOL    HW1 2831   1.790   1.557   6.367
  833SOL    HW2 2832   1.862   1.490   6.497
  834SOL     OW 2833   0.221   1.314   7.430
  834SOL    HW1 2834   0.156   1.241   7.409
  834SOL    HW2 2835   0.225   1.328   7.528
  835SOL     OW 2836   0.079   1.240   6.239
  835SOL    HW1 2837   0.078   1.193   6.327
  835SOL    HW2 2838   0.161   1.212   6.188
  836SOL     OW 2839   0.672   1.391   7.210
  836SOL    HW1 2840   0.594   1.341   7.248
  836SOL    HW2 2841   0.669   1.486   7.241
  837SOL     OW 2842   1.824   0.192   6.813
  837SOL    HW1 2843   1.820   0.102   6.857
  837SOL    HW2 2844   1.827   0.181   6.714
  838SOL     OW 2845   0.428   0.424   6.106
  838SOL    HW1 2846   0.458   0.352   6.044
  838SOL    HW2 2847   0.389   0.384   6.189
  839SOL     OW 2848   1.705   1.487   6.690
  839SOL    HW1 2849   1.612   1.462   6.663
  839SOL    HW2 2850   1.731   1.437   6.772
  840SOL     OW 2851   0.317   0.547   6.866
  840SOL    HW1 2852   0.355   0.488   6.938
  840SOL    HW2 2853   0.357   0.521   6.778
  841SOL     OW 2854   0.812   1.586   6.273
  841SOL    HW1 2855   0.844   1.596   6.179
  841SOL    HW2 2856   0.733   1.524   6.275
  842SOL     OW 2857   1.424   0.214   6.698
  842SOL    HW1 2858   1.476   0.149   6.753
  842SOL    HW2 2859   1.375   0.277   6.759
  843SOL     OW 2860   1.001   0.034   6.740
  843SOL    HW1 2861   0.938  -0.038   6.709
  843SOL    HW2 2862   1.094  -0.002   6.740
  844SOL     OW 2863   0.770   1.330   5.887
  844SOL    HW1 2864   0.724   1.243   5.904
  844SOL    HW2 2865   0.861   1.327   5.928
  845SOL     OW 2866   0.618   1.567   6.870
  845SOL    HW1 2867   0.613   1.649   6.927
  845SOL    HW2 2868   0.707   1.564   6.825
  846SOL     OW 2869   1.352   0.052   5.754
  846SOL    HW1 2870   1.387   0.011   5.670
  846SOL    HW2 2871   1.262   0.014   5.774
  847SOL     OW 2872   1.300   0.453   6.277
  847SOL    HW1 2873   1.241   0.533   6.281
  847SOL    HW2 2874   1.315   0.418   6.370
  848SOL     OW 2875   1.593   0.221   6.468
  848SOL    HW1 2876   1.509   0.220   6.522
  848SOL    HW2 2877   1.595   0.304   6.412
  849SOL     OW 2878   0.039   1.077   5.886
  849SOL    HW1 2879   0.138   1.066   5.877
  849SOL    HW2 2880  -0.001   0.991   5.918
  850SOL     OW 2881   0.875   1.646   5.923
  850SOL    HW1 2882   0.798   1.611   5.869
  850SOL    HW2 2883   0.843   1.717   5.985
  851SOL     OW 2884   0.230   0.628   7.561
  851SOL    HW1 2885   0.137   0.626   7.598
  851SOL    HW2 2886   0.231   0.589   7.469
  852SOL     OW 2887   0.225   0.275   8.444
  852SOL    HW1 2888   0.260   0.258   8.536
  852SOL    HW2 2889   0.137   0.230   8.432
  853SOL     OW 2890   0.019   0.368   8.095
  853SOL    HW1 2891  -0.063   0.411   8.134
  853SOL    HW2 2892  -0.009   0.295   8.032
  854SOL     OW 2893   0.569   1.275   8.613
  854SOL    HW1 2894   0.476   1.268   8.576
  854SOL    HW2 2895   0.580   1.364   8.657
  855SOL     OW 2896   1.555   1.511   8.151
  855SOL    HW1 2897   1.498   1.495   8.232
  855SOL    HW2 2898   1.496   1.521   8.071
  856SOL     OW 2899   1.135   0.703   8.165
  856SOL    HW1 2900   1.192   0.781   8.140
  856SOL    HW2 2901   1.075   0.729   8.241
  857SOL     OW 2902   1.755   0.607   7.679
  857SOL    HW1 2903   1.743   0.594   7.580
  857SOL    HW2 2904   1.725   0.526   7.728
  858SOL     OW 2905   0.768   1.144   8.471
  858SOL    HW1 2906   0.690   1.161   8.531
  858SOL    HW2 2907   0.802   1.231   8.435
  859SOL     OW 2908   0.850   0.798   9.271
  859SOL    HW1 2909   0.846   0.874   9.336
  859SOL    HW2 2910   0.872   0.834   9.180
  860SOL     OW 2911   0.685   1.012   8.113
  860SOL    HW1 2912   0.754   0.996   8.183
  860SOL    HW2 2913   0.612   1.069   8.151
  861SOL     OW 2914   0.686   1.161   9.251
  861SOL    HW1 2915   0.746   1.240   9.265
  861SOL    HW2 2916   0.600   1.192   9.210
  862SOL     OW 2917   0.335   1.435   8.509
  862SOL    HW1 2918   0.257   1.404   8.456
  862SOL    HW2 2919   0.393   1.493   8.452
  863SOL     OW 2920   1.460   1.505   8.787
  863SOL    HW1 2921   1.484   1.599   8.813
  863SOL    HW2 2922   1.444   1.451   8.869
  864SOL     OW 2923   0.438   0.392   8.947
  864SOL    HW1 2924   0.520   0.336   8.956
  864SOL    HW2 2925   0.357   0.334   8.951
  865SOL     OW 2926   1.603   0.447   8.185
  865SOL    HW1 2927   1.529   0.493   8.135
  865SOL    HW2 2928   1.654   0.515   8.238
  866SOL     OW 2929   0.231   1.713   7.931
  866SOL    HW1 2930   0.265   1.790   7.985
  866SOL    HW2 2931   0.275   1.713   7.841
  867SOL     OW 2932   1.127   1.341   9.138
  867SOL    HW1 2933   1.174   1.341   9.226
  867SOL    HW2 2934   1.079   1.254   9.127
  868SOL     OW 2935   0.230   1.434   7.986
  868SOL    HW1 2936   0.204   1.530   7.986
  868SOL    HW2 2937   0.159   1.380   8.031
  869SOL     OW 2938   0.240   1.091   8.334
  869SOL    HW1 2939   0.254   1.007   8.386
  869SOL    HW2 2940   0.185   1.155   8.389
  870SOL     OW 2941   0.620   1.786   8.887
  870SOL    HW1 2942   0.528   1.769   8.922
  870SOL    HW2 2943   0.648   1.878   8.913
  871SOL     OW 2944   0.606   0.964   7.571
  871SOL    HW1 2945   0.613   1.048   7.517
  871SOL    HW2 2946   0.652   0.977   7.659
  872SOL     OW 2947   1.594   0.114   8.928
  872SOL    HW1 2948   1.576   0.181   8.856
  872SOL    HW2 2949   1.591   0.160   9.017
  873SOL     OW 2950   0.122   0.643   8.011
  873SOL    HW1 2951   0.077   0.555   8.028
  873SOL    HW2 2952   0.121   0.697   8.095
  874SOL     OW 2953   1.842   1.767   7.807
  874SOL    HW1 2954   1.896   1.738   7.887
  874SOL    HW2 2955   1.872   1.857   7.778
  875SOL     OW 2956   0.027   1.596   7.565
  875SOL    HW1 2957   0.008   1.500   7.586
  875SOL    HW2 2958  -0.006   1.654   7.640
  876SOL     OW 2959   1.689   0.922   8.060
  876SOL    HW1 2960   1.784   0.893   8.068
  876SOL    HW2 2961   1.681   0.987   7.985
  877SOL     OW 2962   1.641   1.108   7.880
  877SOL    HW1 2963   1.727   1.110   7.828
  877SOL    HW2 2964   1.655   1.155   7.968
  878SOL     OW 2965   0.113   0.737   9.045
  878SOL    HW1 2966   0.201   0.724   9.090
  878SOL    HW2 2967   0.100   0.834   9.023
  879SOL     OW 2968   0.613   1.365   8.174
  879SOL    HW1 2969   0.564   1.278   8.183
  879SOL    HW2 2970   0.590   1.408   8.087
  880SOL     OW 2971   1.293   1.228   8.871
  880SOL    HW1 2972   1.330   1.155   8.813
  880SOL    HW2 2973   1.345   1.233   8.956
  881SOL     OW 2974   0.809   0.004   7.950
  881SOL    HW1 2975   0.849   0.095   7.941
  881SOL    HW2 2976   0.709   0.012   7.956
  882SOL     OW 2977   0.197   0.976   8.712
  882SOL    HW1 2978   0.286   0.931   8.698
  882SOL    HW2 2979   0.124   0.911   8.693
  883SOL     OW 2980   1.525   0.999   7.638
  883SOL    HW1 2981   1.462   0.923   7.651
  883SOL    HW2 2982   1.573   1.017   7.724
  884SOL     OW 2983   1.187   1.792   9.064
  884SOL    HW1 2984   1.211   1.852   8.988
  884SOL    HW2 2985   1.194   1.697   9.034
  885SOL     OW 2986   0.317   0.251   9.249
  885SOL    HW1 2987   0.388   0.322   9.255
  885SOL    HW2 2988   0.229   0.290   9.277
  886SOL     OW 2989   1.466   1.417   8.401
  886SOL    HW1 2990   1.407   1.423   8.481
  886SOL    HW2 2991   1.451   1.329   8.355
  887SOL     OW 2992   1.667   1.714   8.020
  887SOL    HW1 2993   1.626   1.691   7.932
  887SOL    HW2 2994   1.649   1.640   8.085
  888SOL     OW 2995   0.598   0.729   7.718
  888SOL    HW1 2996   0.622   0.798   7.650
  888SOL    HW2 2997   0.520   0.762   7.772
  889SOL     OW 2998   1.281   0.345   8.392
  889SOL    HW1 2999   1.195   0.295   8.379
  889SOL    HW2 3000   1.343   0.291   8.448
  890SOL     OW 3001   1.576   1.662   7.755
  890SOL    HW1 3002   1.665   1.708   7.758
  890SOL    HW2 3003   1.555   1.638   7.660
  891SOL     OW 3004   0.807   0.605   8.913
  891SOL    HW1 3005   0.760   0.602   9.002
  891SOL    HW2 3006   0.756   0.550   8.847
  892SOL     OW 3007   1.394   0.469   9.122
  892SOL    HW1 3008   1.374   0.512   9.210
  892SOL    HW2 3009   1.472   0.407   9.131
  893SOL     OW 3010   0.973   0.890   9.020
  893SOL    HW1 3011   1.019   0.806   8.991
  893SOL    HW2 3012   0.917   0.924   8.945
  894SOL     OW 3013   0.991   0.410   8.690
  894SOL    HW1 3014   0.914   0.444   8.744
  894SOL    HW2 3015   0.957   0.359   8.611
  895SOL     OW 3016   1.041   0.701   7.877
  895SOL    HW1 3017   1.067   0.697   7.973
  895SOL    HW2 3018   0.956   0.650   7.863
  896SOL     OW 3019   0.076   0.811   8.237
  896SOL    HW1 3020   0.175   0.799   8.246
  896SOL    HW2 3021   0.052   0.906   8.258
  897SOL     OW 3022   0.130   1.821   9.019
  897SOL    HW1 3023   0.120   1.806   9.118
  897SOL    HW2 3024   0.044   1.857   8.983
  898SOL     OW 3025   0.865   0.348   7.643
  898SOL    HW1 3026   0.924   0.411   7.594
  898SOL    HW2 3027   0.884   0.254   7.614
  899SOL     OW 3028   1.719   0.585   9.279
  899SOL    HW1 3029   1.693   0.674   9.243
  899SOL    HW2 3030   1.717   0.517   9.206
  900SOL     OW 3031   1.362   1.144   7.993
  900SOL    HW1 3032   1.445   1.115   7.945
  900SOL    HW2 3033   1.313   1.211   7.937
  901SOL     OW 3034   0.550   0.196   8.333
  901SOL    HW1 3035   0.545   0.191   8.433
  901SOL    HW2 3036   0.552   0.292   8.304
  902SOL     OW 3037   1.008   1.456   7.925
  902SOL    HW1 3038   0.962   1.528   7.873
  902SOL    HW2 3039   1.004   1.476   8.023
  903SOL     OW 3040   0.351   1.801   8.301
  903SOL    HW1 3041   0.401   1.715   8.307
  903SOL    HW2 3042   0.416   1.878   8.298
  904SOL     OW 3043   1.795   1.066   8.321
  904SOL    HW1 3044   1.733   1.051   8.245
  904SOL    HW2 3045   1.743   1.077   8.406
  905SOL     OW 3046   1.227   1.550   8.954
  905SOL    HW1 3047   1.233   1.473   9.018
  905SOL    HW2 3048   1.175   1.524   8.874
  906SOL     OW 3049   0.321   0.943   7.690
  906SOL    HW1 3050   0.403   0.982   7.648
  906SOL    HW2 3051   0.294   0.861   7.641
  907SOL     OW 3052   1.458   0.735   8.176
  907SOL    HW1 3053   1.453   0.670   8.251
  907SOL    HW2 3054   1.538   0.794   8.189
  908SOL     OW 3055   0.461   1.266   9.175
  908SOL    HW1 3056   0.411   1.267   9.089
  908SOL    HW2 3057   0.398   1.248   9.251
  909SOL     OW 3058   1.111   1.776   7.685
  909SOL    HW1 3059   1.051   1.714   7.735
  909SOL    HW2 3060   1.142   1.732   7.600
  910SOL     OW 3061   0.202   0.285   8.946
  910SOL    HW1 3062   0.122   0.345   8.933
  910SOL    HW2 3063   0.192   0.236   9.032
  911SOL     OW 3064   1.632   1.377   7.529
  911SOL    HW1 3065   1.600   1.471   7.519
  911SOL    HW2 3066   1.556   1.314   7.517
  912SOL     OW 3067   0.464   1.743   7.771
  912SOL    HW1 3068   0.497   1.782   7.857
  912SOL    HW2 3069   0.540   1.736   7.706
  913SOL     OW 3070   1.400   0.107   7.874
  913SOL    HW1 3071   1.376   0.070   7.784
  913SOL    HW2 3072   1.499   0.123   7.878
  914SOL     OW 3073   0.249   1.785   8.689
  914SOL    HW1 3074   0.306   1.720   8.739
  914SOL    HW2 3075   0.233   1.752   8.596
  915SOL     OW 3076   0.940   1.698   8.352
  915SOL    HW1 3077   1.020   1.641   8.373
  915SOL    HW2 3078   0.891   1.658   8.275
  916SOL     OW 3079   0.382   0.700   7.928
  916SOL    HW1 3080   0.427   0.610   7.925
  916SOL    HW2 3081   0.288   0.689   7.961
  917SOL     OW 3082   1.547   0.222   9.177
  917SOL    HW1 3083   1.542   0.259   9.269
  917SOL    HW2 3084   1.475   0.153   9.165
  918SOL     OW 3085   0.614   0.122   7.565
  918SOL    HW1 3086   0.712   0.100   7.572
  918SOL    HW2 3087   0.583   0.105   7.472
  919SOL     OW 3088   0.781   0.264   9.197
  919SOL    HW1 3089   0.848   0.203   9.240
  919SOL    HW2 3090   0.708   0.283   9.262
  920SOL     OW 3091   0.888   1.514   8.643
  920SOL    HW1 3092   0.865   1.489   8.549
  920SOL    HW2 3093   0.949   1.445   8.682
  921SOL     OW 3094   1.351   0.590   8.881
  921SOL    HW1 3095   1.379   0.547   8.966
  921SOL    HW2 3096   1.376   0.686   8.882
  922SOL     OW 3097   0.803   1.402   8.372
  922SOL    HW1 3098   0.893   1.416   8.330
  922SOL    HW2 3099   0.732   1.404   8.301
  923SOL     OW 3100   0.922   0.503   8.347
  923SOL    HW1 3101   0.897   0.494   8.251
  923SOL    HW2 3102   0.970   0.421   8.378
  924SOL     OW 3103   0.539   0.064   7.960
  924SOL    HW1 3104   0.458   0.065   8.018
  924SOL    HW2 3105   0.542   0.147   7.905
  925SOL     OW 3106   1.434   1.188   7.489
  925SOL    HW1 3107   1.466   1.112   7.546
  925SOL    HW2 3108   1.342   1.215   7.519
  926SOL     OW 3109   0.297   0.035   7.619
  926SOL    HW1 3110   0.346   0.119   7.598
  926SOL    HW2 3111   0.359  -0.030   7.664
  927SOL     OW 3112   0.935   0.236   7.928
  927SOL    HW1 3113   0.887   0.277   7.850
  927SOL    HW2 3114   1.034   0.234   7.909
  928SOL     OW 3115   1.076   0.683   8.912
  928SOL    HW1 3116   0.996   0.622   8.915
  928SOL    HW2 3117   1.157   0.630   8.888
  929SOL     OW 3118   1.227   1.570   8.241
  929SOL    HW1 3119   1.248   1.644   8.176
  929SOL    HW2 3120   1.295   1.570   8.314
  930SOL     OW 3121   0.459   1.152   8.189
  930SOL    HW1 3122   0.388   1.125   8.254
  930SOL    HW2 3123   0.433   1.124   8.096
  931SOL     OW 3124   1.271   1.797   8.039
  931SOL    HW1 3125   1.315   1.861   7.975
  931SOL    HW2 3126   1.221   1.849   8.109
  932SOL     OW 3127   1.032   0.549   7.464
  932SOL    HW1 3128   0.991   0.631   7.425
  932SOL    HW2 3129   1.096   0.575   7.537
  933SOL     OW 3130   0.078   0.556   8.834
  933SOL    HW1 3131   0.170   0.555   8.793
  933SOL    HW2 3132   0.072   0.630   8.901
  934SOL     OW 3133   0.561   0.222   8.595
  934SOL    HW1 3134   0.599   0.138   8.632
  934SOL    HW2 3135   0.473   0.241   8.639
  935SOL     OW 3136   0.866   0.454   8.090
  935SOL    HW1 3137   0.834   0.526   8.028
  935SOL    HW2 3138   0.890   0.373   8.037
  936SOL     OW 3139   1.017   0.039   8.201
  936SOL    HW1 3140   0.945   0.044   8.132
  936SOL    HW2 3141   0.993  -0.030   8.270
  937SOL     OW 3142   1.429   1.173   8.315
  937SOL    HW1 3143   1.374   1.089   8.308
  937SOL    HW2 3144   1.455   1.202   8.223
  938SOL     OW 3145   1.466   0.590   8.440
  938SOL    HW1 3146   1.436   0.495   8.447
  938SOL    HW2 3147   1.539   0.606   8.506
  939SOL     OW 3148   1.857   0.833   7.825
  939SOL    HW1 3149   1.899   0.769   7.889
  939SOL    HW2 3150   1.819   0.782   7.747
  940SOL     OW 3151   0.488   1.385   7.622
  940SOL    HW1 3152   0.401   1.370   7.669
  940SOL    HW2 3153   0.471   1.411   7.527
  941SOL     OW 3154   1.664   1.280   8.105
  941SOL    HW1 3155   1.763   1.288   8.119
  941SOL    HW2 3156   1.619   1.364   8.136
  942SOL     OW 3157   1.390   0.575   7.526
  942SOL    HW1 3158   1.336   0.554   7.607
  942SOL    HW2 3159   1.481   0.534   7.535
  943SOL     OW 3160   0.527   0.256   7.776
  943SOL    HW1 3161   0.554   0.197   7.701
  943SOL    HW2 3162   0.527   0.351   7.745
  944SOL     OW 3163   1.754   1.223   9.036
  944SOL    HW1 3164   1.845   1.184   9.023
  944SOL    HW2 3165   1.762   1.319   9.060
  945SOL     OW 3166   1.064   1.347   8.788
  945SOL    HW1 3167   0.984   1.324   8.843
  945SOL    HW2 3168   1.147   1.321   8.837
  946SOL     OW 3169   1.592   1.629   9.073
  946SOL    HW1 3170   1.619   1.663   8.983
  946SOL    HW2 3171   1.671   1.591   9.119
  947SOL     OW 3172   1.111   1.195   8.548
  947SOL    HW1 3173   1.071   1.239   8.629
  947SOL    HW2 3174   1.070   1.232   8.465
  948SOL     OW 3175   1.638   1.099   8.527
  948SOL    HW1 3176   1.643   1.180   8.586
  948SOL    HW2 3177   1.552   1.101   8.476
  949SOL     OW 3178   0.915   0.089   8.850
  949SOL    HW1 3179   0.940   0.069   8.755
  949SOL    HW2 3180   0.987   0.145   8.892
  950SOL     OW 3181   0.980   1.116   9.167
  950SOL    HW1 3182   0.881   1.122   9.177
  950SOL    HW2 3183   1.003   1.036   9.111
  951SOL     OW 3184   0.705   1.050   7.816
  951SOL    HW1 3185   0.691   1.057   7.915
  951SOL    HW2 3186   0.789   0.999   7.798
  952SOL     OW 3187   0.410   0.813   8.699
  952SOL    HW1 3188   0.496   0.825   8.749
  952SOL    HW2 3189   0.368   0.726   8.726
  953SOL     OW 3190   1.274   0.386   8.710
  953SOL    HW1 3191   1.295   0.460   8.774
  953SOL    HW2 3192   1.185   0.403   8.667
  954SOL     OW 3193   0.064   1.564   8.779
  954SOL    HW1 3194   0.018   1.646   8.745
  954SOL    HW2 3195   0.162   1.583   8.788
  955SOL     OW 3196   0.367   1.100   7.949
  955SOL    HW1 3197   0.360   1.183   7.893
  955SOL    HW2 3198   0.371   1.020   7.889
  956SOL     OW 3199   0.566   0.537   8.313
  956SOL    HW1 3200   0.578   0.603   8.239
  956SOL    HW2 3201   0.612   0.571   8.396
  957SOL     OW 3202   1.252   1.348   7.836
  957SOL    HW1 3203   1.302   1.425   7.876
  957SOL    HW2 3204   1.157   1.350   7.868
  958SOL     OW 3205   1.272   1.445   8.590
  958SOL    HW1 3206   1.319   1.458   8.677
  958SOL    HW2 3207   1.206   1.371   8.599
  959SOL     OW 3208   1.582   0.639   7.920
  959SOL    HW1 3209   1.551   0.700   7.993
  959SOL    HW2 3210   1.632   0.691   7.851
  960SOL     OW 3211   0.354   1.510   8.777
  960SOL    HW1 3212   0.333   1.466   8.690
  960SOL    HW2 3213   0.451   1.536   8.780
  961SOL     OW 3214   0.402   0.751   9.046
  961SOL    HW1 3215   0.470   0.806   8.999
  961SOL    HW2 3216   0.442   0.663   9.073
  962SOL     OW 3217   1.587   0.779   9.118
  962SOL    HW1 3218   1.495   0.817   9.113
  962SOL    HW2 3219   1.647   0.826   9.053
  963SOL     OW 3220   1.013   0.105   9.218
  963SOL    HW1 3221   1.019   0.190   9.166
  963SOL    HW2 3222   1.045   0.029   9.161
  964SOL     OW 3223   0.504   0.050   9.188
  964SOL    HW1 3224   0.462  -0.007   9.118
  964SOL    HW2 3225   0.438   0.119   9.220
  965SOL     OW 3226   0.573   0.870   8.477
  965SOL    HW1 3227   0.617   0.959   8.468
  965SOL    HW2 3228   0.510   0.870   8.554
  966SOL     OW 3229   1.360   0.862   8.493
  966SOL    HW1 3230   1.285   0.862   8.427
  966SOL    HW2 3231   1.397   0.770   8.502
  967SOL     OW 3232   1.209   0.525   7.723
  967SOL    HW1 3233   1.222   0.441   7.777
  967SOL    HW2 3234   1.180   0.599   7.783
  968SOL     OW 3235   0.307   0.213   8.679
  968SOL    HW1 3236   0.284   0.250   8.769
  968SOL    HW2 3237   0.277   0.118   8.673
  969SOL     OW 3238   0.037   1.310   8.730
  969SOL    HW1 3239   0.090   1.261   8.798
  969SOL    HW2 3240   0.059   1.408   8.735
  970SOL     OW 3241   0.732   0.634   8.512
  970SOL    HW1 3242   0.791   0.608   8.436
  970SOL    HW2 3243   0.704   0.730   8.501
  971SOL     OW 3244   1.728   0.935   9.302
  971SOL    HW1 3245   1.682   0.928   9.213
  971SOL    HW2 3246   1.666   0.979   9.368
  972SOL     OW 3247   0.307   0.063   8.066
  972SOL    HW1 3248   0.296   0.157   8.099
  972SOL    HW2 3249   0.302   0.000   8.143
  973SOL     OW 3250   1.622   0.367   7.822
  973SOL    HW1 3251   1.624   0.291   7.886
  973SOL    HW2 3252   1.574   0.444   7.862
  974SOL     OW 3253   1.023   0.766   8.414
  974SOL    HW1 3254   1.038   0.787   8.510
  974SOL    HW2 3255   0.993   0.671   8.405
  975SOL     OW 3256   0.980   1.573   9.148
  975SOL    HW1 3257   0.960   1.617   9.060
  975SOL    HW2 3258   1.019   1.482   9.132
  976SOL     OW 3259   1.859   1.518   9.053
  976SOL    HW1 3260   1.873   1.545   8.958
  976SOL    HW2 3261   1.942   1.540   9.106
  977SOL     OW 3262   0.350   0.898   9.252
  977SOL    HW1 3263   0.426   0.942   9.300
  977SOL    HW2 3264   0.385   0.851   9.170
  978SOL     OW 3265   1.540   0.274   7.573
  978SOL    HW1 3266   1.479   0.199   7.596
  978SOL    HW2 3267   1.562   0.326   7.656
  979SOL     OW 3268   1.303   0.838   7.490
  979SOL    HW1 3269   1.337   0.745   7.505
  979SOL    HW2 3270   1.321   0.865   7.395
  980SOL     OW 3271   1.068   1.333   8.297
  980SOL    HW1 3272   1.075   1.249   8.242
  980SOL    HW2 3273   1.130   1.402   8.261
  981SOL     OW 3274   0.319   0.810   8.397
  981SOL    HW1 3275   0.412   0.846   8.402
  981SOL    HW2 3276   0.313   0.725   8.449
  982SOL     OW 3277   0.339   0.509   8.454
  982SOL    HW1 3278   0.287   0.426   8.437
  982SOL    HW2 3279   0.416   0.514   8.390
  983SOL     OW 3280   1.138   0.380   9.126
  983SOL    HW1 3281   1.093   0.443   9.190
  983SOL    HW2 3282   1.231   0.411   9.109
  984SOL     OW 3283   1.160   0.207   8.925
  984SOL    HW1 3284   1.160   0.271   9.002
  984SOL    HW2 3285   1.188   0.255   8.842
  985SOL     OW 3286   0.008   1.326   7.648
  985SOL    HW1 3287  -0.085   1.347   7.617
  985SOL    HW2 3288   0.018   1.227   7.661
  986SOL     OW 3289   0.088   1.801   8.375
  986SOL    HW1 3290   0.046   1.715   8.348
  986SOL    HW2 3291   0.182   1.804   8.341
  987SOL     OW 3292   0.504   1.568   8.358
  987SOL    HW1 3293   0.570   1.642   8.367
  987SOL    HW2 3294   0.548   1.489   8.316
  988SOL     OW 3295   1.002   0.796   8.686
  988SOL    HW1 3296   1.043   0.764   8.772
  988SOL    HW2 3297   0.906   0.769   8.683
  989SOL     OW 3298   0.040   0.544   8.562
  989SOL    HW1 3299   0.125   0.511   8.521
  989SOL    HW2 3300   0.053   0.559   8.660
  990SOL     OW 3301   0.189   0.520   9.170
  990SOL    HW1 3302   0.248   0.480   9.100
  990SOL    HW2 3303   0.131   0.591   9.129
  991SOL     OW 3304   1.369   0.950   9.108
  991SOL    HW1 3305   1.408   1.039   9.128
  991SOL    HW2 3306   1.379   0.930   9.011
  992SOL     OW 3307   0.815   0.572   7.773
  992SOL    HW1 3308   0.822   0.483   7.727
  992SOL    HW2 3309   0.721   0.606   7.765
  993SOL     OW 3310   1.657   0.604   8.654
  993SOL    HW1 3311   1.619   0.535   8.716
  993SOL    HW2 3312   1.739   0.568   8.610
  994SOL     OW 3313   0.252   1.564   9.192
  994SOL    HW1 3314   0.222   1.621   9.268
  994SOL    HW2 3315   0.245   1.467   9.218
  995SOL     OW 3316   0.671   0.464   8.717
  995SOL    HW1 3317   0.637   0.375   8.687
  995SOL    HW2 3318   0.697   0.518   8.637
  996SOL     OW 3319   0.930   1.678   8.913
  996SOL    HW1 3320   0.906   1.660   8.818
  996SOL    HW2 3321   0.960   1.772   8.923
  997SOL     OW 3322   0.473   0.500   7.639
  997SOL    HW1 3323   0.534   0.580   7.643
  997SOL    HW2 3324   0.378   0.531   7.646
  998SOL     OW 3325   0.159   1.137   8.914
  998SOL    HW1 3326   0.181   1.076   8.990
  998SOL    HW2 3327   0.169   1.088   8.828
  999SOL     OW 3328   1.347   1.059   8.682
  999SOL    HW1 3329   1.371   0.996   8.608
  999SOL    HW2 3330   1.257   1.099   8.664
 1000SOL     OW 3331   1.302   0.855   7.757
 1000SOL    HW1 3332   1.216   0.824   7.799
 1000SOL    HW2 3333   1.298   0.841   7.658
 1001SOL     OW 3334   1.759   1.747   8.602
 1001SOL    HW1 3335   1.820   1.777   8.529
 1001SOL    HW2 3336   1.721   1.658   8.580
 1002SOL     OW 3337   1.252   1.731   8.576
 1002SOL    HW1 3338   1.336   1.736   8.522
 1002SOL    HW2 3339   1.229   1.635   8.594
 1003SOL     OW 3340   0.083   1.258   8.470
 1003SOL    HW1 3341   0.078   1.257   8.570
 1003SOL    HW2 3342   0.000   1.217   8.432
 1004SOL     OW 3343   0.688   1.662   9.164
 1004SOL    HW1 3344   0.632   1.743   9.173
 1004SOL    HW2 3345   0.740   1.666   9.078
 1005SOL     OW 3346   1.726   0.135   7.971
 1005SOL    HW1 3347   1.799   0.118   7.904
 1005SOL    HW2 3348   1.695   0.048   8.009
 1006SOL     OW 3349   1.388   1.573   7.925
 1006SOL    HW1 3350   1.455   1.585   7.851
 1006SOL    HW2 3351   1.348   1.662   7.948
 1007SOL     OW 3352   0.130   1.794   9.299
 1007SOL    HW1 3353   0.089   1.720   9.352
 1007SOL    HW2 3354   0.194   1.845   9.357
 1008SOL     OW 3355   1.280   0.927   8.120
 1008SOL    HW1 3356   1.340   0.846   8.122
 1008SOL    HW2 3357   1.320   0.996   8.060
 1009SOL     OW 3358   0.830   1.273   8.870
 1009SOL    HW1 3359   0.825   1.306   8.965
 1009SOL    HW2 3360   0.744   1.292   8.824
 1010SOL     OW 3361   0.672   1.616   7.602
 1010SOL    HW1 3362   0.681   1.626   7.503
 1010SOL    HW2 3363   0.632   1.527   7.623
 1011SOL     OW 3364   1.650   1.720   8.842
 1011SOL    HW1 3365   1.703   1.730   8.758
 1011SOL    HW2 3366   1.623   1.810   8.876
 1012SOL     OW 3367   1.841   0.175   8.411
 1012SOL    HW1 3368   1.880   0.090   8.375
 1012SOL    HW2 3369   1.743   0.177   8.392
 1013SOL     OW 3370   0.263   0.326   8.168
 1013SOL    HW1 3371   0.184   0.377   8.134
 1013SOL    HW2 3372   0.254   0.311   8.266
 1014SOL     OW 3373   1.194   1.612   7.479
 1014SOL    HW1 3374   1.200   1.519   7.516
 1014SOL    HW2 3375   1.135   1.612   7.399
 1015SOL     OW 3376   0.822   1.002   8.820
 1015SOL    HW1 3377   0.862   1.001   8.728
 1015SOL    HW2 3378   0.832   1.094   8.860
 1016SOL     OW 3379   0.916   0.910   7.739
 1016SOL    HW1 3380   0.979   0.948   7.671
 1016SOL    HW2 3381   0.956   0.827   7.778
 1017SOL     OW 3382   1.504   1.607   7.492
 1017SOL    HW1 3383   1.412   1.644   7.499
 1017SOL    HW2 3384   1.542   1.627   7.402
 1018SOL     OW 3385   0.372   1.288   8.938
 1018SOL    HW1 3386   0.359   1.381   8.904
 1018SOL    HW2 3387   0.288   1.236   8.925
 1019SOL     OW 3388   1.614   1.292   8.737
 1019SOL    HW1 3389   1.674   1.295   8.817
 1019SOL    HW2 3390   1.539   1.356   8.750
 1020SOL     OW 3391   1.039   1.098   8.144
 1020SOL    HW1 3392   0.969   1.051   8.198
 1020SOL    HW2 3393   1.098   1.030   8.101
 1021SOL     OW 3394   1.014   0.236   8.419
 1021SOL    HW1 3395   1.006   0.200   8.326
 1021SOL    HW2 3396   1.012   0.160   8.484
 1022SOL     OW 3397   0.590   1.487   7.939
 1022SOL    HW1 3398   0.632   1.429   7.869
 1022SOL    HW2 3399   0.546   1.566   7.895
 1023SOL     OW 3400   1.709   0.385   8.829
 1023SOL    HW1 3401   1.782   0.454   8.833
 1023SOL    HW2 3402   1.737   0.310   8.770
 1024SOL     OW 3403   0.255   1.348   7.738
 1024SOL    HW1 3404   0.159   1.349   7.711
 1024SOL    HW2 3405   0.267   1.401   7.822
 1025SOL     OW 3406   0.105   1.013   9.174
 1025SOL    HW1 3407   0.028   0.980   9.228
 1025SOL    HW2 3408   0.190   0.983   9.216
 1026SOL     OW 3409   0.672   0.203   8.937
 1026SOL    HW1 3410   0.762   0.187   8.897
 1026SOL    HW2 3411   0.680   0.208   9.036
 1027SOL     OW 3412   0.075   0.345   7.481
 1027SOL    HW1 3413  -0.017   0.317   7.452
 1027SOL    HW2 3414   0.106   0.422   7.425
 1028SOL     OW 3415   1.440   0.856   8.846
 1028SOL    HW1 3416   1.383   0.908   8.783
 1028SOL    HW2 3417   1.536   0.868   8.822
 1029SOL     OW 3418   0.072   0.166   7.766
 1029SOL    HW1 3419   0.055   0.249   7.712
 1029SOL    HW2 3420   0.162   0.129   7.744
 1030SOL     OW 3421   1.183   1.335   7.567
 1030SOL    HW1 3422   1.084   1.324   7.569
 1030SOL    HW2 3423   1.217   1.350   7.660
 1031SOL     OW 3424   0.613   0.842   8.879
 1031SOL    HW1 3425   0.669   0.923   8.862
 1031SOL    HW2 3426   0.672   0.762   8.882
 1032SOL     OW 3427   1.493   1.767   8.407
 1032SOL    HW1 3428   1.526   1.831   8.338
 1032SOL    HW2 3429   1.559   1.761   8.482
 1033SOL     OW 3430   0.716   0.565   9.156
 1033SOL    HW1 3431   0.735   0.630   9.230
 1033SOL    HW2 3432   0.776   0.485   9.165
 1034SOL     OW 3433   1.450   1.220   9.081
 1034SOL    HW1 3434   1.441   1.210   9.180
 1034SOL    HW2 3435   1.546   1.213   9.055
 1035SOL     OW 3436   0.390   1.741   9.008
 1035SOL    HW1 3437   0.299   1.782   9.006
 1035SOL    HW2 3438   0.383   1.647   9.040
 1036SOL     OW 3439   1.674   0.883   8.702
 1036SOL    HW1 3440   1.647   0.794   8.665
 1036SOL    HW2 3441   1.675   0.951   8.629
 1037SOL     OW 3442   1.225   0.325   7.897
 1037SOL    HW1 3443   1.290   0.251   7.886
 1037SOL    HW2 3444   1.245   0.375   7.981
 1038SOL     OW 3445   0.594   0.745   8.100
 1038SOL    HW1 3446   0.644   0.830   8.081
 1038SOL    HW2 3447   0.506   0.747   8.052
 1039SOL     OW 3448   1.777   0.342   9.090
 1039SOL    HW1 3449   1.760   0.373   8.996
 1039SOL    HW2 3450   1.693   0.305   9.128
 1040SOL     OW 3451   1.730   0.934   8.965
 1040SOL    HW1 3452   1.768   1.025   8.980
 1040SOL    HW2 3453   1.722   0.917   8.866
 1041SOL     OW 3454   0.859   1.374   7.464
 1041SOL    HW1 3455   0.813   1.389   7.552
 1041SOL    HW2 3456   0.903   1.459   7.434
 1042SOL     OW 3457   0.661   1.790   8.401
 1042SOL    HW1 3458   0.615   1.878   8.388
 1042SOL    HW2 3459   0.760   1.802   8.394
 1043SOL     OW 3460   0.859   0.956   8.309
 1043SOL    HW1 3461   0.913   0.887   8.357
 1043SOL    HW2 3462   0.827   1.025   8.375
 1044SOL     OW 3463   1.083   0.984   7.535
 1044SOL    HW1 3464   1.060   1.037   7.453
 1044SOL    HW2 3465   1.164   0.928   7.516
 1045SOL     OW 3466   1.861   1.569   8.299
 1045SOL    HW1 3467   1.790   1.557   8.229
 1045SOL    HW2 3468   1.862   1.490   8.359
 1046SOL     OW 3469   0.221   1.314   9.292
 1046SOL    HW1 3470   0.156   1.241   9.271
 1046SOL    HW2 3471   0.225   1.328   9.390
 1047SOL     OW 3472   0.079   1.240   8.101
 1047SOL    HW1 3473   0.078   1.193   8.189
 1047SOL    HW2 3474   0.161   1.212   8.050
 1048SOL     OW 3475   0.672   1.391   9.072
 1048SOL    HW1 3476   0.594   1.341   9.110
 1048SOL    HW2 3477   0.669   1.486   9.103
 1049SOL     OW 3478   1.824   0.192   8.675
 1049SOL    HW1 3479   1.820   0.102   8.719
 1049SOL    HW2 3480   1.827   0.181   8.576
 1050SOL     OW 3481   0.428   0.424   7.968
 1050SOL    HW1 3482   0.458   0.352   7.906
 1050SOL    HW2 3483   0.389   0.384   8.051
 1051SOL     OW 3484   1.705   1.487   8.552
 1051SOL    HW1 3485   1.612   1.462   8.525
 1051SOL    HW2 3486   1.731   1.437   8.634
 1052SOL     OW 3487   0.317   0.547   8.728
 1052SOL    HW1 3488   0.355   0.488   8.800
 1052SOL    HW2 3489   0.357   0.521   8.640
 1053SOL     OW 3490   0.812   1.586   8.135
 1053SOL    HW1 3491   0.844   1.596   8.041
 1053SOL    HW2 3492   0.733   1.524   8.137
 1054SOL     OW 3493   1.424   0.214   8.560
 1054SOL    HW1 3494   1.476   0.149   8.615
 1054SOL    HW2 3495   1.375   0.277   8.621
 1055SOL     OW 3496   1.001   0.034   8.602
 1055SOL    HW1 3497   0.938  -0.038   8.571
 1055SOL    HW2 3498   1.094  -0.002   8.602
 1056SOL     OW 3499   0.770   1.330   7.749
 1056SOL    HW1 3500   0.724   1.243   7.766
 1056SOL    HW2 3501   0.861   1.327   7.790
 1057SOL     OW 3502   0.618   1.567   8.732
 1057SOL    HW1 3503   0.613   1.649   8.789
 1057SOL    HW2 3504   0.707   1.564   8.687
 1058SOL     OW 3505   1.352   0.052   7.616
 1058SOL    HW1 3506   1.387   0.011   7.532
 1058SOL    HW2 3507   1.262   0.014   7.636
 1059SOL     OW 3508   1.300   0.453   8.139
 1059SOL    HW1 3509   1.241   0.533   8.143
 1059SOL    HW2 3510   1.315   0.418   8.232
 1060SOL     OW 3511   1.593   0.221   8.330
 1060SOL    HW1 3512   1.509   0.220   8.384
 1060SOL    HW2 3513   1.595   0.304   8.274
 1061SOL     OW 3514   0.039   1.077   7.748
 1061SOL    HW1 3515   0.138   1.066   7.739
 1061SOL    HW2 3516  -0.001   0.991   7.780
 1062SOL     OW 3517   0.875   1.646   7.785
 1062SOL    HW1 3518   0.798   1.611   7.731
 1062SOL    HW2 3519   0.843   1.717   7.847
 1063SOL     OW 3520   0.230   0.628   9.423
 1063SOL    HW1 3521   0.137   0.626   9.460
 1063SOL    HW2 3522   0.231   0.589   9.331
 1064SOL     OW 3523   0.225   0.275  10.306
 1064SOL    HW1 3524   0.260   0.258  10.398
 1064SOL    HW2 3525   0.137   0.230  10.294
 1065SOL     OW 3526   0.019   0.368   9.957
 1065SOL    HW1 3527  -0.063   0.411   9.996
 1065SOL    HW2 3528  -0.009   0.295   9.894
 1066SOL     OW 3529   0.569   1.275  10.475
 1066SOL    HW1 3530   0.476   1.268  10.438
 1066SOL    HW2 3531   0.580   1.364  10.519
 1067SOL     OW 3532   1.555   1.511  10.013
 1067SOL    HW1 3533   1.498   1.495  10.094
 1067SOL    HW2 3534   1.496   1.521   9.933
 1068SOL     OW 3535   1.135   0.703  10.027
 1068SOL    HW1 3536   1.192   0.781  10.002
 1068SOL    HW2 3537   1.075   0.729  10.103
 1069SOL     OW 3538   1.755   0.607   9.541
 1069SOL    HW1 3539   1.743   0.594   9.442
 1069SOL    HW2 3540   1.725   0.526   9.590
 1070SOL     OW 3541   0.768   1.144  10.333
 1070SOL    HW1 3542   0.690   1.161  10.393
 1070SOL    HW2 3543   0.802   1.231  10.297
 1071SOL     OW 3544   0.685   1.012   9.975
 1071SOL    HW1 3545   0.754   0.996  10.045
 1071SOL    HW2 3546   0.612   1.069  10.013
 1072SOL     OW 3547   0.335   1.435  10.371
 1072SOL    HW1 3548   0.257   1.404  10.318
 1072SOL    HW2 3549   0.393   1.493  10.314
 1073SOL     OW 3550   1.460   1.505  10.649
 1073SOL    HW1 3551   1.484   1.599  10.675
 1073SOL    HW2 3552   1.444   1.451  10.731
 1074SOL     OW 3553   0.438   0.392  10.809
 1074SOL    HW1 3554   0.520   0.336  10.818
 1074SOL    HW2 3555   0.357   0.334  10.813
 1075SOL     OW 3556   1.603   0.447  10.047
 1075SOL    HW1 3557   1.529   0.493   9.997
 1075SOL    HW2 3558   1.654   0.515  10.100
 1076SOL     OW 3559   0.231   1.713   9.793
 1076SOL    HW1 3560   0.265   1.790   9.847
 1076SOL    HW2 3561   0.275   1.713   9.703
 1077SOL     OW 3562   0.230   1.434   9.848
 1077SOL    HW1 3563   0.204   1.530   9.848
 1077SOL    HW2 3564   0.159   1.380   9.893
 1078SOL     OW 3565   0.240   1.091  10.196
 1078SOL    HW1 3566   0.254   1.007  10.248
 1078SOL    HW2 3567   0.185   1.155  10.251
 1079SOL     OW 3568   0.620   1.786  10.749
 1079SOL    HW1 3569   0.528   1.769  10.784
 1079SOL    HW2 3570   0.648   1.878  10.775
 1080SOL     OW 3571   0.606   0.964   9.433
 1080SOL    HW1 3572   0.613   1.048   9.379
 1080SOL    HW2 3573   0.652   0.977   9.521
 1081SOL     OW 3574   1.594   0.114  10.790
 1081SOL    HW1 3575   1.576   0.181  10.718
 1081SOL    HW2 3576   1.591   0.160  10.879
 1082SOL     OW 3577   0.122   0.643   9.873
 1082SOL    HW1 3578   0.077   0.555   9.890
 1082SOL    HW2 3579   0.121   0.697   9.957
 1083SOL     OW 3580   1.842   1.767   9.669
 1083SOL    HW1 3581   1.896   1.738   9.749
 1083SOL    HW2 3582   1.872   1.857   9.640
 1084SOL     OW 3583   0.027   1.596   9.427
 1084SOL    HW1 3584   0.008   1.500   9.448
 1084SOL    HW2 3585  -0.006   1.654   9.502
 1085SOL     OW 3586   1.689   0.922   9.922
 1085SOL    HW1 3587   1.784   0.893   9.930
 1085SOL    HW2 3588   1.681   0.987   9.847
 1086SOL     OW 3589   1.641   1.108   9.742
 1086SOL    HW1 3590   1.727   1.110   9.690
 1086SOL    HW2 3591   1.655   1.155   9.830
 1087SOL     OW 3592   0.613   1.365  10.036
 1087SOL    HW1 3593   0.564   1.278  10.045
 1087SOL    HW2 3594   0.590   1.408   9.949
 1088SOL     OW 3595   0.809   0.004   9.812
 1088SOL    HW1 3596   0.849   0.095   9.803
 1088SOL    HW2 3597   0.709   0.012   9.818
 1089SOL     OW 3598   0.197   0.976  10.574
 1089SOL    HW1 3599   0.286   0.931  10.560
 1089SOL    HW2 3600   0.124   0.911  10.555
 1090SOL     OW 3601   1.525   0.999   9.500
 1090SOL    HW1 3602   1.462   0.923   9.513
 1090SOL    HW2 3603   1.573   1.017   9.586
 1091SOL     OW 3604   1.466   1.417  10.263
 1091SOL    HW1 3605   1.407   1.423  10.343
 1091SOL    HW2 3606   1.451   1.329  10.217
 1092SOL     OW 3607   1.667   1.714   9.882
 1092SOL    HW1 3608   1.626   1.691   9.794
 1092SOL    HW2 3609   1.649   1.640   9.947
 1093SOL     OW 3610   0.598   0.729   9.580
 1093SOL    HW1 3611   0.622   0.798   9.512
 1093SOL    HW2 3612   0.520   0.762   9.634
 1094SOL     OW 3613   1.281   0.345  10.254
 1094SOL    HW1 3614   1.195   0.295  10.241
 1094SOL    HW2 3615   1.343   0.291  10.310
 1095SOL     OW 3616   1.576   1.662   9.617
 1095SOL    HW1 3617   1.665   1.708   9.620
 1095SOL    HW2 3618   1.555   1.638   9.522
 1096SOL     OW 3619   0.807   0.605  10.775
 1096SOL    HW1 3620   0.760   0.602  10.864
 1096SOL    HW2 3621   0.756   0.550  10.709
 1097SOL     OW 3622   0.991   0.410  10.552
 1097SOL    HW1 3623   0.914   0.444  10.606
 1097SOL    HW2 3624   0.957   0.359  10.473
 1098SOL     OW 3625   1.041   0.701   9.739
 1098SOL    HW1 3626   1.067   0.697   9.835
 1098SOL    HW2 3627   0.956   0.650   9.725
 1099SOL     OW 3628   0.076   0.811  10.099
 1099SOL    HW1 3629   0.175   0.799  10.108
 1099SOL    HW2 3630   0.052   0.906  10.120
 1100SOL     OW 3631   0.130   1.821  10.881
 1100SOL    HW1 3632   0.120   1.806  10.980
 1100SOL    HW2 3633   0.044   1.857  10.845
 1101SOL     OW 3634   0.865   0.348   9.505
 1101SOL    HW1 3635   0.924   0.411   9.456
 1101SOL    HW2 3636   0.884   0.254   9.476
 1102SOL     OW 3637   1.362   1.144   9.855
 1102SOL    HW1 3638   1.445   1.115   9.807
 1102SOL    HW2 3639   1.313   1.211   9.799
 1103SOL     OW 3640   0.550   0.196  10.195
 1103SOL    HW1 3641   0.545   0.191  10.295
 1103SOL    HW2 3642   0.552   0.292  10.166
 1104SOL     OW 3643   1.008   1.456   9.787
 1104SOL    HW1 3644   0.962   1.528   9.735
 1104SOL    HW2 3645   1.004   1.476   9.885
 1105SOL     OW 3646   0.351   1.801  10.163
 1105SOL    HW1 3647   0.401   1.715  10.169
 1105SOL    HW2 3648   0.416   1.878  10.160
 1106SOL     OW 3649   1.795   1.066  10.183
 1106SOL    HW1 3650   1.733   1.051  10.107
 1106SOL    HW2 3651   1.743   1.077  10.268
 1107SOL     OW 3652   0.321   0.943   9.552
 1107SOL    HW1 3653   0.403   0.982   9.510
 1107SOL    HW2 3654   0.294   0.861   9.503
 1108SOL     OW 3655   1.458   0.735  10.038
 1108SOL    HW1 3656   1.453   0.670  10.113
 1108SOL    HW2 3657   1.538   0.794  10.051
 1109SOL     OW 3658   1.111   1.776   9.547
 1109SOL    HW1 3659   1.051   1.714   9.597
 1109SOL    HW2 3660   1.142   1.732   9.462
 1110SOL     OW 3661   1.632   1.377   9.391
 1110SOL    HW1 3662   1.600   1.471   9.381
 1110SOL    HW2 3663   1.556   1.314   9.379
 1111SOL     OW 3664   0.464   1.743   9.633
 1111SOL    HW1 3665   0.497   1.782   9.719
 1111SOL    HW2 3666   0.540   1.736   9.568
 1112SOL     OW 3667   1.400   0.107   9.736
 1112SOL    HW1 3668   1.376   0.070   9.646
 1112SOL    HW2 3669   1.499   0.123   9.740
 1113SOL     OW 3670   0.249   1.785  10.551
 1113SOL    HW1 3671   0.306   1.720  10.601
 1113SOL    HW2 3672   0.233   1.752  10.458
 1114SOL     OW 3673   0.940   1.698  10.214
 1114SOL    HW1 3674   1.020   1.641  10.235
 1114SOL    HW2 3675   0.891   1.658  10.137
 1115SOL     OW 3676   0.382   0.700   9.790
 1115SOL    HW1 3677   0.427   0.610   9.787
 1115SOL    HW2 3678   0.288   0.689   9.823
 1116SOL     OW 3679   0.614   0.122   9.427
 1116SOL    HW1 3680   0.712   0.100   9.434
 1116SOL    HW2 3681   0.583   0.105   9.334
 1117SOL     OW 3682   0.888   1.514  10.505
 1117SOL    HW1 3683   0.865   1.489  10.411
 1117SOL    HW2 3684   0.949   1.445  10.544
 1118SOL     OW 3685   0.803   1.402  10.234
 1118SOL    HW1 3686   0.893   1.416  10.192
 1118SOL    HW2 3687   0.732   1.404  10.163
 1119SOL     OW 3688   0.922   0.503  10.209
 1119SOL    HW1 3689   0.897   0.494  10.113
 1119SOL    HW2 3690   0.970   0.421  10.240
 1120SOL     OW 3691   0.539   0.064   9.822
 1120SOL    HW1 3692   0.458   0.065   9.880
 1120SOL    HW2 3693   0.542   0.147   9.767
 1121SOL     OW 3694   1.434   1.188   9.351
 1121SOL    HW1 3695   1.466   1.112   9.408
 1121SOL    HW2 3696   1.342   1.215   9.381
 1122SOL     OW 3697   0.297   0.035   9.481
 1122SOL    HW1 3698   0.346   0.119   9.460
 1122SOL    HW2 3699   0.359  -0.030   9.526
 1123SOL     OW 3700   0.935   0.236   9.790
 1123SOL    HW1 3701   0.887   0.277   9.712
 1123SOL    HW2 3702   1.034   0.234   9.771
 1124SOL     OW 3703   1.227   1.570  10.103
 1124SOL    HW1 3704   1.248   1.644  10.038
 1124SOL    HW2 3705   1.295   1.570  10.176
 1125SOL     OW 3706   0.459   1.152  10.051
 1125SOL    HW1 3707   0.388   1.125  10.116
 1125SOL    HW2 3708   0.433   1.124   9.958
 1126SOL     OW 3709   1.271   1.797   9.901
 1126SOL    HW1 3710   1.315   1.861   9.837
 1126SOL    HW2 3711   1.221   1.849   9.971
 1127SOL     OW 3712   1.032   0.549   9.326
 1127SOL    HW1 3713   0.991   0.631   9.287
 1127SOL    HW2 3714   1.096   0.575   9.399
 1128SOL     OW 3715   0.078   0.556  10.696
 1128SOL    HW1 3716   0.170   0.555  10.655
 1128SOL    HW2 3717   0.072   0.630  10.763
 1129SOL     OW 3718   0.561   0.222  10.457
 1129SOL    HW1 3719   0.599   0.138  10.494
 1129SOL    HW2 3720   0.473   0.241  10.501
 1130SOL     OW 3721   0.866   0.454   9.952
 1130SOL    HW1 3722   0.834   0.526   9.890
 1130SOL    HW2 3723   0.890   0.373   9.899
 1131SOL     OW 3724   1.017   0.039  10.063
 1131SOL    HW1 3725   0.945   0.044   9.994
 1131SOL    HW2 3726   0.993  -0.030  10.132
 1132SOL     OW 3727   1.429   1.173  10.177
 1132SOL    HW1 3728   1.374   1.089  10.170
 1132SOL    HW2 3729   1.455   1.202  10.085
 1133SOL     OW 3730   1.466   0.590  10.302
 1133SOL    HW1 3731   1.436   0.495  10.309
 1133SOL    HW2 3732   1.539   0.606  10.368
 1134SOL     OW 3733   1.857   0.833   9.687
 1134SOL    HW1 3734   1.899   0.769   9.751
 1134SOL    HW2 3735   1.819   0.782   9.609
 1135SOL     OW 3736   0.488   1.385   9.484
 1135SOL    HW1 3737   0.401   1.370   9.531
 1135SOL    HW2 3738   0.471   1.411   9.389
 1136SOL     OW 3739   1.664   1.280   9.967
 1136SOL    HW1 3740   1.763   1.288   9.981
 1136SOL    HW2 3741   1.619   1.364   9.998
 1137SOL     OW 3742   1.390   0.575   9.388
 1137SOL    HW1 3743   1.336   0.554   9.469
 1137SOL    HW2 3744   1.481   0.534   9.397
 1138SOL     OW 3745   0.527   0.256   9.638
 1138SOL    HW1 3746   0.554   0.197   9.563
 1138SOL    HW2 3747   0.527   0.351   9.607
 1139SOL     OW 3748   1.064   1.347  10.650
 1139SOL    HW1 3749   0.984   1.324  10.705
 1139SOL    HW2 3750   1.147   1.321  10.699
 1140SOL     OW 3751   1.111   1.195  10.410
 1140SOL    HW1 3752   1.071   1.239  10.491
 1140SOL    HW2 3753   1.070   1.232  10.327
 1141SOL     OW 3754   1.638   1.099  10.389
 1141SOL    HW1 3755   1.643   1.180  10.448
 1141SOL    HW2 3756   1.552   1.101  10.338
 1142SOL     OW 3757   0.915   0.089  10.712
 1142SOL    HW1 3758   0.940   0.069  10.617
 1142SOL    HW2 3759   0.987   0.145  10.754
 1143SOL     OW 3760   0.705   1.050   9.678
 1143SOL    HW1 3761   0.691   1.057   9.777
 1143SOL    HW2 3762   0.789   0.999   9.660
 1144SOL     OW 3763   0.410   0.813  10.561
 1144SOL    HW1 3764   0.496   0.825  10.611
 1144SOL    HW2 3765   0.368   0.726  10.588
 1145SOL     OW 3766   1.274   0.386  10.572
 1145SOL    HW1 3767   1.295   0.460  10.636
 1145SOL    HW2 3768   1.185   0.403  10.529
 1146SOL     OW 3769   0.064   1.564  10.641
 1146SOL    HW1 3770   0.018   1.646  10.607
 1146SOL    HW2 3771   0.162   1.583  10.650
 1147SOL     OW 3772   0.367   1.100   9.811
 1147SOL    HW1 3773   0.360   1.183   9.755
 1147SOL    HW2 3774   0.371   1.020   9.751
 1148SOL     OW 3775   0.566   0.537  10.175
 1148SOL    HW1 3776   0.578   0.603  10.101
 1148SOL    HW2 3777   0.612   0.571  10.258
 1149SOL     OW 3778   1.252   1.348   9.698
 1149SOL    HW1 3779   1.302   1.425   9.738
 1149SOL    HW2 3780   1.157   1.350   9.730
 1150SOL     OW 3781   1.272   1.445  10.452
 1150SOL    HW1 3782   1.319   1.458  10.539
 1150SOL    HW2 3783   1.206   1.371  10.461
 1151SOL     OW 3784   1.582   0.639   9.782
 1151SOL    HW1 3785   1.551   0.700   9.855
 1151SOL    HW2 3786   1.632   0.691   9.713
 1152SOL     OW 3787   0.354   1.510  10.639
 1152SOL    HW1 3788   0.333   1.466  10.552
 1152SOL    HW2 3789   0.451   1.536  10.642
 1153SOL     OW 3790   0.402   0.751  10.908
 1153SOL    HW1 3791   0.470   0.806  10.861
 1153SOL    HW2 3792   0.442   0.663  10.935
 1154SOL     OW 3793   1.587   0.779  10.980
 1154SOL    HW1 3794   1.495   0.817  10.975
 1154SOL    HW2 3795   1.647   0.826  10.915
 1155SOL     OW 3796   0.573   0.870  10.339
 1155SOL    HW1 3797   0.617   0.959  10.330
 1155SOL    HW2 3798   0.510   0.870  10.416
 1156SOL     OW 3799   1.360   0.862  10.355
 1156SOL    HW1 3800   1.285   0.862  10.289
 1156SOL    HW2 3801   1.397   0.770  10.364
 1157SOL     OW 3802   1.209   0.525   9.585
 1157SOL    HW1 3803   1.222   0.441   9.639
 1157SOL    HW2 3804   1.180   0.599   9.645
 1158SOL     OW 3805   0.307   0.213  10.541
 1158SOL    HW1 3806   0.284   0.250  10.631
 1158SOL    HW2 3807   0.277   0.118  10.535
 1159SOL     OW 3808   0.037   1.310  10.592
 1159SOL    HW1 3809   0.090   1.261  10.660
 1159SOL    HW2 3810   0.059   1.408  10.597
 1160SOL     OW 3811   0.732   0.634  10.374
 1160SOL    HW1 3812   0.791   0.608  10.298
 1160SOL    HW2 3813   0.704   0.730  10.363
 1161SOL     OW 3814   0.307   0.063   9.928
 1161SOL    HW1 3815   0.296   0.157   9.961
 1161SOL    HW2 3816   0.302   0.000  10.005
 1162SOL     OW 3817   1.622   0.367   9.684
 1162SOL    HW1 3818   1.624   0.291   9.748
 1162SOL    HW2 3819   1.574   0.444   9.724
 1163SOL     OW 3820   1.023   0.766  10.276
 1163SOL    HW1 3821   1.038   0.787  10.372
 1163SOL    HW2 3822   0.993   0.671  10.267
 1164SOL     OW 3823   0.980   1.573  11.010
 1164SOL    HW1 3824   0.960   1.617  10.922
 1164SOL    HW2 3825   1.019   1.482  10.994
 1165SOL     OW 3826   1.540   0.274   9.435
 1165SOL    HW1 3827   1.479   0.199   9.458
 1165SOL    HW2 3828   1.562   0.326   9.518
 1166SOL     OW 3829   1.303   0.838   9.352
 1166SOL    HW1 3830   1.337   0.745   9.367
 1166SOL    HW2 3831   1.321   0.865   9.257
 1167SOL     OW 3832   1.068   1.333  10.159
 1167SOL    HW1 3833   1.075   1.249  10.104
 1167SOL    HW2 3834   1.130   1.402  10.123
 1168SOL     OW 3835   0.319   0.810  10.259
 1168SOL    HW1 3836   0.412   0.846  10.264
 1168SOL    HW2 3837   0.313   0.725  10.311
 1169SOL     OW 3838   0.339   0.509  10.316
 1169SOL    HW1 3839   0.287   0.426  10.299
 1169SOL    HW2 3840   0.416   0.514  10.252
 1170SOL     OW 3841   1.138   0.380  10.988
 1170SOL    HW1 3842   1.093   0.443  11.052
 1170SOL    HW2 3843   1.231   0.411  10.971
 1171SOL     OW 3844   1.160   0.207  10.787
 1171SOL    HW1 3845   1.160   0.271  10.864
 1171SOL    HW2 3846   1.188   0.255  10.704
 1172SOL     OW 3847   0.008   1.326   9.510
 1172SOL    HW1 3848  -0.085   1.347   9.479
 1172SOL    HW2 3849   0.018   1.227   9.523
 1173SOL     OW 3850   0.088   1.801  10.237
 1173SOL    HW1 3851   0.046   1.715  10.210
 1173SOL    HW2 3852   0.182   1.804  10.203
 1174SOL     OW 3853   0.504   1.568  10.220
 1174SOL    HW1 3854   0.570   1.642  10.229
 1174SOL    HW2 3855   0.548   1.489  10.178
 1175SOL     OW 3856   1.002   0.796  10.548
 1175SOL    HW1 3857   1.043   0.764  10.634
 1175SOL    HW2 3858   0.906   0.769  10.545
 1176SOL     OW 3859   0.040   0.544  10.424
 1176SOL    HW1 3860   0.125   0.511  10.383
 1176SOL    HW2 3861   0.053   0.559  10.522
 1177SOL     OW 3862   0.815   0.572   9.635
 1177SOL    HW1 3863   0.822   0.483   9.589
 1177SOL    HW2 3864   0.721   0.606   9.627
 1178SOL     OW 3865   1.657   0.604  10.516
 1178SOL    HW1 3866   1.619   0.535  10.578
 1178SOL    HW2 3867   1.739   0.568  10.472
 1179SOL     OW 3868   0.671   0.464  10.579
 1179SOL    HW1 3869   0.637   0.375  10.549
 1179SOL    HW2 3870   0.697   0.518  10.499
 1180SOL     OW 3871   0.930   1.678  10.775
 1180SOL    HW1 3872   0.906   1.660  10.680
 1180SOL    HW2 3873   0.960   1.772  10.785
 1181SOL     OW 3874   0.473   0.500   9.501
 1181SOL    HW1 3875   0.534   0.580   9.505
 1181SOL    HW2 3876   0.378   0.531   9.508
 1182SOL     OW 3877   0.159   1.137  10.776
 1182SOL    HW1 3878   0.181   1.076  10.852
 1182SOL    HW2 3879   0.169   1.088  10.690
 1183SOL     OW 3880   1.347   1.059  10.544
 1183SOL    HW1 3881   1.371   0.996  10.470
 1183SOL    HW2 3882   1.257   1.099  10.526
 1184SOL     OW 3883   1.302   0.855   9.619
 1184SOL    HW1 3884   1.216   0.824   9.661
 1184SOL    HW2 3885   1.298   0.841   9.520
 1185SOL     OW 3886   1.759   1.747  10.464
 1185SOL    HW1 3887   1.820   1.777  10.391
 1185SOL    HW2 3888   1.721   1.658  10.442
 1186SOL     OW 3889   1.252   1.731  10.438
 1186SOL    HW1 3890   1.336   1.736  10.384
 1186SOL    HW2 3891   1.229   1.635  10.456
 1187SOL     OW 3892   0.083   1.258  10.332
 1187SOL    HW1 3893   0.078   1.257  10.432
 1187SOL    HW2 3894   0.000   1.217  10.294
 1188SOL     OW 3895   1.726   0.135   9.833
 1188SOL    HW1 3896   1.799   0.118   9.766
 1188SOL    HW2 3897   1.695   0.048   9.871
 1189SOL     OW 3898   1.388   1.573   9.787
 1189SOL    HW1 3899   1.455   1.585   9.713
 1189SOL    HW2 3900   1.348   1.662   9.810
 1190SOL     OW 3901   1.280   0.927   9.982
 1190SOL    HW1 3902   1.340   0.846   9.984
 1190SOL    HW2 3903   1.320   0.996   9.922
 1191SOL     OW 3904   0.672   1.616   9.464
 1191SOL    HW1 3905   0.681   1.626   9.365
 1191SOL    HW2 3906   0.632   1.527   9.485
 1192SOL     OW 3907   1.650   1.720  10.704
 1192SOL    HW1 3908   1.703   1.730  10.620
 1192SOL    HW2 3909   1.623   1.810  10.738
 1193SOL     OW 3910   1.841   0.175  10.273
 1193SOL    HW1 3911   1.880   0.090  10.237
 1193SOL    HW2 3912   1.743   0.177  10.254
 1194SOL     OW 3913   0.263   0.326  10.030
 1194SOL    HW1 3914   0.184   0.377   9.996
 1194SOL    HW2 3915   0.254   0.311  10.128
 1195SOL     OW 3916   1.194   1.612   9.341
 1195SOL    HW1 3917   1.200   1.519   9.378
 1195SOL    HW2 3918   1.135   1.612   9.261
 1196SOL     OW 3919   0.822   1.002  10.682
 1196SOL    HW1 3920   0.862   1.001  10.590
 1196SOL    HW2 3921   0.832   1.094  10.722
 1197SOL     OW 3922   0.916   0.910   9.601
 1197SOL    HW1 3923   0.979   0.948   9.533
 1197SOL    HW2 3924   0.956   0.827   9.640
 1198SOL     OW 3925   1.504   1.607   9.354
 1198SOL    HW1 3926   1.412   1.644   9.361
 1198SOL    HW2 3927   1.542   1.627   9.264
 1199SOL     OW 3928   0.372   1.288  10.800
 1199SOL    HW1 3929   0.359   1.381  10.766
 1199SOL    HW2 3930   0.288   1.236  10.787
 1200SOL     OW 3931   1.614   1.292  10.599
 1200SOL    HW1 3932   1.674   1.295  10.679
 1200SOL    HW2 3933   1.539   1.356  10.612
 1201SOL     OW 3934   1.039   1.098  10.006
 1201SOL    HW1 3935   0.969   1.051  10.060
 1201SOL    HW2 3936   1.098   1.030   9.963
 1202SOL     OW 3937   1.014   0.236  10.281
 1202SOL    HW1 3938   1.006   0.200  10.188
 1202SOL    HW2 3939   1.012   0.160  10.346
 1203SOL     OW 3940   0.590   1.487   9.801
 1203SOL    HW1 3941   0.632   1.429   9.731
 1203SOL    HW2 3942   0.546   1.566   9.757
 1204SOL     OW 3943   1.709   0.385  10.691
 1204SOL    HW1 3944   1.782   0.454  10.695
 1204SOL    HW2 3945   1.737   0.310  10.632
 1205SOL     OW 3946   0.255   1.348   9.600
 1205SOL    HW1 3947   0.159   1.349   9.573
 1205SOL    HW2 3948   0.267   1.401   9.684
 1206SOL     OW 3949   0.075   0.345   9.343
 1206SOL    HW1 3950  -0.017   0.317   9.314
 1206SOL    HW2 3951   0.106   0.422   9.287
 1207SOL     OW 3952   1.440   0.856  10.708
 1207SOL    HW1 3953   1.383   0.908  10.645
 1207SOL    HW2 3954   1.536   0.868  10.684
 1208SOL     OW 3955   0.072   0.166   9.628
 1208SOL    HW1 3956   0.055   0.249   9.574
 1208SOL    HW2 3957   0.162   0.129   9.606
 1209SOL     OW 3958   1.183   1.335   9.429
 1209SOL    HW1 3959   1.084   1.324   9.431
 1209SOL    HW2 3960   1.217   1.350   9.522
 1210SOL     OW 3961   0.613   0.842  10.741
 1210SOL    HW1 3962   0.669   0.923  10.724
 1210SOL    HW2 3963   0.672   0.762  10.744
 1211SOL     OW 3964   1.493   1.767  10.269
 1211SOL    HW1 3965   1.526   1.831  10.200
 1211SOL    HW2 3966   1.559   1.761  10.344
 1212SOL     OW 3967   0.390   1.741  10.870
 1212SOL    HW1 3968   0.299   1.782  10.868
 1212SOL    HW2 3969   0.383   1.647  10.902
 1213SOL     OW 3970   1.674   0.883  10.564
 1213SOL    HW1 3971   1.647   0.794  10.527
 1213SOL    HW2 3972   1.675   0.951  10.491
 1214SOL     OW 3973   1.225   0.325   9.759
 1214SOL    HW1 3974   1.290   0.251   9.748
 1214SOL    HW2 3975   1.245   0.375   9.843
 1215SOL     OW 3976   0.594   0.745   9.962
 1215SOL    HW1 3977   0.644   0.830   9.943
 1215SOL    HW2 3978   0.506   0.747   9.914
 1216SOL     OW 3979   1.730   0.934  10.827
 1216SOL    HW1 3980   1.768   1.025  10.842
 1216SOL    HW2 3981   1.722   0.917  10.728
 1217SOL     OW 3982   0.859   1.374   9.326
 1217SOL    HW1 3983   0.813   1.389   9.414
 1217SOL    HW2 3984   0.903   1.459   9.296
 1218SOL     OW 3985   0.661   1.790  10.263
 1218SOL    HW1 3986   0.615   1.878  10.250
 1218SOL    HW2 3987   0.760   1.802  10.256
 1219SOL     OW 3988   0.859   0.956  10.171
 1219SOL    HW1 3989   0.913   0.887  10.219
 1219SOL    HW2 3990   0.827   1.025  10.237
 1220SOL     OW 3991   1.083   0.984   9.397
 1220SOL    HW1 3992   1.060   1.037   9.315
 1220SOL    HW2 3993   1.164   0.928   9.378
 1221SOL     OW 3994   1.861   1.569  10.161
 1221SOL    HW1 3995   1.790   1.557  10.091
 1221SOL    HW2 3996   1.862   1.490  10.221
 1222SOL     OW 3997   0.079   1.240   9.963
 1222SOL    HW1 3998   0.078   1.193  10.051
 1222SOL    HW2 3999   0.161   1.212   9.912
 1223SOL     OW 4000   1.824   0.192  10.537
 1223SOL    HW1 4001   1.820   0.102  10.581
 1223SOL    HW2 4002   1.827   0.181  10.438
 1224SOL     OW 4003   0.428   0.424   9.830
 1224SOL    HW1 4004   0.458   0.352   9.768
 1224SOL    HW2 4005   0.389   0.384   9.913
 1225SOL     OW 4006   1.705   1.487  10.414
 1225SOL    HW1 4007   1.612   1.462  10.387
 1225SOL    HW2 4008   1.731   1.437  10.496
 1226SOL     OW 4009   0.317   0.547  10.590
 1226SOL    HW1 4010   0.355   0.488  10.662
 1226SOL    HW2 4011   0.357   0.521  10.502
 1227SOL     OW 4012   0.812   1.586   9.997
 1227SOL    HW1 4013   0.844   1.596   9.903
 1227SOL    HW2 4014   0.733   1.524   9.999
 1228SOL     OW 4015   1.424   0.214  10.422
 1228SOL    HW1 4016   1.476   0.149  10.477
 1228SOL    HW2 4017   1.375   0.277  10.483
 1229SOL     OW 4018   1.001   0.034  10.464
 1229SOL    HW1 4019   0.938  -0.038  10.433
 1229SOL    HW2 4020   1.094  -0.002  10.464
 1230SOL     OW 4021   0.770   1.330   9.611
 1230SOL    HW1 4022   0.724   1.243   9.628
 1230SOL    HW2 4023   0.861   1.327   9.652
 1231SOL     OW 4024   0.618   1.567  10.594
 1231SOL    HW1 4025   0.613   1.649  10.651
 1231SOL    HW2 4026   0.707   1.564  10.549
 1232SOL     OW 4027   1.352   0.052   9.478
 1232SOL    HW1 4028   1.387   0.011   9.394
 1232SOL    HW2 4029   1.262   0.014   9.498
 1233SOL     OW 4030   1.300   0.453  10.001
 1233SOL    HW1 4031   1.241   0.533  10.005
 1233SOL    HW2 4032   1.315   0.418  10.094
 1234SOL     OW 4033   1.593   0.221  10.192
 1234SOL    HW1 4034   1.509   0.220  10.246
 1234SOL    HW2 4035   1.595   0.304  10.136
 1235SOL     OW 4036   0.039   1.077   9.610
 1235SOL    HW1 4037   0.138   1.066   9.601
 1235SOL    HW2 4038  -0.001   0.991   9.642
 1236SOL     OW 4039   0.875   1.646   9.647
 1236SOL    HW1 4040   0.798   1.611   9.593
 1236SOL    HW2 4041   0.843   1.717   9.709
 1237SOL     OW 4042   0.230   2.490   0.113
 1237SOL    HW1 4043   0.137   2.488   0.150
 1237SOL    HW2 4044   0.231   2.451   0.021
 1238SOL     OW 4045   0.225   2.137   0.996
 1238SOL    HW1 4046   0.260   2.120   1.088
 1238SOL    HW2 4047   0.137   2.092   0.984
 1239SOL     OW 4048   0.019   2.230   0.647
 1239SOL    HW1 4049  -0.063   2.273   0.686
 1239SOL    HW2 4050  -0.009   2.157   0.584
 1240SOL     OW 4051   0.569   3.137   1.165
 1240SOL    HW1 4052   0.476   3.130   1.128
 1240SOL    HW2 4053   0.580   3.226   1.209
 1241SOL     OW 4054   1.555   3.373   0.703
 1241SOL    HW1 4055   1.498   3.357   0.784
 1241SOL    HW2 4056   1.496   3.383   0.623
 1242SOL     OW 4057   1.135   2.565   0.717
 1242SOL    HW1 4058   1.192   2.643   0.692
 1242SOL    HW2 4059   1.075   2.591   0.793
 1243SOL     OW 4060   1.755   2.469   0.231
 1243SOL    HW1 4061   1.743   2.456   0.132
 1243SOL    HW2 4062   1.725   2.388   0.280
 1244SOL     OW 4063   0.768   3.006   1.023
 1244SOL    HW1 4064   0.690   3.023   1.083
 1244SOL    HW2 4065   0.802   3.093   0.987
 1245SOL     OW 4066   0.850   2.660   1.823
 1245SOL    HW1 4067   0.846   2.736   1.888
 1245SOL    HW2 4068   0.872   2.696   1.732
 1246SOL     OW 4069   0.685   2.874   0.665
 1246SOL    HW1 4070   0.754   2.858   0.735
 1246SOL    HW2 4071   0.612   2.931   0.703
 1247SOL     OW 4072   0.686   3.023   1.803
 1247SOL    HW1 4073   0.746   3.102   1.817
 1247SOL    HW2 4074   0.600   3.054   1.762
 1248SOL     OW 4075   0.335   3.297   1.061
 1248SOL    HW1 4076   0.257   3.266   1.008
 1248SOL    HW2 4077   0.393   3.355   1.004
 1249SOL     OW 4078   1.460   3.367   1.339
 1249SOL    HW1 4079   1.484   3.461   1.365
 1249SOL    HW2 4080   1.444   3.313   1.421
 1250SOL     OW 4081   0.438   2.254   1.499
 1250SOL    HW1 4082   0.520   2.198   1.508
 1250SOL    HW2 4083   0.357   2.196   1.503
 1251SOL     OW 4084   1.603   2.309   0.737
 1251SOL    HW1 4085   1.529   2.355   0.687
 1251SOL    HW2 4086   1.654   2.377   0.790
 1252SOL     OW 4087   0.231   3.575   0.483
 1252SOL    HW1 4088   0.265   3.652   0.537
 1252SOL    HW2 4089   0.275   3.575   0.393
 1253SOL     OW 4090   1.127   3.203   1.690
 1253SOL    HW1 4091   1.174   3.203   1.778
 1253SOL    HW2 4092   1.079   3.116   1.679
 1254SOL     OW 4093   0.230   3.296   0.538
 1254SOL    HW1 4094   0.204   3.392   0.538
 1254SOL    HW2 4095   0.159   3.242   0.583
 1255SOL     OW 4096   0.240   2.953   0.886
 1255SOL    HW1 4097   0.254   2.869   0.938
 1255SOL    HW2 4098   0.185   3.017   0.941
 1256SOL     OW 4099   0.620   3.648   1.439
 1256SOL    HW1 4100   0.528   3.631   1.474
 1256SOL    HW2 4101   0.648   3.740   1.465
 1257SOL     OW 4102   0.606   2.826   0.123
 1257SOL    HW1 4103   0.613   2.910   0.069
 1257SOL    HW2 4104   0.652   2.839   0.211
 1258SOL     OW 4105   1.594   1.976   1.480
 1258SOL    HW1 4106   1.576   2.043   1.408
 1258SOL    HW2 4107   1.591   2.022   1.569
 1259SOL     OW 4108   0.122   2.505   0.563
 1259SOL    HW1 4109   0.077   2.417   0.580
 1259SOL    HW2 4110   0.121   2.559   0.647
 1260SOL     OW 4111   1.842   3.629   0.359
 1260SOL    HW1 4112   1.896   3.600   0.439
 1260SOL    HW2 4113   1.872   3.719   0.330
 1261SOL     OW 4114   0.027   3.458   0.117
 1261SOL    HW1 4115   0.008   3.362   0.138
 1261SOL    HW2 4116  -0.006   3.516   0.192
 1262SOL     OW 4117   1.689   2.784   0.612
 1262SOL    HW1 4118   1.784   2.755   0.620
 1262SOL    HW2 4119   1.681   2.849   0.537
 1263SOL     OW 4120   1.641   2.970   0.432
 1263SOL    HW1 4121   1.727   2.972   0.380
 1263SOL    HW2 4122   1.655   3.017   0.520
 1264SOL     OW 4123   0.113   2.599   1.597
 1264SOL    HW1 4124   0.201   2.586   1.642
 1264SOL    HW2 4125   0.100   2.696   1.575
 1265SOL     OW 4126   0.613   3.227   0.726
 1265SOL    HW1 4127   0.564   3.140   0.735
 1265SOL    HW2 4128   0.590   3.270   0.639
 1266SOL     OW 4129   1.293   3.090   1.423
 1266SOL    HW1 4130   1.330   3.017   1.365
 1266SOL    HW2 4131   1.345   3.095   1.508
 1267SOL     OW 4132   0.809   1.866   0.502
 1267SOL    HW1 4133   0.849   1.957   0.493
 1267SOL    HW2 4134   0.709   1.874   0.508
 1268SOL     OW 4135   0.197   2.838   1.264
 1268SOL    HW1 4136   0.286   2.793   1.250
 1268SOL    HW2 4137   0.124   2.773   1.245
 1269SOL     OW 4138   1.525   2.861   0.190
 1269SOL    HW1 4139   1.462   2.785   0.203
 1269SOL    HW2 4140   1.573   2.879   0.276
 1270SOL     OW 4141   1.187   3.654   1.616
 1270SOL    HW1 4142   1.211   3.714   1.540
 1270SOL    HW2 4143   1.194   3.559   1.586
 1271SOL     OW 4144   0.317   2.113   1.801
 1271SOL    HW1 4145   0.388   2.184   1.807
 1271SOL    HW2 4146   0.229   2.152   1.829
 1272SOL     OW 4147   1.466   3.279   0.953
 1272SOL    HW1 4148   1.407   3.285   1.033
 1272SOL    HW2 4149   1.451   3.191   0.907
 1273SOL     OW 4150   1.667   3.576   0.572
 1273SOL    HW1 4151   1.626   3.553   0.484
 1273SOL    HW2 4152   1.649   3.502   0.637
 1274SOL     OW 4153   0.598   2.591   0.270
 1274SOL    HW1 4154   0.622   2.660   0.202
 1274SOL    HW2 4155   0.520   2.624   0.324
 1275SOL     OW 4156   1.281   2.207   0.944
 1275SOL    HW1 4157   1.195   2.157   0.931
 1275SOL    HW2 4158   1.343   2.153   1.000
 1276SOL     OW 4159   1.576   3.524   0.307
 1276SOL    HW1 4160   1.665   3.570   0.310
 1276SOL    HW2 4161   1.555   3.500   0.212
 1277SOL     OW 4162   0.807   2.467   1.465
 1277SOL    HW1 4163   0.760   2.464   1.554
 1277SOL    HW2 4164   0.756   2.412   1.399
 1278SOL     OW 4165   1.394   2.331   1.674
 1278SOL    HW1 4166   1.374   2.374   1.762
 1278SOL    HW2 4167   1.472   2.269   1.683
 1279SOL     OW 4168   0.973   2.752   1.572
 1279SOL    HW1 4169   1.019   2.668   1.543
 1279SOL    HW2 4170   0.917   2.786   1.497
 1280SOL     OW 4171   0.991   2.272   1.242
 1280SOL    HW1 4172   0.914   2.306   1.296
 1280SOL    HW2 4173   0.957   2.221   1.163
 1281SOL     OW 4174   1.041   2.563   0.429
 1281SOL    HW1 4175   1.067   2.559   0.525
 1281SOL    HW2 4176   0.956   2.512   0.415
 1282SOL     OW 4177   0.076   2.673   0.789
 1282SOL    HW1 4178   0.175   2.661   0.798
 1282SOL    HW2 4179   0.052   2.768   0.810
 1283SOL     OW 4180   0.130   3.683   1.571
 1283SOL    HW1 4181   0.120   3.668   1.670
 1283SOL    HW2 4182   0.044   3.719   1.535
 1284SOL     OW 4183   0.865   2.210   0.195
 1284SOL    HW1 4184   0.924   2.273   0.146
 1284SOL    HW2 4185   0.884   2.116   0.166
 1285SOL     OW 4186   1.719   2.447   1.831
 1285SOL    HW1 4187   1.693   2.536   1.795
 1285SOL    HW2 4188   1.717   2.379   1.758
 1286SOL     OW 4189   1.362   3.006   0.545
 1286SOL    HW1 4190   1.445   2.977   0.497
 1286SOL    HW2 4191   1.313   3.073   0.489
 1287SOL     OW 4192   0.550   2.058   0.885
 1287SOL    HW1 4193   0.545   2.053   0.985
 1287SOL    HW2 4194   0.552   2.154   0.856
 1288SOL     OW 4195   1.008   3.318   0.477
 1288SOL    HW1 4196   0.962   3.390   0.425
 1288SOL    HW2 4197   1.004   3.338   0.575
 1289SOL     OW 4198   0.351   3.663   0.853
 1289SOL    HW1 4199   0.401   3.577   0.859
 1289SOL    HW2 4200   0.416   3.740   0.850
 1290SOL     OW 4201   1.795   2.928   0.873
 1290SOL    HW1 4202   1.733   2.913   0.797
 1290SOL    HW2 4203   1.743   2.939   0.958
 1291SOL     OW 4204   1.227   3.412   1.506
 1291SOL    HW1 4205   1.233   3.335   1.570
 1291SOL    HW2 4206   1.175   3.386   1.426
 1292SOL     OW 4207   0.321   2.805   0.242
 1292SOL    HW1 4208   0.403   2.844   0.200
 1292SOL    HW2 4209   0.294   2.723   0.193
 1293SOL     OW 4210   1.458   2.597   0.728
 1293SOL    HW1 4211   1.453   2.532   0.803
 1293SOL    HW2 4212   1.538   2.656   0.741
 1294SOL     OW 4213   0.461   3.128   1.727
 1294SOL    HW1 4214   0.411   3.129   1.641
 1294SOL    HW2 4215   0.398   3.110   1.803
 1295SOL     OW 4216   1.111   3.638   0.237
 1295SOL    HW1 4217   1.051   3.576   0.287
 1295SOL    HW2 4218   1.142   3.594   0.152
 1296SOL     OW 4219   0.202   2.147   1.498
 1296SOL    HW1 4220   0.122   2.207   1.485
 1296SOL    HW2 4221   0.192   2.098   1.584
 1297SOL     OW 4222   1.632   3.239   0.081
 1297SOL    HW1 4223   1.600   3.333   0.071
 1297SOL    HW2 4224   1.556   3.176   0.069
 1298SOL     OW 4225   0.464   3.605   0.323
 1298SOL    HW1 4226   0.497   3.644   0.409
 1298SOL    HW2 4227   0.540   3.598   0.258
 1299SOL     OW 4228   1.400   1.969   0.426
 1299SOL    HW1 4229   1.376   1.932   0.336
 1299SOL    HW2 4230   1.499   1.985   0.430
 1300SOL     OW 4231   0.249   3.647   1.241
 1300SOL    HW1 4232   0.306   3.582   1.291
 1300SOL    HW2 4233   0.233   3.614   1.148
 1301SOL     OW 4234   0.940   3.560   0.904
 1301SOL    HW1 4235   1.020   3.503   0.925
 1301SOL    HW2 4236   0.891   3.520   0.827
 1302SOL     OW 4237   0.382   2.562   0.480
 1302SOL    HW1 4238   0.427   2.472   0.477
 1302SOL    HW2 4239   0.288   2.551   0.513
 1303SOL     OW 4240   1.547   2.084   1.729
 1303SOL    HW1 4241   1.542   2.121   1.821
 1303SOL    HW2 4242   1.475   2.015   1.717
 1304SOL     OW 4243   0.614   1.984   0.117
 1304SOL    HW1 4244   0.712   1.962   0.124
 1304SOL    HW2 4245   0.583   1.967   0.024
 1305SOL     OW 4246   0.781   2.126   1.749
 1305SOL    HW1 4247   0.848   2.065   1.792
 1305SOL    HW2 4248   0.708   2.145   1.814
 1306SOL     OW 4249   0.888   3.376   1.195
 1306SOL    HW1 4250   0.865   3.351   1.101
 1306SOL    HW2 4251   0.949   3.307   1.234
 1307SOL     OW 4252   1.351   2.452   1.433
 1307SOL    HW1 4253   1.379   2.409   1.518
 1307SOL    HW2 4254   1.376   2.548   1.434
 1308SOL     OW 4255   0.803   3.264   0.924
 1308SOL    HW1 4256   0.893   3.278   0.882
 1308SOL    HW2 4257   0.732   3.266   0.853
 1309SOL     OW 4258   0.922   2.365   0.899
 1309SOL    HW1 4259   0.897   2.356   0.803
 1309SOL    HW2 4260   0.970   2.283   0.930
 1310SOL     OW 4261   0.539   1.926   0.512
 1310SOL    HW1 4262   0.458   1.927   0.570
 1310SOL    HW2 4263   0.542   2.009   0.457
 1311SOL     OW 4264   1.434   3.050   0.041
 1311SOL    HW1 4265   1.466   2.974   0.098
 1311SOL    HW2 4266   1.342   3.077   0.071
 1312SOL     OW 4267   0.297   1.897   0.171
 1312SOL    HW1 4268   0.346   1.981   0.150
 1312SOL    HW2 4269   0.359   1.832   0.216
 1313SOL     OW 4270   0.935   2.098   0.480
 1313SOL    HW1 4271   0.887   2.139   0.402
 1313SOL    HW2 4272   1.034   2.096   0.461
 1314SOL     OW 4273   1.076   2.545   1.464
 1314SOL    HW1 4274   0.996   2.484   1.467
 1314SOL    HW2 4275   1.157   2.492   1.440
 1315SOL     OW 4276   1.227   3.432   0.793
 1315SOL    HW1 4277   1.248   3.506   0.728
 1315SOL    HW2 4278   1.295   3.432   0.866
 1316SOL     OW 4279   0.459   3.014   0.741
 1316SOL    HW1 4280   0.388   2.987   0.806
 1316SOL    HW2 4281   0.433   2.986   0.648
 1317SOL     OW 4282   1.271   3.659   0.591
 1317SOL    HW1 4283   1.315   3.723   0.527
 1317SOL    HW2 4284   1.221   3.711   0.661
 1318SOL     OW 4285   1.032   2.411   0.016
 1318SOL    HW1 4286   0.991   2.493  -0.023
 1318SOL    HW2 4287   1.096   2.437   0.089
 1319SOL     OW 4288   0.078   2.418   1.386
 1319SOL    HW1 4289   0.170   2.417   1.345
 1319SOL    HW2 4290   0.072   2.492   1.453
 1320SOL     OW 4291   0.561   2.084   1.147
 1320SOL    HW1 4292   0.599   2.000   1.184
 1320SOL    HW2 4293   0.473   2.103   1.191
 1321SOL     OW 4294   0.866   2.316   0.642
 1321SOL    HW1 4295   0.834   2.388   0.580
 1321SOL    HW2 4296   0.890   2.235   0.589
 1322SOL     OW 4297   1.017   1.901   0.753
 1322SOL    HW1 4298   0.945   1.906   0.684
 1322SOL    HW2 4299   0.993   1.832   0.822
 1323SOL     OW 4300   1.429   3.035   0.867
 1323SOL    HW1 4301   1.374   2.951   0.860
 1323SOL    HW2 4302   1.455   3.064   0.775
 1324SOL     OW 4303   1.466   2.452   0.992
 1324SOL    HW1 4304   1.436   2.357   0.999
 1324SOL    HW2 4305   1.539   2.468   1.058
 1325SOL     OW 4306   1.857   2.695   0.377
 1325SOL    HW1 4307   1.899   2.631   0.441
 1325SOL    HW2 4308   1.819   2.644   0.299
 1326SOL     OW 4309   0.488   3.247   0.174
 1326SOL    HW1 4310   0.401   3.232   0.221
 1326SOL    HW2 4311   0.471   3.273   0.079
 1327SOL     OW 4312   1.664   3.142   0.657
 1327SOL    HW1 4313   1.763   3.150   0.671
 1327SOL    HW2 4314   1.619   3.226   0.688
 1328SOL     OW 4315   1.390   2.437   0.078
 1328SOL    HW1 4316   1.336   2.416   0.159
 1328SOL    HW2 4317   1.481   2.396   0.087
 1329SOL     OW 4318   0.527   2.118   0.328
 1329SOL    HW1 4319   0.554   2.059   0.253
 1329SOL    HW2 4320   0.527   2.213   0.297
 1330SOL     OW 4321   1.754   3.085   1.588
 1330SOL    HW1 4322   1.845   3.046   1.575
 1330SOL    HW2 4323   1.762   3.181   1.612
 1331SOL     OW 4324   1.064   3.209   1.340
 1331SOL    HW1 4325   0.984   3.186   1.395
 1331SOL    HW2 4326   1.147   3.183   1.389
 1332SOL     OW 4327   1.592   3.491   1.625
 1332SOL    HW1 4328   1.619   3.525   1.535
 1332SOL    HW2 4329   1.671   3.453   1.671
 1333SOL     OW 4330   1.111   3.057   1.100
 1333SOL    HW1 4331   1.071   3.101   1.181
 1333SOL    HW2 4332   1.070   3.094   1.017
 1334SOL     OW 4333   1.638   2.961   1.079
 1334SOL    HW1 4334   1.643   3.042   1.138
 1334SOL    HW2 4335   1.552   2.963   1.028
 1335SOL     OW 4336   0.915   1.951   1.402
 1335SOL    HW1 4337   0.940   1.931   1.307
 1335SOL    HW2 4338   0.987   2.007   1.444
 1336SOL     OW 4339   0.980   2.978   1.719
 1336SOL    HW1 4340   0.881   2.984   1.729
 1336SOL    HW2 4341   1.003   2.898   1.663
 1337SOL     OW 4342   0.705   2.912   0.368
 1337SOL    HW1 4343   0.691   2.919   0.467
 1337SOL    HW2 4344   0.789   2.861   0.350
 1338SOL     OW 4345   0.410   2.675   1.251
 1338SOL    HW1 4346   0.496   2.687   1.301
 1338SOL    HW2 4347   0.368   2.588   1.278
 1339SOL     OW 4348   1.274   2.248   1.262
 1339SOL    HW1 4349   1.295   2.322   1.326
 1339SOL    HW2 4350   1.185   2.265   1.219
 1340SOL     OW 4351   0.064   3.426   1.331
 1340SOL    HW1 4352   0.018   3.508   1.297
 1340SOL    HW2 4353   0.162   3.445   1.340
 1341SOL     OW 4354   0.367   2.962   0.501
 1341SOL    HW1 4355   0.360   3.045   0.445
 1341SOL    HW2 4356   0.371   2.882   0.441
 1342SOL     OW 4357   0.566   2.399   0.865
 1342SOL    HW1 4358   0.578   2.465   0.791
 1342SOL    HW2 4359   0.612   2.433   0.948
 1343SOL     OW 4360   1.252   3.210   0.388
 1343SOL    HW1 4361   1.302   3.287   0.428
 1343SOL    HW2 4362   1.157   3.212   0.420
 1344SOL     OW 4363   1.272   3.307   1.142
 1344SOL    HW1 4364   1.319   3.320   1.229
 1344SOL    HW2 4365   1.206   3.233   1.151
 1345SOL     OW 4366   1.582   2.501   0.472
 1345SOL    HW1 4367   1.551   2.562   0.545
 1345SOL    HW2 4368   1.632   2.553   0.403
 1346SOL     OW 4369   0.354   3.372   1.329
 1346SOL    HW1 4370   0.333   3.328   1.242
 1346SOL    HW2 4371   0.451   3.398   1.332
 1347SOL     OW 4372   0.402   2.613   1.598
 1347SOL    HW1 4373   0.470   2.668   1.551
 1347SOL    HW2 4374   0.442   2.525   1.625
 1348SOL     OW 4375   1.587   2.641   1.670
 1348SOL    HW1 4376   1.495   2.679   1.665
 1348SOL    HW2 4377   1.647   2.688   1.605
 1349SOL     OW 4378   1.013   1.967   1.770
 1349SOL    HW1 4379   1.019   2.052   1.718
 1349SOL    HW2 4380   1.045   1.891   1.713
 1350SOL     OW 4381   0.504   1.912   1.740
 1350SOL    HW1 4382   0.462   1.855   1.670
 1350SOL    HW2 4383   0.438   1.981   1.772
 1351SOL     OW 4384   0.573   2.732   1.029
 1351SOL    HW1 4385   0.617   2.821   1.020
 1351SOL    HW2 4386   0.510   2.732   1.106
 1352SOL     OW 4387   1.360   2.724   1.045
 1352SOL    HW1 4388   1.285   2.724   0.979
 1352SOL    HW2 4389   1.397   2.632   1.054
 1353SOL     OW 4390   1.209   2.387   0.275
 1353SOL    HW1 4391   1.222   2.303   0.329
 1353SOL    HW2 4392   1.180   2.461   0.335
 1354SOL     OW 4393   0.307   2.075   1.231
 1354SOL    HW1 4394   0.284   2.112   1.321
 1354SOL    HW2 4395   0.277   1.980   1.225
 1355SOL     OW 4396   0.037   3.172   1.282
 1355SOL    HW1 4397   0.090   3.123   1.350
 1355SOL    HW2 4398   0.059   3.270   1.287
 1356SOL     OW 4399   0.732   2.496   1.064
 1356SOL    HW1 4400   0.791   2.470   0.988
 1356SOL    HW2 4401   0.704   2.592   1.053
 1357SOL     OW 4402   1.728   2.797   1.854
 1357SOL    HW1 4403   1.682   2.790   1.765
 1357SOL    HW2 4404   1.666   2.841   1.920
 1358SOL     OW 4405   0.307   1.925   0.618
 1358SOL    HW1 4406   0.296   2.019   0.651
 1358SOL    HW2 4407   0.302   1.862   0.695
 1359SOL     OW 4408   1.622   2.229   0.374
 1359SOL    HW1 4409   1.624   2.153   0.438
 1359SOL    HW2 4410   1.574   2.306   0.414
 1360SOL     OW 4411   1.023   2.628   0.966
 1360SOL    HW1 4412   1.038   2.649   1.062
 1360SOL    HW2 4413   0.993   2.533   0.957
 1361SOL     OW 4414   0.980   3.435   1.700
 1361SOL    HW1 4415   0.960   3.479   1.612
 1361SOL    HW2 4416   1.019   3.344   1.684
 1362SOL     OW 4417   1.859   3.380   1.605
 1362SOL    HW1 4418   1.873   3.407   1.510
 1362SOL    HW2 4419   1.942   3.402   1.658
 1363SOL     OW 4420   0.350   2.760   1.804
 1363SOL    HW1 4421   0.426   2.804   1.852
 1363SOL    HW2 4422   0.385   2.713   1.722
 1364SOL     OW 4423   1.540   2.136   0.125
 1364SOL    HW1 4424   1.479   2.061   0.148
 1364SOL    HW2 4425   1.562   2.188   0.208
 1365SOL     OW 4426   1.303   2.700   0.042
 1365SOL    HW1 4427   1.337   2.607   0.057
 1365SOL    HW2 4428   1.321   2.727  -0.053
 1366SOL     OW 4429   1.068   3.195   0.849
 1366SOL    HW1 4430   1.075   3.111   0.794
 1366SOL    HW2 4431   1.130   3.264   0.813
 1367SOL     OW 4432   0.319   2.672   0.949
 1367SOL    HW1 4433   0.412   2.708   0.954
 1367SOL    HW2 4434   0.313   2.587   1.001
 1368SOL     OW 4435   0.339   2.371   1.006
 1368SOL    HW1 4436   0.287   2.288   0.989
 1368SOL    HW2 4437   0.416   2.376   0.942
 1369SOL     OW 4438   1.138   2.242   1.678
 1369SOL    HW1 4439   1.093   2.305   1.742
 1369SOL    HW2 4440   1.231   2.273   1.661
 1370SOL     OW 4441   1.160   2.069   1.477
 1370SOL    HW1 4442   1.160   2.133   1.554
 1370SOL    HW2 4443   1.188   2.117   1.394
 1371SOL     OW 4444   0.008   3.188   0.200
 1371SOL    HW1 4445  -0.085   3.209   0.169
 1371SOL    HW2 4446   0.018   3.089   0.213
 1372SOL     OW 4447   0.088   3.663   0.927
 1372SOL    HW1 4448   0.046   3.577   0.900
 1372SOL    HW2 4449   0.182   3.666   0.893
 1373SOL     OW 4450   0.504   3.430   0.910
 1373SOL    HW1 4451   0.570   3.504   0.919
 1373SOL    HW2 4452   0.548   3.351   0.868
 1374SOL     OW 4453   1.002   2.658   1.238
 1374SOL    HW1 4454   1.043   2.626   1.324
 1374SOL    HW2 4455   0.906   2.631   1.235
 1375SOL     OW 4456   0.040   2.406   1.114
 1375SOL    HW1 4457   0.125   2.373   1.073
 1375SOL    HW2 4458   0.053   2.421   1.212
 1376SOL     OW 4459   0.189   2.382   1.722
 1376SOL    HW1 4460   0.248   2.342   1.652
 1376SOL    HW2 4461   0.131   2.453   1.681
 1377SOL     OW 4462   1.369   2.812   1.660
 1377SOL    HW1 4463   1.408   2.901   1.680
 1377SOL    HW2 4464   1.379   2.792   1.563
 1378SOL     OW 4465   0.815   2.434   0.325
 1378SOL    HW1 4466   0.822   2.345   0.279
 1378SOL    HW2 4467   0.721   2.468   0.317
 1379SOL     OW 4468   1.657   2.466   1.206
 1379SOL    HW1 4469   1.619   2.397   1.268
 1379SOL    HW2 4470   1.739   2.430   1.162
 1380SOL     OW 4471   0.252   3.426   1.744
 1380SOL    HW1 4472   0.222   3.483   1.820
 1380SOL    HW2 4473   0.245   3.329   1.770
 1381SOL     OW 4474   0.671   2.326   1.269
 1381SOL    HW1 4475   0.637   2.237   1.239
 1381SOL    HW2 4476   0.697   2.380   1.189
 1382SOL     OW 4477   0.930   3.540   1.465
 1382SOL    HW1 4478   0.906   3.522   1.370
 1382SOL    HW2 4479   0.960   3.634   1.475
 1383SOL     OW 4480   0.473   2.362   0.191
 1383SOL    HW1 4481   0.534   2.442   0.195
 1383SOL    HW2 4482   0.378   2.393   0.198
 1384SOL     OW 4483   0.159   2.999   1.466
 1384SOL    HW1 4484   0.181   2.938   1.542
 1384SOL    HW2 4485   0.169   2.950   1.380
 1385SOL     OW 4486   1.347   2.921   1.234
 1385SOL    HW1 4487   1.371   2.858   1.160
 1385SOL    HW2 4488   1.257   2.961   1.216
 1386SOL     OW 4489   1.302   2.717   0.309
 1386SOL    HW1 4490   1.216   2.686   0.351
 1386SOL    HW2 4491   1.298   2.703   0.210
 1387SOL     OW 4492   1.759   3.609   1.154
 1387SOL    HW1 4493   1.820   3.639   1.081
 1387SOL    HW2 4494   1.721   3.520   1.132
 1388SOL     OW 4495   1.252   3.593   1.128
 1388SOL    HW1 4496   1.336   3.598   1.074
 1388SOL    HW2 4497   1.229   3.497   1.146
 1389SOL     OW 4498   0.083   3.120   1.022
 1389SOL    HW1 4499   0.078   3.119   1.122
 1389SOL    HW2 4500   0.000   3.079   0.984
 1390SOL     OW 4501   0.688   3.524   1.716
 1390SOL    HW1 4502   0.632   3.605   1.725
 1390SOL    HW2 4503   0.740   3.528   1.630
 1391SOL     OW 4504   0.903   1.948   0.133
 1391SOL    HW1 4505   0.954   1.949   0.047
 1391SOL    HW2 4506   0.959   1.906   0.204
 1392SOL     OW 4507   1.726   1.997   0.523
 1392SOL    HW1 4508   1.799   1.980   0.456
 1392SOL    HW2 4509   1.695   1.910   0.561
 1393SOL     OW 4510   1.388   3.435   0.477
 1393SOL    HW1 4511   1.455   3.447   0.403
 1393SOL    HW2 4512   1.348   3.524   0.500
 1394SOL     OW 4513   0.130   3.656   1.851
 1394SOL    HW1 4514   0.089   3.582   1.904
 1394SOL    HW2 4515   0.194   3.707   1.909
 1395SOL     OW 4516   1.280   2.789   0.672
 1395SOL    HW1 4517   1.340   2.708   0.674
 1395SOL    HW2 4518   1.320   2.858   0.612
 1396SOL     OW 4519   0.830   3.135   1.422
 1396SOL    HW1 4520   0.825   3.168   1.517
 1396SOL    HW2 4521   0.744   3.154   1.376
 1397SOL     OW 4522   0.672   3.478   0.154
 1397SOL    HW1 4523   0.681   3.488   0.055
 1397SOL    HW2 4524   0.632   3.389   0.175
 1398SOL     OW 4525   1.650   3.582   1.394
 1398SOL    HW1 4526   1.703   3.592   1.310
 1398SOL    HW2 4527   1.623   3.672   1.428
 1399SOL     OW 4528   1.841   2.037   0.963
 1399SOL    HW1 4529   1.880   1.952   0.927
 1399SOL    HW2 4530   1.743   2.039   0.944
 1400SOL     OW 4531   0.263   2.188   0.720
 1400SOL    HW1 4532   0.184   2.239   0.686
 1400SOL    HW2 4533   0.254   2.173   0.818
 1401SOL     OW 4534   1.194   3.474   0.031
 1401SOL    HW1 4535   1.200   3.381   0.068
 1401SOL    HW2 4536   1.135   3.474  -0.049
 1402SOL     OW 4537   0.822   2.864   1.372
 1402SOL    HW1 4538   0.862   2.863   1.280
 1402SOL    HW2 4539   0.832   2.956   1.412
 1403SOL     OW 4540   0.916   2.772   0.291
 1403SOL    HW1 4541   0.979   2.810   0.223
 1403SOL    HW2 4542   0.956   2.689   0.330
 1404SOL     OW 4543   1.504   3.469   0.044
 1404SOL    HW1 4544   1.412   3.506   0.051
 1404SOL    HW2 4545   1.542   3.489  -0.046
 1405SOL     OW 4546   0.372   3.150   1.490
 1405SOL    HW1 4547   0.359   3.243   1.456
 1405SOL    HW2 4548   0.288   3.098   1.477
 1406SOL     OW 4549   1.614   3.154   1.289
 1406SOL    HW1 4550   1.674   3.157   1.369
 1406SOL    HW2 4551   1.539   3.218   1.302
 1407SOL     OW 4552   1.039   2.960   0.696
 1407SOL    HW1 4553   0.969   2.913   0.750
 1407SOL    HW2 4554   1.098   2.892   0.653
 1408SOL     OW 4555   1.014   2.098   0.971
 1408SOL    HW1 4556   1.006   2.062   0.878
 1408SOL    HW2 4557   1.012   2.022   1.036
 1409SOL     OW 4558   0.590   3.349   0.491
 1409SOL    HW1 4559   0.632   3.291   0.421
 1409SOL    HW2 4560   0.546   3.428   0.447
 1410SOL     OW 4561   1.709   2.247   1.381
 1410SOL    HW1 4562   1.782   2.316   1.385
 1410SOL    HW2 4563   1.737   2.172   1.322
 1411SOL     OW 4564   0.255   3.210   0.290
 1411SOL    HW1 4565   0.159   3.211   0.263
 1411SOL    HW2 4566   0.267   3.263   0.374
 1412SOL     OW 4567   0.105   2.875   1.726
 1412SOL    HW1 4568   0.028   2.842   1.780
 1412SOL    HW2 4569   0.190   2.845   1.768
 1413SOL     OW 4570   0.672   2.065   1.489
 1413SOL    HW1 4571   0.762   2.049   1.449
 1413SOL    HW2 4572   0.680   2.070   1.588
 1414SOL     OW 4573   0.075   2.207   0.033
 1414SOL    HW1 4574  -0.017   2.179   0.004
 1414SOL    HW2 4575   0.106   2.284  -0.023
 1415SOL     OW 4576   1.440   2.718   1.398
 1415SOL    HW1 4577   1.383   2.770   1.335
 1415SOL    HW2 4578   1.536   2.730   1.374
 1416SOL     OW 4579   0.072   2.028   0.318
 1416SOL    HW1 4580   0.055   2.111   0.264
 1416SOL    HW2 4581   0.162   1.991   0.296
 1417SOL     OW 4582   1.183   3.197   0.119
 1417SOL    HW1 4583   1.084   3.186   0.121
 1417SOL    HW2 4584   1.217   3.212   0.212
 1418SOL     OW 4585   0.613   2.704   1.431
 1418SOL    HW1 4586   0.669   2.785   1.414
 1418SOL    HW2 4587   0.672   2.624   1.434
 1419SOL     OW 4588   1.493   3.629   0.959
 1419SOL    HW1 4589   1.526   3.693   0.890
 1419SOL    HW2 4590   1.559   3.623   1.034
 1420SOL     OW 4591   0.716   2.427   1.708
 1420SOL    HW1 4592   0.735   2.492   1.782
 1420SOL    HW2 4593   0.776   2.347   1.717
 1421SOL     OW 4594   1.450   3.082   1.633
 1421SOL    HW1 4595   1.441   3.072   1.732
 1421SOL    HW2 4596   1.546   3.075   1.607
 1422SOL     OW 4597   0.390   3.603   1.560
 1422SOL    HW1 4598   0.299   3.644   1.558
 1422SOL    HW2 4599   0.383   3.509   1.592
 1423SOL     OW 4600   1.674   2.745   1.254
 1423SOL    HW1 4601   1.647   2.656   1.217
 1423SOL    HW2 4602   1.675   2.813   1.181
 1424SOL     OW 4603   1.225   2.187   0.449
 1424SOL    HW1 4604   1.290   2.113   0.438
 1424SOL    HW2 4605   1.245   2.237   0.533
 1425SOL     OW 4606   0.594   2.607   0.652
 1425SOL    HW1 4607   0.644   2.692   0.633
 1425SOL    HW2 4608   0.506   2.609   0.604
 1426SOL     OW 4609   1.777   2.204   1.642
 1426SOL    HW1 4610   1.760   2.235   1.548
 1426SOL    HW2 4611   1.693   2.167   1.680
 1427SOL     OW 4612   1.730   2.796   1.517
 1427SOL    HW1 4613   1.768   2.887   1.532
 1427SOL    HW2 4614   1.722   2.779   1.418
 1428SOL     OW 4615   0.859   3.236   0.016
 1428SOL    HW1 4616   0.813   3.251   0.104
 1428SOL    HW2 4617   0.903   3.321  -0.014
 1429SOL     OW 4618   0.661   3.652   0.953
 1429SOL    HW1 4619   0.615   3.740   0.940
 1429SOL    HW2 4620   0.760   3.664   0.946
 1430SOL     OW 4621   0.859   2.818   0.861
 1430SOL    HW1 4622   0.913   2.749   0.909
 1430SOL    HW2 4623   0.827   2.887   0.927
 1431SOL     OW 4624   1.083   2.846   0.087
 1431SOL    HW1 4625   1.060   2.899   0.005
 1431SOL    HW2 4626   1.164   2.790   0.068
 1432SOL     OW 4627   1.861   3.431   0.851
 1432SOL    HW1 4628   1.790   3.419   0.781
 1432SOL    HW2 4629   1.862   3.352   0.911
 1433SOL     OW 4630   0.221   3.176   1.844
 1433SOL    HW1 4631   0.156   3.103   1.823
 1433SOL    HW2 4632   0.225   3.190   1.942
 1434SOL     OW 4633   0.079   3.102   0.653
 1434SOL    HW1 4634   0.078   3.055   0.741
 1434SOL    HW2 4635   0.161   3.074   0.602
 1435SOL     OW 4636   0.672   3.253   1.624
 1435SOL    HW1 4637   0.594   3.203   1.662
 1435SOL    HW2 4638   0.669   3.348   1.655
 1436SOL     OW 4639   1.824   2.054   1.227
 1436SOL    HW1 4640   1.820   1.964   1.271
 1436SOL    HW2 4641   1.827   2.043   1.128
 1437SOL     OW 4642   0.428   2.286   0.520
 1437SOL    HW1 4643   0.458   2.214   0.458
 1437SOL    HW2 4644   0.389   2.246   0.603
 1438SOL     OW 4645   1.705   3.349   1.104
 1438SOL    HW1 4646   1.612   3.324   1.077
 1438SOL    HW2 4647   1.731   3.299   1.186
 1439SOL     OW 4648   0.317   2.409   1.280
 1439SOL    HW1 4649   0.355   2.350   1.352
 1439SOL    HW2 4650   0.357   2.383   1.192
 1440SOL     OW 4651   0.812   3.448   0.687
 1440SOL    HW1 4652   0.844   3.458   0.593
 1440SOL    HW2 4653   0.733   3.386   0.689
 1441SOL     OW 4654   1.424   2.076   1.112
 1441SOL    HW1 4655   1.476   2.011   1.167
 1441SOL    HW2 4656   1.375   2.139   1.173
 1442SOL     OW 4657   1.001   1.896   1.154
 1442SOL    HW1 4658   0.938   1.824   1.123
 1442SOL    HW2 4659   1.094   1.860   1.154
 1443SOL     OW 4660   0.770   3.192   0.301
 1443SOL    HW1 4661   0.724   3.105   0.318
 1443SOL    HW2 4662   0.861   3.189   0.342
 1444SOL     OW 4663   0.618   3.429   1.284
 1444SOL    HW1 4664   0.613   3.511   1.341
 1444SOL    HW2 4665   0.707   3.426   1.239
 1445SOL     OW 4666   1.352   1.914   0.168
 1445SOL    HW1 4667   1.387   1.873   0.084
 1445SOL    HW2 4668   1.262   1.876   0.188
 1446SOL     OW 4669   1.300   2.315   0.691
 1446SOL    HW1 4670   1.241   2.395   0.695
 1446SOL    HW2 4671   1.315   2.280   0.784
 1447SOL     OW 4672   1.593   2.083   0.882
 1447SOL    HW1 4673   1.509   2.082   0.936
 1447SOL    HW2 4674   1.595   2.166   0.826
 1448SOL     OW 4675   0.039   2.939   0.300
 1448SOL    HW1 4676   0.138   2.928   0.291
 1448SOL    HW2 4677  -0.001   2.853   0.332
 1449SOL     OW 4678   0.875   3.508   0.337
 1449SOL    HW1 4679   0.798   3.473   0.283
 1449SOL    HW2 4680   0.843   3.579   0.399
 1450SOL     OW 4681   0.230   2.490   1.975
 1450SOL    HW1 4682   0.137   2.488   2.012
 1450SOL    HW2 4683   0.231   2.451   1.883
 1451SOL     OW 4684   0.225   2.137   2.858
 1451SOL    HW1 4685   0.260   2.120   2.950
 1451SOL    HW2 4686   0.137   2.092   2.846
 1452SOL     OW 4687   0.019   2.230   2.509
 1452SOL    HW1 4688  -0.063   2.273   2.548
 1452SOL    HW2 4689  -0.009   2.157   2.446
 1453SOL     OW 4690   0.569   3.137   3.027
 1453SOL    HW1 4691   0.476   3.130   2.990
 1453SOL    HW2 4692   0.580   3.226   3.071
 1454SOL     OW 4693   1.555   3.373   2.565
 1454SOL    HW1 4694   1.498   3.357   2.646
 1454SOL    HW2 4695   1.496   3.383   2.485
 1455SOL     OW 4696   1.135   2.565   2.579
 1455SOL    HW1 4697   1.192   2.643   2.554
 1455SOL    HW2 4698   1.075   2.591   2.655
 1456SOL     OW 4699   1.755   2.469   2.093
 1456SOL    HW1 4700   1.743   2.456   1.994
 1456SOL    HW2 4701   1.725   2.388   2.142
 1457SOL     OW 4702   0.768   3.006   2.885
 1457SOL    HW1 4703   0.690   3.023   2.945
 1457SOL    HW2 4704   0.802   3.093   2.849
 1458SOL     OW 4705   0.850   2.660   3.685
 1458SOL    HW1 4706   0.846   2.736   3.750
 1458SOL    HW2 4707   0.872   2.696   3.594
 1459SOL     OW 4708   0.685   2.874   2.527
 1459SOL    HW1 4709   0.754   2.858   2.597
 1459SOL    HW2 4710   0.612   2.931   2.565
 1460SOL     OW 4711   0.686   3.023   3.665
 1460SOL    HW1 4712   0.746   3.102   3.679
 1460SOL    HW2 4713   0.600   3.054   3.624
 1461SOL     OW 4714   0.335   3.297   2.923
 1461SOL    HW1 4715   0.257   3.266   2.870
 1461SOL    HW2 4716   0.393   3.355   2.866
 1462SOL     OW 4717   1.460   3.367   3.201
 1462SOL    HW1 4718   1.484   3.461   3.227
 1462SOL    HW2 4719   1.444   3.313   3.283
 1463SOL     OW 4720   0.438   2.254   3.361
 1463SOL    HW1 4721   0.520   2.198   3.370
 1463SOL    HW2 4722   0.357   2.196   3.365
 1464SOL     OW 4723   1.603   2.309   2.599
 1464SOL    HW1 4724   1.529   2.355   2.549
 1464SOL    HW2 4725   1.654   2.377   2.652
 1465SOL     OW 4726   0.231   3.575   2.345
 1465SOL    HW1 4727   0.265   3.652   2.399
 1465SOL    HW2 4728   0.275   3.575   2.255
 1466SOL     OW 4729   1.127   3.203   3.552
 1466SOL    HW1 4730   1.174   3.203   3.640
 1466SOL    HW2 4731   1.079   3.116   3.541
 1467SOL     OW 4732   0.230   3.296   2.400
 1467SOL    HW1 4733   0.204   3.392   2.400
 1467SOL    HW2 4734   0.159   3.242   2.445
 1468SOL     OW 4735   0.240   2.953   2.748
 1468SOL    HW1 4736   0.254   2.869   2.800
 1468SOL    HW2 4737   0.185   3.017   2.803
 1469SOL     OW 4738   0.620   3.648   3.301
 1469SOL    HW1 4739   0.528   3.631   3.336
 1469SOL    HW2 4740   0.648   3.740   3.327
 1470SOL     OW 4741   0.606   2.826   1.985
 1470SOL    HW1 4742   0.613   2.910   1.931
 1470SOL    HW2 4743   0.652   2.839   2.073
 1471SOL     OW 4744   1.594   1.976   3.342
 1471SOL    HW1 4745   1.576   2.043   3.270
 1471SOL    HW2 4746   1.591   2.022   3.431
 1472SOL     OW 4747   0.122   2.505   2.425
 1472SOL    HW1 4748   0.077   2.417   2.442
 1472SOL    HW2 4749   0.121   2.559   2.509
 1473SOL     OW 4750   1.842   3.629   2.221
 1473SOL    HW1 4751   1.896   3.600   2.301
 1473SOL    HW2 4752   1.872   3.719   2.192
 1474SOL     OW 4753   0.027   3.458   1.979
 1474SOL    HW1 4754   0.008   3.362   2.000
 1474SOL    HW2 4755  -0.006   3.516   2.054
 1475SOL     OW 4756   1.689   2.784   2.474
 1475SOL    HW1 4757   1.784   2.755   2.482
 1475SOL    HW2 4758   1.681   2.849   2.399
 1476SOL     OW 4759   1.641   2.970   2.294
 1476SOL    HW1 4760   1.727   2.972   2.242
 1476SOL    HW2 4761   1.655   3.017   2.382
 1477SOL     OW 4762   0.113   2.599   3.459
 1477SOL    HW1 4763   0.201   2.586   3.504
 1477SOL    HW2 4764   0.100   2.696   3.437
 1478SOL     OW 4765   0.613   3.227   2.588
 1478SOL    HW1 4766   0.564   3.140   2.597
 1478SOL    HW2 4767   0.590   3.270   2.501
 1479SOL     OW 4768   1.293   3.090   3.285
 1479SOL    HW1 4769   1.330   3.017   3.227
 1479SOL    HW2 4770   1.345   3.095   3.370
 1480SOL     OW 4771   0.809   1.866   2.364
 1480SOL    HW1 4772   0.849   1.957   2.355
 1480SOL    HW2 4773   0.709   1.874   2.370
 1481SOL     OW 4774   0.197   2.838   3.126
 1481SOL    HW1 4775   0.286   2.793   3.112
 1481SOL    HW2 4776   0.124   2.773   3.107
 1482SOL     OW 4777   1.525   2.861   2.052
 1482SOL    HW1 4778   1.462   2.785   2.065
 1482SOL    HW2 4779   1.573   2.879   2.138
 1483SOL     OW 4780   1.187   3.654   3.478
 1483SOL    HW1 4781   1.211   3.714   3.402
 1483SOL    HW2 4782   1.194   3.559   3.448
 1484SOL     OW 4783   0.317   2.113   3.663
 1484SOL    HW1 4784   0.388   2.184   3.669
 1484SOL    HW2 4785   0.229   2.152   3.691
 1485SOL     OW 4786   1.466   3.279   2.815
 1485SOL    HW1 4787   1.407   3.285   2.895
 1485SOL    HW2 4788   1.451   3.191   2.769
 1486SOL     OW 4789   1.667   3.576   2.434
 1486SOL    HW1 4790   1.626   3.553   2.346
 1486SOL    HW2 4791   1.649   3.502   2.499
 1487SOL     OW 4792   0.598   2.591   2.132
 1487SOL    HW1 4793   0.622   2.660   2.064
 1487SOL    HW2 4794   0.520   2.624   2.186
 1488SOL     OW 4795   1.281   2.207   2.806
 1488SOL    HW1 4796   1.195   2.157   2.793
 1488SOL    HW2 4797   1.343   2.153   2.862
 1489SOL     OW 4798   1.576   3.524   2.169
 1489SOL    HW1 4799   1.665   3.570   2.172
 1489SOL    HW2 4800   1.555   3.500   2.074
 1490SOL     OW 4801   0.807   2.467   3.327
 1490SOL    HW1 4802   0.760   2.464   3.416
 1490SOL    HW2 4803   0.756   2.412   3.261
 1491SOL     OW 4804   1.394   2.331   3.536
 1491SOL    HW1 4805   1.374   2.374   3.624
 1491SOL    HW2 4806   1.472   2.269   3.545
 1492SOL     OW 4807   0.973   2.752   3.434
 1492SOL    HW1 4808   1.019   2.668   3.405
 1492SOL    HW2 4809   0.917   2.786   3.359
 1493SOL     OW 4810   0.991   2.272   3.104
 1493SOL    HW1 4811   0.914   2.306   3.158
 1493SOL    HW2 4812   0.957   2.221   3.025
 1494SOL     OW 4813   1.041   2.563   2.291
 1494SOL    HW1 4814   1.067   2.559   2.387
 1494SOL    HW2 4815   0.956   2.512   2.277
 1495SOL     OW 4816   0.076   2.673   2.651
 1495SOL    HW1 4817   0.175   2.661   2.660
 1495SOL    HW2 4818   0.052   2.768   2.672
 1496SOL     OW 4819   0.130   3.683   3.433
 1496SOL    HW1 4820   0.120   3.668   3.532
 1496SOL    HW2 4821   0.044   3.719   3.397
 1497SOL     OW 4822   0.865   2.210   2.057
 1497SOL    HW1 4823   0.924   2.273   2.008
 1497SOL    HW2 4824   0.884   2.116   2.028
 1498SOL     OW 4825   1.719   2.447   3.693
 1498SOL    HW1 4826   1.693   2.536   3.657
 1498SOL    HW2 4827   1.717   2.379   3.620
 1499SOL     OW 4828   1.362   3.006   2.407
 1499SOL    HW1 4829   1.445   2.977   2.359
 1499SOL    HW2 4830   1.313   3.073   2.351
 1500SOL     OW 4831   0.550   2.058   2.747
 1500SOL    HW1 4832   0.545   2.053   2.847
 1500SOL    HW2 4833   0.552   2.154   2.718
 1501SOL     OW 4834   1.008   3.318   2.339
 1501SOL    HW1 4835   0.962   3.390   2.287
 1501SOL    HW2 4836   1.004   3.338   2.437
 1502SOL     OW 4837   0.351   3.663   2.715
 1502SOL    HW1 4838   0.401   3.577   2.721
 1502SOL    HW2 4839   0.416   3.740   2.712
 1503SOL     OW 4840   1.795   2.928   2.735
 1503SOL    HW1 4841   1.733   2.913   2.659
 1503SOL    HW2 4842   1.743   2.939   2.820
 1504SOL     OW 4843   1.227   3.412   3.368
 1504SOL    HW1 4844   1.233   3.335   3.432
 1504SOL    HW2 4845   1.175   3.386   3.288
 1505SOL     OW 4846   0.321   2.805   2.104
 1505SOL    HW1 4847   0.403   2.844   2.062
 1505SOL    HW2 4848   0.294   2.723   2.055
 1506SOL     OW 4849   1.458   2.597   2.590
 1506SOL    HW1 4850   1.453   2.532   2.665
 1506SOL    HW2 4851   1.538   2.656   2.603
 1507SOL     OW 4852   0.461   3.128   3.589
 1507SOL    HW1 4853   0.411   3.129   3.503
 1507SOL    HW2 4854   0.398   3.110   3.665
 1508SOL     OW 4855   1.111   3.638   2.099
 1508SOL    HW1 4856   1.051   3.576   2.149
 1508SOL    HW2 4857   1.142   3.594   2.014
 1509SOL     OW 4858   0.202   2.147   3.360
 1509SOL    HW1 4859   0.122   2.207   3.347
 1509SOL    HW2 4860   0.192   2.098   3.446
 1510SOL     OW 4861   1.632   3.239   1.943
 1510SOL    HW1 4862   1.600   3.333   1.933
 1510SOL    HW2 4863   1.556   3.176   1.931
 1511SOL     OW 4864   0.464   3.605   2.185
 1511SOL    HW1 4865   0.497   3.644   2.271
 1511SOL    HW2 4866   0.540   3.598   2.120
 1512SOL     OW 4867   1.400   1.969   2.288
 1512SOL    HW1 4868   1.376   1.932   2.198
 1512SOL    HW2 4869   1.499   1.985   2.292
 1513SOL     OW 4870   0.249   3.647   3.103
 1513SOL    HW1 4871   0.306   3.582   3.153
 1513SOL    HW2 4872   0.233   3.614   3.010
 1514SOL     OW 4873   0.940   3.560   2.766
 1514SOL    HW1 4874   1.020   3.503   2.787
 1514SOL    HW2 4875   0.891   3.520   2.689
 1515SOL     OW 4876   0.382   2.562   2.342
 1515SOL    HW1 4877   0.427   2.472   2.339
 1515SOL    HW2 4878   0.288   2.551   2.375
 1516SOL     OW 4879   1.547   2.084   3.591
 1516SOL    HW1 4880   1.542   2.121   3.683
 1516SOL    HW2 4881   1.475   2.015   3.579
 1517SOL     OW 4882   0.614   1.984   1.979
 1517SOL    HW1 4883   0.712   1.962   1.986
 1517SOL    HW2 4884   0.583   1.967   1.886
 1518SOL     OW 4885   0.781   2.126   3.611
 1518SOL    HW1 4886   0.848   2.065   3.654
 1518SOL    HW2 4887   0.708   2.145   3.676
 1519SOL     OW 4888   0.888   3.376   3.057
 1519SOL    HW1 4889   0.865   3.351   2.963
 1519SOL    HW2 4890   0.949   3.307   3.096
 1520SOL     OW 4891   1.351   2.452   3.295
 1520SOL    HW1 4892   1.379   2.409   3.380
 1520SOL    HW2 4893   1.376   2.548   3.296
 1521SOL     OW 4894   0.803   3.264   2.786
 1521SOL    HW1 4895   0.893   3.278   2.744
 1521SOL    HW2 4896   0.732   3.266   2.715
 1522SOL     OW 4897   0.922   2.365   2.761
 1522SOL    HW1 4898   0.897   2.356   2.665
 1522SOL    HW2 4899   0.970   2.283   2.792
 1523SOL     OW 4900   0.539   1.926   2.374
 1523SOL    HW1 4901   0.458   1.927   2.432
 1523SOL    HW2 4902   0.542   2.009   2.319
 1524SOL     OW 4903   1.434   3.050   1.903
 1524SOL    HW1 4904   1.466   2.974   1.960
 1524SOL    HW2 4905   1.342   3.077   1.933
 1525SOL     OW 4906   0.297   1.897   2.033
 1525SOL    HW1 4907   0.346   1.981   2.012
 1525SOL    HW2 4908   0.359   1.832   2.078
 1526SOL     OW 4909   0.935   2.098   2.342
 1526SOL    HW1 4910   0.887   2.139   2.264
 1526SOL    HW2 4911   1.034   2.096   2.323
 1527SOL     OW 4912   1.076   2.545   3.326
 1527SOL    HW1 4913   0.996   2.484   3.329
 1527SOL    HW2 4914   1.157   2.492   3.302
 1528SOL     OW 4915   1.227   3.432   2.655
 1528SOL    HW1 4916   1.248   3.506   2.590
 1528SOL    HW2 4917   1.295   3.432   2.728
 1529SOL     OW 4918   0.459   3.014   2.603
 1529SOL    HW1 4919   0.388   2.987   2.668
 1529SOL    HW2 4920   0.433   2.986   2.510
 1530SOL     OW 4921   1.271   3.659   2.453
 1530SOL    HW1 4922   1.315   3.723   2.389
 1530SOL    HW2 4923   1.221   3.711   2.523
 1531SOL     OW 4924   1.032   2.411   1.878
 1531SOL    HW1 4925   0.991   2.493   1.839
 1531SOL    HW2 4926   1.096   2.437   1.951
 1532SOL     OW 4927   0.078   2.418   3.248
 1532SOL    HW1 4928   0.170   2.417   3.207
 1532SOL    HW2 4929   0.072   2.492   3.315
 1533SOL     OW 4930   0.561   2.084   3.009
 1533SOL    HW1 4931   0.599   2.000   3.046
 1533SOL    HW2 4932   0.473   2.103   3.053
 1534SOL     OW 4933   0.866   2.316   2.504
 1534SOL    HW1 4934   0.834   2.388   2.442
 1534SOL    HW2 4935   0.890   2.235   2.451
 1535SOL     OW 4936   1.017   1.901   2.615
 1535SOL    HW1 4937   0.945   1.906   2.546
 1535SOL    HW2 4938   0.993   1.832   2.684
 1536SOL     OW 4939   1.429   3.035   2.729
 1536SOL    HW1 4940   1.374   2.951   2.722
 1536SOL    HW2 4941   1.455   3.064   2.637
 1537SOL     OW 4942   1.466   2.452   2.854
 1537SOL    HW1 4943   1.436   2.357   2.861
 1537SOL    HW2 4944   1.539   2.468   2.920
 1538SOL     OW 4945   1.857   2.695   2.239
 1538SOL    HW1 4946   1.899   2.631   2.303
 1538SOL    HW2 4947   1.819   2.644   2.161
 1539SOL     OW 4948   0.488   3.247   2.036
 1539SOL    HW1 4949   0.401   3.232   2.083
 1539SOL    HW2 4950   0.471   3.273   1.941
 1540SOL     OW 4951   1.664   3.142   2.519
 1540SOL    HW1 4952   1.763   3.150   2.533
 1540SOL    HW2 4953   1.619   3.226   2.550
 1541SOL     OW 4954   1.390   2.437   1.940
 1541SOL    HW1 4955   1.336   2.416   2.021
 1541SOL    HW2 4956   1.481   2.396   1.949
 1542SOL     OW 4957   0.527   2.118   2.190
 1542SOL    HW1 4958   0.554   2.059   2.115
 1542SOL    HW2 4959   0.527   2.213   2.159
 1543SOL     OW 4960   1.754   3.085   3.450
 1543SOL    HW1 4961   1.845   3.046   3.437
 1543SOL    HW2 4962   1.762   3.181   3.474
 1544SOL     OW 4963   1.064   3.209   3.202
 1544SOL    HW1 4964   0.984   3.186   3.257
 1544SOL    HW2 4965   1.147   3.183   3.251
 1545SOL     OW 4966   1.592   3.491   3.487
 1545SOL    HW1 4967   1.619   3.525   3.397
 1545SOL    HW2 4968   1.671   3.453   3.533
 1546SOL     OW 4969   1.111   3.057   2.962
 1546SOL    HW1 4970   1.071   3.101   3.043
 1546SOL    HW2 4971   1.070   3.094   2.879
 1547SOL     OW 4972   1.638   2.961   2.941
 1547SOL    HW1 4973   1.643   3.042   3.000
 1547SOL    HW2 4974   1.552   2.963   2.890
 1548SOL     OW 4975   0.915   1.951   3.264
 1548SOL    HW1 4976   0.940   1.931   3.169
 1548SOL    HW2 4977   0.987   2.007   3.306
 1549SOL     OW 4978   0.980   2.978   3.581
 1549SOL    HW1 4979   0.881   2.984   3.591
 1549SOL    HW2 4980   1.003   2.898   3.525
 1550SOL     OW 4981   0.705   2.912   2.230
 1550SOL    HW1 4982   0.691   2.919   2.329
 1550SOL    HW2 4983   0.789   2.861   2.212
 1551SOL     OW 4984   0.410   2.675   3.113
 1551SOL    HW1 4985   0.496   2.687   3.163
 1551SOL    HW2 4986   0.368   2.588   3.140
 1552SOL     OW 4987   1.274   2.248   3.124
 1552SOL    HW1 4988   1.295   2.322   3.188
 1552SOL    HW2 4989   1.185   2.265   3.081
 1553SOL     OW 4990   0.064   3.426   3.193
 1553SOL    HW1 4991   0.018   3.508   3.159
 1553SOL    HW2 4992   0.162   3.445   3.202
 1554SOL     OW 4993   0.367   2.962   2.363
 1554SOL    HW1 4994   0.360   3.045   2.307
 1554SOL    HW2 4995   0.371   2.882   2.303
 1555SOL     OW 4996   0.566   2.399   2.727
 1555SOL    HW1 4997   0.578   2.465   2.653
 1555SOL    HW2 4998   0.612   2.433   2.810
 1556SOL     OW 4999   1.252   3.210   2.250
 1556SOL    HW1 5000   1.302   3.287   2.290
 1556SOL    HW2 5001   1.157   3.212   2.282
 1557SOL     OW 5002   1.272   3.307   3.004
 1557SOL    HW1 5003   1.319   3.320   3.091
 1557SOL    HW2 5004   1.206   3.233   3.013
 1558SOL     OW 5005   1.582   2.501   2.334
 1558SOL    HW1 5006   1.551   2.562   2.407
 1558SOL    HW2 5007   1.632   2.553   2.265
 1559SOL     OW 5008   0.354   3.372   3.191
 1559SOL    HW1 5009   0.333   3.328   3.104
 1559SOL    HW2 5010   0.451   3.398   3.194
 1560SOL     OW 5011   0.402   2.613   3.460
 1560SOL    HW1 5012   0.470   2.668   3.413
 1560SOL    HW2 5013   0.442   2.525   3.487
 1561SOL     OW 5014   1.587   2.641   3.532
 1561SOL    HW1 5015   1.495   2.679   3.527
 1561SOL    HW2 5016   1.647   2.688   3.467
 1562SOL     OW 5017   1.013   1.967   3.632
 1562SOL    HW1 5018   1.019   2.052   3.580
 1562SOL    HW2 5019   1.045   1.891   3.575
 1563SOL     OW 5020   0.504   1.912   3.602
 1563SOL    HW1 5021   0.462   1.855   3.532
 1563SOL    HW2 5022   0.438   1.981   3.634
 1564SOL     OW 5023   0.573   2.732   2.891
 1564SOL    HW1 5024   0.617   2.821   2.882
 1564SOL    HW2 5025   0.510   2.732   2.968
 1565SOL     OW 5026   1.360   2.724   2.907
 1565SOL    HW1 5027   1.285   2.724   2.841
 1565SOL    HW2 5028   1.397   2.632   2.916
 1566SOL     OW 5029   1.209   2.387   2.137
 1566SOL    HW1 5030   1.222   2.303   2.191
 1566SOL    HW2 5031   1.180   2.461   2.197
 1567SOL     OW 5032   0.307   2.075   3.093
 1567SOL    HW1 5033   0.284   2.112   3.183
 1567SOL    HW2 5034   0.277   1.980   3.087
 1568SOL     OW 5035   0.037   3.172   3.144
 1568SOL    HW1 5036   0.090   3.123   3.212
 1568SOL    HW2 5037   0.059   3.270   3.149
 1569SOL     OW 5038   0.732   2.496   2.926
 1569SOL    HW1 5039   0.791   2.470   2.850
 1569SOL    HW2 5040   0.704   2.592   2.915
 1570SOL     OW 5041   1.728   2.797   3.716
 1570SOL    HW1 5042   1.682   2.790   3.627
 1570SOL    HW2 5043   1.666   2.841   3.782
 1571SOL     OW 5044   0.307   1.925   2.480
 1571SOL    HW1 5045   0.296   2.019   2.513
 1571SOL    HW2 5046   0.302   1.862   2.557
 1572SOL     OW 5047   1.622   2.229   2.236
 1572SOL    HW1 5048   1.624   2.153   2.300
 1572SOL    HW2 5049   1.574   2.306   2.276
 1573SOL     OW 5050   1.023   2.628   2.828
 1573SOL    HW1 5051   1.038   2.649   2.924
 1573SOL    HW2 5052   0.993   2.533   2.819
 1574SOL     OW 5053   0.980   3.435   3.562
 1574SOL    HW1 5054   0.960   3.479   3.474
 1574SOL    HW2 5055   1.019   3.344   3.546
 1575SOL     OW 5056   1.859   3.380   3.467
 1575SOL    HW1 5057   1.873   3.407   3.372
 1575SOL    HW2 5058   1.942   3.402   3.520
 1576SOL     OW 5059   0.350   2.760   3.666
 1576SOL    HW1 5060   0.426   2.804   3.714
 1576SOL    HW2 5061   0.385   2.713   3.584
 1577SOL     OW 5062   1.540   2.136   1.987
 1577SOL    HW1 5063   1.479   2.061   2.010
 1577SOL    HW2 5064   1.562   2.188   2.070
 1578SOL     OW 5065   1.303   2.700   1.904
 1578SOL    HW1 5066   1.337   2.607   1.919
 1578SOL    HW2 5067   1.321   2.727   1.809
 1579SOL     OW 5068   1.068   3.195   2.711
 1579SOL    HW1 5069   1.075   3.111   2.656
 1579SOL    HW2 5070   1.130   3.264   2.675
 1580SOL     OW 5071   0.319   2.672   2.811
 1580SOL    HW1 5072   0.412   2.708   2.816
 1580SOL    HW2 5073   0.313   2.587   2.863
 1581SOL     OW 5074   0.339   2.371   2.868
 1581SOL    HW1 5075   0.287   2.288   2.851
 1581SOL    HW2 5076   0.416   2.376   2.804
 1582SOL     OW 5077   1.138   2.242   3.540
 1582SOL    HW1 5078   1.093   2.305   3.604
 1582SOL    HW2 5079   1.231   2.273   3.523
 1583SOL     OW 5080   1.160   2.069   3.339
 1583SOL    HW1 5081   1.160   2.133   3.416
 1583SOL    HW2 5082   1.188   2.117   3.256
 1584SOL     OW 5083   0.008   3.188   2.062
 1584SOL    HW1 5084  -0.085   3.209   2.031
 1584SOL    HW2 5085   0.018   3.089   2.075
 1585SOL     OW 5086   0.088   3.663   2.789
 1585SOL    HW1 5087   0.046   3.577   2.762
 1585SOL    HW2 5088   0.182   3.666   2.755
 1586SOL     OW 5089   0.504   3.430   2.772
 1586SOL    HW1 5090   0.570   3.504   2.781
 1586SOL    HW2 5091   0.548   3.351   2.730
 1587SOL     OW 5092   1.002   2.658   3.100
 1587SOL    HW1 5093   1.043   2.626   3.186
 1587SOL    HW2 5094   0.906   2.631   3.097
 1588SOL     OW 5095   0.040   2.406   2.976
 1588SOL    HW1 5096   0.125   2.373   2.935
 1588SOL    HW2 5097   0.053   2.421   3.074
 1589SOL     OW 5098   0.189   2.382   3.584
 1589SOL    HW1 5099   0.248   2.342   3.514
 1589SOL    HW2 5100   0.131   2.453   3.543
 1590SOL     OW 5101   1.369   2.812   3.522
 1590SOL    HW1 5102   1.408   2.901   3.542
 1590SOL    HW2 5103   1.379   2.792   3.425
 1591SOL     OW 5104   0.815   2.434   2.187
 1591SOL    HW1 5105   0.822   2.345   2.141
 1591SOL    HW2 5106   0.721   2.468   2.179
 1592SOL     OW 5107   1.657   2.466   3.068
 1592SOL    HW1 5108   1.619   2.397   3.130
 1592SOL    HW2 5109   1.739   2.430   3.024
 1593SOL     OW 5110   0.252   3.426   3.606
 1593SOL    HW1 5111   0.222   3.483   3.682
 1593SOL    HW2 5112   0.245   3.329   3.632
 1594SOL     OW 5113   0.671   2.326   3.131
 1594SOL    HW1 5114   0.637   2.237   3.101
 1594SOL    HW2 5115   0.697   2.380   3.051
 1595SOL     OW 5116   0.930   3.540   3.327
 1595SOL    HW1 5117   0.906   3.522   3.232
 1595SOL    HW2 5118   0.960   3.634   3.337
 1596SOL     OW 5119   0.473   2.362   2.053
 1596SOL    HW1 5120   0.534   2.442   2.057
 1596SOL    HW2 5121   0.378   2.393   2.060
 1597SOL     OW 5122   0.159   2.999   3.328
 1597SOL    HW1 5123   0.181   2.938   3.404
 1597SOL    HW2 5124   0.169   2.950   3.242
 1598SOL     OW 5125   1.347   2.921   3.096
 1598SOL    HW1 5126   1.371   2.858   3.022
 1598SOL    HW2 5127   1.257   2.961   3.078
 1599SOL     OW 5128   1.302   2.717   2.171
 1599SOL    HW1 5129   1.216   2.686   2.213
 1599SOL    HW2 5130   1.298   2.703   2.072
 1600SOL     OW 5131   1.759   3.609   3.016
 1600SOL    HW1 5132   1.820   3.639   2.943
 1600SOL    HW2 5133   1.721   3.520   2.994
 1601SOL     OW 5134   1.252   3.593   2.990
 1601SOL    HW1 5135   1.336   3.598   2.936
 1601SOL    HW2 5136   1.229   3.497   3.008
 1602SOL     OW 5137   0.083   3.120   2.884
 1602SOL    HW1 5138   0.078   3.119   2.984
 1602SOL    HW2 5139   0.000   3.079   2.846
 1603SOL     OW 5140   0.688   3.524   3.578
 1603SOL    HW1 5141   0.632   3.605   3.587
 1603SOL    HW2 5142   0.740   3.528   3.492
 1604SOL     OW 5143   1.726   1.997   2.385
 1604SOL    HW1 5144   1.799   1.980   2.318
 1604SOL    HW2 5145   1.695   1.910   2.423
 1605SOL     OW 5146   1.388   3.435   2.339
 1605SOL    HW1 5147   1.455   3.447   2.265
 1605SOL    HW2 5148   1.348   3.524   2.362
 1606SOL     OW 5149   0.130   3.656   3.713
 1606SOL    HW1 5150   0.089   3.582   3.766
 1606SOL    HW2 5151   0.194   3.707   3.771
 1607SOL     OW 5152   1.280   2.789   2.534
 1607SOL    HW1 5153   1.340   2.708   2.536
 1607SOL    HW2 5154   1.320   2.858   2.474
 1608SOL     OW 5155   0.830   3.135   3.284
 1608SOL    HW1 5156   0.825   3.168   3.379
 1608SOL    HW2 5157   0.744   3.154   3.238
 1609SOL     OW 5158   0.672   3.478   2.016
 1609SOL    HW1 5159   0.681   3.488   1.917
 1609SOL    HW2 5160   0.632   3.389   2.037
 1610SOL     OW 5161   1.650   3.582   3.256
 1610SOL    HW1 5162   1.703   3.592   3.172
 1610SOL    HW2 5163   1.623   3.672   3.290
 1611SOL     OW 5164   1.841   2.037   2.825
 1611SOL    HW1 5165   1.880   1.952   2.789
 1611SOL    HW2 5166   1.743   2.039   2.806
 1612SOL     OW 5167   0.263   2.188   2.582
 1612SOL    HW1 5168   0.184   2.239   2.548
 1612SOL    HW2 5169   0.254   2.173   2.680
 1613SOL     OW 5170   1.194   3.474   1.893
 1613SOL    HW1 5171   1.200   3.381   1.930
 1613SOL    HW2 5172   1.135   3.474   1.813
 1614SOL     OW 5173   0.822   2.864   3.234
 1614SOL    HW1 5174   0.862   2.863   3.142
 1614SOL    HW2 5175   0.832   2.956   3.274
 1615SOL     OW 5176   0.916   2.772   2.153
 1615SOL    HW1 5177   0.979   2.810   2.085
 1615SOL    HW2 5178   0.956   2.689   2.192
 1616SOL     OW 5179   1.504   3.469   1.906
 1616SOL    HW1 5180   1.412   3.506   1.913
 1616SOL    HW2 5181   1.542   3.489   1.816
 1617SOL     OW 5182   0.372   3.150   3.352
 1617SOL    HW1 5183   0.359   3.243   3.318
 1617SOL    HW2 5184   0.288   3.098   3.339
 1618SOL     OW 5185   1.614   3.154   3.151
 1618SOL    HW1 5186   1.674   3.157   3.231
 1618SOL    HW2 5187   1.539   3.218   3.164
 1619SOL     OW 5188   1.039   2.960   2.558
 1619SOL    HW1 5189   0.969   2.913   2.612
 1619SOL    HW2 5190   1.098   2.892   2.515
 1620SOL     OW 5191   1.014   2.098   2.833
 1620SOL    HW1 5192   1.006   2.062   2.740
 1620SOL    HW2 5193   1.012   2.022   2.898
 1621SOL     OW 5194   0.590   3.349   2.353
 1621SOL    HW1 5195   0.632   3.291   2.283
 1621SOL    HW2 5196   0.546   3.428   2.309
 1622SOL     OW 5197   1.709   2.247   3.243
 1622SOL    HW1 5198   1.782   2.316   3.247
 1622SOL    HW2 5199   1.737   2.172   3.184
 1623SOL     OW 5200   0.255   3.210   2.152
 1623SOL    HW1 5201   0.159   3.211   2.125
 1623SOL    HW2 5202   0.267   3.263   2.236
 1624SOL     OW 5203   0.105   2.875   3.588
 1624SOL    HW1 5204   0.028   2.842   3.642
 1624SOL    HW2 5205   0.190   2.845   3.630
 1625SOL     OW 5206   0.672   2.065   3.351
 1625SOL    HW1 5207   0.762   2.049   3.311
 1625SOL    HW2 5208   0.680   2.070   3.450
 1626SOL     OW 5209   0.075   2.207   1.895
 1626SOL    HW1 5210  -0.017   2.179   1.866
 1626SOL    HW2 5211   0.106   2.284   1.839
 1627SOL     OW 5212   1.440   2.718   3.260
 1627SOL    HW1 5213   1.383   2.770   3.197
 1627SOL    HW2 5214   1.536   2.730   3.236
 1628SOL     OW 5215   0.072   2.028   2.180
 1628SOL    HW1 5216   0.055   2.111   2.126
 1628SOL    HW2 5217   0.162   1.991   2.158
 1629SOL     OW 5218   1.183   3.197   1.981
 1629SOL    HW1 5219   1.084   3.186   1.983
 1629SOL    HW2 5220   1.217   3.212   2.074
 1630SOL     OW 5221   0.613   2.704   3.293
 1630SOL    HW1 5222   0.669   2.785   3.276
 1630SOL    HW2 5223   0.672   2.624   3.296
 1631SOL     OW 5224   1.493   3.629   2.821
 1631SOL    HW1 5225   1.526   3.693   2.752
 1631SOL    HW2 5226   1.559   3.623   2.896
 1632SOL     OW 5227   0.716   2.427   3.570
 1632SOL    HW1 5228   0.735   2.492   3.644
 1632SOL    HW2 5229   0.776   2.347   3.579
 1633SOL     OW 5230   1.450   3.082   3.495
 1633SOL    HW1 5231   1.441   3.072   3.594
 1633SOL    HW2 5232   1.546   3.075   3.469
 1634SOL     OW 5233   0.390   3.603   3.422
 1634SOL    HW1 5234   0.299   3.644   3.420
 1634SOL    HW2 5235   0.383   3.509   3.454
 1635SOL     OW 5236   1.674   2.745   3.116
 1635SOL    HW1 5237   1.647   2.656   3.079
 1635SOL    HW2 5238   1.675   2.813   3.043
 1636SOL     OW 5239   1.225   2.187   2.311
 1636SOL    HW1 5240   1.290   2.113   2.300
 1636SOL    HW2 5241   1.245   2.237   2.395
 1637SOL     OW 5242   0.594   2.607   2.514
 1637SOL    HW1 5243   0.644   2.692   2.495
 1637SOL    HW2 5244   0.506   2.609   2.466
 1638SOL     OW 5245   1.777   2.204   3.504
 1638SOL    HW1 5246   1.760   2.235   3.410
 1638SOL    HW2 5247   1.693   2.167   3.542
 1639SOL     OW 5248   1.730   2.796   3.379
 1639SOL    HW1 5249   1.768   2.887   3.394
 1639SOL    HW2 5250   1.722   2.779   3.280
 1640SOL     OW 5251   0.859   3.236   1.878
 1640SOL    HW1 5252   0.813   3.251   1.966
 1640SOL    HW2 5253   0.903   3.321   1.848
 1641SOL     OW 5254   0.661   3.652   2.815
 1641SOL    HW1 5255   0.615   3.740   2.802
 1641SOL    HW2 5256   0.760   3.664   2.808
 1642SOL     OW 5257   0.859   2.818   2.723
 1642SOL    HW1 5258   0.913   2.749   2.771
 1642SOL    HW2 5259   0.827   2.887   2.789
 1643SOL     OW 5260   1.083   2.846   1.949
 1643SOL    HW1 5261   1.060   2.899   1.867
 1643SOL    HW2 5262   1.164   2.790   1.930
 1644SOL     OW 5263   1.861   3.431   2.713
 1644SOL    HW1 5264   1.790   3.419   2.643
 1644SOL    HW2 5265   1.862   3.352   2.773
 1645SOL     OW 5266   0.221   3.176   3.706
 1645SOL    HW1 5267   0.156   3.103   3.685
 1645SOL    HW2 5268   0.225   3.190   3.804
 1646SOL     OW 5269   0.079   3.102   2.515
 1646SOL    HW1 5270   0.078   3.055   2.603
 1646SOL    HW2 5271   0.161   3.074   2.464
 1647SOL     OW 5272   0.672   3.253   3.486
 1647SOL    HW1 5273   0.594   3.203   3.524
 1647SOL    HW2 5274   0.669   3.348   3.517
 1648SOL     OW 5275   1.824   2.054   3.089
 1648SOL    HW1 5276   1.820   1.964   3.133
 1648SOL    HW2 5277   1.827   2.043   2.990
 1649SOL     OW 5278   0.428   2.286   2.382
 1649SOL    HW1 5279   0.458   2.214   2.320
 1649SOL    HW2 5280   0.389   2.246   2.465
 1650SOL     OW 5281   1.705   3.349   2.966
 1650SOL    HW1 5282   1.612   3.324   2.939
 1650SOL    HW2 5283   1.731   3.299   3.048
 1651SOL     OW 5284   0.317   2.409   3.142
 1651SOL    HW1 5285   0.355   2.350   3.214
 1651SOL    HW2 5286   0.357   2.383   3.054
 1652SOL     OW 5287   0.812   3.448   2.549
 1652SOL    HW1 5288   0.844   3.458   2.455
 1652SOL    HW2 5289   0.733   3.386   2.551
 1653SOL     OW 5290   1.424   2.076   2.974
 1653SOL    HW1 5291   1.476   2.011   3.029
 1653SOL    HW2 5292   1.375   2.139   3.035
 1654SOL     OW 5293   1.001   1.896   3.016
 1654SOL    HW1 5294   0.938   1.824   2.985
 1654SOL    HW2 5295   1.094   1.860   3.016
 1655SOL     OW 5296   0.770   3.192   2.163
 1655SOL    HW1 5297   0.724   3.105   2.180
 1655SOL    HW2 5298   0.861   3.189   2.204
 1656SOL     OW 5299   0.618   3.429   3.146
 1656SOL    HW1 5300   0.613   3.511   3.203
 1656SOL    HW2 5301   0.707   3.426   3.101
 1657SOL     OW 5302   1.352   1.914   2.030
 1657SOL    HW1 5303   1.387   1.873   1.946
 1657SOL    HW2 5304   1.262   1.876   2.050
 1658SOL     OW 5305   1.300   2.315   2.553
 1658SOL    HW1 5306   1.241   2.395   2.557
 1658SOL    HW2 5307   1.315   2.280   2.646
 1659SOL     OW 5308   1.593   2.083   2.744
 1659SOL    HW1 5309   1.509   2.082   2.798
 1659SOL    HW2 5310   1.595   2.166   2.688
 1660SOL     OW 5311   0.039   2.939   2.162
 1660SOL    HW1 5312   0.138   2.928   2.153
 1660SOL    HW2 5313  -0.001   2.853   2.194
 1661SOL     OW 5314   0.875   3.508   2.199
 1661SOL    HW1 5315   0.798   3.473   2.145
 1661SOL    HW2 5316   0.843   3.579   2.261
 1662SOL     OW 5317   0.230   2.490   3.837
 1662SOL    HW1 5318   0.137   2.488   3.874
 1662SOL    HW2 5319   0.231   2.451   3.745
 1663SOL     OW 5320   0.225   2.137   4.720
 1663SOL    HW1 5321   0.260   2.120   4.812
 1663SOL    HW2 5322   0.137   2.092   4.708
 1664SOL     OW 5323   0.019   2.230   4.371
 1664SOL    HW1 5324  -0.063   2.273   4.410
 1664SOL    HW2 5325  -0.009   2.157   4.308
 1665SOL     OW 5326   0.569   3.137   4.889
 1665SOL    HW1 5327   0.476   3.130   4.852
 1665SOL    HW2 5328   0.580   3.226   4.933
 1666SOL     OW 5329   1.555   3.373   4.427
 1666SOL    HW1 5330   1.498   3.357   4.508
 1666SOL    HW2 5331   1.496   3.383   4.347
 1667SOL     OW 5332   1.135   2.565   4.441
 1667SOL    HW1 5333   1.192   2.643   4.416
 1667SOL    HW2 5334   1.075   2.591   4.517
 1668SOL     OW 5335   1.755   2.469   3.955
 1668SOL    HW1 5336   1.743   2.456   3.856
 1668SOL    HW2 5337   1.725   2.388   4.004
 1669SOL     OW 5338   0.768   3.006   4.747
 1669SOL    HW1 5339   0.690   3.023   4.807
 1669SOL    HW2 5340   0.802   3.093   4.711
 1670SOL     OW 5341   0.850   2.660   5.547
 1670SOL    HW1 5342   0.846   2.736   5.612
 1670SOL    HW2 5343   0.872   2.696   5.456
 1671SOL     OW 5344   0.685   2.874   4.389
 1671SOL    HW1 5345   0.754   2.858   4.459
 1671SOL    HW2 5346   0.612   2.931   4.427
 1672SOL     OW 5347   0.686   3.023   5.527
 1672SOL    HW1 5348   0.746   3.102   5.541
 1672SOL    HW2 5349   0.600   3.054   5.486
 1673SOL     OW 5350   0.335   3.297   4.785
 1673SOL    HW1 5351   0.257   3.266   4.732
 1673SOL    HW2 5352   0.393   3.355   4.728
 1674SOL     OW 5353   1.460   3.367   5.063
 1674SOL    HW1 5354   1.484   3.461   5.089
 1674SOL    HW2 5355   1.444   3.313   5.145
 1675SOL     OW 5356   0.438   2.254   5.223
 1675SOL    HW1 5357   0.520   2.198   5.232
 1675SOL    HW2 5358   0.357   2.196   5.227
 1676SOL     OW 5359   1.603   2.309   4.461
 1676SOL    HW1 5360   1.529   2.355   4.411
 1676SOL    HW2 5361   1.654   2.377   4.514
 1677SOL     OW 5362   0.231   3.575   4.207
 1677SOL    HW1 5363   0.265   3.652   4.261
 1677SOL    HW2 5364   0.275   3.575   4.117
 1678SOL     OW 5365   1.127   3.203   5.414
 1678SOL    HW1 5366   1.174   3.203   5.502
 1678SOL    HW2 5367   1.079   3.116   5.403
 1679SOL     OW 5368   0.230   3.296   4.262
 1679SOL    HW1 5369   0.204   3.392   4.262
 1679SOL    HW2 5370   0.159   3.242   4.307
 1680SOL     OW 5371   0.240   2.953   4.610
 1680SOL    HW1 5372   0.254   2.869   4.662
 1680SOL    HW2 5373   0.185   3.017   4.665
 1681SOL     OW 5374   0.620   3.648   5.163
 1681SOL    HW1 5375   0.528   3.631   5.198
 1681SOL    HW2 5376   0.648   3.740   5.189
 1682SOL     OW 5377   0.606   2.826   3.847
 1682SOL    HW1 5378   0.613   2.910   3.793
 1682SOL    HW2 5379   0.652   2.839   3.935
 1683SOL     OW 5380   1.594   1.976   5.204
 1683SOL    HW1 5381   1.576   2.043   5.132
 1683SOL    HW2 5382   1.591   2.022   5.293
 1684SOL     OW 5383   0.122   2.505   4.287
 1684SOL    HW1 5384   0.077   2.417   4.304
 1684SOL    HW2 5385   0.121   2.559   4.371
 1685SOL     OW 5386   1.842   3.629   4.083
 1685SOL    HW1 5387   1.896   3.600   4.163
 1685SOL    HW2 5388   1.872   3.719   4.054
 1686SOL     OW 5389   0.027   3.458   3.841
 1686SOL    HW1 5390   0.008   3.362   3.862
 1686SOL    HW2 5391  -0.006   3.516   3.916
 1687SOL     OW 5392   1.689   2.784   4.336
 1687SOL    HW1 5393   1.784   2.755   4.344
 1687SOL    HW2 5394   1.681   2.849   4.261
 1688SOL     OW 5395   1.641   2.970   4.156
 1688SOL    HW1 5396   1.727   2.972   4.104
 1688SOL    HW2 5397   1.655   3.017   4.244
 1689SOL     OW 5398   0.113   2.599   5.321
 1689SOL    HW1 5399   0.201   2.586   5.366
 1689SOL    HW2 5400   0.100   2.696   5.299
 1690SOL     OW 5401   0.613   3.227   4.450
 1690SOL    HW1 5402   0.564   3.140   4.459
 1690SOL    HW2 5403   0.590   3.270   4.363
 1691SOL     OW 5404   1.293   3.090   5.147
 1691SOL    HW1 5405   1.330   3.017   5.089
 1691SOL    HW2 5406   1.345   3.095   5.232
 1692SOL     OW 5407   0.809   1.866   4.226
 1692SOL    HW1 5408   0.849   1.957   4.217
 1692SOL    HW2 5409   0.709   1.874   4.232
 1693SOL     OW 5410   0.197   2.838   4.988
 1693SOL    HW1 5411   0.286   2.793   4.974
 1693SOL    HW2 5412   0.124   2.773   4.969
 1694SOL     OW 5413   1.525   2.861   3.914
 1694SOL    HW1 5414   1.462   2.785   3.927
 1694SOL    HW2 5415   1.573   2.879   4.000
 1695SOL     OW 5416   1.187   3.654   5.340
 1695SOL    HW1 5417   1.211   3.714   5.264
 1695SOL    HW2 5418   1.194   3.559   5.310
 1696SOL     OW 5419   0.317   2.113   5.525
 1696SOL    HW1 5420   0.388   2.184   5.531
 1696SOL    HW2 5421   0.229   2.152   5.553
 1697SOL     OW 5422   1.466   3.279   4.677
 1697SOL    HW1 5423   1.407   3.285   4.757
 1697SOL    HW2 5424   1.451   3.191   4.631
 1698SOL     OW 5425   1.667   3.576   4.296
 1698SOL    HW1 5426   1.626   3.553   4.208
 1698SOL    HW2 5427   1.649   3.502   4.361
 1699SOL     OW 5428   0.598   2.591   3.994
 1699SOL    HW1 5429   0.622   2.660   3.926
 1699SOL    HW2 5430   0.520   2.624   4.048
 1700SOL     OW 5431   1.281   2.207   4.668
 1700SOL    HW1 5432   1.195   2.157   4.655
 1700SOL    HW2 5433   1.343   2.153   4.724
 1701SOL     OW 5434   1.576   3.524   4.031
 1701SOL    HW1 5435   1.665   3.570   4.034
 1701SOL    HW2 5436   1.555   3.500   3.936
 1702SOL     OW 5437   0.807   2.467   5.189
 1702SOL    HW1 5438   0.760   2.464   5.278
 1702SOL    HW2 5439   0.756   2.412   5.123
 1703SOL     OW 5440   1.394   2.331   5.398
 1703SOL    HW1 5441   1.374   2.374   5.486
 1703SOL    HW2 5442   1.472   2.269   5.407
 1704SOL     OW 5443   0.973   2.752   5.296
 1704SOL    HW1 5444   1.019   2.668   5.267
 1704SOL    HW2 5445   0.917   2.786   5.221
 1705SOL     OW 5446   0.991   2.272   4.966
 1705SOL    HW1 5447   0.914   2.306   5.020
 1705SOL    HW2 5448   0.957   2.221   4.887
 1706SOL     OW 5449   1.041   2.563   4.153
 1706SOL    HW1 5450   1.067   2.559   4.249
 1706SOL    HW2 5451   0.956   2.512   4.139
 1707SOL     OW 5452   0.076   2.673   4.513
 1707SOL    HW1 5453   0.175   2.661   4.522
 1707SOL    HW2 5454   0.052   2.768   4.534
 1708SOL     OW 5455   0.130   3.683   5.295
 1708SOL    HW1 5456   0.120   3.668   5.394
 1708SOL    HW2 5457   0.044   3.719   5.259
 1709SOL     OW 5458   0.865   2.210   3.919
 1709SOL    HW1 5459   0.924   2.273   3.870
 1709SOL    HW2 5460   0.884   2.116   3.890
 1710SOL     OW 5461   1.362   3.006   4.269
 1710SOL    HW1 5462   1.445   2.977   4.221
 1710SOL    HW2 5463   1.313   3.073   4.213
 1711SOL     OW 5464   0.550   2.058   4.609
 1711SOL    HW1 5465   0.545   2.053   4.709
 1711SOL    HW2 5466   0.552   2.154   4.580
 1712SOL     OW 5467   1.008   3.318   4.201
 1712SOL    HW1 5468   0.962   3.390   4.149
 1712SOL    HW2 5469   1.004   3.338   4.299
 1713SOL     OW 5470   0.351   3.663   4.577
 1713SOL    HW1 5471   0.401   3.577   4.583
 1713SOL    HW2 5472   0.416   3.740   4.574
 1714SOL     OW 5473   1.795   2.928   4.597
 1714SOL    HW1 5474   1.733   2.913   4.521
 1714SOL    HW2 5475   1.743   2.939   4.682
 1715SOL     OW 5476   1.227   3.412   5.230
 1715SOL    HW1 5477   1.233   3.335   5.294
 1715SOL    HW2 5478   1.175   3.386   5.150
 1716SOL     OW 5479   0.321   2.805   3.966
 1716SOL    HW1 5480   0.403   2.844   3.924
 1716SOL    HW2 5481   0.294   2.723   3.917
 1717SOL     OW 5482   1.458   2.597   4.452
 1717SOL    HW1 5483   1.453   2.532   4.527
 1717SOL    HW2 5484   1.538   2.656   4.465
 1718SOL     OW 5485   0.461   3.128   5.451
 1718SOL    HW1 5486   0.411   3.129   5.365
 1718SOL    HW2 5487   0.398   3.110   5.527
 1719SOL     OW 5488   1.111   3.638   3.961
 1719SOL    HW1 5489   1.051   3.576   4.011
 1719SOL    HW2 5490   1.142   3.594   3.876
 1720SOL     OW 5491   0.202   2.147   5.222
 1720SOL    HW1 5492   0.122   2.207   5.209
 1720SOL    HW2 5493   0.192   2.098   5.308
 1721SOL     OW 5494   1.632   3.239   3.805
 1721SOL    HW1 5495   1.600   3.333   3.795
 1721SOL    HW2 5496   1.556   3.176   3.793
 1722SOL     OW 5497   0.464   3.605   4.047
 1722SOL    HW1 5498   0.497   3.644   4.133
 1722SOL    HW2 5499   0.540   3.598   3.982
 1723SOL     OW 5500   1.400   1.969   4.150
 1723SOL    HW1 5501   1.376   1.932   4.060
 1723SOL    HW2 5502   1.499   1.985   4.154
 1724SOL     OW 5503   0.249   3.647   4.965
 1724SOL    HW1 5504   0.306   3.582   5.015
 1724SOL    HW2 5505   0.233   3.614   4.872
 1725SOL     OW 5506   0.940   3.560   4.628
 1725SOL    HW1 5507   1.020   3.503   4.649
 1725SOL    HW2 5508   0.891   3.520   4.551
 1726SOL     OW 5509   0.382   2.562   4.204
 1726SOL    HW1 5510   0.427   2.472   4.201
 1726SOL    HW2 5511   0.288   2.551   4.237
 1727SOL     OW 5512   1.547   2.084   5.453
 1727SOL    HW1 5513   1.542   2.121   5.545
 1727SOL    HW2 5514   1.475   2.015   5.441
 1728SOL     OW 5515   0.614   1.984   3.841
 1728SOL    HW1 5516   0.712   1.962   3.848
 1728SOL    HW2 5517   0.583   1.967   3.748
 1729SOL     OW 5518   0.781   2.126   5.473
 1729SOL    HW1 5519   0.848   2.065   5.516
 1729SOL    HW2 5520   0.708   2.145   5.538
 1730SOL     OW 5521   0.888   3.376   4.919
 1730SOL    HW1 5522   0.865   3.351   4.825
 1730SOL    HW2 5523   0.949   3.307   4.958
 1731SOL     OW 5524   1.351   2.452   5.157
 1731SOL    HW1 5525   1.379   2.409   5.242
 1731SOL    HW2 5526   1.376   2.548   5.158
 1732SOL     OW 5527   0.803   3.264   4.648
 1732SOL    HW1 5528   0.893   3.278   4.606
 1732SOL    HW2 5529   0.732   3.266   4.577
 1733SOL     OW 5530   0.922   2.365   4.623
 1733SOL    HW1 5531   0.897   2.356   4.527
 1733SOL    HW2 5532   0.970   2.283   4.654
 1734SOL     OW 5533   0.539   1.926   4.236
 1734SOL    HW1 5534   0.458   1.927   4.294
 1734SOL    HW2 5535   0.542   2.009   4.181
 1735SOL     OW 5536   1.434   3.050   3.765
 1735SOL    HW1 5537   1.466   2.974   3.822
 1735SOL    HW2 5538   1.342   3.077   3.795
 1736SOL     OW 5539   0.297   1.897   3.895
 1736SOL    HW1 5540   0.346   1.981   3.874
 1736SOL    HW2 5541   0.359   1.832   3.940
 1737SOL     OW 5542   0.935   2.098   4.204
 1737SOL    HW1 5543   0.887   2.139   4.126
 1737SOL    HW2 5544   1.034   2.096   4.185
 1738SOL     OW 5545   1.076   2.545   5.188
 1738SOL    HW1 5546   0.996   2.484   5.191
 1738SOL    HW2 5547   1.157   2.492   5.164
 1739SOL     OW 5548   1.227   3.432   4.517
 1739SOL    HW1 5549   1.248   3.506   4.452
 1739SOL    HW2 5550   1.295   3.432   4.590
 1740SOL     OW 5551   0.459   3.014   4.465
 1740SOL    HW1 5552   0.388   2.987   4.530
 1740SOL    HW2 5553   0.433   2.986   4.372
 1741SOL     OW 5554   1.271   3.659   4.315
 1741SOL    HW1 5555   1.315   3.723   4.251
 1741SOL    HW2 5556   1.221   3.711   4.385
 1742SOL     OW 5557   1.032   2.411   3.740
 1742SOL    HW1 5558   0.991   2.493   3.701
 1742SOL    HW2 5559   1.096   2.437   3.813
 1743SOL     OW 5560   0.078   2.418   5.110
 1743SOL    HW1 5561   0.170   2.417   5.069
 1743SOL    HW2 5562   0.072   2.492   5.177
 1744SOL     OW 5563   0.561   2.084   4.871
 1744SOL    HW1 5564   0.599   2.000   4.908
 1744SOL    HW2 5565   0.473   2.103   4.915
 1745SOL     OW 5566   0.866   2.316   4.366
 1745SOL    HW1 5567   0.834   2.388   4.304
 1745SOL    HW2 5568   0.890   2.235   4.313
 1746SOL     OW 5569   1.017   1.901   4.477
 1746SOL    HW1 5570   0.945   1.906   4.408
 1746SOL    HW2 5571   0.993   1.832   4.546
 1747SOL     OW 5572   1.429   3.035   4.591
 1747SOL    HW1 5573   1.374   2.951   4.584
 1747SOL    HW2 5574   1.455   3.064   4.499
 1748SOL     OW 5575   1.466   2.452   4.716
 1748SOL    HW1 5576   1.436   2.357   4.723
 1748SOL    HW2 5577   1.539   2.468   4.782
 1749SOL     OW 5578   1.857   2.695   4.101
 1749SOL    HW1 5579   1.899   2.631   4.165
 1749SOL    HW2 5580   1.819   2.644   4.023
 1750SOL     OW 5581   0.488   3.247   3.898
 1750SOL    HW1 5582   0.401   3.232   3.945
 1750SOL    HW2 5583   0.471   3.273   3.803
 1751SOL     OW 5584   1.664   3.142   4.381
 1751SOL    HW1 5585   1.763   3.150   4.395
 1751SOL    HW2 5586   1.619   3.226   4.412
 1752SOL     OW 5587   1.390   2.437   3.802
 1752SOL    HW1 5588   1.336   2.416   3.883
 1752SOL    HW2 5589   1.481   2.396   3.811
 1753SOL     OW 5590   0.527   2.118   4.052
 1753SOL    HW1 5591   0.554   2.059   3.977
 1753SOL    HW2 5592   0.527   2.213   4.021
 1754SOL     OW 5593   1.754   3.085   5.312
 1754SOL    HW1 5594   1.845   3.046   5.299
 1754SOL    HW2 5595   1.762   3.181   5.336
 1755SOL     OW 5596   1.064   3.209   5.064
 1755SOL    HW1 5597   0.984   3.186   5.119
 1755SOL    HW2 5598   1.147   3.183   5.113
 1756SOL     OW 5599   1.592   3.491   5.349
 1756SOL    HW1 5600   1.619   3.525   5.259
 1756SOL    HW2 5601   1.671   3.453   5.395
 1757SOL     OW 5602   1.111   3.057   4.824
 1757SOL    HW1 5603   1.071   3.101   4.905
 1757SOL    HW2 5604   1.070   3.094   4.741
 1758SOL     OW 5605   1.638   2.961   4.803
 1758SOL    HW1 5606   1.643   3.042   4.862
 1758SOL    HW2 5607   1.552   2.963   4.752
 1759SOL     OW 5608   0.915   1.951   5.126
 1759SOL    HW1 5609   0.940   1.931   5.031
 1759SOL    HW2 5610   0.987   2.007   5.168
 1760SOL     OW 5611   0.980   2.978   5.443
 1760SOL    HW1 5612   0.881   2.984   5.453
 1760SOL    HW2 5613   1.003   2.898   5.387
 1761SOL     OW 5614   0.705   2.912   4.092
 1761SOL    HW1 5615   0.691   2.919   4.191
 1761SOL    HW2 5616   0.789   2.861   4.074
 1762SOL     OW 5617   0.410   2.675   4.975
 1762SOL    HW1 5618   0.496   2.687   5.025
 1762SOL    HW2 5619   0.368   2.588   5.002
 1763SOL     OW 5620   1.274   2.248   4.986
 1763SOL    HW1 5621   1.295   2.322   5.050
 1763SOL    HW2 5622   1.185   2.265   4.943
 1764SOL     OW 5623   0.064   3.426   5.055
 1764SOL    HW1 5624   0.018   3.508   5.021
 1764SOL    HW2 5625   0.162   3.445   5.064
 1765SOL     OW 5626   0.367   2.962   4.225
 1765SOL    HW1 5627   0.360   3.045   4.169
 1765SOL    HW2 5628   0.371   2.882   4.165
 1766SOL     OW 5629   0.566   2.399   4.589
 1766SOL    HW1 5630   0.578   2.465   4.515
 1766SOL    HW2 5631   0.612   2.433   4.672
 1767SOL     OW 5632   1.252   3.210   4.112
 1767SOL    HW1 5633   1.302   3.287   4.152
 1767SOL    HW2 5634   1.157   3.212   4.144
 1768SOL     OW 5635   1.272   3.307   4.866
 1768SOL    HW1 5636   1.319   3.320   4.953
 1768SOL    HW2 5637   1.206   3.233   4.875
 1769SOL     OW 5638   1.582   2.501   4.196
 1769SOL    HW1 5639   1.551   2.562   4.269
 1769SOL    HW2 5640   1.632   2.553   4.127
 1770SOL     OW 5641   0.354   3.372   5.053
 1770SOL    HW1 5642   0.333   3.328   4.966
 1770SOL    HW2 5643   0.451   3.398   5.056
 1771SOL     OW 5644   0.402   2.613   5.322
 1771SOL    HW1 5645   0.470   2.668   5.275
 1771SOL    HW2 5646   0.442   2.525   5.349
 1772SOL     OW 5647   1.587   2.641   5.394
 1772SOL    HW1 5648   1.495   2.679   5.389
 1772SOL    HW2 5649   1.647   2.688   5.329
 1773SOL     OW 5650   1.013   1.967   5.494
 1773SOL    HW1 5651   1.019   2.052   5.442
 1773SOL    HW2 5652   1.045   1.891   5.437
 1774SOL     OW 5653   0.504   1.912   5.464
 1774SOL    HW1 5654   0.462   1.855   5.394
 1774SOL    HW2 5655   0.438   1.981   5.496
 1775SOL     OW 5656   0.573   2.732   4.753
 1775SOL    HW1 5657   0.617   2.821   4.744
 1775SOL    HW2 5658   0.510   2.732   4.830
 1776SOL     OW 5659   1.360   2.724   4.769
 1776SOL    HW1 5660   1.285   2.724   4.703
 1776SOL    HW2 5661   1.397   2.632   4.778
 1777SOL     OW 5662   1.209   2.387   3.999
 1777SOL    HW1 5663   1.222   2.303   4.053
 1777SOL    HW2 5664   1.180   2.461   4.059
 1778SOL     OW 5665   0.307   2.075   4.955
 1778SOL    HW1 5666   0.284   2.112   5.045
 1778SOL    HW2 5667   0.277   1.980   4.949
 1779SOL     OW 5668   0.037   3.172   5.006
 1779SOL    HW1 5669   0.090   3.123   5.074
 1779SOL    HW2 5670   0.059   3.270   5.011
 1780SOL     OW 5671   0.732   2.496   4.788
 1780SOL    HW1 5672   0.791   2.470   4.712
 1780SOL    HW2 5673   0.704   2.592   4.777
 1781SOL     OW 5674   0.307   1.925   4.342
 1781SOL    HW1 5675   0.296   2.019   4.375
 1781SOL    HW2 5676   0.302   1.862   4.419
 1782SOL     OW 5677   1.622   2.229   4.098
 1782SOL    HW1 5678   1.624   2.153   4.162
 1782SOL    HW2 5679   1.574   2.306   4.138
 1783SOL     OW 5680   1.023   2.628   4.690
 1783SOL    HW1 5681   1.038   2.649   4.786
 1783SOL    HW2 5682   0.993   2.533   4.681
 1784SOL     OW 5683   0.980   3.435   5.424
 1784SOL    HW1 5684   0.960   3.479   5.336
 1784SOL    HW2 5685   1.019   3.344   5.408
 1785SOL     OW 5686   1.859   3.380   5.329
 1785SOL    HW1 5687   1.873   3.407   5.234
 1785SOL    HW2 5688   1.942   3.402   5.382
 1786SOL     OW 5689   0.350   2.760   5.528
 1786SOL    HW1 5690   0.426   2.804   5.576
 1786SOL    HW2 5691   0.385   2.713   5.446
 1787SOL     OW 5692   1.540   2.136   3.849
 1787SOL    HW1 5693   1.479   2.061   3.872
 1787SOL    HW2 5694   1.562   2.188   3.932
 1788SOL     OW 5695   1.303   2.700   3.766
 1788SOL    HW1 5696   1.337   2.607   3.781
 1788SOL    HW2 5697   1.321   2.727   3.671
 1789SOL     OW 5698   1.068   3.195   4.573
 1789SOL    HW1 5699   1.075   3.111   4.518
 1789SOL    HW2 5700   1.130   3.264   4.537
 1790SOL     OW 5701   0.319   2.672   4.673
 1790SOL    HW1 5702   0.412   2.708   4.678
 1790SOL    HW2 5703   0.313   2.587   4.725
 1791SOL     OW 5704   0.339   2.371   4.730
 1791SOL    HW1 5705   0.287   2.288   4.713
 1791SOL    HW2 5706   0.416   2.376   4.666
 1792SOL     OW 5707   1.138   2.242   5.402
 1792SOL    HW1 5708   1.093   2.305   5.466
 1792SOL    HW2 5709   1.231   2.273   5.385
 1793SOL     OW 5710   1.160   2.069   5.201
 1793SOL    HW1 5711   1.160   2.133   5.278
 1793SOL    HW2 5712   1.188   2.117   5.118
 1794SOL     OW 5713   0.008   3.188   3.924
 1794SOL    HW1 5714  -0.085   3.209   3.893
 1794SOL    HW2 5715   0.018   3.089   3.937
 1795SOL     OW 5716   0.088   3.663   4.651
 1795SOL    HW1 5717   0.046   3.577   4.624
 1795SOL    HW2 5718   0.182   3.666   4.617
 1796SOL     OW 5719   0.504   3.430   4.634
 1796SOL    HW1 5720   0.570   3.504   4.643
 1796SOL    HW2 5721   0.548   3.351   4.592
 1797SOL     OW 5722   1.002   2.658   4.962
 1797SOL    HW1 5723   1.043   2.626   5.048
 1797SOL    HW2 5724   0.906   2.631   4.959
 1798SOL     OW 5725   0.040   2.406   4.838
 1798SOL    HW1 5726   0.125   2.373   4.797
 1798SOL    HW2 5727   0.053   2.421   4.936
 1799SOL     OW 5728   0.189   2.382   5.446
 1799SOL    HW1 5729   0.248   2.342   5.376
 1799SOL    HW2 5730   0.131   2.453   5.405
 1800SOL     OW 5731   1.369   2.812   5.384
 1800SOL    HW1 5732   1.408   2.901   5.404
 1800SOL    HW2 5733   1.379   2.792   5.287
 1801SOL     OW 5734   0.815   2.434   4.049
 1801SOL    HW1 5735   0.822   2.345   4.003
 1801SOL    HW2 5736   0.721   2.468   4.041
 1802SOL     OW 5737   1.657   2.466   4.930
 1802SOL    HW1 5738   1.619   2.397   4.992
 1802SOL    HW2 5739   1.739   2.430   4.886
 1803SOL     OW 5740   0.252   3.426   5.468
 1803SOL    HW1 5741   0.222   3.483   5.544
 1803SOL    HW2 5742   0.245   3.329   5.494
 1804SOL     OW 5743   0.671   2.326   4.993
 1804SOL    HW1 5744   0.637   2.237   4.963
 1804SOL    HW2 5745   0.697   2.380   4.913
 1805SOL     OW 5746   0.930   3.540   5.189
 1805SOL    HW1 5747   0.906   3.522   5.094
 1805SOL    HW2 5748   0.960   3.634   5.199
 1806SOL     OW 5749   0.473   2.362   3.915
 1806SOL    HW1 5750   0.534   2.442   3.919
 1806SOL    HW2 5751   0.378   2.393   3.922
 1807SOL     OW 5752   0.159   2.999   5.190
 1807SOL    HW1 5753   0.181   2.938   5.266
 1807SOL    HW2 5754   0.169   2.950   5.104
 1808SOL     OW 5755   1.347   2.921   4.958
 1808SOL    HW1 5756   1.371   2.858   4.884
 1808SOL    HW2 5757   1.257   2.961   4.940
 1809SOL     OW 5758   1.302   2.717   4.033
 1809SOL    HW1 5759   1.216   2.686   4.075
 1809SOL    HW2 5760   1.298   2.703   3.934
 1810SOL     OW 5761   1.759   3.609   4.878
 1810SOL    HW1 5762   1.820   3.639   4.805
 1810SOL    HW2 5763   1.721   3.520   4.856
 1811SOL     OW 5764   1.252   3.593   4.852
 1811SOL    HW1 5765   1.336   3.598   4.798
 1811SOL    HW2 5766   1.229   3.497   4.870
 1812SOL     OW 5767   0.083   3.120   4.746
 1812SOL    HW1 5768   0.078   3.119   4.846
 1812SOL    HW2 5769   0.000   3.079   4.708
 1813SOL     OW 5770   0.688   3.524   5.440
 1813SOL    HW1 5771   0.632   3.605   5.449
 1813SOL    HW2 5772   0.740   3.528   5.354
 1814SOL     OW 5773   1.726   1.997   4.247
 1814SOL    HW1 5774   1.799   1.980   4.180
 1814SOL    HW2 5775   1.695   1.910   4.285
 1815SOL     OW 5776   1.388   3.435   4.201
 1815SOL    HW1 5777   1.455   3.447   4.127
 1815SOL    HW2 5778   1.348   3.524   4.224
 1816SOL     OW 5779   0.130   3.656   5.575
 1816SOL    HW1 5780   0.089   3.582   5.628
 1816SOL    HW2 5781   0.194   3.707   5.633
 1817SOL     OW 5782   1.280   2.789   4.396
 1817SOL    HW1 5783   1.340   2.708   4.398
 1817SOL    HW2 5784   1.320   2.858   4.336
 1818SOL     OW 5785   0.830   3.135   5.146
 1818SOL    HW1 5786   0.825   3.168   5.241
 1818SOL    HW2 5787   0.744   3.154   5.100
 1819SOL     OW 5788   0.672   3.478   3.878
 1819SOL    HW1 5789   0.681   3.488   3.779
 1819SOL    HW2 5790   0.632   3.389   3.899
 1820SOL     OW 5791   1.650   3.582   5.118
 1820SOL    HW1 5792   1.703   3.592   5.034
 1820SOL    HW2 5793   1.623   3.672   5.152
 1821SOL     OW 5794   1.841   2.037   4.687
 1821SOL    HW1 5795   1.880   1.952   4.651
 1821SOL    HW2 5796   1.743   2.039   4.668
 1822SOL     OW 5797   0.263   2.188   4.444
 1822SOL    HW1 5798   0.184   2.239   4.410
 1822SOL    HW2 5799   0.254   2.173   4.542
 1823SOL     OW 5800   1.194   3.474   3.755
 1823SOL    HW1 5801   1.200   3.381   3.792
 1823SOL    HW2 5802   1.135   3.474   3.675
 1824SOL     OW 5803   0.822   2.864   5.096
 1824SOL    HW1 5804   0.862   2.863   5.004
 1824SOL    HW2 5805   0.832   2.956   5.136
 1825SOL     OW 5806   0.916   2.772   4.015
 1825SOL    HW1 5807   0.979   2.810   3.947
 1825SOL    HW2 5808   0.956   2.689   4.054
 1826SOL     OW 5809   1.504   3.469   3.768
 1826SOL    HW1 5810   1.412   3.506   3.775
 1826SOL    HW2 5811   1.542   3.489   3.678
 1827SOL     OW 5812   0.372   3.150   5.214
 1827SOL    HW1 5813   0.359   3.243   5.180
 1827SOL    HW2 5814   0.288   3.098   5.201
 1828SOL     OW 5815   1.614   3.154   5.013
 1828SOL    HW1 5816   1.674   3.157   5.093
 1828SOL    HW2 5817   1.539   3.218   5.026
 1829SOL     OW 5818   1.039   2.960   4.420
 1829SOL    HW1 5819   0.969   2.913   4.474
 1829SOL    HW2 5820   1.098   2.892   4.377
 1830SOL     OW 5821   1.014   2.098   4.695
 1830SOL    HW1 5822   1.006   2.062   4.602
 1830SOL    HW2 5823   1.012   2.022   4.760
 1831SOL     OW 5824   0.590   3.349   4.215
 1831SOL    HW1 5825   0.632   3.291   4.145
 1831SOL    HW2 5826   0.546   3.428   4.171
 1832SOL     OW 5827   0.255   3.210   4.014
 1832SOL    HW1 5828   0.159   3.211   3.987
 1832SOL    HW2 5829   0.267   3.263   4.098
 1833SOL     OW 5830   0.105   2.875   5.450
 1833SOL    HW1 5831   0.028   2.842   5.504
 1833SOL    HW2 5832   0.190   2.845   5.492
 1834SOL     OW 5833   0.672   2.065   5.213
 1834SOL    HW1 5834   0.762   2.049   5.173
 1834SOL    HW2 5835   0.680   2.070   5.312
 1835SOL     OW 5836   0.075   2.207   3.757
 1835SOL    HW1 5837  -0.017   2.179   3.728
 1835SOL    HW2 5838   0.106   2.284   3.701
 1836SOL     OW 5839   1.440   2.718   5.122
 1836SOL    HW1 5840   1.383   2.770   5.059
 1836SOL    HW2 5841   1.536   2.730   5.098
 1837SOL     OW 5842   0.072   2.028   4.042
 1837SOL    HW1 5843   0.055   2.111   3.988
 1837SOL    HW2 5844   0.162   1.991   4.020
 1838SOL     OW 5845   1.183   3.197   3.843
 1838SOL    HW1 5846   1.084   3.186   3.845
 1838SOL    HW2 5847   1.217   3.212   3.936
 1839SOL     OW 5848   0.613   2.704   5.155
 1839SOL    HW1 5849   0.669   2.785   5.138
 1839SOL    HW2 5850   0.672   2.624   5.158
 1840SOL     OW 5851   1.493   3.629   4.683
 1840SOL    HW1 5852   1.526   3.693   4.614
 1840SOL    HW2 5853   1.559   3.623   4.758
 1841SOL     OW 5854   0.716   2.427   5.432
 1841SOL    HW1 5855   0.735   2.492   5.506
 1841SOL    HW2 5856   0.776   2.347   5.441
 1842SOL     OW 5857   1.450   3.082   5.357
 1842SOL    HW1 5858   1.441   3.072   5.456
 1842SOL    HW2 5859   1.546   3.075   5.331
 1843SOL     OW 5860   0.390   3.603   5.284
 1843SOL    HW1 5861   0.299   3.644   5.282
 1843SOL    HW2 5862   0.383   3.509   5.316
 1844SOL     OW 5863   1.674   2.745   4.978
 1844SOL    HW1 5864   1.647   2.656   4.941
 1844SOL    HW2 5865   1.675   2.813   4.905
 1845SOL     OW 5866   1.225   2.187   4.173
 1845SOL    HW1 5867   1.290   2.113   4.162
 1845SOL    HW2 5868   1.245   2.237   4.257
 1846SOL     OW 5869   0.594   2.607   4.376
 1846SOL    HW1 5870   0.644   2.692   4.357
 1846SOL    HW2 5871   0.506   2.609   4.328
 1847SOL     OW 5872   1.730   2.796   5.241
 1847SOL    HW1 5873   1.768   2.887   5.256
 1847SOL    HW2 5874   1.722   2.779   5.142
 1848SOL     OW 5875   0.859   3.236   3.740
 1848SOL    HW1 5876   0.813   3.251   3.828
 1848SOL    HW2 5877   0.903   3.321   3.710
 1849SOL     OW 5878   0.661   3.652   4.677
 1849SOL    HW1 5879   0.615   3.740   4.664
 1849SOL    HW2 5880   0.760   3.664   4.670
 1850SOL     OW 5881   0.859   2.818   4.585
 1850SOL    HW1 5882   0.913   2.749   4.633
 1850SOL    HW2 5883   0.827   2.887   4.651
 1851SOL     OW 5884   1.083   2.846   3.811
 1851SOL    HW1 5885   1.060   2.899   3.729
 1851SOL    HW2 5886   1.164   2.790   3.792
 1852SOL     OW 5887   1.861   3.431   4.575
 1852SOL    HW1 5888   1.790   3.419   4.505
 1852SOL    HW2 5889   1.862   3.352   4.635
 1853SOL     OW 5890   0.221   3.176   5.568
 1853SOL    HW1 5891   0.156   3.103   5.547
 1853SOL    HW2 5892   0.225   3.190   5.666
 1854SOL     OW 5893   0.079   3.102   4.377
 1854SOL    HW1 5894   0.078   3.055   4.465
 1854SOL    HW2 5895   0.161   3.074   4.326
 1855SOL     OW 5896   0.672   3.253   5.348
 1855SOL    HW1 5897   0.594   3.203   5.386
 1855SOL    HW2 5898   0.669   3.348   5.379
 1856SOL     OW 5899   1.824   2.054   4.951
 1856SOL    HW1 5900   1.820   1.964   4.995
 1856SOL    HW2 5901   1.827   2.043   4.852
 1857SOL     OW 5902   0.428   2.286   4.244
 1857SOL    HW1 5903   0.458   2.214   4.182
 1857SOL    HW2 5904   0.389   2.246   4.327
 1858SOL     OW 5905   1.705   3.349   4.828
 1858SOL    HW1 5906   1.612   3.324   4.801
 1858SOL    HW2 5907   1.731   3.299   4.910
 1859SOL     OW 5908   0.317   2.409   5.004
 1859SOL    HW1 5909   0.355   2.350   5.076
 1859SOL    HW2 5910   0.357   2.383   4.916
 1860SOL     OW 5911   0.812   3.448   4.411
 1860SOL    HW1 5912   0.844   3.458   4.317
 1860SOL    HW2 5913   0.733   3.386   4.413
 1861SOL     OW 5914   1.424   2.076   4.836
 1861SOL    HW1 5915   1.476   2.011   4.891
 1861SOL    HW2 5916   1.375   2.139   4.897
 1862SOL     OW 5917   1.001   1.896   4.878
 1862SOL    HW1 5918   0.938   1.824   4.847
 1862SOL    HW2 5919   1.094   1.860   4.878
 1863SOL     OW 5920   0.770   3.192   4.025
 1863SOL    HW1 5921   0.724   3.105   4.042
 1863SOL    HW2 5922   0.861   3.189   4.066
 1864SOL     OW 5923   0.618   3.429   5.008
 1864SOL    HW1 5924   0.613   3.511   5.065
 1864SOL    HW2 5925   0.707   3.426   4.963
 1865SOL     OW 5926   1.352   1.914   3.892
 1865SOL    HW1 5927   1.387   1.873   3.808
 1865SOL    HW2 5928   1.262   1.876   3.912
 1866SOL     OW 5929   1.300   2.315   4.415
 1866SOL    HW1 5930   1.241   2.395   4.419
 1866SOL    HW2 5931   1.315   2.280   4.508
 1867SOL     OW 5932   1.593   2.083   4.606
 1867SOL    HW1 5933   1.509   2.082   4.660
 1867SOL    HW2 5934   1.595   2.166   4.550
 1868SOL     OW 5935   0.039   2.939   4.024
 1868SOL    HW1 5936   0.138   2.928   4.015
 1868SOL    HW2 5937  -0.001   2.853   4.056
 1869SOL     OW 5938   0.875   3.508   4.061
 1869SOL    HW1 5939   0.798   3.473   4.007
 1869SOL    HW2 5940   0.843   3.579   4.123
 1870SOL     OW 5941   0.230   2.490   5.699
 1870SOL    HW1 5942   0.137   2.488   5.736
 1870SOL    HW2 5943   0.231   2.451   5.607
 1871SOL     OW 5944   0.225   2.137   6.582
 1871SOL    HW1 5945   0.260   2.120   6.674
 1871SOL    HW2 5946   0.137   2.092   6.570
 1872SOL     OW 5947   0.019   2.230   6.233
 1872SOL    HW1 5948  -0.063   2.273   6.272
 1872SOL    HW2 5949  -0.009   2.157   6.170
 1873SOL     OW 5950   0.569   3.137   6.751
 1873SOL    HW1 5951   0.476   3.130   6.714
 1873SOL    HW2 5952   0.580   3.226   6.795
 1874SOL     OW 5953   1.555   3.373   6.289
 1874SOL    HW1 5954   1.498   3.357   6.370
 1874SOL    HW2 5955   1.496   3.383   6.209
 1875SOL     OW 5956   1.135   2.565   6.303
 1875SOL    HW1 5957   1.192   2.643   6.278
 1875SOL    HW2 5958   1.075   2.591   6.379
 1876SOL     OW 5959   1.755   2.469   5.817
 1876SOL    HW1 5960   1.743   2.456   5.718
 1876SOL    HW2 5961   1.725   2.388   5.866
 1877SOL     OW 5962   0.768   3.006   6.609
 1877SOL    HW1 5963   0.690   3.023   6.669
 1877SOL    HW2 5964   0.802   3.093   6.573
 1878SOL     OW 5965   0.850   2.660   7.409
 1878SOL    HW1 5966   0.846   2.736   7.474
 1878SOL    HW2 5967   0.872   2.696   7.318
 1879SOL     OW 5968   0.685   2.874   6.251
 1879SOL    HW1 5969   0.754   2.858   6.321
 1879SOL    HW2 5970   0.612   2.931   6.289
 1880SOL     OW 5971   0.686   3.023   7.389
 1880SOL    HW1 5972   0.746   3.102   7.403
 1880SOL    HW2 5973   0.600   3.054   7.348
 1881SOL     OW 5974   0.335   3.297   6.647
 1881SOL    HW1 5975   0.257   3.266   6.594
 1881SOL    HW2 5976   0.393   3.355   6.590
 1882SOL     OW 5977   1.460   3.367   6.925
 1882SOL    HW1 5978   1.484   3.461   6.951
 1882SOL    HW2 5979   1.444   3.313   7.007
 1883SOL     OW 5980   0.438   2.254   7.085
 1883SOL    HW1 5981   0.520   2.198   7.094
 1883SOL    HW2 5982   0.357   2.196   7.089
 1884SOL     OW 5983   1.603   2.309   6.323
 1884SOL    HW1 5984   1.529   2.355   6.273
 1884SOL    HW2 5985   1.654   2.377   6.376
 1885SOL     OW 5986   0.231   3.575   6.069
 1885SOL    HW1 5987   0.265   3.652   6.123
 1885SOL    HW2 5988   0.275   3.575   5.979
 1886SOL     OW 5989   1.127   3.203   7.276
 1886SOL    HW1 5990   1.174   3.203   7.364
 1886SOL    HW2 5991   1.079   3.116   7.265
 1887SOL     OW 5992   0.230   3.296   6.124
 1887SOL    HW1 5993   0.204   3.392   6.124
 1887SOL    HW2 5994   0.159   3.242   6.169
 1888SOL     OW 5995   0.240   2.953   6.472
 1888SOL    HW1 5996   0.254   2.869   6.524
 1888SOL    HW2 5997   0.185   3.017   6.527
 1889SOL     OW 5998   0.620   3.648   7.025
 1889SOL    HW1 5999   0.528   3.631   7.060
 1889SOL    HW2 6000   0.648   3.740   7.051
 1890SOL     OW 6001   0.606   2.826   5.709
 1890SOL    HW1 6002   0.613   2.910   5.655
 1890SOL    HW2 6003   0.652   2.839   5.797
 1891SOL     OW 6004   1.594   1.976   7.066
 1891SOL    HW1 6005   1.576   2.043   6.994
 1891SOL    HW2 6006   1.591   2.022   7.155
 1892SOL     OW 6007   0.122   2.505   6.149
 1892SOL    HW1 6008   0.077   2.417   6.166
 1892SOL    HW2 6009   0.121   2.559   6.233
 1893SOL     OW 6010   1.842   3.629   5.945
 1893SOL    HW1 6011   1.896   3.600   6.025
 1893SOL    HW2 6012   1.872   3.719   5.916
 1894SOL     OW 6013   0.027   3.458   5.703
 1894SOL    HW1 6014   0.008   3.362   5.724
 1894SOL    HW2 6015  -0.006   3.516   5.778
 1895SOL     OW 6016   1.689   2.784   6.198
 1895SOL    HW1 6017   1.784   2.755   6.206
 1895SOL    HW2 6018   1.681   2.849   6.123
 1896SOL     OW 6019   1.641   2.970   6.018
 1896SOL    HW1 6020   1.727   2.972   5.966
 1896SOL    HW2 6021   1.655   3.017   6.106
 1897SOL     OW 6022   0.113   2.599   7.183
 1897SOL    HW1 6023   0.201   2.586   7.228
 1897SOL    HW2 6024   0.100   2.696   7.161
 1898SOL     OW 6025   0.613   3.227   6.312
 1898SOL    HW1 6026   0.564   3.140   6.321
 1898SOL    HW2 6027   0.590   3.270   6.225
 1899SOL     OW 6028   1.293   3.090   7.009
 1899SOL    HW1 6029   1.330   3.017   6.951
 1899SOL    HW2 6030   1.345   3.095   7.094
 1900SOL     OW 6031   0.809   1.866   6.088
 1900SOL    HW1 6032   0.849   1.957   6.079
 1900SOL    HW2 6033   0.709   1.874   6.094
 1901SOL     OW 6034   0.197   2.838   6.850
 1901SOL    HW1 6035   0.286   2.793   6.836
 1901SOL    HW2 6036   0.124   2.773   6.831
 1902SOL     OW 6037   1.525   2.861   5.776
 1902SOL    HW1 6038   1.462   2.785   5.789
 1902SOL    HW2 6039   1.573   2.879   5.862
 1903SOL     OW 6040   1.187   3.654   7.202
 1903SOL    HW1 6041   1.211   3.714   7.126
 1903SOL    HW2 6042   1.194   3.559   7.172
 1904SOL     OW 6043   0.317   2.113   7.387
 1904SOL    HW1 6044   0.388   2.184   7.393
 1904SOL    HW2 6045   0.229   2.152   7.415
 1905SOL     OW 6046   1.466   3.279   6.539
 1905SOL    HW1 6047   1.407   3.285   6.619
 1905SOL    HW2 6048   1.451   3.191   6.493
 1906SOL     OW 6049   1.667   3.576   6.158
 1906SOL    HW1 6050   1.626   3.553   6.070
 1906SOL    HW2 6051   1.649   3.502   6.223
 1907SOL     OW 6052   0.598   2.591   5.856
 1907SOL    HW1 6053   0.622   2.660   5.788
 1907SOL    HW2 6054   0.520   2.624   5.910
 1908SOL     OW 6055   1.281   2.207   6.530
 1908SOL    HW1 6056   1.195   2.157   6.517
 1908SOL    HW2 6057   1.343   2.153   6.586
 1909SOL     OW 6058   1.576   3.524   5.893
 1909SOL    HW1 6059   1.665   3.570   5.896
 1909SOL    HW2 6060   1.555   3.500   5.798
 1910SOL     OW 6061   0.807   2.467   7.051
 1910SOL    HW1 6062   0.760   2.464   7.140
 1910SOL    HW2 6063   0.756   2.412   6.985
 1911SOL     OW 6064   1.394   2.331   7.260
 1911SOL    HW1 6065   1.374   2.374   7.348
 1911SOL    HW2 6066   1.472   2.269   7.269
 1912SOL     OW 6067   0.973   2.752   7.158
 1912SOL    HW1 6068   1.019   2.668   7.129
 1912SOL    HW2 6069   0.917   2.786   7.083
 1913SOL     OW 6070   0.991   2.272   6.828
 1913SOL    HW1 6071   0.914   2.306   6.882
 1913SOL    HW2 6072   0.957   2.221   6.749
 1914SOL     OW 6073   1.041   2.563   6.015
 1914SOL    HW1 6074   1.067   2.559   6.111
 1914SOL    HW2 6075   0.956   2.512   6.001
 1915SOL     OW 6076   0.076   2.673   6.375
 1915SOL    HW1 6077   0.175   2.661   6.384
 1915SOL    HW2 6078   0.052   2.768   6.396
 1916SOL     OW 6079   0.130   3.683   7.157
 1916SOL    HW1 6080   0.120   3.668   7.256
 1916SOL    HW2 6081   0.044   3.719   7.121
 1917SOL     OW 6082   0.865   2.210   5.781
 1917SOL    HW1 6083   0.924   2.273   5.732
 1917SOL    HW2 6084   0.884   2.116   5.752
 1918SOL     OW 6085   1.719   2.447   7.417
 1918SOL    HW1 6086   1.693   2.536   7.381
 1918SOL    HW2 6087   1.717   2.379   7.344
 1919SOL     OW 6088   1.362   3.006   6.131
 1919SOL    HW1 6089   1.445   2.977   6.083
 1919SOL    HW2 6090   1.313   3.073   6.075
 1920SOL     OW 6091   0.550   2.058   6.471
 1920SOL    HW1 6092   0.545   2.053   6.571
 1920SOL    HW2 6093   0.552   2.154   6.442
 1921SOL     OW 6094   1.008   3.318   6.063
 1921SOL    HW1 6095   0.962   3.390   6.011
 1921SOL    HW2 6096   1.004   3.338   6.161
 1922SOL     OW 6097   0.351   3.663   6.439
 1922SOL    HW1 6098   0.401   3.577   6.445
 1922SOL    HW2 6099   0.416   3.740   6.436
 1923SOL     OW 6100   1.795   2.928   6.459
 1923SOL    HW1 6101   1.733   2.913   6.383
 1923SOL    HW2 6102   1.743   2.939   6.544
 1924SOL     OW 6103   1.227   3.412   7.092
 1924SOL    HW1 6104   1.233   3.335   7.156
 1924SOL    HW2 6105   1.175   3.386   7.012
 1925SOL     OW 6106   0.321   2.805   5.828
 1925SOL    HW1 6107   0.403   2.844   5.786
 1925SOL    HW2 6108   0.294   2.723   5.779
 1926SOL     OW 6109   1.458   2.597   6.314
 1926SOL    HW1 6110   1.453   2.532   6.389
 1926SOL    HW2 6111   1.538   2.656   6.327
 1927SOL     OW 6112   0.461   3.128   7.313
 1927SOL    HW1 6113   0.411   3.129   7.227
 1927SOL    HW2 6114   0.398   3.110   7.389
 1928SOL     OW 6115   1.111   3.638   5.823
 1928SOL    HW1 6116   1.051   3.576   5.873
 1928SOL    HW2 6117   1.142   3.594   5.738
 1929SOL     OW 6118   0.202   2.147   7.084
 1929SOL    HW1 6119   0.122   2.207   7.071
 1929SOL    HW2 6120   0.192   2.098   7.170
 1930SOL     OW 6121   1.632   3.239   5.667
 1930SOL    HW1 6122   1.600   3.333   5.657
 1930SOL    HW2 6123   1.556   3.176   5.655
 1931SOL     OW 6124   0.464   3.605   5.909
 1931SOL    HW1 6125   0.497   3.644   5.995
 1931SOL    HW2 6126   0.540   3.598   5.844
 1932SOL     OW 6127   1.400   1.969   6.012
 1932SOL    HW1 6128   1.376   1.932   5.922
 1932SOL    HW2 6129   1.499   1.985   6.016
 1933SOL     OW 6130   0.249   3.647   6.827
 1933SOL    HW1 6131   0.306   3.582   6.877
 1933SOL    HW2 6132   0.233   3.614   6.734
 1934SOL     OW 6133   0.940   3.560   6.490
 1934SOL    HW1 6134   1.020   3.503   6.511
 1934SOL    HW2 6135   0.891   3.520   6.413
 1935SOL     OW 6136   0.382   2.562   6.066
 1935SOL    HW1 6137   0.427   2.472   6.063
 1935SOL    HW2 6138   0.288   2.551   6.099
 1936SOL     OW 6139   1.547   2.084   7.315
 1936SOL    HW1 6140   1.542   2.121   7.407
 1936SOL    HW2 6141   1.475   2.015   7.303
 1937SOL     OW 6142   0.614   1.984   5.703
 1937SOL    HW1 6143   0.712   1.962   5.710
 1937SOL    HW2 6144   0.583   1.967   5.610
 1938SOL     OW 6145   0.781   2.126   7.335
 1938SOL    HW1 6146   0.848   2.065   7.378
 1938SOL    HW2 6147   0.708   2.145   7.400
 1939SOL     OW 6148   0.888   3.376   6.781
 1939SOL    HW1 6149   0.865   3.351   6.687
 1939SOL    HW2 6150   0.949   3.307   6.820
 1940SOL     OW 6151   1.351   2.452   7.019
 1940SOL    HW1 6152   1.379   2.409   7.104
 1940SOL    HW2 6153   1.376   2.548   7.020
 1941SOL     OW 6154   0.803   3.264   6.510
 1941SOL    HW1 6155   0.893   3.278   6.468
 1941SOL    HW2 6156   0.732   3.266   6.439
 1942SOL     OW 6157   0.922   2.365   6.485
 1942SOL    HW1 6158   0.897   2.356   6.389
 1942SOL    HW2 6159   0.970   2.283   6.516
 1943SOL     OW 6160   0.539   1.926   6.098
 1943SOL    HW1 6161   0.458   1.927   6.156
 1943SOL    HW2 6162   0.542   2.009   6.043
 1944SOL     OW 6163   1.434   3.050   5.627
 1944SOL    HW1 6164   1.466   2.974   5.684
 1944SOL    HW2 6165   1.342   3.077   5.657
 1945SOL     OW 6166   0.297   1.897   5.757
 1945SOL    HW1 6167   0.346   1.981   5.736
 1945SOL    HW2 6168   0.359   1.832   5.802
 1946SOL     OW 6169   0.935   2.098   6.066
 1946SOL    HW1 6170   0.887   2.139   5.988
 1946SOL    HW2 6171   1.034   2.096   6.047
 1947SOL     OW 6172   1.076   2.545   7.050
 1947SOL    HW1 6173   0.996   2.484   7.053
 1947SOL    HW2 6174   1.157   2.492   7.026
 1948SOL     OW 6175   1.227   3.432   6.379
 1948SOL    HW1 6176   1.248   3.506   6.314
 1948SOL    HW2 6177   1.295   3.432   6.452
 1949SOL     OW 6178   0.459   3.014   6.327
 1949SOL    HW1 6179   0.388   2.987   6.392
 1949SOL    HW2 6180   0.433   2.986   6.234
 1950SOL     OW 6181   1.271   3.659   6.177
 1950SOL    HW1 6182   1.315   3.723   6.113
 1950SOL    HW2 6183   1.221   3.711   6.247
 1951SOL     OW 6184   1.032   2.411   5.602
 1951SOL    HW1 6185   0.991   2.493   5.563
 1951SOL    HW2 6186   1.096   2.437   5.675
 1952SOL     OW 6187   0.078   2.418   6.972
 1952SOL    HW1 6188   0.170   2.417   6.931
 1952SOL    HW2 6189   0.072   2.492   7.039
 1953SOL     OW 6190   0.561   2.084   6.733
 1953SOL    HW1 6191   0.599   2.000   6.770
 1953SOL    HW2 6192   0.473   2.103   6.777
 1954SOL     OW 6193   0.866   2.316   6.228
 1954SOL    HW1 6194   0.834   2.388   6.166
 1954SOL    HW2 6195   0.890   2.235   6.175
 1955SOL     OW 6196   1.017   1.901   6.339
 1955SOL    HW1 6197   0.945   1.906   6.270
 1955SOL    HW2 6198   0.993   1.832   6.408
 1956SOL     OW 6199   1.429   3.035   6.453
 1956SOL    HW1 6200   1.374   2.951   6.446
 1956SOL    HW2 6201   1.455   3.064   6.361
 1957SOL     OW 6202   1.466   2.452   6.578
 1957SOL    HW1 6203   1.436   2.357   6.585
 1957SOL    HW2 6204   1.539   2.468   6.644
 1958SOL     OW 6205   1.857   2.695   5.963
 1958SOL    HW1 6206   1.899   2.631   6.027
 1958SOL    HW2 6207   1.819   2.644   5.885
 1959SOL     OW 6208   0.488   3.247   5.760
 1959SOL    HW1 6209   0.401   3.232   5.807
 1959SOL    HW2 6210   0.471   3.273   5.665
 1960SOL     OW 6211   1.664   3.142   6.243
 1960SOL    HW1 6212   1.763   3.150   6.257
 1960SOL    HW2 6213   1.619   3.226   6.274
 1961SOL     OW 6214   1.390   2.437   5.664
 1961SOL    HW1 6215   1.336   2.416   5.745
 1961SOL    HW2 6216   1.481   2.396   5.673
 1962SOL     OW 6217   0.527   2.118   5.914
 1962SOL    HW1 6218   0.554   2.059   5.839
 1962SOL    HW2 6219   0.527   2.213   5.883
 1963SOL     OW 6220   1.754   3.085   7.174
 1963SOL    HW1 6221   1.845   3.046   7.161
 1963SOL    HW2 6222   1.762   3.181   7.198
 1964SOL     OW 6223   1.064   3.209   6.926
 1964SOL    HW1 6224   0.984   3.186   6.981
 1964SOL    HW2 6225   1.147   3.183   6.975
 1965SOL     OW 6226   1.592   3.491   7.211
 1965SOL    HW1 6227   1.619   3.525   7.121
 1965SOL    HW2 6228   1.671   3.453   7.257
 1966SOL     OW 6229   1.111   3.057   6.686
 1966SOL    HW1 6230   1.071   3.101   6.767
 1966SOL    HW2 6231   1.070   3.094   6.603
 1967SOL     OW 6232   1.638   2.961   6.665
 1967SOL    HW1 6233   1.643   3.042   6.724
 1967SOL    HW2 6234   1.552   2.963   6.614
 1968SOL     OW 6235   0.915   1.951   6.988
 1968SOL    HW1 6236   0.940   1.931   6.893
 1968SOL    HW2 6237   0.987   2.007   7.030
 1969SOL     OW 6238   0.980   2.978   7.305
 1969SOL    HW1 6239   0.881   2.984   7.315
 1969SOL    HW2 6240   1.003   2.898   7.249
 1970SOL     OW 6241   0.705   2.912   5.954
 1970SOL    HW1 6242   0.691   2.919   6.053
 1970SOL    HW2 6243   0.789   2.861   5.936
 1971SOL     OW 6244   0.410   2.675   6.837
 1971SOL    HW1 6245   0.496   2.687   6.887
 1971SOL    HW2 6246   0.368   2.588   6.864
 1972SOL     OW 6247   1.274   2.248   6.848
 1972SOL    HW1 6248   1.295   2.322   6.912
 1972SOL    HW2 6249   1.185   2.265   6.805
 1973SOL     OW 6250   0.064   3.426   6.917
 1973SOL    HW1 6251   0.018   3.508   6.883
 1973SOL    HW2 6252   0.162   3.445   6.926
 1974SOL     OW 6253   0.367   2.962   6.087
 1974SOL    HW1 6254   0.360   3.045   6.031
 1974SOL    HW2 6255   0.371   2.882   6.027
 1975SOL     OW 6256   0.566   2.399   6.451
 1975SOL    HW1 6257   0.578   2.465   6.377
 1975SOL    HW2 6258   0.612   2.433   6.534
 1976SOL     OW 6259   1.252   3.210   5.974
 1976SOL    HW1 6260   1.302   3.287   6.014
 1976SOL    HW2 6261   1.157   3.212   6.006
 1977SOL     OW 6262   1.272   3.307   6.728
 1977SOL    HW1 6263   1.319   3.320   6.815
 1977SOL    HW2 6264   1.206   3.233   6.737
 1978SOL     OW 6265   1.582   2.501   6.058
 1978SOL    HW1 6266   1.551   2.562   6.131
 1978SOL    HW2 6267   1.632   2.553   5.989
 1979SOL     OW 6268   0.354   3.372   6.915
 1979SOL    HW1 6269   0.333   3.328   6.828
 1979SOL    HW2 6270   0.451   3.398   6.918
 1980SOL     OW 6271   0.402   2.613   7.184
 1980SOL    HW1 6272   0.470   2.668   7.137
 1980SOL    HW2 6273   0.442   2.525   7.211
 1981SOL     OW 6274   1.587   2.641   7.256
 1981SOL    HW1 6275   1.495   2.679   7.251
 1981SOL    HW2 6276   1.647   2.688   7.191
 1982SOL     OW 6277   1.013   1.967   7.356
 1982SOL    HW1 6278   1.019   2.052   7.304
 1982SOL    HW2 6279   1.045   1.891   7.299
 1983SOL     OW 6280   0.504   1.912   7.326
 1983SOL    HW1 6281   0.462   1.855   7.256
 1983SOL    HW2 6282   0.438   1.981   7.358
 1984SOL     OW 6283   0.573   2.732   6.615
 1984SOL    HW1 6284   0.617   2.821   6.606
 1984SOL    HW2 6285   0.510   2.732   6.692
 1985SOL     OW 6286   1.360   2.724   6.631
 1985SOL    HW1 6287   1.285   2.724   6.565
 1985SOL    HW2 6288   1.397   2.632   6.640
 1986SOL     OW 6289   1.209   2.387   5.861
 1986SOL    HW1 6290   1.222   2.303   5.915
 1986SOL    HW2 6291   1.180   2.461   5.921
 1987SOL     OW 6292   0.307   2.075   6.817
 1987SOL    HW1 6293   0.284   2.112   6.907
 1987SOL    HW2 6294   0.277   1.980   6.811
 1988SOL     OW 6295   0.037   3.172   6.868
 1988SOL    HW1 6296   0.090   3.123   6.936
 1988SOL    HW2 6297   0.059   3.270   6.873
 1989SOL     OW 6298   0.732   2.496   6.650
 1989SOL    HW1 6299   0.791   2.470   6.574
 1989SOL    HW2 6300   0.704   2.592   6.639
 1990SOL     OW 6301   1.728   2.797   7.440
 1990SOL    HW1 6302   1.682   2.790   7.351
 1990SOL    HW2 6303   1.666   2.841   7.506
 1991SOL     OW 6304   0.307   1.925   6.204
 1991SOL    HW1 6305   0.296   2.019   6.237
 1991SOL    HW2 6306   0.302   1.862   6.281
 1992SOL     OW 6307   1.622   2.229   5.960
 1992SOL    HW1 6308   1.624   2.153   6.024
 1992SOL    HW2 6309   1.574   2.306   6.000
 1993SOL     OW 6310   1.023   2.628   6.552
 1993SOL    HW1 6311   1.038   2.649   6.648
 1993SOL    HW2 6312   0.993   2.533   6.543
 1994SOL     OW 6313   0.980   3.435   7.286
 1994SOL    HW1 6314   0.960   3.479   7.198
 1994SOL    HW2 6315   1.019   3.344   7.270
 1995SOL     OW 6316   1.859   3.380   7.191
 1995SOL    HW1 6317   1.873   3.407   7.096
 1995SOL    HW2 6318   1.942   3.402   7.244
 1996SOL     OW 6319   0.350   2.760   7.390
 1996SOL    HW1 6320   0.426   2.804   7.438
 1996SOL    HW2 6321   0.385   2.713   7.308
 1997SOL     OW 6322   1.540   2.136   5.711
 1997SOL    HW1 6323   1.479   2.061   5.734
 1997SOL    HW2 6324   1.562   2.188   5.794
 1998SOL     OW 6325   1.303   2.700   5.628
 1998SOL    HW1 6326   1.337   2.607   5.643
 1998SOL    HW2 6327   1.321   2.727   5.533
 1999SOL     OW 6328   1.068   3.195   6.435
 1999SOL    HW1 6329   1.075   3.111   6.380
 1999SOL    HW2 6330   1.130   3.264   6.399
 2000SOL     OW 6331   0.319   2.672   6.535
 2000SOL    HW1 6332   0.412   2.708   6.540
 2000SOL    HW2 6333   0.313   2.587   6.587
 2001SOL     OW 6334   0.339   2.371   6.592
 2001SOL    HW1 6335   0.287   2.288   6.575
 2001SOL    HW2 6336   0.416   2.376   6.528
 2002SOL     OW 6337   1.138   2.242   7.264
 2002SOL    HW1 6338   1.093   2.305   7.328
 2002SOL    HW2 6339   1.231   2.273   7.247
 2003SOL     OW 6340   1.160   2.069   7.063
 2003SOL    HW1 6341   1.160   2.133   7.140
 2003SOL    HW2 6342   1.188   2.117   6.980
 2004SOL     OW 6343   0.008   3.188   5.786
 2004SOL    HW1 6344  -0.085   3.209   5.755
 2004SOL    HW2 6345   0.018   3.089   5.799
 2005SOL     OW 6346   0.088   3.663   6.513
 2005SOL    HW1 6347   0.046   3.577   6.486
 2005SOL    HW2 6348   0.182   3.666   6.479
 2006SOL     OW 6349   0.504   3.430   6.496
 2006SOL    HW1 6350   0.570   3.504   6.505
 2006SOL    HW2 6351   0.548   3.351   6.454
 2007SOL     OW 6352   1.002   2.658   6.824
 2007SOL    HW1 6353   1.043   2.626   6.910
 2007SOL    HW2 6354   0.906   2.631   6.821
 2008SOL     OW 6355   0.040   2.406   6.700
 2008SOL    HW1 6356   0.125   2.373   6.659
 2008SOL    HW2 6357   0.053   2.421   6.798
 2009SOL     OW 6358   0.189   2.382   7.308
 2009SOL    HW1 6359   0.248   2.342   7.238
 2009SOL    HW2 6360   0.131   2.453   7.267
 2010SOL     OW 6361   1.369   2.812   7.246
 2010SOL    HW1 6362   1.408   2.901   7.266
 2010SOL    HW2 6363   1.379   2.792   7.149
 2011SOL     OW 6364   0.815   2.434   5.911
 2011SOL    HW1 6365   0.822   2.345   5.865
 2011SOL    HW2 6366   0.721   2.468   5.903
 2012SOL     OW 6367   1.657   2.466   6.792
 2012SOL    HW1 6368   1.619   2.397   6.854
 2012SOL    HW2 6369   1.739   2.430   6.748
 2013SOL     OW 6370   0.252   3.426   7.330
 2013SOL    HW1 6371   0.222   3.483   7.406
 2013SOL    HW2 6372   0.245   3.329   7.356
 2014SOL     OW 6373   0.671   2.326   6.855
 2014SOL    HW1 6374   0.637   2.237   6.825
 2014SOL    HW2 6375   0.697   2.380   6.775
 2015SOL     OW 6376   0.930   3.540   7.051
 2015SOL    HW1 6377   0.906   3.522   6.956
 2015SOL    HW2 6378   0.960   3.634   7.061
 2016SOL     OW 6379   0.473   2.362   5.777
 2016SOL    HW1 6380   0.534   2.442   5.781
 2016SOL    HW2 6381   0.378   2.393   5.784
 2017SOL     OW 6382   0.159   2.999   7.052
 2017SOL    HW1 6383   0.181   2.938   7.128
 2017SOL    HW2 6384   0.169   2.950   6.966
 2018SOL     OW 6385   1.347   2.921   6.820
 2018SOL    HW1 6386   1.371   2.858   6.746
 2018SOL    HW2 6387   1.257   2.961   6.802
 2019SOL     OW 6388   1.302   2.717   5.895
 2019SOL    HW1 6389   1.216   2.686   5.937
 2019SOL    HW2 6390   1.298   2.703   5.796
 2020SOL     OW 6391   1.759   3.609   6.740
 2020SOL    HW1 6392   1.820   3.639   6.667
 2020SOL    HW2 6393   1.721   3.520   6.718
 2021SOL     OW 6394   1.252   3.593   6.714
 2021SOL    HW1 6395   1.336   3.598   6.660
 2021SOL    HW2 6396   1.229   3.497   6.732
 2022SOL     OW 6397   0.083   3.120   6.608
 2022SOL    HW1 6398   0.078   3.119   6.708
 2022SOL    HW2 6399   0.000   3.079   6.570
 2023SOL     OW 6400   0.688   3.524   7.302
 2023SOL    HW1 6401   0.632   3.605   7.311
 2023SOL    HW2 6402   0.740   3.528   7.216
 2024SOL     OW 6403   1.726   1.997   6.109
 2024SOL    HW1 6404   1.799   1.980   6.042
 2024SOL    HW2 6405   1.695   1.910   6.147
 2025SOL     OW 6406   1.388   3.435   6.063
 2025SOL    HW1 6407   1.455   3.447   5.989
 2025SOL    HW2 6408   1.348   3.524   6.086
 2026SOL     OW 6409   0.130   3.656   7.437
 2026SOL    HW1 6410   0.089   3.582   7.490
 2026SOL    HW2 6411   0.194   3.707   7.495
 2027SOL     OW 6412   1.280   2.789   6.258
 2027SOL    HW1 6413   1.340   2.708   6.260
 2027SOL    HW2 6414   1.320   2.858   6.198
 2028SOL     OW 6415   0.830   3.135   7.008
 2028SOL    HW1 6416   0.825   3.168   7.103
 2028SOL    HW2 6417   0.744   3.154   6.962
 2029SOL     OW 6418   0.672   3.478   5.740
 2029SOL    HW1 6419   0.681   3.488   5.641
 2029SOL    HW2 6420   0.632   3.389   5.761
 2030SOL     OW 6421   1.650   3.582   6.980
 2030SOL    HW1 6422   1.703   3.592   6.896
 2030SOL    HW2 6423   1.623   3.672   7.014
 2031SOL     OW 6424   1.841   2.037   6.549
 2031SOL    HW1 6425   1.880   1.952   6.513
 2031SOL    HW2 6426   1.743   2.039   6.530
 2032SOL     OW 6427   0.263   2.188   6.306
 2032SOL    HW1 6428   0.184   2.239   6.272
 2032SOL    HW2 6429   0.254   2.173   6.404
 2033SOL     OW 6430   1.194   3.474   5.617
 2033SOL    HW1 6431   1.200   3.381   5.654
 2033SOL    HW2 6432   1.135   3.474   5.537
 2034SOL     OW 6433   0.822   2.864   6.958
 2034SOL    HW1 6434   0.862   2.863   6.866
 2034SOL    HW2 6435   0.832   2.956   6.998
 2035SOL     OW 6436   0.916   2.772   5.877
 2035SOL    HW1 6437   0.979   2.810   5.809
 2035SOL    HW2 6438   0.956   2.689   5.916
 2036SOL     OW 6439   1.504   3.469   5.630
 2036SOL    HW1 6440   1.412   3.506   5.637
 2036SOL    HW2 6441   1.542   3.489   5.540
 2037SOL     OW 6442   0.372   3.150   7.076
 2037SOL    HW1 6443   0.359   3.243   7.042
 2037SOL    HW2 6444   0.288   3.098   7.063
 2038SOL     OW 6445   1.614   3.154   6.875
 2038SOL    HW1 6446   1.674   3.157   6.955
 2038SOL    HW2 6447   1.539   3.218   6.888
 2039SOL     OW 6448   1.039   2.960   6.282
 2039SOL    HW1 6449   0.969   2.913   6.336
 2039SOL    HW2 6450   1.098   2.892   6.239
 2040SOL     OW 6451   1.014   2.098   6.557
 2040SOL    HW1 6452   1.006   2.062   6.464
 2040SOL    HW2 6453   1.012   2.022   6.622
 2041SOL     OW 6454   0.590   3.349   6.077
 2041SOL    HW1 6455   0.632   3.291   6.007
 2041SOL    HW2 6456   0.546   3.428   6.033
 2042SOL     OW 6457   1.709   2.247   6.967
 2042SOL    HW1 6458   1.782   2.316   6.971
 2042SOL    HW2 6459   1.737   2.172   6.908
 2043SOL     OW 6460   0.255   3.210   5.876
 2043SOL    HW1 6461   0.159   3.211   5.849
 2043SOL    HW2 6462   0.267   3.263   5.960
 2044SOL     OW 6463   0.105   2.875   7.312
 2044SOL    HW1 6464   0.028   2.842   7.366
 2044SOL    HW2 6465   0.190   2.845   7.354
 2045SOL     OW 6466   0.672   2.065   7.075
 2045SOL    HW1 6467   0.762   2.049   7.035
 2045SOL    HW2 6468   0.680   2.070   7.174
 2046SOL     OW 6469   0.075   2.207   5.619
 2046SOL    HW1 6470  -0.017   2.179   5.590
 2046SOL    HW2 6471   0.106   2.284   5.563
 2047SOL     OW 6472   1.440   2.718   6.984
 2047SOL    HW1 6473   1.383   2.770   6.921
 2047SOL    HW2 6474   1.536   2.730   6.960
 2048SOL     OW 6475   0.072   2.028   5.904
 2048SOL    HW1 6476   0.055   2.111   5.850
 2048SOL    HW2 6477   0.162   1.991   5.882
 2049SOL     OW 6478   1.183   3.197   5.705
 2049SOL    HW1 6479   1.084   3.186   5.707
 2049SOL    HW2 6480   1.217   3.212   5.798
 2050SOL     OW 6481   0.613   2.704   7.017
 2050SOL    HW1 6482   0.669   2.785   7.000
 2050SOL    HW2 6483   0.672   2.624   7.020
 2051SOL     OW 6484   1.493   3.629   6.545
 2051SOL    HW1 6485   1.526   3.693   6.476
 2051SOL    HW2 6486   1.559   3.623   6.620
 2052SOL     OW 6487   0.716   2.427   7.294
 2052SOL    HW1 6488   0.735   2.492   7.368
 2052SOL    HW2 6489   0.776   2.347   7.303
 2053SOL     OW 6490   1.450   3.082   7.219
 2053SOL    HW1 6491   1.441   3.072   7.318
 2053SOL    HW2 6492   1.546   3.075   7.193
 2054SOL     OW 6493   0.390   3.603   7.146
 2054SOL    HW1 6494   0.299   3.644   7.144
 2054SOL    HW2 6495   0.383   3.509   7.178
 2055SOL     OW 6496   1.674   2.745   6.840
 2055SOL    HW1 6497   1.647   2.656   6.803
 2055SOL    HW2 6498   1.675   2.813   6.767
 2056SOL     OW 6499   1.225   2.187   6.035
 2056SOL    HW1 6500   1.290   2.113   6.024
 2056SOL    HW2 6501   1.245   2.237   6.119
 2057SOL     OW 6502   0.594   2.607   6.238
 2057SOL    HW1 6503   0.644   2.692   6.219
 2057SOL    HW2 6504   0.506   2.609   6.190
 2058SOL     OW 6505   1.777   2.204   7.228
 2058SOL    HW1 6506   1.760   2.235   7.134
 2058SOL    HW2 6507   1.693   2.167   7.266
 2059SOL     OW 6508   1.730   2.796   7.103
 2059SOL    HW1 6509   1.768   2.887   7.118
 2059SOL    HW2 6510   1.722   2.779   7.004
 2060SOL     OW 6511   0.859   3.236   5.602
 2060SOL    HW1 6512   0.813   3.251   5.690
 2060SOL    HW2 6513   0.903   3.321   5.572
 2061SOL     OW 6514   0.661   3.652   6.539
 2061SOL    HW1 6515   0.615   3.740   6.526
 2061SOL    HW2 6516   0.760   3.664   6.532
 2062SOL     OW 6517   0.859   2.818   6.447
 2062SOL    HW1 6518   0.913   2.749   6.495
 2062SOL    HW2 6519   0.827   2.887   6.513
 2063SOL     OW 6520   1.083   2.846   5.673
 2063SOL    HW1 6521   1.060   2.899   5.591
 2063SOL    HW2 6522   1.164   2.790   5.654
 2064SOL     OW 6523   1.861   3.431   6.437
 2064SOL    HW1 6524   1.790   3.419   6.367
 2064SOL    HW2 6525   1.862   3.352   6.497
 2065SOL     OW 6526   0.221   3.176   7.430
 2065SOL    HW1 6527   0.156   3.103   7.409
 2065SOL    HW2 6528   0.225   3.190   7.528
 2066SOL     OW 6529   0.079   3.102   6.239
 2066SOL    HW1 6530   0.078   3.055   6.327
 2066SOL    HW2 6531   0.161   3.074   6.188
 2067SOL     OW 6532   0.672   3.253   7.210
 2067SOL    HW1 6533   0.594   3.203   7.248
 2067SOL    HW2 6534   0.669   3.348   7.241
 2068SOL     OW 6535   1.824   2.054   6.813
 2068SOL    HW1 6536   1.820   1.964   6.857
 2068SOL    HW2 6537   1.827   2.043   6.714
 2069SOL     OW 6538   0.428   2.286   6.106
 2069SOL    HW1 6539   0.458   2.214   6.044
 2069SOL    HW2 6540   0.389   2.246   6.189
 2070SOL     OW 6541   1.705   3.349   6.690
 2070SOL    HW1 6542   1.612   3.324   6.663
 2070SOL    HW2 6543   1.731   3.299   6.772
 2071SOL     OW 6544   0.317   2.409   6.866
 2071SOL    HW1 6545   0.355   2.350   6.938
 2071SOL    HW2 6546   0.357   2.383   6.778
 2072SOL     OW 6547   0.812   3.448   6.273
 2072SOL    HW1 6548   0.844   3.458   6.179
 2072SOL    HW2 6549   0.733   3.386   6.275
 2073SOL     OW 6550   1.424   2.076   6.698
 2073SOL    HW1 6551   1.476   2.011   6.753
 2073SOL    HW2 6552   1.375   2.139   6.759
 2074SOL     OW 6553   1.001   1.896   6.740
 2074SOL    HW1 6554   0.938   1.824   6.709
 2074SOL    HW2 6555   1.094   1.860   6.740
 2075SOL     OW 6556   0.770   3.192   5.887
 2075SOL    HW1 6557   0.724   3.105   5.904
 2075SOL    HW2 6558   0.861   3.189   5.928
 2076SOL     OW 6559   0.618   3.429   6.870
 2076SOL    HW1 6560   0.613   3.511   6.927
 2076SOL    HW2 6561   0.707   3.426   6.825
 2077SOL     OW 6562   1.352   1.914   5.754
 2077SOL    HW1 6563   1.387   1.873   5.670
 2077SOL    HW2 6564   1.262   1.876   5.774
 2078SOL     OW 6565   1.300   2.315   6.277
 2078SOL    HW1 6566   1.241   2.395   6.281
 2078SOL    HW2 6567   1.315   2.280   6.370
 2079SOL     OW 6568   1.593   2.083   6.468
 2079SOL    HW1 6569   1.509   2.082   6.522
 2079SOL    HW2 6570   1.595   2.166   6.412
 2080SOL     OW 6571   0.039   2.939   5.886
 2080SOL    HW1 6572   0.138   2.928   5.877
 2080SOL    HW2 6573  -0.001   2.853   5.918
 2081SOL     OW 6574   0.875   3.508   5.923
 2081SOL    HW1 6575   0.798   3.473   5.869
 2081SOL    HW2 6576   0.843   3.579   5.985
 2082SOL     OW 6577   0.230   2.490   7.561
 2082SOL    HW1 6578   0.137   2.488   7.598
 2082SOL    HW2 6579   0.231   2.451   7.469
 2083SOL     OW 6580   0.225   2.137   8.444
 2083SOL    HW1 6581   0.260   2.120   8.536
 2083SOL    HW2 6582   0.137   2.092   8.432
 2084SOL     OW 6583   0.019   2.230   8.095
 2084SOL    HW1 6584  -0.063   2.273   8.134
 2084SOL    HW2 6585  -0.009   2.157   8.032
 2085SOL     OW 6586   0.569   3.137   8.613
 2085SOL    HW1 6587   0.476   3.130   8.576
 2085SOL    HW2 6588   0.580   3.226   8.657
 2086SOL     OW 6589   1.555   3.373   8.151
 2086SOL    HW1 6590   1.498   3.357   8.232
 2086SOL    HW2 6591   1.496   3.383   8.071
 2087SOL     OW 6592   1.135   2.565   8.165
 2087SOL    HW1 6593   1.192   2.643   8.140
 2087SOL    HW2 6594   1.075   2.591   8.241
 2088SOL     OW 6595   1.755   2.469   7.679
 2088SOL    HW1 6596   1.743   2.456   7.580
 2088SOL    HW2 6597   1.725   2.388   7.728
 2089SOL     OW 6598   0.768   3.006   8.471
 2089SOL    HW1 6599   0.690   3.023   8.531
 2089SOL    HW2 6600   0.802   3.093   8.435
 2090SOL     OW 6601   0.850   2.660   9.271
 2090SOL    HW1 6602   0.846   2.736   9.336
 2090SOL    HW2 6603   0.872   2.696   9.180
 2091SOL     OW 6604   0.685   2.874   8.113
 2091SOL    HW1 6605   0.754   2.858   8.183
 2091SOL    HW2 6606   0.612   2.931   8.151
 2092SOL     OW 6607   0.686   3.023   9.251
 2092SOL    HW1 6608   0.746   3.102   9.265
 2092SOL    HW2 6609   0.600   3.054   9.210
 2093SOL     OW 6610   0.335   3.297   8.509
 2093SOL    HW1 6611   0.257   3.266   8.456
 2093SOL    HW2 6612   0.393   3.355   8.452
 2094SOL     OW 6613   1.460   3.367   8.787
 2094SOL    HW1 6614   1.484   3.461   8.813
 2094SOL    HW2 6615   1.444   3.313   8.869
 2095SOL     OW 6616   0.438   2.254   8.947
 2095SOL    HW1 6617   0.520   2.198   8.956
 2095SOL    HW2 6618   0.357   2.196   8.951
 2096SOL     OW 6619   1.603   2.309   8.185
 2096SOL    HW1 6620   1.529   2.355   8.135
 2096SOL    HW2 6621   1.654   2.377   8.238
 2097SOL     OW 6622   0.231   3.575   7.931
 2097SOL    HW1 6623   0.265   3.652   7.985
 2097SOL    HW2 6624   0.275   3.575   7.841
 2098SOL     OW 6625   1.127   3.203   9.138
 2098SOL    HW1 6626   1.174   3.203   9.226
 2098SOL    HW2 6627   1.079   3.116   9.127
 2099SOL     OW 6628   0.230   3.296   7.986
 2099SOL    HW1 6629   0.204   3.392   7.986
 2099SOL    HW2 6630   0.159   3.242   8.031
 2100SOL     OW 6631   0.240   2.953   8.334
 2100SOL    HW1 6632   0.254   2.869   8.386
 2100SOL    HW2 6633   0.185   3.017   8.389
 2101SOL     OW 6634   0.620   3.648   8.887
 2101SOL    HW1 6635   0.528   3.631   8.922
 2101SOL    HW2 6636   0.648   3.740   8.913
 2102SOL     OW 6637   0.606   2.826   7.571
 2102SOL    HW1 6638   0.613   2.910   7.517
 2102SOL    HW2 6639   0.652   2.839   7.659
 2103SOL     OW 6640   1.594   1.976   8.928
 2103SOL    HW1 6641   1.576   2.043   8.856
 2103SOL    HW2 6642   1.591   2.022   9.017
 2104SOL     OW 6643   0.122   2.505   8.011
 2104SOL    HW1 6644   0.077   2.417   8.028
 2104SOL    HW2 6645   0.121   2.559   8.095
 2105SOL     OW 6646   1.842   3.629   7.807
 2105SOL    HW1 6647   1.896   3.600   7.887
 2105SOL    HW2 6648   1.872   3.719   7.778
 2106SOL     OW 6649   0.027   3.458   7.565
 2106SOL    HW1 6650   0.008   3.362   7.586
 2106SOL    HW2 6651  -0.006   3.516   7.640
 2107SOL     OW 6652   1.689   2.784   8.060
 2107SOL    HW1 6653   1.784   2.755   8.068
 2107SOL    HW2 6654   1.681   2.849   7.985
 2108SOL     OW 6655   1.641   2.970   7.880
 2108SOL    HW1 6656   1.727   2.972   7.828
 2108SOL    HW2 6657   1.655   3.017   7.968
 2109SOL     OW 6658   0.113   2.599   9.045
 2109SOL    HW1 6659   0.201   2.586   9.090
 2109SOL    HW2 6660   0.100   2.696   9.023
 2110SOL     OW 6661   0.613   3.227   8.174
 2110SOL    HW1 6662   0.564   3.140   8.183
 2110SOL    HW2 6663   0.590   3.270   8.087
 2111SOL     OW 6664   1.293   3.090   8.871
 2111SOL    HW1 6665   1.330   3.017   8.813
 2111SOL    HW2 6666   1.345   3.095   8.956
 2112SOL     OW 6667   0.809   1.866   7.950
 2112SOL    HW1 6668   0.849   1.957   7.941
 2112SOL    HW2 6669   0.709   1.874   7.956
 2113SOL     OW 6670   0.197   2.838   8.712
 2113SOL    HW1 6671   0.286   2.793   8.698
 2113SOL    HW2 6672   0.124   2.773   8.693
 2114SOL     OW 6673   1.525   2.861   7.638
 2114SOL    HW1 6674   1.462   2.785   7.651
 2114SOL    HW2 6675   1.573   2.879   7.724
 2115SOL     OW 6676   1.187   3.654   9.064
 2115SOL    HW1 6677   1.211   3.714   8.988
 2115SOL    HW2 6678   1.194   3.559   9.034
 2116SOL     OW 6679   0.317   2.113   9.249
 2116SOL    HW1 6680   0.388   2.184   9.255
 2116SOL    HW2 6681   0.229   2.152   9.277
 2117SOL     OW 6682   1.466   3.279   8.401
 2117SOL    HW1 6683   1.407   3.285   8.481
 2117SOL    HW2 6684   1.451   3.191   8.355
 2118SOL     OW 6685   1.667   3.576   8.020
 2118SOL    HW1 6686   1.626   3.553   7.932
 2118SOL    HW2 6687   1.649   3.502   8.085
 2119SOL     OW 6688   0.598   2.591   7.718
 2119SOL    HW1 6689   0.622   2.660   7.650
 2119SOL    HW2 6690   0.520   2.624   7.772
 2120SOL     OW 6691   1.281   2.207   8.392
 2120SOL    HW1 6692   1.195   2.157   8.379
 2120SOL    HW2 6693   1.343   2.153   8.448
 2121SOL     OW 6694   1.576   3.524   7.755
 2121SOL    HW1 6695   1.665   3.570   7.758
 2121SOL    HW2 6696   1.555   3.500   7.660
 2122SOL     OW 6697   0.807   2.467   8.913
 2122SOL    HW1 6698   0.760   2.464   9.002
 2122SOL    HW2 6699   0.756   2.412   8.847
 2123SOL     OW 6700   1.394   2.331   9.122
 2123SOL    HW1 6701   1.374   2.374   9.210
 2123SOL    HW2 6702   1.472   2.269   9.131
 2124SOL     OW 6703   0.973   2.752   9.020
 2124SOL    HW1 6704   1.019   2.668   8.991
 2124SOL    HW2 6705   0.917   2.786   8.945
 2125SOL     OW 6706   0.991   2.272   8.690
 2125SOL    HW1 6707   0.914   2.306   8.744
 2125SOL    HW2 6708   0.957   2.221   8.611
 2126SOL     OW 6709   1.041   2.563   7.877
 2126SOL    HW1 6710   1.067   2.559   7.973
 2126SOL    HW2 6711   0.956   2.512   7.863
 2127SOL     OW 6712   0.076   2.673   8.237
 2127SOL    HW1 6713   0.175   2.661   8.246
 2127SOL    HW2 6714   0.052   2.768   8.258
 2128SOL     OW 6715   0.130   3.683   9.019
 2128SOL    HW1 6716   0.120   3.668   9.118
 2128SOL    HW2 6717   0.044   3.719   8.983
 2129SOL     OW 6718   0.865   2.210   7.643
 2129SOL    HW1 6719   0.924   2.273   7.594
 2129SOL    HW2 6720   0.884   2.116   7.614
 2130SOL     OW 6721   1.719   2.447   9.279
 2130SOL    HW1 6722   1.693   2.536   9.243
 2130SOL    HW2 6723   1.717   2.379   9.206
 2131SOL     OW 6724   1.362   3.006   7.993
 2131SOL    HW1 6725   1.445   2.977   7.945
 2131SOL    HW2 6726   1.313   3.073   7.937
 2132SOL     OW 6727   0.550   2.058   8.333
 2132SOL    HW1 6728   0.545   2.053   8.433
 2132SOL    HW2 6729   0.552   2.154   8.304
 2133SOL     OW 6730   1.008   3.318   7.925
 2133SOL    HW1 6731   0.962   3.390   7.873
 2133SOL    HW2 6732   1.004   3.338   8.023
 2134SOL     OW 6733   0.351   3.663   8.301
 2134SOL    HW1 6734   0.401   3.577   8.307
 2134SOL    HW2 6735   0.416   3.740   8.298
 2135SOL     OW 6736   1.795   2.928   8.321
 2135SOL    HW1 6737   1.733   2.913   8.245
 2135SOL    HW2 6738   1.743   2.939   8.406
 2136SOL     OW 6739   1.227   3.412   8.954
 2136SOL    HW1 6740   1.233   3.335   9.018
 2136SOL    HW2 6741   1.175   3.386   8.874
 2137SOL     OW 6742   0.321   2.805   7.690
 2137SOL    HW1 6743   0.403   2.844   7.648
 2137SOL    HW2 6744   0.294   2.723   7.641
 2138SOL     OW 6745   1.458   2.597   8.176
 2138SOL    HW1 6746   1.453   2.532   8.251
 2138SOL    HW2 6747   1.538   2.656   8.189
 2139SOL     OW 6748   0.461   3.128   9.175
 2139SOL    HW1 6749   0.411   3.129   9.089
 2139SOL    HW2 6750   0.398   3.110   9.251
 2140SOL     OW 6751   1.111   3.638   7.685
 2140SOL    HW1 6752   1.051   3.576   7.735
 2140SOL    HW2 6753   1.142   3.594   7.600
 2141SOL     OW 6754   0.202   2.147   8.946
 2141SOL    HW1 6755   0.122   2.207   8.933
 2141SOL    HW2 6756   0.192   2.098   9.032
 2142SOL     OW 6757   1.632   3.239   7.529
 2142SOL    HW1 6758   1.600   3.333   7.519
 2142SOL    HW2 6759   1.556   3.176   7.517
 2143SOL     OW 6760   0.464   3.605   7.771
 2143SOL    HW1 6761   0.497   3.644   7.857
 2143SOL    HW2 6762   0.540   3.598   7.706
 2144SOL     OW 6763   1.400   1.969   7.874
 2144SOL    HW1 6764   1.376   1.932   7.784
 2144SOL    HW2 6765   1.499   1.985   7.878
 2145SOL     OW 6766   0.249   3.647   8.689
 2145SOL    HW1 6767   0.306   3.582   8.739
 2145SOL    HW2 6768   0.233   3.614   8.596
 2146SOL     OW 6769   0.940   3.560   8.352
 2146SOL    HW1 6770   1.020   3.503   8.373
 2146SOL    HW2 6771   0.891   3.520   8.275
 2147SOL     OW 6772   0.382   2.562   7.928
 2147SOL    HW1 6773   0.427   2.472   7.925
 2147SOL    HW2 6774   0.288   2.551   7.961
 2148SOL     OW 6775   1.547   2.084   9.177
 2148SOL    HW1 6776   1.542   2.121   9.269
 2148SOL    HW2 6777   1.475   2.015   9.165
 2149SOL     OW 6778   0.614   1.984   7.565
 2149SOL    HW1 6779   0.712   1.962   7.572
 2149SOL    HW2 6780   0.583   1.967   7.472
 2150SOL     OW 6781   0.781   2.126   9.197
 2150SOL    HW1 6782   0.848   2.065   9.240
 2150SOL    HW2 6783   0.708   2.145   9.262
 2151SOL     OW 6784   0.888   3.376   8.643
 2151SOL    HW1 6785   0.865   3.351   8.549
 2151SOL    HW2 6786   0.949   3.307   8.682
 2152SOL     OW 6787   1.351   2.452   8.881
 2152SOL    HW1 6788   1.379   2.409   8.966
 2152SOL    HW2 6789   1.376   2.548   8.882
 2153SOL     OW 6790   0.803   3.264   8.372
 2153SOL    HW1 6791   0.893   3.278   8.330
 2153SOL    HW2 6792   0.732   3.266   8.301
 2154SOL     OW 6793   0.922   2.365   8.347
 2154SOL    HW1 6794   0.897   2.356   8.251
 2154SOL    HW2 6795   0.970   2.283   8.378
 2155SOL     OW 6796   0.539   1.926   7.960
 2155SOL    HW1 6797   0.458   1.927   8.018
 2155SOL    HW2 6798   0.542   2.009   7.905
 2156SOL     OW 6799   1.434   3.050   7.489
 2156SOL    HW1 6800   1.466   2.974   7.546
 2156SOL    HW2 6801   1.342   3.077   7.519
 2157SOL     OW 6802   0.297   1.897   7.619
 2157SOL    HW1 6803   0.346   1.981   7.598
 2157SOL    HW2 6804   0.359   1.832   7.664
 2158SOL     OW 6805   0.935   2.098   7.928
 2158SOL    HW1 6806   0.887   2.139   7.850
 2158SOL    HW2 6807   1.034   2.096   7.909
 2159SOL     OW 6808   1.076   2.545   8.912
 2159SOL    HW1 6809   0.996   2.484   8.915
 2159SOL    HW2 6810   1.157   2.492   8.888
 2160SOL     OW 6811   1.227   3.432   8.241
 2160SOL    HW1 6812   1.248   3.506   8.176
 2160SOL    HW2 6813   1.295   3.432   8.314
 2161SOL     OW 6814   0.459   3.014   8.189
 2161SOL    HW1 6815   0.388   2.987   8.254
 2161SOL    HW2 6816   0.433   2.986   8.096
 2162SOL     OW 6817   1.271   3.659   8.039
 2162SOL    HW1 6818   1.315   3.723   7.975
 2162SOL    HW2 6819   1.221   3.711   8.109
 2163SOL     OW 6820   1.032   2.411   7.464
 2163SOL    HW1 6821   0.991   2.493   7.425
 2163SOL    HW2 6822   1.096   2.437   7.537
 2164SOL     OW 6823   0.078   2.418   8.834
 2164SOL    HW1 6824   0.170   2.417   8.793
 2164SOL    HW2 6825   0.072   2.492   8.901
 2165SOL     OW 6826   0.561   2.084   8.595
 2165SOL    HW1 6827   0.599   2.000   8.632
 2165SOL    HW2 6828   0.473   2.103   8.639
 2166SOL     OW 6829   0.866   2.316   8.090
 2166SOL    HW1 6830   0.834   2.388   8.028
 2166SOL    HW2 6831   0.890   2.235   8.037
 2167SOL     OW 6832   1.017   1.901   8.201
 2167SOL    HW1 6833   0.945   1.906   8.132
 2167SOL    HW2 6834   0.993   1.832   8.270
 2168SOL     OW 6835   1.429   3.035   8.315
 2168SOL    HW1 6836   1.374   2.951   8.308
 2168SOL    HW2 6837   1.455   3.064   8.223
 2169SOL     OW 6838   1.466   2.452   8.440
 2169SOL    HW1 6839   1.436   2.357   8.447
 2169SOL    HW2 6840   1.539   2.468   8.506
 2170SOL     OW 6841   1.857   2.695   7.825
 2170SOL    HW1 6842   1.899   2.631   7.889
 2170SOL    HW2 6843   1.819   2.644   7.747
 2171SOL     OW 6844   0.488   3.247   7.622
 2171SOL    HW1 6845   0.401   3.232   7.669
 2171SOL    HW2 6846   0.471   3.273   7.527
 2172SOL     OW 6847   1.664   3.142   8.105
 2172SOL    HW1 6848   1.763   3.150   8.119
 2172SOL    HW2 6849   1.619   3.226   8.136
 2173SOL     OW 6850   1.390   2.437   7.526
 2173SOL    HW1 6851   1.336   2.416   7.607
 2173SOL    HW2 6852   1.481   2.396   7.535
 2174SOL     OW 6853   0.527   2.118   7.776
 2174SOL    HW1 6854   0.554   2.059   7.701
 2174SOL    HW2 6855   0.527   2.213   7.745
 2175SOL     OW 6856   1.754   3.085   9.036
 2175SOL    HW1 6857   1.845   3.046   9.023
 2175SOL    HW2 6858   1.762   3.181   9.060
 2176SOL     OW 6859   1.064   3.209   8.788
 2176SOL    HW1 6860   0.984   3.186   8.843
 2176SOL    HW2 6861   1.147   3.183   8.837
 2177SOL     OW 6862   1.592   3.491   9.073
 2177SOL    HW1 6863   1.619   3.525   8.983
 2177SOL    HW2 6864   1.671   3.453   9.119
 2178SOL     OW 6865   1.111   3.057   8.548
 2178SOL    HW1 6866   1.071   3.101   8.629
 2178SOL    HW2 6867   1.070   3.094   8.465
 2179SOL     OW 6868   1.638   2.961   8.527
 2179SOL    HW1 6869   1.643   3.042   8.586
 2179SOL    HW2 6870   1.552   2.963   8.476
 2180SOL     OW 6871   0.915   1.951   8.850
 2180SOL    HW1 6872   0.940   1.931   8.755
 2180SOL    HW2 6873   0.987   2.007   8.892
 2181SOL     OW 6874   0.980   2.978   9.167
 2181SOL    HW1 6875   0.881   2.984   9.177
 2181SOL    HW2 6876   1.003   2.898   9.111
 2182SOL     OW 6877   0.705   2.912   7.816
 2182SOL    HW1 6878   0.691   2.919   7.915
 2182SOL    HW2 6879   0.789   2.861   7.798
 2183SOL     OW 6880   0.410   2.675   8.699
 2183SOL    HW1 6881   0.496   2.687   8.749
 2183SOL    HW2 6882   0.368   2.588   8.726
 2184SOL     OW 6883   1.274   2.248   8.710
 2184SOL    HW1 6884   1.295   2.322   8.774
 2184SOL    HW2 6885   1.185   2.265   8.667
 2185SOL     OW 6886   0.064   3.426   8.779
 2185SOL    HW1 6887   0.018   3.508   8.745
 2185SOL    HW2 6888   0.162   3.445   8.788
 2186SOL     OW 6889   0.367   2.962   7.949
 2186SOL    HW1 6890   0.360   3.045   7.893
 2186SOL    HW2 6891   0.371   2.882   7.889
 2187SOL     OW 6892   0.566   2.399   8.313
 2187SOL    HW1 6893   0.578   2.465   8.239
 2187SOL    HW2 6894   0.612   2.433   8.396
 2188SOL     OW 6895   1.252   3.210   7.836
 2188SOL    HW1 6896   1.302   3.287   7.876
 2188SOL    HW2 6897   1.157   3.212   7.868
 2189SOL     OW 6898   1.272   3.307   8.590
 2189SOL    HW1 6899   1.319   3.320   8.677
 2189SOL    HW2 6900   1.206   3.233   8.599
 2190SOL     OW 6901   1.582   2.501   7.920
 2190SOL    HW1 6902   1.551   2.562   7.993
 2190SOL    HW2 6903   1.632   2.553   7.851
 2191SOL     OW 6904   0.354   3.372   8.777
 2191SOL    HW1 6905   0.333   3.328   8.690
 2191SOL    HW2 6906   0.451   3.398   8.780
 2192SOL     OW 6907   0.402   2.613   9.046
 2192SOL    HW1 6908   0.470   2.668   8.999
 2192SOL    HW2 6909   0.442   2.525   9.073
 2193SOL     OW 6910   1.587   2.641   9.118
 2193SOL    HW1 6911   1.495   2.679   9.113
 2193SOL    HW2 6912   1.647   2.688   9.053
 2194SOL     OW 6913   1.013   1.967   9.218
 2194SOL    HW1 6914   1.019   2.052   9.166
 2194SOL    HW2 6915   1.045   1.891   9.161
 2195SOL     OW 6916   0.504   1.912   9.188
 2195SOL    HW1 6917   0.462   1.855   9.118
 2195SOL    HW2 6918   0.438   1.981   9.220
 2196SOL     OW 6919   0.573   2.732   8.477
 2196SOL    HW1 6920   0.617   2.821   8.468
 2196SOL    HW2 6921   0.510   2.732   8.554
 2197SOL     OW 6922   1.360   2.724   8.493
 2197SOL    HW1 6923   1.285   2.724   8.427
 2197SOL    HW2 6924   1.397   2.632   8.502
 2198SOL     OW 6925   1.209   2.387   7.723
 2198SOL    HW1 6926   1.222   2.303   7.777
 2198SOL    HW2 6927   1.180   2.461   7.783
 2199SOL     OW 6928   0.307   2.075   8.679
 2199SOL    HW1 6929   0.284   2.112   8.769
 2199SOL    HW2 6930   0.277   1.980   8.673
 2200SOL     OW 6931   0.037   3.172   8.730
 2200SOL    HW1 6932   0.090   3.123   8.798
 2200SOL    HW2 6933   0.059   3.270   8.735
 2201SOL     OW 6934   0.732   2.496   8.512
 2201SOL    HW1 6935   0.791   2.470   8.436
 2201SOL    HW2 6936   0.704   2.592   8.501
 2202SOL     OW 6937   1.728   2.797   9.302
 2202SOL    HW1 6938   1.682   2.790   9.213
 2202SOL    HW2 6939   1.666   2.841   9.368
 2203SOL     OW 6940   0.307   1.925   8.066
 2203SOL    HW1 6941   0.296   2.019   8.099
 2203SOL    HW2 6942   0.302   1.862   8.143
 2204SOL     OW 6943   1.622   2.229   7.822
 2204SOL    HW1 6944   1.624   2.153   7.886
 2204SOL    HW2 6945   1.574   2.306   7.862
 2205SOL     OW 6946   1.023   2.628   8.414
 2205SOL    HW1 6947   1.038   2.649   8.510
 2205SOL    HW2 6948   0.993   2.533   8.405
 2206SOL     OW 6949   0.980   3.435   9.148
 2206SOL    HW1 6950   0.960   3.479   9.060
 2206SOL    HW2 6951   1.019   3.344   9.132
 2207SOL     OW 6952   1.859   3.380   9.053
 2207SOL    HW1 6953   1.873   3.407   8.958
 2207SOL    HW2 6954   1.942   3.402   9.106
 2208SOL     OW 6955   0.350   2.760   9.252
 2208SOL    HW1 6956   0.426   2.804   9.300
 2208SOL    HW2 6957   0.385   2.713   9.170
 2209SOL     OW 6958   1.540   2.136   7.573
 2209SOL    HW1 6959   1.479   2.061   7.596
 2209SOL    HW2 6960   1.562   2.188   7.656
 2210SOL     OW 6961   1.303   2.700   7.490
 2210SOL    HW1 6962   1.337   2.607   7.505
 2210SOL    HW2 6963   1.321   2.727   7.395
 2211SOL     OW 6964   1.068   3.195   8.297
 2211SOL    HW1 6965   1.075   3.111   8.242
 2211SOL    HW2 6966   1.130   3.264   8.261
 2212SOL     OW 6967   0.319   2.672   8.397
 2212SOL    HW1 6968   0.412   2.708   8.402
 2212SOL    HW2 6969   0.313   2.587   8.449
 2213SOL     OW 6970   0.339   2.371   8.454
 2213SOL    HW1 6971   0.287   2.288   8.437
 2213SOL    HW2 6972   0.416   2.376   8.390
 2214SOL     OW 6973   1.138   2.242   9.126
 2214SOL    HW1 6974   1.093   2.305   9.190
 2214SOL    HW2 6975   1.231   2.273   9.109
 2215SOL     OW 6976   1.160   2.069   8.925
 2215SOL    HW1 6977   1.160   2.133   9.002
 2215SOL    HW2 6978   1.188   2.117   8.842
 2216SOL     OW 6979   0.008   3.188   7.648
 2216SOL    HW1 6980  -0.085   3.209   7.617
 2216SOL    HW2 6981   0.018   3.089   7.661
 2217SOL     OW 6982   0.088   3.663   8.375
 2217SOL    HW1 6983   0.046   3.577   8.348
 2217SOL    HW2 6984   0.182   3.666   8.341
 2218SOL     OW 6985   0.504   3.430   8.358
 2218SOL    HW1 6986   0.570   3.504   8.367
 2218SOL    HW2 6987   0.548   3.351   8.316
 2219SOL     OW 6988   1.002   2.658   8.686
 2219SOL    HW1 6989   1.043   2.626   8.772
 2219SOL    HW2 6990   0.906   2.631   8.683
 2220SOL     OW 6991   0.040   2.406   8.562
 2220SOL    HW1 6992   0.125   2.373   8.521
 2220SOL    HW2 6993   0.053   2.421   8.660
 2221SOL     OW 6994   0.189   2.382   9.170
 2221SOL    HW1 6995   0.248   2.342   9.100
 2221SOL    HW2 6996   0.131   2.453   9.129
 2222SOL     OW 6997   1.369   2.812   9.108
 2222SOL    HW1 6998   1.408   2.901   9.128
 2222SOL    HW2 6999   1.379   2.792   9.011
 2223SOL     OW 7000   0.815   2.434   7.773
 2223SOL    HW1 7001   0.822   2.345   7.727
 2223SOL    HW2 7002   0.721   2.468   7.765
 2224SOL     OW 7003   1.657   2.466   8.654
 2224SOL    HW1 7004   1.619   2.397   8.716
 2224SOL    HW2 7005   1.739   2.430   8.610
 2225SOL     OW 7006   0.252   3.426   9.192
 2225SOL    HW1 7007   0.222   3.483   9.268
 2225SOL    HW2 7008   0.245   3.329   9.218
 2226SOL     OW 7009   0.671   2.326   8.717
 2226SOL    HW1 7010   0.637   2.237   8.687
 2226SOL    HW2 7011   0.697   2.380   8.637
 2227SOL     OW 7012   0.930   3.540   8.913
 2227SOL    HW1 7013   0.906   3.522   8.818
 2227SOL    HW2 7014   0.960   3.634   8.923
 2228SOL     OW 7015   0.473   2.362   7.639
 2228SOL    HW1 7016   0.534   2.442   7.643
 2228SOL    HW2 7017   0.378   2.393   7.646
 2229SOL     OW 7018   0.159   2.999   8.914
 2229SOL    HW1 7019   0.181   2.938   8.990
 2229SOL    HW2 7020   0.169   2.950   8.828
 2230SOL     OW 7021   1.347   2.921   8.682
 2230SOL    HW1 7022   1.371   2.858   8.608
 2230SOL    HW2 7023   1.257   2.961   8.664
 2231SOL     OW 7024   1.302   2.717   7.757
 2231SOL    HW1 7025   1.216   2.686   7.799
 2231SOL    HW2 7026   1.298   2.703   7.658
 2232SOL     OW 7027   1.759   3.609   8.602
 2232SOL    HW1 7028   1.820   3.639   8.529
 2232SOL    HW2 7029   1.721   3.520   8.580
 2233SOL     OW 7030   1.252   3.593   8.576
 2233SOL    HW1 7031   1.336   3.598   8.522
 2233SOL    HW2 7032   1.229   3.497   8.594
 2234SOL     OW 7033   0.083   3.120   8.470
 2234SOL    HW1 7034   0.078   3.119   8.570
 2234SOL    HW2 7035   0.000   3.079   8.432
 2235SOL     OW 7036   0.688   3.524   9.164
 2235SOL    HW1 7037   0.632   3.605   9.173
 2235SOL    HW2 7038   0.740   3.528   9.078
 2236SOL     OW 7039   1.726   1.997   7.971
 2236SOL    HW1 7040   1.799   1.980   7.904
 2236SOL    HW2 7041   1.695   1.910   8.009
 2237SOL     OW 7042   1.388   3.435   7.925
 2237SOL    HW1 7043   1.455   3.447   7.851
 2237SOL    HW2 7044   1.348   3.524   7.948
 2238SOL     OW 7045   0.130   3.656   9.299
 2238SOL    HW1 7046   0.089   3.582   9.352
 2238SOL    HW2 7047   0.194   3.707   9.357
 2239SOL     OW 7048   1.280   2.789   8.120
 2239SOL    HW1 7049   1.340   2.708   8.122
 2239SOL    HW2 7050   1.320   2.858   8.060
 2240SOL     OW 7051   0.830   3.135   8.870
 2240SOL    HW1 7052   0.825   3.168   8.965
 2240SOL    HW2 7053   0.744   3.154   8.824
 2241SOL     OW 7054   0.672   3.478   7.602
 2241SOL    HW1 7055   0.681   3.488   7.503
 2241SOL    HW2 7056   0.632   3.389   7.623
 2242SOL     OW 7057   1.650   3.582   8.842
 2242SOL    HW1 7058   1.703   3.592   8.758
 2242SOL    HW2 7059   1.623   3.672   8.876
 2243SOL     OW 7060   1.841   2.037   8.411
 2243SOL    HW1 7061   1.880   1.952   8.375
 2243SOL    HW2 7062   1.743   2.039   8.392
 2244SOL     OW 7063   0.263   2.188   8.168
 2244SOL    HW1 7064   0.184   2.239   8.134
 2244SOL    HW2 7065   0.254   2.173   8.266
 2245SOL     OW 7066   1.194   3.474   7.479
 2245SOL    HW1 7067   1.200   3.381   7.516
 2245SOL    HW2 7068   1.135   3.474   7.399
 2246SOL     OW 7069   0.822   2.864   8.820
 2246SOL    HW1 7070   0.862   2.863   8.728
 2246SOL    HW2 7071   0.832   2.956   8.860
 2247SOL     OW 7072   0.916   2.772   7.739
 2247SOL    HW1 7073   0.979   2.810   7.671
 2247SOL    HW2 7074   0.956   2.689   7.778
 2248SOL     OW 7075   1.504   3.469   7.492
 2248SOL    HW1 7076   1.412   3.506   7.499
 2248SOL    HW2 7077   1.542   3.489   7.402
 2249SOL     OW 7078   0.372   3.150   8.938
 2249SOL    HW1 7079   0.359   3.243   8.904
 2249SOL    HW2 7080   0.288   3.098   8.925
 2250SOL     OW 7081   1.614   3.154   8.737
 2250SOL    HW1 7082   1.674   3.157   8.817
 2250SOL    HW2 7083   1.539   3.218   8.750
 2251SOL     OW 7084   1.039   2.960   8.144
 2251SOL    HW1 7085   0.969   2.913   8.198
 2251SOL    HW2 7086   1.098   2.892   8.101
 2252SOL     OW 7087   1.014   2.098   8.419
 2252SOL    HW1 7088   1.006   2.062   8.326
 2252SOL    HW2 7089   1.012   2.022   8.484
 2253SOL     OW 7090   0.590   3.349   7.939
 2253SOL    HW1 7091   0.632   3.291   7.869
 2253SOL    HW2 7092   0.546   3.428   7.895
 2254SOL     OW 7093   1.709   2.247   8.829
 2254SOL    HW1 7094   1.782   2.316   8.833
 2254SOL    HW2 7095   1.737   2.172   8.770
 2255SOL     OW 7096   0.255   3.210   7.738
 2255SOL    HW1 7097   0.159   3.211   7.711
 2255SOL    HW2 7098   0.267   3.263   7.822
 2256SOL     OW 7099   0.105   2.875   9.174
 2256SOL    HW1 7100   0.028   2.842   9.228
 2256SOL    HW2 7101   0.190   2.845   9.216
 2257SOL     OW 7102   0.672   2.065   8.937
 2257SOL    HW1 7103   0.762   2.049   8.897
 2257SOL    HW2 7104   0.680   2.070   9.036
 2258SOL     OW 7105   0.075   2.207   7.481
 2258SOL    HW1 7106  -0.017   2.179   7.452
 2258SOL    HW2 7107   0.106   2.284   7.425
 2259SOL     OW 7108   1.440   2.718   8.846
 2259SOL    HW1 7109   1.383   2.770   8.783
 2259SOL    HW2 7110   1.536   2.730   8.822
 2260SOL     OW 7111   0.072   2.028   7.766
 2260SOL    HW1 7112   0.055   2.111   7.712
 2260SOL    HW2 7113   0.162   1.991   7.744
 2261SOL     OW 7114   1.183   3.197   7.567
 2261SOL    HW1 7115   1.084   3.186   7.569
 2261SOL    HW2 7116   1.217   3.212   7.660
 2262SOL     OW 7117   0.613   2.704   8.879
 2262SOL    HW1 7118   0.669   2.785   8.862
 2262SOL    HW2 7119   0.672   2.624   8.882
 2263SOL     OW 7120   1.493   3.629   8.407
 2263SOL    HW1 7121   1.526   3.693   8.338
 2263SOL    HW2 7122   1.559   3.623   8.482
 2264SOL     OW 7123   0.716   2.427   9.156
 2264SOL    HW1 7124   0.735   2.492   9.230
 2264SOL    HW2 7125   0.776   2.347   9.165
 2265SOL     OW 7126   1.450   3.082   9.081
 2265SOL    HW1 7127   1.441   3.072   9.180
 2265SOL    HW2 7128   1.546   3.075   9.055
 2266SOL     OW 7129   0.390   3.603   9.008
 2266SOL    HW1 7130   0.299   3.644   9.006
 2266SOL    HW2 7131   0.383   3.509   9.040
 2267SOL     OW 7132   1.674   2.745   8.702
 2267SOL    HW1 7133   1.647   2.656   8.665
 2267SOL    HW2 7134   1.675   2.813   8.629
 2268SOL     OW 7135   1.225   2.187   7.897
 2268SOL    HW1 7136   1.290   2.113   7.886
 2268SOL    HW2 7137   1.245   2.237   7.981
 2269SOL     OW 7138   0.594   2.607   8.100
 2269SOL    HW1 7139   0.644   2.692   8.081
 2269SOL    HW2 7140   0.506   2.609   8.052
 2270SOL     OW 7141   1.777   2.204   9.090
 2270SOL    HW1 7142   1.760   2.235   8.996
 2270SOL    HW2 7143   1.693   2.167   9.128
 2271SOL     OW 7144   1.730   2.796   8.965
 2271SOL    HW1 7145   1.768   2.887   8.980
 2271SOL    HW2 7146   1.722   2.779   8.866
 2272SOL     OW 7147   0.859   3.236   7.464
 2272SOL    HW1 7148   0.813   3.251   7.552
 2272SOL    HW2 7149   0.903   3.321   7.434
 2273SOL     OW 7150   0.661   3.652   8.401
 2273SOL    HW1 7151   0.615   3.740   8.388
 2273SOL    HW2 7152   0.760   3.664   8.394
 2274SOL     OW 7153   0.859   2.818   8.309
 2274SOL    HW1 7154   0.913   2.749   8.357
 2274SOL    HW2 7155   0.827   2.887   8.375
 2275SOL     OW 7156   1.083   2.846   7.535
 2275SOL    HW1 7157   1.060   2.899   7.453
 2275SOL    HW2 7158   1.164   2.790   7.516
 2276SOL     OW 7159   1.861   3.431   8.299
 2276SOL    HW1 7160   1.790   3.419   8.229
 2276SOL    HW2 7161   1.862   3.352   8.359
 2277SOL     OW 7162   0.221   3.176   9.292
 2277SOL    HW1 7163   0.156   3.103   9.271
 2277SOL    HW2 7164   0.225   3.190   9.390
 2278SOL     OW 7165   0.079   3.102   8.101
 2278SOL    HW1 7166   0.078   3.055   8.189
 2278SOL    HW2 7167   0.161   3.074   8.050
 2279SOL     OW 7168   0.672   3.253   9.072
 2279SOL    HW1 7169   0.594   3.203   9.110
 2279SOL    HW2 7170   0.669   3.348   9.103
 2280SOL     OW 7171   1.824   2.054   8.675
 2280SOL    HW1 7172   1.820   1.964   8.719
 2280SOL    HW2 7173   1.827   2.043   8.576
 2281SOL     OW 7174   0.428   2.286   7.968
 2281SOL    HW1 7175   0.458   2.214   7.906
 2281SOL    HW2 7176   0.389   2.246   8.051
 2282SOL     OW 7177   1.705   3.349   8.552
 2282SOL    HW1 7178   1.612   3.324   8.525
 2282SOL    HW2 7179   1.731   3.299   8.634
 2283SOL     OW 7180   0.317   2.409   8.728
 2283SOL    HW1 7181   0.355   2.350   8.800
 2283SOL    HW2 7182   0.357   2.383   8.640
 2284SOL     OW 7183   0.812   3.448   8.135
 2284SOL    HW1 7184   0.844   3.458   8.041
 2284SOL    HW2 7185   0.733   3.386   8.137
 2285SOL     OW 7186   1.424   2.076   8.560
 2285SOL    HW1 7187   1.476   2.011   8.615
 2285SOL    HW2 7188   1.375   2.139   8.621
 2286SOL     OW 7189   1.001   1.896   8.602
 2286SOL    HW1 7190   0.938   1.824   8.571
 2286SOL    HW2 7191   1.094   1.860   8.602
 2287SOL     OW 7192   0.770   3.192   7.749
 2287SOL    HW1 7193   0.724   3.105   7.766
 2287SOL    HW2 7194   0.861   3.189   7.790
 2288SOL     OW 7195   0.618   3.429   8.732
 2288SOL    HW1 7196   0.613   3.511   8.789
 2288SOL    HW2 7197   0.707   3.426   8.687
 2289SOL     OW 7198   1.352   1.914   7.616
 2289SOL    HW1 7199   1.387   1.873   7.532
 2289SOL    HW2 7200   1.262   1.876   7.636
 2290SOL     OW 7201   1.300   2.315   8.139
 2290SOL    HW1 7202   1.241   2.395   8.143
 2290SOL    HW2 7203   1.315   2.280   8.232
 2291SOL     OW 7204   1.593   2.083   8.330
 2291SOL    HW1 7205   1.509   2.082   8.384
 2291SOL    HW2 7206   1.595   2.166   8.274
 2292SOL     OW 7207   0.039   2.939   7.748
 2292SOL    HW1 7208   0.138   2.928   7.739
 2292SOL    HW2 7209  -0.001   2.853   7.780
 2293SOL     OW 7210   0.875   3.508   7.785
 2293SOL    HW1 7211   0.798   3.473   7.731
 2293SOL    HW2 7212   0.843   3.579   7.847
 2294SOL     OW 7213   0.230   2.490   9.423
 2294SOL    HW1 7214   0.137   2.488   9.460
 2294SOL    HW2 7215   0.231   2.451   9.331
 2295SOL     OW 7216   0.225   2.137  10.306
 2295SOL    HW1 7217   0.260   2.120  10.398
 2295SOL    HW2 7218   0.137   2.092  10.294
 2296SOL     OW 7219   0.019   2.230   9.957
 2296SOL    HW1 7220  -0.063   2.273   9.996
 2296SOL    HW2 7221  -0.009   2.157   9.894
 2297SOL     OW 7222   0.569   3.137  10.475
 2297SOL    HW1 7223   0.476   3.130  10.438
 2297SOL    HW2 7224   0.580   3.226  10.519
 2298SOL     OW 7225   1.555   3.373  10.013
 2298SOL    HW1 7226   1.498   3.357  10.094
 2298SOL    HW2 7227   1.496   3.383   9.933
 2299SOL     OW 7228   1.135   2.565  10.027
 2299SOL    HW1 7229   1.192   2.643  10.002
 2299SOL    HW2 7230   1.075   2.591  10.103
 2300SOL     OW 7231   1.755   2.469   9.541
 2300SOL    HW1 7232   1.743   2.456   9.442
 2300SOL    HW2 7233   1.725   2.388   9.590
 2301SOL     OW 7234   0.768   3.006  10.333
 2301SOL    HW1 7235   0.690   3.023  10.393
 2301SOL    HW2 7236   0.802   3.093  10.297
 2302SOL     OW 7237   0.685   2.874   9.975
 2302SOL    HW1 7238   0.754   2.858  10.045
 2302SOL    HW2 7239   0.612   2.931  10.013
 2303SOL     OW 7240   0.335   3.297  10.371
 2303SOL    HW1 7241   0.257   3.266  10.318
 2303SOL    HW2 7242   0.393   3.355  10.314
 2304SOL     OW 7243   1.460   3.367  10.649
 2304SOL    HW1 7244   1.484   3.461  10.675
 2304SOL    HW2 7245   1.444   3.313  10.731
 2305SOL     OW 7246   0.438   2.254  10.809
 2305SOL    HW1 7247   0.520   2.198  10.818
 2305SOL    HW2 7248   0.357   2.196  10.813
 2306SOL     OW 7249   1.603   2.309  10.047
 2306SOL    HW1 7250   1.529   2.355   9.997
 2306SOL    HW2 7251   1.654   2.377  10.100
 2307SOL     OW 7252   0.231   3.575   9.793
 2307SOL    HW1 7253   0.265   3.652   9.847
 2307SOL    HW2 7254   0.275   3.575   9.703
 2308SOL     OW 7255   0.230   3.296   9.848
 2308SOL    HW1 7256   0.204   3.392   9.848
 2308SOL    HW2 7257   0.159   3.242   9.893
 2309SOL     OW 7258   0.240   2.953  10.196
 2309SOL    HW1 7259   0.254   2.869  10.248
 2309SOL    HW2 7260   0.185   3.017  10.251
 2310SOL     OW 7261   0.620   3.648  10.749
 2310SOL    HW1 7262   0.528   3.631  10.784
 2310SOL    HW2 7263   0.648   3.740  10.775
 2311SOL     OW 7264   0.606   2.826   9.433
 2311SOL    HW1 7265   0.613   2.910   9.379
 2311SOL    HW2 7266   0.652   2.839   9.521
 2312SOL     OW 7267   1.594   1.976  10.790
 2312SOL    HW1 7268   1.576   2.043  10.718
 2312SOL    HW2 7269   1.591   2.022  10.879
 2313SOL     OW 7270   0.122   2.505   9.873
 2313SOL    HW1 7271   0.077   2.417   9.890
 2313SOL    HW2 7272   0.121   2.559   9.957
 2314SOL     OW 7273   1.842   3.629   9.669
 2314SOL    HW1 7274   1.896   3.600   9.749
 2314SOL    HW2 7275   1.872   3.719   9.640
 2315SOL     OW 7276   0.027   3.458   9.427
 2315SOL    HW1 7277   0.008   3.362   9.448
 2315SOL    HW2 7278  -0.006   3.516   9.502
 2316SOL     OW 7279   1.689   2.784   9.922
 2316SOL    HW1 7280   1.784   2.755   9.930
 2316SOL    HW2 7281   1.681   2.849   9.847
 2317SOL     OW 7282   1.641   2.970   9.742
 2317SOL    HW1 7283   1.727   2.972   9.690
 2317SOL    HW2 7284   1.655   3.017   9.830
 2318SOL     OW 7285   0.613   3.227  10.036
 2318SOL    HW1 7286   0.564   3.140  10.045
 2318SOL    HW2 7287   0.590   3.270   9.949
 2319SOL     OW 7288   0.809   1.866   9.812
 2319SOL    HW1 7289   0.849   1.957   9.803
 2319SOL    HW2 7290   0.709   1.874   9.818
 2320SOL     OW 7291   0.197   2.838  10.574
 2320SOL    HW1 7292   0.286   2.793  10.560
 2320SOL    HW2 7293   0.124   2.773  10.555
 2321SOL     OW 7294   1.525   2.861   9.500
 2321SOL    HW1 7295   1.462   2.785   9.513
 2321SOL    HW2 7296   1.573   2.879   9.586
 2322SOL     OW 7297   1.466   3.279  10.263
 2322SOL    HW1 7298   1.407   3.285  10.343
 2322SOL    HW2 7299   1.451   3.191  10.217
 2323SOL     OW 7300   1.667   3.576   9.882
 2323SOL    HW1 7301   1.626   3.553   9.794
 2323SOL    HW2 7302   1.649   3.502   9.947
 2324SOL     OW 7303   0.598   2.591   9.580
 2324SOL    HW1 7304   0.622   2.660   9.512
 2324SOL    HW2 7305   0.520   2.624   9.634
 2325SOL     OW 7306   1.281   2.207  10.254
 2325SOL    HW1 7307   1.195   2.157  10.241
 2325SOL    HW2 7308   1.343   2.153  10.310
 2326SOL     OW 7309   1.576   3.524   9.617
 2326SOL    HW1 7310   1.665   3.570   9.620
 2326SOL    HW2 7311   1.555   3.500   9.522
 2327SOL     OW 7312   0.807   2.467  10.775
 2327SOL    HW1 7313   0.760   2.464  10.864
 2327SOL    HW2 7314   0.756   2.412  10.709
 2328SOL     OW 7315   0.991   2.272  10.552
 2328SOL    HW1 7316   0.914   2.306  10.606
 2328SOL    HW2 7317   0.957   2.221  10.473
 2329SOL     OW 7318   1.041   2.563   9.739
 2329SOL    HW1 7319   1.067   2.559   9.835
 2329SOL    HW2 7320   0.956   2.512   9.725
 2330SOL     OW 7321   0.076   2.673  10.099
 2330SOL    HW1 7322   0.175   2.661  10.108
 2330SOL    HW2 7323   0.052   2.768  10.120
 2331SOL     OW 7324   0.130   3.683  10.881
 2331SOL    HW1 7325   0.120   3.668  10.980
 2331SOL    HW2 7326   0.044   3.719  10.845
 2332SOL     OW 7327   0.865   2.210   9.505
 2332SOL    HW1 7328   0.924   2.273   9.456
 2332SOL    HW2 7329   0.884   2.116   9.476
 2333SOL     OW 7330   1.362   3.006   9.855
 2333SOL    HW1 7331   1.445   2.977   9.807
 2333SOL    HW2 7332   1.313   3.073   9.799
 2334SOL     OW 7333   0.550   2.058  10.195
 2334SOL    HW1 7334   0.545   2.053  10.295
 2334SOL    HW2 7335   0.552   2.154  10.166
 2335SOL     OW 7336   1.008   3.318   9.787
 2335SOL    HW1 7337   0.962   3.390   9.735
 2335SOL    HW2 7338   1.004   3.338   9.885
 2336SOL     OW 7339   0.351   3.663  10.163
 2336SOL    HW1 7340   0.401   3.577  10.169
 2336SOL    HW2 7341   0.416   3.740  10.160
 2337SOL     OW 7342   1.795   2.928  10.183
 2337SOL    HW1 7343   1.733   2.913  10.107
 2337SOL    HW2 7344   1.743   2.939  10.268
 2338SOL     OW 7345   0.321   2.805   9.552
 2338SOL    HW1 7346   0.403   2.844   9.510
 2338SOL    HW2 7347   0.294   2.723   9.503
 2339SOL     OW 7348   1.458   2.597  10.038
 2339SOL    HW1 7349   1.453   2.532  10.113
 2339SOL    HW2 7350   1.538   2.656  10.051
 2340SOL     OW 7351   1.111   3.638   9.547
 2340SOL    HW1 7352   1.051   3.576   9.597
 2340SOL    HW2 7353   1.142   3.594   9.462
 2341SOL     OW 7354   1.632   3.239   9.391
 2341SOL    HW1 7355   1.600   3.333   9.381
 2341SOL    HW2 7356   1.556   3.176   9.379
 2342SOL     OW 7357   0.464   3.605   9.633
 2342SOL    HW1 7358   0.497   3.644   9.719
 2342SOL    HW2 7359   0.540   3.598   9.568
 2343SOL     OW 7360   1.400   1.969   9.736
 2343SOL    HW1 7361   1.376   1.932   9.646
 2343SOL    HW2 7362   1.499   1.985   9.740
 2344SOL     OW 7363   0.249   3.647  10.551
 2344SOL    HW1 7364   0.306   3.582  10.601
 2344SOL    HW2 7365   0.233   3.614  10.458
 2345SOL     OW 7366   0.940   3.560  10.214
 2345SOL    HW1 7367   1.020   3.503  10.235
 2345SOL    HW2 7368   0.891   3.520  10.137
 2346SOL     OW 7369   0.382   2.562   9.790
 2346SOL    HW1 7370   0.427   2.472   9.787
 2346SOL    HW2 7371   0.288   2.551   9.823
 2347SOL     OW 7372   0.614   1.984   9.427
 2347SOL    HW1 7373   0.712   1.962   9.434
 2347SOL    HW2 7374   0.583   1.967   9.334
 2348SOL     OW 7375   0.888   3.376  10.505
 2348SOL    HW1 7376   0.865   3.351  10.411
 2348SOL    HW2 7377   0.949   3.307  10.544
 2349SOL     OW 7378   0.803   3.264  10.234
 2349SOL    HW1 7379   0.893   3.278  10.192
 2349SOL    HW2 7380   0.732   3.266  10.163
 2350SOL     OW 7381   0.922   2.365  10.209
 2350SOL    HW1 7382   0.897   2.356  10.113
 2350SOL    HW2 7383   0.970   2.283  10.240
 2351SOL     OW 7384   0.539   1.926   9.822
 2351SOL    HW1 7385   0.458   1.927   9.880
 2351SOL    HW2 7386   0.542   2.009   9.767
 2352SOL     OW 7387   1.434   3.050   9.351
 2352SOL    HW1 7388   1.466   2.974   9.408
 2352SOL    HW2 7389   1.342   3.077   9.381
 2353SOL     OW 7390   0.297   1.897   9.481
 2353SOL    HW1 7391   0.346   1.981   9.460
 2353SOL    HW2 7392   0.359   1.832   9.526
 2354SOL     OW 7393   0.935   2.098   9.790
 2354SOL    HW1 7394   0.887   2.139   9.712
 2354SOL    HW2 7395   1.034   2.096   9.771
 2355SOL     OW 7396   1.227   3.432  10.103
 2355SOL    HW1 7397   1.248   3.506  10.038
 2355SOL    HW2 7398   1.295   3.432  10.176
 2356SOL     OW 7399   0.459   3.014  10.051
 2356SOL    HW1 7400   0.388   2.987  10.116
 2356SOL    HW2 7401   0.433   2.986   9.958
 2357SOL     OW 7402   1.271   3.659   9.901
 2357SOL    HW1 7403   1.315   3.723   9.837
 2357SOL    HW2 7404   1.221   3.711   9.971
 2358SOL     OW 7405   1.032   2.411   9.326
 2358SOL    HW1 7406   0.991   2.493   9.287
 2358SOL    HW2 7407   1.096   2.437   9.399
 2359SOL     OW 7408   0.078   2.418  10.696
 2359SOL    HW1 7409   0.170   2.417  10.655
 2359SOL    HW2 7410   0.072   2.492  10.763
 2360SOL     OW 7411   0.561   2.084  10.457
 2360SOL    HW1 7412   0.599   2.000  10.494
 2360SOL    HW2 7413   0.473   2.103  10.501
 2361SOL     OW 7414   0.866   2.316   9.952
 2361SOL    HW1 7415   0.834   2.388   9.890
 2361SOL    HW2 7416   0.890   2.235   9.899
 2362SOL     OW 7417   1.017   1.901  10.063
 2362SOL    HW1 7418   0.945   1.906   9.994
 2362SOL    HW2 7419   0.993   1.832  10.132
 2363SOL     OW 7420   1.429   3.035  10.177
 2363SOL    HW1 7421   1.374   2.951  10.170
 2363SOL    HW2 7422   1.455   3.064  10.085
 2364SOL     OW 7423   1.466   2.452  10.302
 2364SOL    HW1 7424   1.436   2.357  10.309
 2364SOL    HW2 7425   1.539   2.468  10.368
 2365SOL     OW 7426   1.857   2.695   9.687
 2365SOL    HW1 7427   1.899   2.631   9.751
 2365SOL    HW2 7428   1.819   2.644   9.609
 2366SOL     OW 7429   0.488   3.247   9.484
 2366SOL    HW1 7430   0.401   3.232   9.531
 2366SOL    HW2 7431   0.471   3.273   9.389
 2367SOL     OW 7432   1.664   3.142   9.967
 2367SOL    HW1 7433   1.763   3.150   9.981
 2367SOL    HW2 7434   1.619   3.226   9.998
 2368SOL     OW 7435   1.390   2.437   9.388
 2368SOL    HW1 7436   1.336   2.416   9.469
 2368SOL    HW2 7437   1.481   2.396   9.397
 2369SOL     OW 7438   0.527   2.118   9.638
 2369SOL    HW1 7439   0.554   2.059   9.563
 2369SOL    HW2 7440   0.527   2.213   9.607
 2370SOL     OW 7441   1.064   3.209  10.650
 2370SOL    HW1 7442   0.984   3.186  10.705
 2370SOL    HW2 7443   1.147   3.183  10.699
 2371SOL     OW 7444   1.111   3.057  10.410
 2371SOL    HW1 7445   1.071   3.101  10.491
 2371SOL    HW2 7446   1.070   3.094  10.327
 2372SOL     OW 7447   1.638   2.961  10.389
 2372SOL    HW1 7448   1.643   3.042  10.448
 2372SOL    HW2 7449   1.552   2.963  10.338
 2373SOL     OW 7450   0.915   1.951  10.712
 2373SOL    HW1 7451   0.940   1.931  10.617
 2373SOL    HW2 7452   0.987   2.007  10.754
 2374SOL     OW 7453   0.705   2.912   9.678
 2374SOL    HW1 7454   0.691   2.919   9.777
 2374SOL    HW2 7455   0.789   2.861   9.660
 2375SOL     OW 7456   0.410   2.675  10.561
 2375SOL    HW1 7457   0.496   2.687  10.611
 2375SOL    HW2 7458   0.368   2.588  10.588
 2376SOL     OW 7459   1.274   2.248  10.572
 2376SOL    HW1 7460   1.295   2.322  10.636
 2376SOL    HW2 7461   1.185   2.265  10.529
 2377SOL     OW 7462   0.064   3.426  10.641
 2377SOL    HW1 7463   0.018   3.508  10.607
 2377SOL    HW2 7464   0.162   3.445  10.650
 2378SOL     OW 7465   0.367   2.962   9.811
 2378SOL    HW1 7466   0.360   3.045   9.755
 2378SOL    HW2 7467   0.371   2.882   9.751
 2379SOL     OW 7468   0.566   2.399  10.175
 2379SOL    HW1 7469   0.578   2.465  10.101
 2379SOL    HW2 7470   0.612   2.433  10.258
 2380SOL     OW 7471   1.252   3.210   9.698
 2380SOL    HW1 7472   1.302   3.287   9.738
 2380SOL    HW2 7473   1.157   3.212   9.730
 2381SOL     OW 7474   1.272   3.307  10.452
 2381SOL    HW1 7475   1.319   3.320  10.539
 2381SOL    HW2 7476   1.206   3.233  10.461
 2382SOL     OW 7477   1.582   2.501   9.782
 2382SOL    HW1 7478   1.551   2.562   9.855
 2382SOL    HW2 7479   1.632   2.553   9.713
 2383SOL     OW 7480   0.354   3.372  10.639
 2383SOL    HW1 7481   0.333   3.328  10.552
 2383SOL    HW2 7482   0.451   3.398  10.642
 2384SOL     OW 7483   0.402   2.613  10.908
 2384SOL    HW1 7484   0.470   2.668  10.861
 2384SOL    HW2 7485   0.442   2.525  10.935
 2385SOL     OW 7486   1.587   2.641  10.980
 2385SOL    HW1 7487   1.495   2.679  10.975
 2385SOL    HW2 7488   1.647   2.688  10.915
 2386SOL     OW 7489   0.573   2.732  10.339
 2386SOL    HW1 7490   0.617   2.821  10.330
 2386SOL    HW2 7491   0.510   2.732  10.416
 2387SOL     OW 7492   1.360   2.724  10.355
 2387SOL    HW1 7493   1.285   2.724  10.289
 2387SOL    HW2 7494   1.397   2.632  10.364
 2388SOL     OW 7495   1.209   2.387   9.585
 2388SOL    HW1 7496   1.222   2.303   9.639
 2388SOL    HW2 7497   1.180   2.461   9.645
 2389SOL     OW 7498   0.307   2.075  10.541
 2389SOL    HW1 7499   0.284   2.112  10.631
 2389SOL    HW2 7500   0.277   1.980  10.535
 2390SOL     OW 7501   0.037   3.172  10.592
 2390SOL    HW1 7502   0.090   3.123  10.660
 2390SOL    HW2 7503   0.059   3.270  10.597
 2391SOL     OW 7504   0.732   2.496  10.374
 2391SOL    HW1 7505   0.791   2.470  10.298
 2391SOL    HW2 7506   0.704   2.592  10.363
 2392SOL     OW 7507   0.307   1.925   9.928
 2392SOL    HW1 7508   0.296   2.019   9.961
 2392SOL    HW2 7509   0.302   1.862  10.005
 2393SOL     OW 7510   1.622   2.229   9.684
 2393SOL    HW1 7511   1.624   2.153   9.748
 2393SOL    HW2 7512   1.574   2.306   9.724
 2394SOL     OW 7513   1.023   2.628  10.276
 2394SOL    HW1 7514   1.038   2.649  10.372
 2394SOL    HW2 7515   0.993   2.533  10.267
 2395SOL     OW 7516   0.980   3.435  11.010
 2395SOL    HW1 7517   0.960   3.479  10.922
 2395SOL    HW2 7518   1.019   3.344  10.994
 2396SOL     OW 7519   1.540   2.136   9.435
 2396SOL    HW1 7520   1.479   2.061   9.458
 2396SOL    HW2 7521   1.562   2.188   9.518
 2397SOL     OW 7522   1.303   2.700   9.352
 2397SOL    HW1 7523   1.337   2.607   9.367
 2397SOL    HW2 7524   1.321   2.727   9.257
 2398SOL     OW 7525   1.068   3.195  10.159
 2398SOL    HW1 7526   1.075   3.111  10.104
 2398SOL    HW2 7527   1.130   3.264  10.123
 2399SOL     OW 7528   0.319   2.672  10.259
 2399SOL    HW1 7529   0.412   2.708  10.264
 2399SOL    HW2 7530   0.313   2.587  10.311
 2400SOL     OW 7531   0.339   2.371  10.316
 2400SOL    HW1 7532   0.287   2.288  10.299
 2400SOL    HW2 7533   0.416   2.376  10.252
 2401SOL     OW 7534   1.138   2.242  10.988
 2401SOL    HW1 7535   1.093   2.305  11.052
 2401SOL    HW2 7536   1.231   2.273  10.971
 2402SOL     OW 7537   1.160   2.069  10.787
 2402SOL    HW1 7538   1.160   2.133  10.864
 2402SOL    HW2 7539   1.188   2.117  10.704
 2403SOL     OW 7540   0.008   3.188   9.510
 2403SOL    HW1 7541  -0.085   3.209   9.479
 2403SOL    HW2 7542   0.018   3.089   9.523
 2404SOL     OW 7543   0.088   3.663  10.237
 2404SOL    HW1 7544   0.046   3.577  10.210
 2404SOL    HW2 7545   0.182   3.666  10.203
 2405SOL     OW 7546   0.504   3.430  10.220
 2405SOL    HW1 7547   0.570   3.504  10.229
 2405SOL    HW2 7548   0.548   3.351  10.178
 2406SOL     OW 7549   1.002   2.658  10.548
 2406SOL    HW1 7550   1.043   2.626  10.634
 2406SOL    HW2 7551   0.906   2.631  10.545
 2407SOL     OW 7552   0.040   2.406  10.424
 2407SOL    HW1 7553   0.125   2.373  10.383
 2407SOL    HW2 7554   0.053   2.421  10.522
 2408SOL     OW 7555   0.815   2.434   9.635
 2408SOL    HW1 7556   0.822   2.345   9.589
 2408SOL    HW2 7557   0.721   2.468   9.627
 2409SOL     OW 7558   1.657   2.466  10.516
 2409SOL    HW1 7559   1.619   2.397  10.578
 2409SOL    HW2 7560   1.739   2.430  10.472
 2410SOL     OW 7561   0.671   2.326  10.579
 2410SOL    HW1 7562   0.637   2.237  10.549
 2410SOL    HW2 7563   0.697   2.380  10.499
 2411SOL     OW 7564   0.930   3.540  10.775
 2411SOL    HW1 7565   0.906   3.522  10.680
 2411SOL    HW2 7566   0.960   3.634  10.785
 2412SOL     OW 7567   0.473   2.362   9.501
 2412SOL    HW1 7568   0.534   2.442   9.505
 2412SOL    HW2 7569   0.378   2.393   9.508
 2413SOL     OW 7570   0.159   2.999  10.776
 2413SOL    HW1 7571   0.181   2.938  10.852
 2413SOL    HW2 7572   0.169   2.950  10.690
 2414SOL     OW 7573   1.347   2.921  10.544
 2414SOL    HW1 7574   1.371   2.858  10.470
 2414SOL    HW2 7575   1.257   2.961  10.526
 2415SOL     OW 7576   1.302   2.717   9.619
 2415SOL    HW1 7577   1.216   2.686   9.661
 2415SOL    HW2 7578   1.298   2.703   9.520
 2416SOL     OW 7579   1.759   3.609  10.464
 2416SOL    HW1 7580   1.820   3.639  10.391
 2416SOL    HW2 7581   1.721   3.520  10.442
 2417SOL     OW 7582   1.252   3.593  10.438
 2417SOL    HW1 7583   1.336   3.598  10.384
 2417SOL    HW2 7584   1.229   3.497  10.456
 2418SOL     OW 7585   0.083   3.120  10.332
 2418SOL    HW1 7586   0.078   3.119  10.432
 2418SOL    HW2 7587   0.000   3.079  10.294
 2419SOL     OW 7588   1.726   1.997   9.833
 2419SOL    HW1 7589   1.799   1.980   9.766
 2419SOL    HW2 7590   1.695   1.910   9.871
 2420SOL     OW 7591   1.388   3.435   9.787
 2420SOL    HW1 7592   1.455   3.447   9.713
 2420SOL    HW2 7593   1.348   3.524   9.810
 2421SOL     OW 7594   1.280   2.789   9.982
 2421SOL    HW1 7595   1.340   2.708   9.984
 2421SOL    HW2 7596   1.320   2.858   9.922
 2422SOL     OW 7597   0.672   3.478   9.464
 2422SOL    HW1 7598   0.681   3.488   9.365
 2422SOL    HW2 7599   0.632   3.389   9.485
 2423SOL     OW 7600   1.650   3.582  10.704
 2423SOL    HW1 7601   1.703   3.592  10.620
 2423SOL    HW2 7602   1.623   3.672  10.738
 2424SOL     OW 7603   1.841   2.037  10.273
 2424SOL    HW1 7604   1.880   1.952  10.237
 2424SOL    HW2 7605   1.743   2.039  10.254
 2425SOL     OW 7606   0.263   2.188  10.030
 2425SOL    HW1 7607   0.184   2.239   9.996
 2425SOL    HW2 7608   0.254   2.173  10.128
 2426SOL     OW 7609   1.194   3.474   9.341
 2426SOL    HW1 7610   1.200   3.381   9.378
 2426SOL    HW2 7611   1.135   3.474   9.261
 2427SOL     OW 7612   0.822   2.864  10.682
 2427SOL    HW1 7613   0.862   2.863  10.590
 2427SOL    HW2 7614   0.832   2.956  10.722
 2428SOL     OW 7615   0.916   2.772   9.601
 2428SOL    HW1 7616   0.979   2.810   9.533
 2428SOL    HW2 7617   0.956   2.689   9.640
 2429SOL     OW 7618   1.504   3.469   9.354
 2429SOL    HW1 7619   1.412   3.506   9.361
 2429SOL    HW2 7620   1.542   3.489   9.264
 2430SOL     OW 7621   0.372   3.150  10.800
 2430SOL    HW1 7622   0.359   3.243  10.766
 2430SOL    HW2 7623   0.288   3.098  10.787
 2431SOL     OW 7624   1.614   3.154  10.599
 2431SOL    HW1 7625   1.674   3.157  10.679
 2431SOL    HW2 7626   1.539   3.218  10.612
 2432SOL     OW 7627   1.039   2.960  10.006
 2432SOL    HW1 7628   0.969   2.913  10.060
 2432SOL    HW2 7629   1.098   2.892   9.963
 2433SOL     OW 7630   1.014   2.098  10.281
 2433SOL    HW1 7631   1.006   2.062  10.188
 2433SOL    HW2 7632   1.012   2.022  10.346
 2434SOL     OW 7633   0.590   3.349   9.801
 2434SOL    HW1 7634   0.632   3.291   9.731
 2434SOL    HW2 7635   0.546   3.428   9.757
 2435SOL     OW 7636   1.709   2.247  10.691
 2435SOL    HW1 7637   1.782   2.316  10.695
 2435SOL    HW2 7638   1.737   2.172  10.632
 2436SOL     OW 7639   0.255   3.210   9.600
 2436SOL    HW1 7640   0.159   3.211   9.573
 2436SOL    HW2 7641   0.267   3.263   9.684
 2437SOL     OW 7642   0.075   2.207   9.343
 2437SOL    HW1 7643  -0.017   2.179   9.314
 2437SOL    HW2 7644   0.106   2.284   9.287
 2438SOL     OW 7645   1.440   2.718  10.708
 2438SOL    HW1 7646   1.383   2.770  10.645
 2438SOL    HW2 7647   1.536   2.730  10.684
 2439SOL     OW 7648   0.072   2.028   9.628
 2439SOL    HW1 7649   0.055   2.111   9.574
 2439SOL    HW2 7650   0.162   1.991   9.606
 2440SOL     OW 7651   1.183   3.197   9.429
 2440SOL    HW1 7652   1.084   3.186   9.431
 2440SOL    HW2 7653   1.217   3.212   9.522
 2441SOL     OW 7654   0.613   2.704  10.741
 2441SOL    HW1 7655   0.669   2.785  10.724
 2441SOL    HW2 7656   0.672   2.624  10.744
 2442SOL     OW 7657   1.493   3.629  10.269
 2442SOL    HW1 7658   1.526   3.693  10.200
 2442SOL    HW2 7659   1.559   3.623  10.344
 2443SOL     OW 7660   0.390   3.603  10.870
 2443SOL    HW1 7661   0.299   3.644  10.868
 2443SOL    HW2 7662   0.383   3.509  10.902
 2444SOL     OW 7663   1.674   2.745  10.564
 2444SOL    HW1 7664   1.647   2.656  10.527
 2444SOL    HW2 7665   1.675   2.813  10.491
 2445SOL     OW 7666   1.225   2.187   9.759
 2445SOL    HW1 7667   1.290   2.113   9.748
 2445SOL    HW2 7668   1.245   2.237   9.843
 2446SOL     OW 7669   0.594   2.607   9.962
 2446SOL    HW1 7670   0.644   2.692   9.943
 2446SOL    HW2 7671   0.506   2.609   9.914
 2447SOL     OW 7672   1.730   2.796  10.827
 2447SOL    HW1 7673   1.768   2.887  10.842
 2447SOL    HW2 7674   1.722   2.779  10.728
 2448SOL     OW 7675   0.859   3.236   9.326
 2448SOL    HW1 7676   0.813   3.251   9.414
 2448SOL    HW2 7677   0.903   3.321   9.296
 2449SOL     OW 7678   0.661   3.652  10.263
 2449SOL    HW1 7679   0.615   3.740  10.250
 2449SOL    HW2 7680   0.760   3.664  10.256
 2450SOL     OW 7681   0.859   2.818  10.171
 2450SOL    HW1 7682   0.913   2.749  10.219
 2450SOL    HW2 7683   0.827   2.887  10.237
 2451SOL     OW 7684   1.083   2.846   9.397
 2451SOL    HW1 7685   1.060   2.899   9.315
 2451SOL    HW2 7686   1.164   2.790   9.378
 2452SOL     OW 7687   1.861   3.431  10.161
 2452SOL    HW1 7688   1.790   3.419  10.091
 2452SOL    HW2 7689   1.862   3.352  10.221
 2453SOL     OW 7690   0.079   3.102   9.963
 2453SOL    HW1 7691   0.078   3.055  10.051
 2453SOL    HW2 7692   0.161   3.074   9.912
 2454SOL     OW 7693   1.824   2.054  10.537
 2454SOL    HW1 7694   1.820   1.964  10.581
 2454SOL    HW2 7695   1.827   2.043  10.438
 2455SOL     OW 7696   0.428   2.286   9.830
 2455SOL    HW1 7697   0.458   2.214   9.768
 2455SOL    HW2 7698   0.389   2.246   9.913
 2456SOL     OW 7699   1.705   3.349  10.414
 2456SOL    HW1 7700   1.612   3.324  10.387
 2456SOL    HW2 7701   1.731   3.299  10.496
 2457SOL     OW 7702   0.317   2.409  10.590
 2457SOL    HW1 7703   0.355   2.350  10.662
 2457SOL    HW2 7704   0.357   2.383  10.502
 2458SOL     OW 7705   0.812   3.448   9.997
 2458SOL    HW1 7706   0.844   3.458   9.903
 2458SOL    HW2 7707   0.733   3.386   9.999
 2459SOL     OW 7708   1.424   2.076  10.422
 2459SOL    HW1 7709   1.476   2.011  10.477
 2459SOL    HW2 7710   1.375   2.139  10.483
 2460SOL     OW 7711   1.001   1.896  10.464
 2460SOL    HW1 7712   0.938   1.824  10.433
 2460SOL    HW2 7713   1.094   1.860  10.464
 2461SOL     OW 7714   0.770   3.192   9.611
 2461SOL    HW1 7715   0.724   3.105   9.628
 2461SOL    HW2 7716   0.861   3.189   9.652
 2462SOL     OW 7717   0.618   3.429  10.594
 2462SOL    HW1 7718   0.613   3.511  10.651
 2462SOL    HW2 7719   0.707   3.426  10.549
 2463SOL     OW 7720   1.352   1.914   9.478
 2463SOL    HW1 7721   1.387   1.873   9.394
 2463SOL    HW2 7722   1.262   1.876   9.498
 2464SOL     OW 7723   1.300   2.315  10.001
 2464SOL    HW1 7724   1.241   2.395  10.005
 2464SOL    HW2 7725   1.315   2.280  10.094
 2465SOL     OW 7726   1.593   2.083  10.192
 2465SOL    HW1 7727   1.509   2.082  10.246
 2465SOL    HW2 7728   1.595   2.166  10.136
 2466SOL     OW 7729   0.039   2.939   9.610
 2466SOL    HW1 7730   0.138   2.928   9.601
 2466SOL    HW2 7731  -0.001   2.853   9.642
 2467SOL     OW 7732   0.875   3.508   9.647
 2467SOL    HW1 7733   0.798   3.473   9.593
 2467SOL    HW2 7734   0.843   3.579   9.709
 2468SOL     OW 7735   0.230   4.352   0.113
 2468SOL    HW1 7736   0.137   4.350   0.150
 2468SOL    HW2 7737   0.231   4.313   0.021
 2469SOL     OW 7738   0.225   3.999   0.996
 2469SOL    HW1 7739   0.260   3.982   1.088
 2469SOL    HW2 7740   0.137   3.954   0.984
 2470SOL     OW 7741   0.019   4.092   0.647
 2470SOL    HW1 7742  -0.063   4.135   0.686
 2470SOL    HW2 7743  -0.009   4.019   0.584
 2471SOL     OW 7744   1.135   4.427   0.717
 2471SOL    HW1 7745   1.192   4.505   0.692
 2471SOL    HW2 7746   1.075   4.453   0.793
 2472SOL     OW 7747   1.755   4.331   0.231
 2472SOL    HW1 7748   1.743   4.318   0.132
 2472SOL    HW2 7749   1.725   4.250   0.280
 2473SOL     OW 7750   0.850   4.522   1.823
 2473SOL    HW1 7751   0.846   4.598   1.888
 2473SOL    HW2 7752   0.872   4.558   1.732
 2474SOL     OW 7753   0.685   4.736   0.665
 2474SOL    HW1 7754   0.754   4.720   0.735
 2474SOL    HW2 7755   0.612   4.793   0.703
 2475SOL     OW 7756   0.438   4.116   1.499
 2475SOL    HW1 7757   0.520   4.060   1.508
 2475SOL    HW2 7758   0.357   4.058   1.503
 2476SOL     OW 7759   1.603   4.171   0.737
 2476SOL    HW1 7760   1.529   4.217   0.687
 2476SOL    HW2 7761   1.654   4.239   0.790
 2477SOL     OW 7762   1.594   3.838   1.480
 2477SOL    HW1 7763   1.576   3.905   1.408
 2477SOL    HW2 7764   1.591   3.884   1.569
 2478SOL     OW 7765   0.122   4.367   0.563
 2478SOL    HW1 7766   0.077   4.279   0.580
 2478SOL    HW2 7767   0.121   4.421   0.647
 2479SOL     OW 7768   0.113   4.461   1.597
 2479SOL    HW1 7769   0.201   4.448   1.642
 2479SOL    HW2 7770   0.100   4.558   1.575
 2480SOL     OW 7771   0.809   3.728   0.502
 2480SOL    HW1 7772   0.849   3.819   0.493
 2480SOL    HW2 7773   0.709   3.736   0.508
 2481SOL     OW 7774   0.197   4.700   1.264
 2481SOL    HW1 7775   0.286   4.655   1.250
 2481SOL    HW2 7776   0.124   4.635   1.245
 2482SOL     OW 7777   1.525   4.723   0.190
 2482SOL    HW1 7778   1.462   4.647   0.203
 2482SOL    HW2 7779   1.573   4.741   0.276
 2483SOL     OW 7780   0.317   3.975   1.801
 2483SOL    HW1 7781   0.388   4.046   1.807
 2483SOL    HW2 7782   0.229   4.014   1.829
 2484SOL     OW 7783   0.598   4.453   0.270
 2484SOL    HW1 7784   0.622   4.522   0.202
 2484SOL    HW2 7785   0.520   4.486   0.324
 2485SOL     OW 7786   1.281   4.069   0.944
 2485SOL    HW1 7787   1.195   4.019   0.931
 2485SOL    HW2 7788   1.343   4.015   1.000
 2486SOL     OW 7789   0.807   4.329   1.465
 2486SOL    HW1 7790   0.760   4.326   1.554
 2486SOL    HW2 7791   0.756   4.274   1.399
 2487SOL     OW 7792   1.394   4.193   1.674
 2487SOL    HW1 7793   1.374   4.236   1.762
 2487SOL    HW2 7794   1.472   4.131   1.683
 2488SOL     OW 7795   0.973   4.614   1.572
 2488SOL    HW1 7796   1.019   4.530   1.543
 2488SOL    HW2 7797   0.917   4.648   1.497
 2489SOL     OW 7798   0.991   4.134   1.242
 2489SOL    HW1 7799   0.914   4.168   1.296
 2489SOL    HW2 7800   0.957   4.083   1.163
 2490SOL     OW 7801   1.041   4.425   0.429
 2490SOL    HW1 7802   1.067   4.421   0.525
 2490SOL    HW2 7803   0.956   4.374   0.415
 2491SOL     OW 7804   0.076   4.535   0.789
 2491SOL    HW1 7805   0.175   4.523   0.798
 2491SOL    HW2 7806   0.052   4.630   0.810
 2492SOL     OW 7807   0.865   4.072   0.195
 2492SOL    HW1 7808   0.924   4.135   0.146
 2492SOL    HW2 7809   0.884   3.978   0.166
 2493SOL     OW 7810   1.719   4.309   1.831
 2493SOL    HW1 7811   1.693   4.398   1.795
 2493SOL    HW2 7812   1.717   4.241   1.758
 2494SOL     OW 7813   0.550   3.920   0.885
 2494SOL    HW1 7814   0.545   3.915   0.985
 2494SOL    HW2 7815   0.552   4.016   0.856
 2495SOL     OW 7816   1.458   4.459   0.728
 2495SOL    HW1 7817   1.453   4.394   0.803
 2495SOL    HW2 7818   1.538   4.518   0.741
 2496SOL     OW 7819   0.202   4.009   1.498
 2496SOL    HW1 7820   0.122   4.069   1.485
 2496SOL    HW2 7821   0.192   3.960   1.584
 2497SOL     OW 7822   1.400   3.831   0.426
 2497SOL    HW1 7823   1.376   3.794   0.336
 2497SOL    HW2 7824   1.499   3.847   0.430
 2498SOL     OW 7825   0.382   4.424   0.480
 2498SOL    HW1 7826   0.427   4.334   0.477
 2498SOL    HW2 7827   0.288   4.413   0.513
 2499SOL     OW 7828   1.547   3.946   1.729
 2499SOL    HW1 7829   1.542   3.983   1.821
 2499SOL    HW2 7830   1.475   3.877   1.717
 2500SOL     OW 7831   0.614   3.846   0.117
 2500SOL    HW1 7832   0.712   3.824   0.124
 2500SOL    HW2 7833   0.583   3.829   0.024
 2501SOL     OW 7834   0.781   3.988   1.749
 2501SOL    HW1 7835   0.848   3.927   1.792
 2501SOL    HW2 7836   0.708   4.007   1.814
 2502SOL     OW 7837   1.351   4.314   1.433
 2502SOL    HW1 7838   1.379   4.271   1.518
 2502SOL    HW2 7839   1.376   4.410   1.434
 2503SOL     OW 7840   0.922   4.227   0.899
 2503SOL    HW1 7841   0.897   4.218   0.803
 2503SOL    HW2 7842   0.970   4.145   0.930
 2504SOL     OW 7843   0.539   3.788   0.512
 2504SOL    HW1 7844   0.458   3.789   0.570
 2504SOL    HW2 7845   0.542   3.871   0.457
 2505SOL     OW 7846   0.297   3.759   0.171
 2505SOL    HW1 7847   0.346   3.843   0.150
 2505SOL    HW2 7848   0.359   3.694   0.216
 2506SOL     OW 7849   0.935   3.960   0.480
 2506SOL    HW1 7850   0.887   4.001   0.402
 2506SOL    HW2 7851   1.034   3.958   0.461
 2507SOL     OW 7852   1.076   4.407   1.464
 2507SOL    HW1 7853   0.996   4.346   1.467
 2507SOL    HW2 7854   1.157   4.354   1.440
 2508SOL     OW 7855   1.032   4.273   0.016
 2508SOL    HW1 7856   0.991   4.355  -0.023
 2508SOL    HW2 7857   1.096   4.299   0.089
 2509SOL     OW 7858   0.078   4.280   1.386
 2509SOL    HW1 7859   0.170   4.279   1.345
 2509SOL    HW2 7860   0.072   4.354   1.453
 2510SOL     OW 7861   0.561   3.946   1.147
 2510SOL    HW1 7862   0.599   3.862   1.184
 2510SOL    HW2 7863   0.473   3.965   1.191
 2511SOL     OW 7864   0.866   4.178   0.642
 2511SOL    HW1 7865   0.834   4.250   0.580
 2511SOL    HW2 7866   0.890   4.097   0.589
 2512SOL     OW 7867   1.017   3.763   0.753
 2512SOL    HW1 7868   0.945   3.768   0.684
 2512SOL    HW2 7869   0.993   3.694   0.822
 2513SOL     OW 7870   1.466   4.314   0.992
 2513SOL    HW1 7871   1.436   4.219   0.999
 2513SOL    HW2 7872   1.539   4.330   1.058
 2514SOL     OW 7873   1.857   4.557   0.377
 2514SOL    HW1 7874   1.899   4.493   0.441
 2514SOL    HW2 7875   1.819   4.506   0.299
 2515SOL     OW 7876   1.390   4.299   0.078
 2515SOL    HW1 7877   1.336   4.278   0.159
 2515SOL    HW2 7878   1.481   4.258   0.087
 2516SOL     OW 7879   0.527   3.980   0.328
 2516SOL    HW1 7880   0.554   3.921   0.253
 2516SOL    HW2 7881   0.527   4.075   0.297
 2517SOL     OW 7882   1.638   4.823   1.079
 2517SOL    HW1 7883   1.643   4.904   1.138
 2517SOL    HW2 7884   1.552   4.825   1.028
 2518SOL     OW 7885   0.915   3.813   1.402
 2518SOL    HW1 7886   0.940   3.793   1.307
 2518SOL    HW2 7887   0.987   3.869   1.444
 2519SOL     OW 7888   0.410   4.537   1.251
 2519SOL    HW1 7889   0.496   4.549   1.301
 2519SOL    HW2 7890   0.368   4.450   1.278
 2520SOL     OW 7891   1.274   4.110   1.262
 2520SOL    HW1 7892   1.295   4.184   1.326
 2520SOL    HW2 7893   1.185   4.127   1.219
 2521SOL     OW 7894   0.566   4.261   0.865
 2521SOL    HW1 7895   0.578   4.327   0.791
 2521SOL    HW2 7896   0.612   4.295   0.948
 2522SOL     OW 7897   1.582   4.363   0.472
 2522SOL    HW1 7898   1.551   4.424   0.545
 2522SOL    HW2 7899   1.632   4.415   0.403
 2523SOL     OW 7900   0.402   4.475   1.598
 2523SOL    HW1 7901   0.470   4.530   1.551
 2523SOL    HW2 7902   0.442   4.387   1.625
 2524SOL     OW 7903   1.587   4.503   1.670
 2524SOL    HW1 7904   1.495   4.541   1.665
 2524SOL    HW2 7905   1.647   4.550   1.605
 2525SOL     OW 7906   1.013   3.829   1.770
 2525SOL    HW1 7907   1.019   3.914   1.718
 2525SOL    HW2 7908   1.045   3.753   1.713
 2526SOL     OW 7909   0.504   3.774   1.740
 2526SOL    HW1 7910   0.462   3.717   1.670
 2526SOL    HW2 7911   0.438   3.843   1.772
 2527SOL     OW 7912   0.573   4.594   1.029
 2527SOL    HW1 7913   0.617   4.683   1.020
 2527SOL    HW2 7914   0.510   4.594   1.106
 2528SOL     OW 7915   1.360   4.586   1.045
 2528SOL    HW1 7916   1.285   4.586   0.979
 2528SOL    HW2 7917   1.397   4.494   1.054
 2529SOL     OW 7918   1.209   4.249   0.275
 2529SOL    HW1 7919   1.222   4.165   0.329
 2529SOL    HW2 7920   1.180   4.323   0.335
 2530SOL     OW 7921   0.307   3.937   1.231
 2530SOL    HW1 7922   0.284   3.974   1.321
 2530SOL    HW2 7923   0.277   3.842   1.225
 2531SOL     OW 7924   0.037   5.034   1.282
 2531SOL    HW1 7925   0.090   4.985   1.350
 2531SOL    HW2 7926   0.059   5.132   1.287
 2532SOL     OW 7927   0.732   4.358   1.064
 2532SOL    HW1 7928   0.791   4.332   0.988
 2532SOL    HW2 7929   0.704   4.454   1.053
 2533SOL     OW 7930   1.728   4.659   1.854
 2533SOL    HW1 7931   1.682   4.652   1.765
 2533SOL    HW2 7932   1.666   4.703   1.920
 2534SOL     OW 7933   0.307   3.787   0.618
 2534SOL    HW1 7934   0.296   3.881   0.651
 2534SOL    HW2 7935   0.302   3.724   0.695
 2535SOL     OW 7936   1.622   4.091   0.374
 2535SOL    HW1 7937   1.624   4.015   0.438
 2535SOL    HW2 7938   1.574   4.168   0.414
 2536SOL     OW 7939   1.023   4.490   0.966
 2536SOL    HW1 7940   1.038   4.511   1.062
 2536SOL    HW2 7941   0.993   4.395   0.957
 2537SOL     OW 7942   0.350   4.622   1.804
 2537SOL    HW1 7943   0.426   4.666   1.852
 2537SOL    HW2 7944   0.385   4.575   1.722
 2538SOL     OW 7945   1.540   3.998   0.125
 2538SOL    HW1 7946   1.479   3.923   0.148
 2538SOL    HW2 7947   1.562   4.050   0.208
 2539SOL     OW 7948   1.303   4.562   0.042
 2539SOL    HW1 7949   1.337   4.469   0.057
 2539SOL    HW2 7950   1.321   4.589  -0.053
 2540SOL     OW 7951   0.319   4.534   0.949
 2540SOL    HW1 7952   0.412   4.570   0.954
 2540SOL    HW2 7953   0.313   4.449   1.001
 2541SOL     OW 7954   0.339   4.233   1.006
 2541SOL    HW1 7955   0.287   4.150   0.989
 2541SOL    HW2 7956   0.416   4.238   0.942
 2542SOL     OW 7957   1.138   4.104   1.678
 2542SOL    HW1 7958   1.093   4.167   1.742
 2542SOL    HW2 7959   1.231   4.135   1.661
 2543SOL     OW 7960   1.160   3.931   1.477
 2543SOL    HW1 7961   1.160   3.995   1.554
 2543SOL    HW2 7962   1.188   3.979   1.394
 2544SOL     OW 7963   1.002   4.520   1.238
 2544SOL    HW1 7964   1.043   4.488   1.324
 2544SOL    HW2 7965   0.906   4.493   1.235
 2545SOL     OW 7966   0.040   4.268   1.114
 2545SOL    HW1 7967   0.125   4.235   1.073
 2545SOL    HW2 7968   0.053   4.283   1.212
 2546SOL     OW 7969   0.189   4.244   1.722
 2546SOL    HW1 7970   0.248   4.204   1.652
 2546SOL    HW2 7971   0.131   4.315   1.681
 2547SOL     OW 7972   1.369   4.674   1.660
 2547SOL    HW1 7973   1.408   4.763   1.680
 2547SOL    HW2 7974   1.379   4.654   1.563
 2548SOL     OW 7975   0.815   4.296   0.325
 2548SOL    HW1 7976   0.822   4.207   0.279
 2548SOL    HW2 7977   0.721   4.330   0.317
 2549SOL     OW 7978   1.657   4.328   1.206
 2549SOL    HW1 7979   1.619   4.259   1.268
 2549SOL    HW2 7980   1.739   4.292   1.162
 2550SOL     OW 7981   0.671   4.188   1.269
 2550SOL    HW1 7982   0.637   4.099   1.239
 2550SOL    HW2 7983   0.697   4.242   1.189
 2551SOL     OW 7984   0.473   4.224   0.191
 2551SOL    HW1 7985   0.534   4.304   0.195
 2551SOL    HW2 7986   0.378   4.255   0.198
 2552SOL     OW 7987   1.347   4.783   1.234
 2552SOL    HW1 7988   1.371   4.720   1.160
 2552SOL    HW2 7989   1.257   4.823   1.216
 2553SOL     OW 7990   1.302   4.579   0.309
 2553SOL    HW1 7991   1.216   4.548   0.351
 2553SOL    HW2 7992   1.298   4.565   0.210
 2554SOL     OW 7993   0.903   3.810   0.133
 2554SOL    HW1 7994   0.954   3.811   0.047
 2554SOL    HW2 7995   0.959   3.768   0.204
 2555SOL     OW 7996   1.726   3.859   0.523
 2555SOL    HW1 7997   1.799   3.842   0.456
 2555SOL    HW2 7998   1.695   3.772   0.561
 2556SOL     OW 7999   1.280   4.651   0.672
 2556SOL    HW1 8000   1.340   4.570   0.674
 2556SOL    HW2 8001   1.320   4.720   0.612
 2557SOL     OW 8002   1.841   3.899   0.963
 2557SOL    HW1 8003   1.880   3.814   0.927
 2557SOL    HW2 8004   1.743   3.901   0.944
 2558SOL     OW 8005   0.263   4.050   0.720
 2558SOL    HW1 8006   0.184   4.101   0.686
 2558SOL    HW2 8007   0.254   4.035   0.818
 2559SOL     OW 8008   1.014   3.960   0.971
 2559SOL    HW1 8009   1.006   3.924   0.878
 2559SOL    HW2 8010   1.012   3.884   1.036
 2560SOL     OW 8011   1.709   4.109   1.381
 2560SOL    HW1 8012   1.782   4.178   1.385
 2560SOL    HW2 8013   1.737   4.034   1.322
 2561SOL     OW 8014   0.105   4.737   1.726
 2561SOL    HW1 8015   0.028   4.704   1.780
 2561SOL    HW2 8016   0.190   4.707   1.768
 2562SOL     OW 8017   0.672   3.927   1.489
 2562SOL    HW1 8018   0.762   3.911   1.449
 2562SOL    HW2 8019   0.680   3.932   1.588
 2563SOL     OW 8020   0.075   4.069   0.033
 2563SOL    HW1 8021  -0.017   4.041   0.004
 2563SOL    HW2 8022   0.106   4.146  -0.023
 2564SOL     OW 8023   1.440   4.580   1.398
 2564SOL    HW1 8024   1.383   4.632   1.335
 2564SOL    HW2 8025   1.536   4.592   1.374
 2565SOL     OW 8026   0.072   3.890   0.318
 2565SOL    HW1 8027   0.055   3.973   0.264
 2565SOL    HW2 8028   0.162   3.853   0.296
 2566SOL     OW 8029   0.613   4.566   1.431
 2566SOL    HW1 8030   0.669   4.647   1.414
 2566SOL    HW2 8031   0.672   4.486   1.434
 2567SOL     OW 8032   0.716   4.289   1.708
 2567SOL    HW1 8033   0.735   4.354   1.782
 2567SOL    HW2 8034   0.776   4.209   1.717
 2568SOL     OW 8035   1.674   4.607   1.254
 2568SOL    HW1 8036   1.647   4.518   1.217
 2568SOL    HW2 8037   1.675   4.675   1.181
 2569SOL     OW 8038   1.225   4.049   0.449
 2569SOL    HW1 8039   1.290   3.975   0.438
 2569SOL    HW2 8040   1.245   4.099   0.533
 2570SOL     OW 8041   0.594   4.469   0.652
 2570SOL    HW1 8042   0.644   4.554   0.633
 2570SOL    HW2 8043   0.506   4.471   0.604
 2571SOL     OW 8044   1.777   4.066   1.642
 2571SOL    HW1 8045   1.760   4.097   1.548
 2571SOL    HW2 8046   1.693   4.029   1.680
 2572SOL     OW 8047   1.730   4.658   1.517
 2572SOL    HW1 8048   1.768   4.749   1.532
 2572SOL    HW2 8049   1.722   4.641   1.418
 2573SOL     OW 8050   1.824   3.916   1.227
 2573SOL    HW1 8051   1.820   3.826   1.271
 2573SOL    HW2 8052   1.827   3.905   1.128
 2574SOL     OW 8053   0.428   4.148   0.520
 2574SOL    HW1 8054   0.458   4.076   0.458
 2574SOL    HW2 8055   0.389   4.108   0.603
 2575SOL     OW 8056   0.317   4.271   1.280
 2575SOL    HW1 8057   0.355   4.212   1.352
 2575SOL    HW2 8058   0.357   4.245   1.192
 2576SOL     OW 8059   1.424   3.938   1.112
 2576SOL    HW1 8060   1.476   3.873   1.167
 2576SOL    HW2 8061   1.375   4.001   1.173
 2577SOL     OW 8062   1.001   3.758   1.154
 2577SOL    HW1 8063   0.938   3.686   1.123
 2577SOL    HW2 8064   1.094   3.722   1.154
 2578SOL     OW 8065   1.352   3.776   0.168
 2578SOL    HW1 8066   1.387   3.735   0.084
 2578SOL    HW2 8067   1.262   3.738   0.188
 2579SOL     OW 8068   1.300   4.177   0.691
 2579SOL    HW1 8069   1.241   4.257   0.695
 2579SOL    HW2 8070   1.315   4.142   0.784
 2580SOL     OW 8071   1.593   3.945   0.882
 2580SOL    HW1 8072   1.509   3.944   0.936
 2580SOL    HW2 8073   1.595   4.028   0.826
 2581SOL     OW 8074   0.230   4.352   1.975
 2581SOL    HW1 8075   0.137   4.350   2.012
 2581SOL    HW2 8076   0.231   4.313   1.883
 2582SOL     OW 8077   0.225   3.999   2.858
 2582SOL    HW1 8078   0.260   3.982   2.950
 2582SOL    HW2 8079   0.137   3.954   2.846
 2583SOL     OW 8080   0.019   4.092   2.509
 2583SOL    HW1 8081  -0.063   4.135   2.548
 2583SOL    HW2 8082  -0.009   4.019   2.446
 2584SOL     OW 8083   1.135   4.427   2.579
 2584SOL    HW1 8084   1.192   4.505   2.554
 2584SOL    HW2 8085   1.075   4.453   2.655
 2585SOL     OW 8086   1.755   4.331   2.093
 2585SOL    HW1 8087   1.743   4.318   1.994
 2585SOL    HW2 8088   1.725   4.250   2.142
 2586SOL     OW 8089   0.850   4.522   3.685
 2586SOL    HW1 8090   0.846   4.598   3.750
 2586SOL    HW2 8091   0.872   4.558   3.594
 2587SOL     OW 8092   0.685   4.736   2.527
 2587SOL    HW1 8093   0.754   4.720   2.597
 2587SOL    HW2 8094   0.612   4.793   2.565
 2588SOL     OW 8095   0.438   4.116   3.361
 2588SOL    HW1 8096   0.520   4.060   3.370
 2588SOL    HW2 8097   0.357   4.058   3.365
 2589SOL     OW 8098   1.603   4.171   2.599
 2589SOL    HW1 8099   1.529   4.217   2.549
 2589SOL    HW2 8100   1.654   4.239   2.652
 2590SOL     OW 8101   1.594   3.838   3.342
 2590SOL    HW1 8102   1.576   3.905   3.270
 2590SOL    HW2 8103   1.591   3.884   3.431
 2591SOL     OW 8104   0.122   4.367   2.425
 2591SOL    HW1 8105   0.077   4.279   2.442
 2591SOL    HW2 8106   0.121   4.421   2.509
 2592SOL     OW 8107   0.113   4.461   3.459
 2592SOL    HW1 8108   0.201   4.448   3.504
 2592SOL    HW2 8109   0.100   4.558   3.437
 2593SOL     OW 8110   0.809   3.728   2.364
 2593SOL    HW1 8111   0.849   3.819   2.355
 2593SOL    HW2 8112   0.709   3.736   2.370
 2594SOL     OW 8113   0.197   4.700   3.126
 2594SOL    HW1 8114   0.286   4.655   3.112
 2594SOL    HW2 8115   0.124   4.635   3.107
 2595SOL     OW 8116   1.525   4.723   2.052
 2595SOL    HW1 8117   1.462   4.647   2.065
 2595SOL    HW2 8118   1.573   4.741   2.138
 2596SOL     OW 8119   0.317   3.975   3.663
 2596SOL    HW1 8120   0.388   4.046   3.669
 2596SOL    HW2 8121   0.229   4.014   3.691
 2597SOL     OW 8122   0.598   4.453   2.132
 2597SOL    HW1 8123   0.622   4.522   2.064
 2597SOL    HW2 8124   0.520   4.486   2.186
 2598SOL     OW 8125   1.281   4.069   2.806
 2598SOL    HW1 8126   1.195   4.019   2.793
 2598SOL    HW2 8127   1.343   4.015   2.862
 2599SOL     OW 8128   0.807   4.329   3.327
 2599SOL    HW1 8129   0.760   4.326   3.416
 2599SOL    HW2 8130   0.756   4.274   3.261
 2600SOL     OW 8131   1.394   4.193   3.536
 2600SOL    HW1 8132   1.374   4.236   3.624
 2600SOL    HW2 8133   1.472   4.131   3.545
 2601SOL     OW 8134   0.973   4.614   3.434
 2601SOL    HW1 8135   1.019   4.530   3.405
 2601SOL    HW2 8136   0.917   4.648   3.359
 2602SOL     OW 8137   0.991   4.134   3.104
 2602SOL    HW1 8138   0.914   4.168   3.158
 2602SOL    HW2 8139   0.957   4.083   3.025
 2603SOL     OW 8140   1.041   4.425   2.291
 2603SOL    HW1 8141   1.067   4.421   2.387
 2603SOL    HW2 8142   0.956   4.374   2.277
 2604SOL     OW 8143   0.076   4.535   2.651
 2604SOL    HW1 8144   0.175   4.523   2.660
 2604SOL    HW2 8145   0.052   4.630   2.672
 2605SOL     OW 8146   0.865   4.072   2.057
 2605SOL    HW1 8147   0.924   4.135   2.008
 2605SOL    HW2 8148   0.884   3.978   2.028
 2606SOL     OW 8149   1.719   4.309   3.693
 2606SOL    HW1 8150   1.693   4.398   3.657
 2606SOL    HW2 8151   1.717   4.241   3.620
 2607SOL     OW 8152   0.550   3.920   2.747
 2607SOL    HW1 8153   0.545   3.915   2.847
 2607SOL    HW2 8154   0.552   4.016   2.718
 2608SOL     OW 8155   1.458   4.459   2.590
 2608SOL    HW1 8156   1.453   4.394   2.665
 2608SOL    HW2 8157   1.538   4.518   2.603
 2609SOL     OW 8158   0.202   4.009   3.360
 2609SOL    HW1 8159   0.122   4.069   3.347
 2609SOL    HW2 8160   0.192   3.960   3.446
 2610SOL     OW 8161   1.400   3.831   2.288
 2610SOL    HW1 8162   1.376   3.794   2.198
 2610SOL    HW2 8163   1.499   3.847   2.292
 2611SOL     OW 8164   0.382   4.424   2.342
 2611SOL    HW1 8165   0.427   4.334   2.339
 2611SOL    HW2 8166   0.288   4.413   2.375
 2612SOL     OW 8167   1.547   3.946   3.591
 2612SOL    HW1 8168   1.542   3.983   3.683
 2612SOL    HW2 8169   1.475   3.877   3.579
 2613SOL     OW 8170   0.614   3.846   1.979
 2613SOL    HW1 8171   0.712   3.824   1.986
 2613SOL    HW2 8172   0.583   3.829   1.886
 2614SOL     OW 8173   0.781   3.988   3.611
 2614SOL    HW1 8174   0.848   3.927   3.654
 2614SOL    HW2 8175   0.708   4.007   3.676
 2615SOL     OW 8176   1.351   4.314   3.295
 2615SOL    HW1 8177   1.379   4.271   3.380
 2615SOL    HW2 8178   1.376   4.410   3.296
 2616SOL     OW 8179   0.922   4.227   2.761
 2616SOL    HW1 8180   0.897   4.218   2.665
 2616SOL    HW2 8181   0.970   4.145   2.792
 2617SOL     OW 8182   0.539   3.788   2.374
 2617SOL    HW1 8183   0.458   3.789   2.432
 2617SOL    HW2 8184   0.542   3.871   2.319
 2618SOL     OW 8185   0.297   3.759   2.033
 2618SOL    HW1 8186   0.346   3.843   2.012
 2618SOL    HW2 8187   0.359   3.694   2.078
 2619SOL     OW 8188   0.935   3.960   2.342
 2619SOL    HW1 8189   0.887   4.001   2.264
 2619SOL    HW2 8190   1.034   3.958   2.323
 2620SOL     OW 8191   1.076   4.407   3.326
 2620SOL    HW1 8192   0.996   4.346   3.329
 2620SOL    HW2 8193   1.157   4.354   3.302
 2621SOL     OW 8194   1.032   4.273   1.878
 2621SOL    HW1 8195   0.991   4.355   1.839
 2621SOL    HW2 8196   1.096   4.299   1.951
 2622SOL     OW 8197   0.078   4.280   3.248
 2622SOL    HW1 8198   0.170   4.279   3.207
 2622SOL    HW2 8199   0.072   4.354   3.315
 2623SOL     OW 8200   0.561   3.946   3.009
 2623SOL    HW1 8201   0.599   3.862   3.046
 2623SOL    HW2 8202   0.473   3.965   3.053
 2624SOL     OW 8203   0.866   4.178   2.504
 2624SOL    HW1 8204   0.834   4.250   2.442
 2624SOL    HW2 8205   0.890   4.097   2.451
 2625SOL     OW 8206   1.017   3.763   2.615
 2625SOL    HW1 8207   0.945   3.768   2.546
 2625SOL    HW2 8208   0.993   3.694   2.684
 2626SOL     OW 8209   1.466   4.314   2.854
 2626SOL    HW1 8210   1.436   4.219   2.861
 2626SOL    HW2 8211   1.539   4.330   2.920
 2627SOL     OW 8212   1.857   4.557   2.239
 2627SOL    HW1 8213   1.899   4.493   2.303
 2627SOL    HW2 8214   1.819   4.506   2.161
 2628SOL     OW 8215   1.390   4.299   1.940
 2628SOL    HW1 8216   1.336   4.278   2.021
 2628SOL    HW2 8217   1.481   4.258   1.949
 2629SOL     OW 8218   0.527   3.980   2.190
 2629SOL    HW1 8219   0.554   3.921   2.115
 2629SOL    HW2 8220   0.527   4.075   2.159
 2630SOL     OW 8221   1.638   4.823   2.941
 2630SOL    HW1 8222   1.643   4.904   3.000
 2630SOL    HW2 8223   1.552   4.825   2.890
 2631SOL     OW 8224   0.915   3.813   3.264
 2631SOL    HW1 8225   0.940   3.793   3.169
 2631SOL    HW2 8226   0.987   3.869   3.306
 2632SOL     OW 8227   0.410   4.537   3.113
 2632SOL    HW1 8228   0.496   4.549   3.163
 2632SOL    HW2 8229   0.368   4.450   3.140
 2633SOL     OW 8230   1.274   4.110   3.124
 2633SOL    HW1 8231   1.295   4.184   3.188
 2633SOL    HW2 8232   1.185   4.127   3.081
 2634SOL     OW 8233   0.566   4.261   2.727
 2634SOL    HW1 8234   0.578   4.327   2.653
 2634SOL    HW2 8235   0.612   4.295   2.810
 2635SOL     OW 8236   1.582   4.363   2.334
 2635SOL    HW1 8237   1.551   4.424   2.407
 2635SOL    HW2 8238   1.632   4.415   2.265
 2636SOL     OW 8239   0.402   4.475   3.460
 2636SOL    HW1 8240   0.470   4.530   3.413
 2636SOL    HW2 8241   0.442   4.387   3.487
 2637SOL     OW 8242   1.587   4.503   3.532
 2637SOL    HW1 8243   1.495   4.541   3.527
 2637SOL    HW2 8244   1.647   4.550   3.467
 2638SOL     OW 8245   1.013   3.829   3.632
 2638SOL    HW1 8246   1.019   3.914   3.580
 2638SOL    HW2 8247   1.045   3.753   3.575
 2639SOL     OW 8248   0.504   3.774   3.602
 2639SOL    HW1 8249   0.462   3.717   3.532
 2639SOL    HW2 8250   0.438   3.843   3.634
 2640SOL     OW 8251   0.573   4.594   2.891
 2640SOL    HW1 8252   0.617   4.683   2.882
 2640SOL    HW2 8253   0.510   4.594   2.968
 2641SOL     OW 8254   1.360   4.586   2.907
 2641SOL    HW1 8255   1.285   4.586   2.841
 2641SOL    HW2 8256   1.397   4.494   2.916
 2642SOL     OW 8257   1.209   4.249   2.137
 2642SOL    HW1 8258   1.222   4.165   2.191
 2642SOL    HW2 8259   1.180   4.323   2.197
 2643SOL     OW 8260   0.307   3.937   3.093
 2643SOL    HW1 8261   0.284   3.974   3.183
 2643SOL    HW2 8262   0.277   3.842   3.087
 2644SOL     OW 8263   0.037   5.034   3.144
 2644SOL    HW1 8264   0.090   4.985   3.212
 2644SOL    HW2 8265   0.059   5.132   3.149
 2645SOL     OW 8266   0.732   4.358   2.926
 2645SOL    HW1 8267   0.791   4.332   2.850
 2645SOL    HW2 8268   0.704   4.454   2.915
 2646SOL     OW 8269   1.728   4.659   3.716
 2646SOL    HW1 8270   1.682   4.652   3.627
 2646SOL    HW2 8271   1.666   4.703   3.782
 2647SOL     OW 8272   0.307   3.787   2.480
 2647SOL    HW1 8273   0.296   3.881   2.513
 2647SOL    HW2 8274   0.302   3.724   2.557
 2648SOL     OW 8275   1.622   4.091   2.236
 2648SOL    HW1 8276   1.624   4.015   2.300
 2648SOL    HW2 8277   1.574   4.168   2.276
 2649SOL     OW 8278   1.023   4.490   2.828
 2649SOL    HW1 8279   1.038   4.511   2.924
 2649SOL    HW2 8280   0.993   4.395   2.819
 2650SOL     OW 8281   0.350   4.622   3.666
 2650SOL    HW1 8282   0.426   4.666   3.714
 2650SOL    HW2 8283   0.385   4.575   3.584
 2651SOL     OW 8284   1.540   3.998   1.987
 2651SOL    HW1 8285   1.479   3.923   2.010
 2651SOL    HW2 8286   1.562   4.050   2.070
 2652SOL     OW 8287   1.303   4.562   1.904
 2652SOL    HW1 8288   1.337   4.469   1.919
 2652SOL    HW2 8289   1.321   4.589   1.809
 2653SOL     OW 8290   0.319   4.534   2.811
 2653SOL    HW1 8291   0.412   4.570   2.816
 2653SOL    HW2 8292   0.313   4.449   2.863
 2654SOL     OW 8293   0.339   4.233   2.868
 2654SOL    HW1 8294   0.287   4.150   2.851
 2654SOL    HW2 8295   0.416   4.238   2.804
 2655SOL     OW 8296   1.138   4.104   3.540
 2655SOL    HW1 8297   1.093   4.167   3.604
 2655SOL    HW2 8298   1.231   4.135   3.523
 2656SOL     OW 8299   1.160   3.931   3.339
 2656SOL    HW1 8300   1.160   3.995   3.416
 2656SOL    HW2 8301   1.188   3.979   3.256
 2657SOL     OW 8302   1.002   4.520   3.100
 2657SOL    HW1 8303   1.043   4.488   3.186
 2657SOL    HW2 8304   0.906   4.493   3.097
 2658SOL     OW 8305   0.040   4.268   2.976
 2658SOL    HW1 8306   0.125   4.235   2.935
 2658SOL    HW2 8307   0.053   4.283   3.074
 2659SOL     OW 8308   0.189   4.244   3.584
 2659SOL    HW1 8309   0.248   4.204   3.514
 2659SOL    HW2 8310   0.131   4.315   3.543
 2660SOL     OW 8311   1.369   4.674   3.522
 2660SOL    HW1 8312   1.408   4.763   3.542
 2660SOL    HW2 8313   1.379   4.654   3.425
 2661SOL     OW 8314   0.815   4.296   2.187
 2661SOL    HW1 8315   0.822   4.207   2.141
 2661SOL    HW2 8316   0.721   4.330   2.179
 2662SOL     OW 8317   1.657   4.328   3.068
 2662SOL    HW1 8318   1.619   4.259   3.130
 2662SOL    HW2 8319   1.739   4.292   3.024
 2663SOL     OW 8320   0.671   4.188   3.131
 2663SOL    HW1 8321   0.637   4.099   3.101
 2663SOL    HW2 8322   0.697   4.242   3.051
 2664SOL     OW 8323   0.473   4.224   2.053
 2664SOL    HW1 8324   0.534   4.304   2.057
 2664SOL    HW2 8325   0.378   4.255   2.060
 2665SOL     OW 8326   1.347   4.783   3.096
 2665SOL    HW1 8327   1.371   4.720   3.022
 2665SOL    HW2 8328   1.257   4.823   3.078
 2666SOL     OW 8329   1.302   4.579   2.171
 2666SOL    HW1 8330   1.216   4.548   2.213
 2666SOL    HW2 8331   1.298   4.565   2.072
 2667SOL     OW 8332   1.726   3.859   2.385
 2667SOL    HW1 8333   1.799   3.842   2.318
 2667SOL    HW2 8334   1.695   3.772   2.423
 2668SOL     OW 8335   1.280   4.651   2.534
 2668SOL    HW1 8336   1.340   4.570   2.536
 2668SOL    HW2 8337   1.320   4.720   2.474
 2669SOL     OW 8338   1.841   3.899   2.825
 2669SOL    HW1 8339   1.880   3.814   2.789
 2669SOL    HW2 8340   1.743   3.901   2.806
 2670SOL     OW 8341   0.263   4.050   2.582
 2670SOL    HW1 8342   0.184   4.101   2.548
 2670SOL    HW2 8343   0.254   4.035   2.680
 2671SOL     OW 8344   0.916   4.634   2.153
 2671SOL    HW1 8345   0.979   4.672   2.085
 2671SOL    HW2 8346   0.956   4.551   2.192
 2672SOL     OW 8347   1.014   3.960   2.833
 2672SOL    HW1 8348   1.006   3.924   2.740
 2672SOL    HW2 8349   1.012   3.884   2.898
 2673SOL     OW 8350   1.709   4.109   3.243
 2673SOL    HW1 8351   1.782   4.178   3.247
 2673SOL    HW2 8352   1.737   4.034   3.184
 2674SOL     OW 8353   0.105   4.737   3.588
 2674SOL    HW1 8354   0.028   4.704   3.642
 2674SOL    HW2 8355   0.190   4.707   3.630
 2675SOL     OW 8356   0.672   3.927   3.351
 2675SOL    HW1 8357   0.762   3.911   3.311
 2675SOL    HW2 8358   0.680   3.932   3.450
 2676SOL     OW 8359   0.075   4.069   1.895
 2676SOL    HW1 8360  -0.017   4.041   1.866
 2676SOL    HW2 8361   0.106   4.146   1.839
 2677SOL     OW 8362   1.440   4.580   3.260
 2677SOL    HW1 8363   1.383   4.632   3.197
 2677SOL    HW2 8364   1.536   4.592   3.236
 2678SOL     OW 8365   0.072   3.890   2.180
 2678SOL    HW1 8366   0.055   3.973   2.126
 2678SOL    HW2 8367   0.162   3.853   2.158
 2679SOL     OW 8368   0.613   4.566   3.293
 2679SOL    HW1 8369   0.669   4.647   3.276
 2679SOL    HW2 8370   0.672   4.486   3.296
 2680SOL     OW 8371   0.716   4.289   3.570
 2680SOL    HW1 8372   0.735   4.354   3.644
 2680SOL    HW2 8373   0.776   4.209   3.579
 2681SOL     OW 8374   1.674   4.607   3.116
 2681SOL    HW1 8375   1.647   4.518   3.079
 2681SOL    HW2 8376   1.675   4.675   3.043
 2682SOL     OW 8377   1.225   4.049   2.311
 2682SOL    HW1 8378   1.290   3.975   2.300
 2682SOL    HW2 8379   1.245   4.099   2.395
 2683SOL     OW 8380   0.594   4.469   2.514
 2683SOL    HW1 8381   0.644   4.554   2.495
 2683SOL    HW2 8382   0.506   4.471   2.466
 2684SOL     OW 8383   1.777   4.066   3.504
 2684SOL    HW1 8384   1.760   4.097   3.410
 2684SOL    HW2 8385   1.693   4.029   3.542
 2685SOL     OW 8386   1.730   4.658   3.379
 2685SOL    HW1 8387   1.768   4.749   3.394
 2685SOL    HW2 8388   1.722   4.641   3.280
 2686SOL     OW 8389   1.824   3.916   3.089
 2686SOL    HW1 8390   1.820   3.826   3.133
 2686SOL    HW2 8391   1.827   3.905   2.990
 2687SOL     OW 8392   0.428   4.148   2.382
 2687SOL    HW1 8393   0.458   4.076   2.320
 2687SOL    HW2 8394   0.389   4.108   2.465
 2688SOL     OW 8395   0.317   4.271   3.142
 2688SOL    HW1 8396   0.355   4.212   3.214
 2688SOL    HW2 8397   0.357   4.245   3.054
 2689SOL     OW 8398   1.424   3.938   2.974
 2689SOL    HW1 8399   1.476   3.873   3.029
 2689SOL    HW2 8400   1.375   4.001   3.035
 2690SOL     OW 8401   1.001   3.758   3.016
 2690SOL    HW1 8402   0.938   3.686   2.985
 2690SOL    HW2 8403   1.094   3.722   3.016
 2691SOL     OW 8404   1.352   3.776   2.030
 2691SOL    HW1 8405   1.387   3.735   1.946
 2691SOL    HW2 8406   1.262   3.738   2.050
 2692SOL     OW 8407   1.300   4.177   2.553
 2692SOL    HW1 8408   1.241   4.257   2.557
 2692SOL    HW2 8409   1.315   4.142   2.646
 2693SOL     OW 8410   1.593   3.945   2.744
 2693SOL    HW1 8411   1.509   3.944   2.798
 2693SOL    HW2 8412   1.595   4.028   2.688
 2694SOL     OW 8413   0.230   4.352   3.837
 2694SOL    HW1 8414   0.137   4.350   3.874
 2694SOL    HW2 8415   0.231   4.313   3.745
 2695SOL     OW 8416   0.225   3.999   4.720
 2695SOL    HW1 8417   0.260   3.982   4.812
 2695SOL    HW2 8418   0.137   3.954   4.708
 2696SOL     OW 8419   0.019   4.092   4.371
 2696SOL    HW1 8420  -0.063   4.135   4.410
 2696SOL    HW2 8421  -0.009   4.019   4.308
 2697SOL     OW 8422   1.135   4.427   4.441
 2697SOL    HW1 8423   1.192   4.505   4.416
 2697SOL    HW2 8424   1.075   4.453   4.517
 2698SOL     OW 8425   1.755   4.331   3.955
 2698SOL    HW1 8426   1.743   4.318   3.856
 2698SOL    HW2 8427   1.725   4.250   4.004
 2699SOL     OW 8428   0.850   4.522   5.547
 2699SOL    HW1 8429   0.846   4.598   5.612
 2699SOL    HW2 8430   0.872   4.558   5.456
 2700SOL     OW 8431   0.685   4.736   4.389
 2700SOL    HW1 8432   0.754   4.720   4.459
 2700SOL    HW2 8433   0.612   4.793   4.427
 2701SOL     OW 8434   0.438   4.116   5.223
 2701SOL    HW1 8435   0.520   4.060   5.232
 2701SOL    HW2 8436   0.357   4.058   5.227
 2702SOL     OW 8437   1.603   4.171   4.461
 2702SOL    HW1 8438   1.529   4.217   4.411
 2702SOL    HW2 8439   1.654   4.239   4.514
 2703SOL     OW 8440   1.594   3.838   5.204
 2703SOL    HW1 8441   1.576   3.905   5.132
 2703SOL    HW2 8442   1.591   3.884   5.293
 2704SOL     OW 8443   0.122   4.367   4.287
 2704SOL    HW1 8444   0.077   4.279   4.304
 2704SOL    HW2 8445   0.121   4.421   4.371
 2705SOL     OW 8446   0.113   4.461   5.321
 2705SOL    HW1 8447   0.201   4.448   5.366
 2705SOL    HW2 8448   0.100   4.558   5.299
 2706SOL     OW 8449   0.809   3.728   4.226
 2706SOL    HW1 8450   0.849   3.819   4.217
 2706SOL    HW2 8451   0.709   3.736   4.232
 2707SOL     OW 8452   0.197   4.700   4.988
 2707SOL    HW1 8453   0.286   4.655   4.974
 2707SOL    HW2 8454   0.124   4.635   4.969
 2708SOL     OW 8455   1.525   4.723   3.914
 2708SOL    HW1 8456   1.462   4.647   3.927
 2708SOL    HW2 8457   1.573   4.741   4.000
 2709SOL     OW 8458   0.317   3.975   5.525
 2709SOL    HW1 8459   0.388   4.046   5.531
 2709SOL    HW2 8460   0.229   4.014   5.553
 2710SOL     OW 8461   0.598   4.453   3.994
 2710SOL    HW1 8462   0.622   4.522   3.926
 2710SOL    HW2 8463   0.520   4.486   4.048
 2711SOL     OW 8464   1.281   4.069   4.668
 2711SOL    HW1 8465   1.195   4.019   4.655
 2711SOL    HW2 8466   1.343   4.015   4.724
 2712SOL     OW 8467   0.807   4.329   5.189
 2712SOL    HW1 8468   0.760   4.326   5.278
 2712SOL    HW2 8469   0.756   4.274   5.123
 2713SOL     OW 8470   1.394   4.193   5.398
 2713SOL    HW1 8471   1.374   4.236   5.486
 2713SOL    HW2 8472   1.472   4.131   5.407
 2714SOL     OW 8473   0.973   4.614   5.296
 2714SOL    HW1 8474   1.019   4.530   5.267
 2714SOL    HW2 8475   0.917   4.648   5.221
 2715SOL     OW 8476   0.991   4.134   4.966
 2715SOL    HW1 8477   0.914   4.168   5.020
 2715SOL    HW2 8478   0.957   4.083   4.887
 2716SOL     OW 8479   1.041   4.425   4.153
 2716SOL    HW1 8480   1.067   4.421   4.249
 2716SOL    HW2 8481   0.956   4.374   4.139
 2717SOL     OW 8482   0.076   4.535   4.513
 2717SOL    HW1 8483   0.175   4.523   4.522
 2717SOL    HW2 8484   0.052   4.630   4.534
 2718SOL     OW 8485   0.865   4.072   3.919
 2718SOL    HW1 8486   0.924   4.135   3.870
 2718SOL    HW2 8487   0.884   3.978   3.890
 2719SOL     OW 8488   1.719   4.309   5.555
 2719SOL    HW1 8489   1.693   4.398   5.519
 2719SOL    HW2 8490   1.717   4.241   5.482
 2720SOL     OW 8491   0.550   3.920   4.609
 2720SOL    HW1 8492   0.545   3.915   4.709
 2720SOL    HW2 8493   0.552   4.016   4.580
 2721SOL     OW 8494   1.458   4.459   4.452
 2721SOL    HW1 8495   1.453   4.394   4.527
 2721SOL    HW2 8496   1.538   4.518   4.465
 2722SOL     OW 8497   0.202   4.009   5.222
 2722SOL    HW1 8498   0.122   4.069   5.209
 2722SOL    HW2 8499   0.192   3.960   5.308
 2723SOL     OW 8500   1.400   3.831   4.150
 2723SOL    HW1 8501   1.376   3.794   4.060
 2723SOL    HW2 8502   1.499   3.847   4.154
 2724SOL     OW 8503   0.382   4.424   4.204
 2724SOL    HW1 8504   0.427   4.334   4.201
 2724SOL    HW2 8505   0.288   4.413   4.237
 2725SOL     OW 8506   1.547   3.946   5.453
 2725SOL    HW1 8507   1.542   3.983   5.545
 2725SOL    HW2 8508   1.475   3.877   5.441
 2726SOL     OW 8509   0.614   3.846   3.841
 2726SOL    HW1 8510   0.712   3.824   3.848
 2726SOL    HW2 8511   0.583   3.829   3.748
 2727SOL     OW 8512   0.781   3.988   5.473
 2727SOL    HW1 8513   0.848   3.927   5.516
 2727SOL    HW2 8514   0.708   4.007   5.538
 2728SOL     OW 8515   1.351   4.314   5.157
 2728SOL    HW1 8516   1.379   4.271   5.242
 2728SOL    HW2 8517   1.376   4.410   5.158
 2729SOL     OW 8518   0.922   4.227   4.623
 2729SOL    HW1 8519   0.897   4.218   4.527
 2729SOL    HW2 8520   0.970   4.145   4.654
 2730SOL     OW 8521   0.539   3.788   4.236
 2730SOL    HW1 8522   0.458   3.789   4.294
 2730SOL    HW2 8523   0.542   3.871   4.181
 2731SOL     OW 8524   0.297   3.759   3.895
 2731SOL    HW1 8525   0.346   3.843   3.874
 2731SOL    HW2 8526   0.359   3.694   3.940
 2732SOL     OW 8527   0.935   3.960   4.204
 2732SOL    HW1 8528   0.887   4.001   4.126
 2732SOL    HW2 8529   1.034   3.958   4.185
 2733SOL     OW 8530   1.076   4.407   5.188
 2733SOL    HW1 8531   0.996   4.346   5.191
 2733SOL    HW2 8532   1.157   4.354   5.164
 2734SOL     OW 8533   1.032   4.273   3.740
 2734SOL    HW1 8534   0.991   4.355   3.701
 2734SOL    HW2 8535   1.096   4.299   3.813
 2735SOL     OW 8536   0.078   4.280   5.110
 2735SOL    HW1 8537   0.170   4.279   5.069
 2735SOL    HW2 8538   0.072   4.354   5.177
 2736SOL     OW 8539   0.561   3.946   4.871
 2736SOL    HW1 8540   0.599   3.862   4.908
 2736SOL    HW2 8541   0.473   3.965   4.915
 2737SOL     OW 8542   0.866   4.178   4.366
 2737SOL    HW1 8543   0.834   4.250   4.304
 2737SOL    HW2 8544   0.890   4.097   4.313
 2738SOL     OW 8545   1.017   3.763   4.477
 2738SOL    HW1 8546   0.945   3.768   4.408
 2738SOL    HW2 8547   0.993   3.694   4.546
 2739SOL     OW 8548   1.466   4.314   4.716
 2739SOL    HW1 8549   1.436   4.219   4.723
 2739SOL    HW2 8550   1.539   4.330   4.782
 2740SOL     OW 8551   1.857   4.557   4.101
 2740SOL    HW1 8552   1.899   4.493   4.165
 2740SOL    HW2 8553   1.819   4.506   4.023
 2741SOL     OW 8554   1.390   4.299   3.802
 2741SOL    HW1 8555   1.336   4.278   3.883
 2741SOL    HW2 8556   1.481   4.258   3.811
 2742SOL     OW 8557   0.527   3.980   4.052
 2742SOL    HW1 8558   0.554   3.921   3.977
 2742SOL    HW2 8559   0.527   4.075   4.021
 2743SOL     OW 8560   1.638   4.823   4.803
 2743SOL    HW1 8561   1.643   4.904   4.862
 2743SOL    HW2 8562   1.552   4.825   4.752
 2744SOL     OW 8563   0.915   3.813   5.126
 2744SOL    HW1 8564   0.940   3.793   5.031
 2744SOL    HW2 8565   0.987   3.869   5.168
 2745SOL     OW 8566   0.410   4.537   4.975
 2745SOL    HW1 8567   0.496   4.549   5.025
 2745SOL    HW2 8568   0.368   4.450   5.002
 2746SOL     OW 8569   1.274   4.110   4.986
 2746SOL    HW1 8570   1.295   4.184   5.050
 2746SOL    HW2 8571   1.185   4.127   4.943
 2747SOL     OW 8572   0.566   4.261   4.589
 2747SOL    HW1 8573   0.578   4.327   4.515
 2747SOL    HW2 8574   0.612   4.295   4.672
 2748SOL     OW 8575   1.582   4.363   4.196
 2748SOL    HW1 8576   1.551   4.424   4.269
 2748SOL    HW2 8577   1.632   4.415   4.127
 2749SOL     OW 8578   0.402   4.475   5.322
 2749SOL    HW1 8579   0.470   4.530   5.275
 2749SOL    HW2 8580   0.442   4.387   5.349
 2750SOL     OW 8581   1.587   4.503   5.394
 2750SOL    HW1 8582   1.495   4.541   5.389
 2750SOL    HW2 8583   1.647   4.550   5.329
 2751SOL     OW 8584   1.013   3.829   5.494
 2751SOL    HW1 8585   1.019   3.914   5.442
 2751SOL    HW2 8586   1.045   3.753   5.437
 2752SOL     OW 8587   0.504   3.774   5.464
 2752SOL    HW1 8588   0.462   3.717   5.394
 2752SOL    HW2 8589   0.438   3.843   5.496
 2753SOL     OW 8590   0.573   4.594   4.753
 2753SOL    HW1 8591   0.617   4.683   4.744
 2753SOL    HW2 8592   0.510   4.594   4.830
 2754SOL     OW 8593   1.360   4.586   4.769
 2754SOL    HW1 8594   1.285   4.586   4.703
 2754SOL    HW2 8595   1.397   4.494   4.778
 2755SOL     OW 8596   1.209   4.249   3.999
 2755SOL    HW1 8597   1.222   4.165   4.053
 2755SOL    HW2 8598   1.180   4.323   4.059
 2756SOL     OW 8599   0.307   3.937   4.955
 2756SOL    HW1 8600   0.284   3.974   5.045
 2756SOL    HW2 8601   0.277   3.842   4.949
 2757SOL     OW 8602   0.037   5.034   5.006
 2757SOL    HW1 8603   0.090   4.985   5.074
 2757SOL    HW2 8604   0.059   5.132   5.011
 2758SOL     OW 8605   0.732   4.358   4.788
 2758SOL    HW1 8606   0.791   4.332   4.712
 2758SOL    HW2 8607   0.704   4.454   4.777
 2759SOL     OW 8608   1.728   4.659   5.578
 2759SOL    HW1 8609   1.682   4.652   5.489
 2759SOL    HW2 8610   1.666   4.703   5.644
 2760SOL     OW 8611   0.307   3.787   4.342
 2760SOL    HW1 8612   0.296   3.881   4.375
 2760SOL    HW2 8613   0.302   3.724   4.419
 2761SOL     OW 8614   1.622   4.091   4.098
 2761SOL    HW1 8615   1.624   4.015   4.162
 2761SOL    HW2 8616   1.574   4.168   4.138
 2762SOL     OW 8617   1.023   4.490   4.690
 2762SOL    HW1 8618   1.038   4.511   4.786
 2762SOL    HW2 8619   0.993   4.395   4.681
 2763SOL     OW 8620   0.350   4.622   5.528
 2763SOL    HW1 8621   0.426   4.666   5.576
 2763SOL    HW2 8622   0.385   4.575   5.446
 2764SOL     OW 8623   1.540   3.998   3.849
 2764SOL    HW1 8624   1.479   3.923   3.872
 2764SOL    HW2 8625   1.562   4.050   3.932
 2765SOL     OW 8626   1.303   4.562   3.766
 2765SOL    HW1 8627   1.337   4.469   3.781
 2765SOL    HW2 8628   1.321   4.589   3.671
 2766SOL     OW 8629   0.319   4.534   4.673
 2766SOL    HW1 8630   0.412   4.570   4.678
 2766SOL    HW2 8631   0.313   4.449   4.725
 2767SOL     OW 8632   0.339   4.233   4.730
 2767SOL    HW1 8633   0.287   4.150   4.713
 2767SOL    HW2 8634   0.416   4.238   4.666
 2768SOL     OW 8635   1.138   4.104   5.402
 2768SOL    HW1 8636   1.093   4.167   5.466
 2768SOL    HW2 8637   1.231   4.135   5.385
 2769SOL     OW 8638   1.160   3.931   5.201
 2769SOL    HW1 8639   1.160   3.995   5.278
 2769SOL    HW2 8640   1.188   3.979   5.118
 2770SOL     OW 8641   1.002   4.520   4.962
 2770SOL    HW1 8642   1.043   4.488   5.048
 2770SOL    HW2 8643   0.906   4.493   4.959
 2771SOL     OW 8644   0.040   4.268   4.838
 2771SOL    HW1 8645   0.125   4.235   4.797
 2771SOL    HW2 8646   0.053   4.283   4.936
 2772SOL     OW 8647   0.189   4.244   5.446
 2772SOL    HW1 8648   0.248   4.204   5.376
 2772SOL    HW2 8649   0.131   4.315   5.405
 2773SOL     OW 8650   1.369   4.674   5.384
 2773SOL    HW1 8651   1.408   4.763   5.404
 2773SOL    HW2 8652   1.379   4.654   5.287
 2774SOL     OW 8653   0.815   4.296   4.049
 2774SOL    HW1 8654   0.822   4.207   4.003
 2774SOL    HW2 8655   0.721   4.330   4.041
 2775SOL     OW 8656   1.657   4.328   4.930
 2775SOL    HW1 8657   1.619   4.259   4.992
 2775SOL    HW2 8658   1.739   4.292   4.886
 2776SOL     OW 8659   0.671   4.188   4.993
 2776SOL    HW1 8660   0.637   4.099   4.963
 2776SOL    HW2 8661   0.697   4.242   4.913
 2777SOL     OW 8662   0.473   4.224   3.915
 2777SOL    HW1 8663   0.534   4.304   3.919
 2777SOL    HW2 8664   0.378   4.255   3.922
 2778SOL     OW 8665   1.347   4.783   4.958
 2778SOL    HW1 8666   1.371   4.720   4.884
 2778SOL    HW2 8667   1.257   4.823   4.940
 2779SOL     OW 8668   1.302   4.579   4.033
 2779SOL    HW1 8669   1.216   4.548   4.075
 2779SOL    HW2 8670   1.298   4.565   3.934
 2780SOL     OW 8671   1.726   3.859   4.247
 2780SOL    HW1 8672   1.799   3.842   4.180
 2780SOL    HW2 8673   1.695   3.772   4.285
 2781SOL     OW 8674   1.280   4.651   4.396
 2781SOL    HW1 8675   1.340   4.570   4.398
 2781SOL    HW2 8676   1.320   4.720   4.336
 2782SOL     OW 8677   1.841   3.899   4.687
 2782SOL    HW1 8678   1.880   3.814   4.651
 2782SOL    HW2 8679   1.743   3.901   4.668
 2783SOL     OW 8680   0.263   4.050   4.444
 2783SOL    HW1 8681   0.184   4.101   4.410
 2783SOL    HW2 8682   0.254   4.035   4.542
 2784SOL     OW 8683   0.916   4.634   4.015
 2784SOL    HW1 8684   0.979   4.672   3.947
 2784SOL    HW2 8685   0.956   4.551   4.054
 2785SOL     OW 8686   1.014   3.960   4.695
 2785SOL    HW1 8687   1.006   3.924   4.602
 2785SOL    HW2 8688   1.012   3.884   4.760
 2786SOL     OW 8689   1.709   4.109   5.105
 2786SOL    HW1 8690   1.782   4.178   5.109
 2786SOL    HW2 8691   1.737   4.034   5.046
 2787SOL     OW 8692   0.105   4.737   5.450
 2787SOL    HW1 8693   0.028   4.704   5.504
 2787SOL    HW2 8694   0.190   4.707   5.492
 2788SOL     OW 8695   0.672   3.927   5.213
 2788SOL    HW1 8696   0.762   3.911   5.173
 2788SOL    HW2 8697   0.680   3.932   5.312
 2789SOL     OW 8698   0.075   4.069   3.757
 2789SOL    HW1 8699  -0.017   4.041   3.728
 2789SOL    HW2 8700   0.106   4.146   3.701
 2790SOL     OW 8701   1.440   4.580   5.122
 2790SOL    HW1 8702   1.383   4.632   5.059
 2790SOL    HW2 8703   1.536   4.592   5.098
 2791SOL     OW 8704   0.072   3.890   4.042
 2791SOL    HW1 8705   0.055   3.973   3.988
 2791SOL    HW2 8706   0.162   3.853   4.020
 2792SOL     OW 8707   0.613   4.566   5.155
 2792SOL    HW1 8708   0.669   4.647   5.138
 2792SOL    HW2 8709   0.672   4.486   5.158
 2793SOL     OW 8710   0.716   4.289   5.432
 2793SOL    HW1 8711   0.735   4.354   5.506
 2793SOL    HW2 8712   0.776   4.209   5.441
 2794SOL     OW 8713   1.674   4.607   4.978
 2794SOL    HW1 8714   1.647   4.518   4.941
 2794SOL    HW2 8715   1.675   4.675   4.905
 2795SOL     OW 8716   1.225   4.049   4.173
 2795SOL    HW1 8717   1.290   3.975   4.162
 2795SOL    HW2 8718   1.245   4.099   4.257
 2796SOL     OW 8719   0.594   4.469   4.376
 2796SOL    HW1 8720   0.644   4.554   4.357
 2796SOL    HW2 8721   0.506   4.471   4.328
 2797SOL     OW 8722   1.777   4.066   5.366
 2797SOL    HW1 8723   1.760   4.097   5.272
 2797SOL    HW2 8724   1.693   4.029   5.404
 2798SOL     OW 8725   1.730   4.658   5.241
 2798SOL    HW1 8726   1.768   4.749   5.256
 2798SOL    HW2 8727   1.722   4.641   5.142
 2799SOL     OW 8728   1.824   3.916   4.951
 2799SOL    HW1 8729   1.820   3.826   4.995
 2799SOL    HW2 8730   1.827   3.905   4.852
 2800SOL     OW 8731   0.428   4.148   4.244
 2800SOL    HW1 8732   0.458   4.076   4.182
 2800SOL    HW2 8733   0.389   4.108   4.327
 2801SOL     OW 8734   0.317   4.271   5.004
 2801SOL    HW1 8735   0.355   4.212   5.076
 2801SOL    HW2 8736   0.357   4.245   4.916
 2802SOL     OW 8737   1.424   3.938   4.836
 2802SOL    HW1 8738   1.476   3.873   4.891
 2802SOL    HW2 8739   1.375   4.001   4.897
 2803SOL     OW 8740   1.001   3.758   4.878
 2803SOL    HW1 8741   0.938   3.686   4.847
 2803SOL    HW2 8742   1.094   3.722   4.878
 2804SOL     OW 8743   1.352   3.776   3.892
 2804SOL    HW1 8744   1.387   3.735   3.808
 2804SOL    HW2 8745   1.262   3.738   3.912
 2805SOL     OW 8746   1.300   4.177   4.415
 2805SOL    HW1 8747   1.241   4.257   4.419
 2805SOL    HW2 8748   1.315   4.142   4.508
 2806SOL     OW 8749   1.593   3.945   4.606
 2806SOL    HW1 8750   1.509   3.944   4.660
 2806SOL    HW2 8751   1.595   4.028   4.550
 2807SOL     OW 8752   0.230   4.352   5.699
 2807SOL    HW1 8753   0.137   4.350   5.736
 2807SOL    HW2 8754   0.231   4.313   5.607
 2808SOL     OW 8755   0.225   3.999   6.582
 2808SOL    HW1 8756   0.260   3.982   6.674
 2808SOL    HW2 8757   0.137   3.954   6.570
 2809SOL     OW 8758   0.019   4.092   6.233
 2809SOL    HW1 8759  -0.063   4.135   6.272
 2809SOL    HW2 8760  -0.009   4.019   6.170
 2810SOL     OW 8761   1.135   4.427   6.303
 2810SOL    HW1 8762   1.192   4.505   6.278
 2810SOL    HW2 8763   1.075   4.453   6.379
 2811SOL     OW 8764   1.755   4.331   5.817
 2811SOL    HW1 8765   1.743   4.318   5.718
 2811SOL    HW2 8766   1.725   4.250   5.866
 2812SOL     OW 8767   0.850   4.522   7.409
 2812SOL    HW1 8768   0.846   4.598   7.474
 2812SOL    HW2 8769   0.872   4.558   7.318
 2813SOL     OW 8770   0.685   4.736   6.251
 2813SOL    HW1 8771   0.754   4.720   6.321
 2813SOL    HW2 8772   0.612   4.793   6.289
 2814SOL     OW 8773   0.438   4.116   7.085
 2814SOL    HW1 8774   0.520   4.060   7.094
 2814SOL    HW2 8775   0.357   4.058   7.089
 2815SOL     OW 8776   1.603   4.171   6.323
 2815SOL    HW1 8777   1.529   4.217   6.273
 2815SOL    HW2 8778   1.654   4.239   6.376
 2816SOL     OW 8779   1.594   3.838   7.066
 2816SOL    HW1 8780   1.576   3.905   6.994
 2816SOL    HW2 8781   1.591   3.884   7.155
 2817SOL     OW 8782   0.122   4.367   6.149
 2817SOL    HW1 8783   0.077   4.279   6.166
 2817SOL    HW2 8784   0.121   4.421   6.233
 2818SOL     OW 8785   0.113   4.461   7.183
 2818SOL    HW1 8786   0.201   4.448   7.228
 2818SOL    HW2 8787   0.100   4.558   7.161
 2819SOL     OW 8788   0.809   3.728   6.088
 2819SOL    HW1 8789   0.849   3.819   6.079
 2819SOL    HW2 8790   0.709   3.736   6.094
 2820SOL     OW 8791   0.197   4.700   6.850
 2820SOL    HW1 8792   0.286   4.655   6.836
 2820SOL    HW2 8793   0.124   4.635   6.831
 2821SOL     OW 8794   1.525   4.723   5.776
 2821SOL    HW1 8795   1.462   4.647   5.789
 2821SOL    HW2 8796   1.573   4.741   5.862
 2822SOL     OW 8797   0.317   3.975   7.387
 2822SOL    HW1 8798   0.388   4.046   7.393
 2822SOL    HW2 8799   0.229   4.014   7.415
 2823SOL     OW 8800   0.598   4.453   5.856
 2823SOL    HW1 8801   0.622   4.522   5.788
 2823SOL    HW2 8802   0.520   4.486   5.910
 2824SOL     OW 8803   1.281   4.069   6.530
 2824SOL    HW1 8804   1.195   4.019   6.517
 2824SOL    HW2 8805   1.343   4.015   6.586
 2825SOL     OW 8806   0.807   4.329   7.051
 2825SOL    HW1 8807   0.760   4.326   7.140
 2825SOL    HW2 8808   0.756   4.274   6.985
 2826SOL     OW 8809   1.394   4.193   7.260
 2826SOL    HW1 8810   1.374   4.236   7.348
 2826SOL    HW2 8811   1.472   4.131   7.269
 2827SOL     OW 8812   0.973   4.614   7.158
 2827SOL    HW1 8813   1.019   4.530   7.129
 2827SOL    HW2 8814   0.917   4.648   7.083
 2828SOL     OW 8815   0.991   4.134   6.828
 2828SOL    HW1 8816   0.914   4.168   6.882
 2828SOL    HW2 8817   0.957   4.083   6.749
 2829SOL     OW 8818   1.041   4.425   6.015
 2829SOL    HW1 8819   1.067   4.421   6.111
 2829SOL    HW2 8820   0.956   4.374   6.001
 2830SOL     OW 8821   0.076   4.535   6.375
 2830SOL    HW1 8822   0.175   4.523   6.384
 2830SOL    HW2 8823   0.052   4.630   6.396
 2831SOL     OW 8824   0.865   4.072   5.781
 2831SOL    HW1 8825   0.924   4.135   5.732
 2831SOL    HW2 8826   0.884   3.978   5.752
 2832SOL     OW 8827   1.719   4.309   7.417
 2832SOL    HW1 8828   1.693   4.398   7.381
 2832SOL    HW2 8829   1.717   4.241   7.344
 2833SOL     OW 8830   0.550   3.920   6.471
 2833SOL    HW1 8831   0.545   3.915   6.571
 2833SOL    HW2 8832   0.552   4.016   6.442
 2834SOL     OW 8833   1.458   4.459   6.314
 2834SOL    HW1 8834   1.453   4.394   6.389
 2834SOL    HW2 8835   1.538   4.518   6.327
 2835SOL     OW 8836   0.202   4.009   7.084
 2835SOL    HW1 8837   0.122   4.069   7.071
 2835SOL    HW2 8838   0.192   3.960   7.170
 2836SOL     OW 8839   1.400   3.831   6.012
 2836SOL    HW1 8840   1.376   3.794   5.922
 2836SOL    HW2 8841   1.499   3.847   6.016
 2837SOL     OW 8842   0.382   4.424   6.066
 2837SOL    HW1 8843   0.427   4.334   6.063
 2837SOL    HW2 8844   0.288   4.413   6.099
 2838SOL     OW 8845   1.547   3.946   7.315
 2838SOL    HW1 8846   1.542   3.983   7.407
 2838SOL    HW2 8847   1.475   3.877   7.303
 2839SOL     OW 8848   0.614   3.846   5.703
 2839SOL    HW1 8849   0.712   3.824   5.710
 2839SOL    HW2 8850   0.583   3.829   5.610
 2840SOL     OW 8851   0.781   3.988   7.335
 2840SOL    HW1 8852   0.848   3.927   7.378
 2840SOL    HW2 8853   0.708   4.007   7.400
 2841SOL     OW 8854   1.351   4.314   7.019
 2841SOL    HW1 8855   1.379   4.271   7.104
 2841SOL    HW2 8856   1.376   4.410   7.020
 2842SOL     OW 8857   0.922   4.227   6.485
 2842SOL    HW1 8858   0.897   4.218   6.389
 2842SOL    HW2 8859   0.970   4.145   6.516
 2843SOL     OW 8860   0.539   3.788   6.098
 2843SOL    HW1 8861   0.458   3.789   6.156
 2843SOL    HW2 8862   0.542   3.871   6.043
 2844SOL     OW 8863   0.297   3.759   5.757
 2844SOL    HW1 8864   0.346   3.843   5.736
 2844SOL    HW2 8865   0.359   3.694   5.802
 2845SOL     OW 8866   0.935   3.960   6.066
 2845SOL    HW1 8867   0.887   4.001   5.988
 2845SOL    HW2 8868   1.034   3.958   6.047
 2846SOL     OW 8869   1.076   4.407   7.050
 2846SOL    HW1 8870   0.996   4.346   7.053
 2846SOL    HW2 8871   1.157   4.354   7.026
 2847SOL     OW 8872   1.032   4.273   5.602
 2847SOL    HW1 8873   0.991   4.355   5.563
 2847SOL    HW2 8874   1.096   4.299   5.675
 2848SOL     OW 8875   0.078   4.280   6.972
 2848SOL    HW1 8876   0.170   4.279   6.931
 2848SOL    HW2 8877   0.072   4.354   7.039
 2849SOL     OW 8878   0.561   3.946   6.733
 2849SOL    HW1 8879   0.599   3.862   6.770
 2849SOL    HW2 8880   0.473   3.965   6.777
 2850SOL     OW 8881   0.866   4.178   6.228
 2850SOL    HW1 8882   0.834   4.250   6.166
 2850SOL    HW2 8883   0.890   4.097   6.175
 2851SOL     OW 8884   1.017   3.763   6.339
 2851SOL    HW1 8885   0.945   3.768   6.270
 2851SOL    HW2 8886   0.993   3.694   6.408
 2852SOL     OW 8887   1.466   4.314   6.578
 2852SOL    HW1 8888   1.436   4.219   6.585
 2852SOL    HW2 8889   1.539   4.330   6.644
 2853SOL     OW 8890   1.857   4.557   5.963
 2853SOL    HW1 8891   1.899   4.493   6.027
 2853SOL    HW2 8892   1.819   4.506   5.885
 2854SOL     OW 8893   1.390   4.299   5.664
 2854SOL    HW1 8894   1.336   4.278   5.745
 2854SOL    HW2 8895   1.481   4.258   5.673
 2855SOL     OW 8896   0.527   3.980   5.914
 2855SOL    HW1 8897   0.554   3.921   5.839
 2855SOL    HW2 8898   0.527   4.075   5.883
 2856SOL     OW 8899   1.638   4.823   6.665
 2856SOL    HW1 8900   1.643   4.904   6.724
 2856SOL    HW2 8901   1.552   4.825   6.614
 2857SOL     OW 8902   0.915   3.813   6.988
 2857SOL    HW1 8903   0.940   3.793   6.893
 2857SOL    HW2 8904   0.987   3.869   7.030
 2858SOL     OW 8905   0.410   4.537   6.837
 2858SOL    HW1 8906   0.496   4.549   6.887
 2858SOL    HW2 8907   0.368   4.450   6.864
 2859SOL     OW 8908   1.274   4.110   6.848
 2859SOL    HW1 8909   1.295   4.184   6.912
 2859SOL    HW2 8910   1.185   4.127   6.805
 2860SOL     OW 8911   0.566   4.261   6.451
 2860SOL    HW1 8912   0.578   4.327   6.377
 2860SOL    HW2 8913   0.612   4.295   6.534
 2861SOL     OW 8914   1.582   4.363   6.058
 2861SOL    HW1 8915   1.551   4.424   6.131
 2861SOL    HW2 8916   1.632   4.415   5.989
 2862SOL     OW 8917   0.402   4.475   7.184
 2862SOL    HW1 8918   0.470   4.530   7.137
 2862SOL    HW2 8919   0.442   4.387   7.211
 2863SOL     OW 8920   1.587   4.503   7.256
 2863SOL    HW1 8921   1.495   4.541   7.251
 2863SOL    HW2 8922   1.647   4.550   7.191
 2864SOL     OW 8923   1.013   3.829   7.356
 2864SOL    HW1 8924   1.019   3.914   7.304
 2864SOL    HW2 8925   1.045   3.753   7.299
 2865SOL     OW 8926   0.504   3.774   7.326
 2865SOL    HW1 8927   0.462   3.717   7.256
 2865SOL    HW2 8928   0.438   3.843   7.358
 2866SOL     OW 8929   0.573   4.594   6.615
 2866SOL    HW1 8930   0.617   4.683   6.606
 2866SOL    HW2 8931   0.510   4.594   6.692
 2867SOL     OW 8932   1.360   4.586   6.631
 2867SOL    HW1 8933   1.285   4.586   6.565
 2867SOL    HW2 8934   1.397   4.494   6.640
 2868SOL     OW 8935   1.209   4.249   5.861
 2868SOL    HW1 8936   1.222   4.165   5.915
 2868SOL    HW2 8937   1.180   4.323   5.921
 2869SOL     OW 8938   0.307   3.937   6.817
 2869SOL    HW1 8939   0.284   3.974   6.907
 2869SOL    HW2 8940   0.277   3.842   6.811
 2870SOL     OW 8941   0.037   5.034   6.868
 2870SOL    HW1 8942   0.090   4.985   6.936
 2870SOL    HW2 8943   0.059   5.132   6.873
 2871SOL     OW 8944   0.732   4.358   6.650
 2871SOL    HW1 8945   0.791   4.332   6.574
 2871SOL    HW2 8946   0.704   4.454   6.639
 2872SOL     OW 8947   1.728   4.659   7.440
 2872SOL    HW1 8948   1.682   4.652   7.351
 2872SOL    HW2 8949   1.666   4.703   7.506
 2873SOL     OW 8950   0.307   3.787   6.204
 2873SOL    HW1 8951   0.296   3.881   6.237
 2873SOL    HW2 8952   0.302   3.724   6.281
 2874SOL     OW 8953   1.622   4.091   5.960
 2874SOL    HW1 8954   1.624   4.015   6.024
 2874SOL    HW2 8955   1.574   4.168   6.000
 2875SOL     OW 8956   1.023   4.490   6.552
 2875SOL    HW1 8957   1.038   4.511   6.648
 2875SOL    HW2 8958   0.993   4.395   6.543
 2876SOL     OW 8959   0.350   4.622   7.390
 2876SOL    HW1 8960   0.426   4.666   7.438
 2876SOL    HW2 8961   0.385   4.575   7.308
 2877SOL     OW 8962   1.540   3.998   5.711
 2877SOL    HW1 8963   1.479   3.923   5.734
 2877SOL    HW2 8964   1.562   4.050   5.794
 2878SOL     OW 8965   1.303   4.562   5.628
 2878SOL    HW1 8966   1.337   4.469   5.643
 2878SOL    HW2 8967   1.321   4.589   5.533
 2879SOL     OW 8968   0.319   4.534   6.535
 2879SOL    HW1 8969   0.412   4.570   6.540
 2879SOL    HW2 8970   0.313   4.449   6.587
 2880SOL     OW 8971   0.339   4.233   6.592
 2880SOL    HW1 8972   0.287   4.150   6.575
 2880SOL    HW2 8973   0.416   4.238   6.528
 2881SOL     OW 8974   1.138   4.104   7.264
 2881SOL    HW1 8975   1.093   4.167   7.328
 2881SOL    HW2 8976   1.231   4.135   7.247
 2882SOL     OW 8977   1.160   3.931   7.063
 2882SOL    HW1 8978   1.160   3.995   7.140
 2882SOL    HW2 8979   1.188   3.979   6.980
 2883SOL     OW 8980   1.002   4.520   6.824
 2883SOL    HW1 8981   1.043   4.488   6.910
 2883SOL    HW2 8982   0.906   4.493   6.821
 2884SOL     OW 8983   0.040   4.268   6.700
 2884SOL    HW1 8984   0.125   4.235   6.659
 2884SOL    HW2 8985   0.053   4.283   6.798
 2885SOL     OW 8986   0.189   4.244   7.308
 2885SOL    HW1 8987   0.248   4.204   7.238
 2885SOL    HW2 8988   0.131   4.315   7.267
 2886SOL     OW 8989   1.369   4.674   7.246
 2886SOL    HW1 8990   1.408   4.763   7.266
 2886SOL    HW2 8991   1.379   4.654   7.149
 2887SOL     OW 8992   0.815   4.296   5.911
 2887SOL    HW1 8993   0.822   4.207   5.865
 2887SOL    HW2 8994   0.721   4.330   5.903
 2888SOL     OW 8995   1.657   4.328   6.792
 2888SOL    HW1 8996   1.619   4.259   6.854
 2888SOL    HW2 8997   1.739   4.292   6.748
 2889SOL     OW 8998   0.671   4.188   6.855
 2889SOL    HW1 8999   0.637   4.099   6.825
 2889SOL    HW2 9000   0.697   4.242   6.775
 2890SOL     OW 9001   0.473   4.224   5.777
 2890SOL    HW1 9002   0.534   4.304   5.781
 2890SOL    HW2 9003   0.378   4.255   5.784
 2891SOL     OW 9004   1.347   4.783   6.820
 2891SOL    HW1 9005   1.371   4.720   6.746
 2891SOL    HW2 9006   1.257   4.823   6.802
 2892SOL     OW 9007   1.302   4.579   5.895
 2892SOL    HW1 9008   1.216   4.548   5.937
 2892SOL    HW2 9009   1.298   4.565   5.796
 2893SOL     OW 9010   1.726   3.859   6.109
 2893SOL    HW1 9011   1.799   3.842   6.042
 2893SOL    HW2 9012   1.695   3.772   6.147
 2894SOL     OW 9013   1.280   4.651   6.258
 2894SOL    HW1 9014   1.340   4.570   6.260
 2894SOL    HW2 9015   1.320   4.720   6.198
 2895SOL     OW 9016   1.841   3.899   6.549
 2895SOL    HW1 9017   1.880   3.814   6.513
 2895SOL    HW2 9018   1.743   3.901   6.530
 2896SOL     OW 9019   0.263   4.050   6.306
 2896SOL    HW1 9020   0.184   4.101   6.272
 2896SOL    HW2 9021   0.254   4.035   6.404
 2897SOL     OW 9022   0.916   4.634   5.877
 2897SOL    HW1 9023   0.979   4.672   5.809
 2897SOL    HW2 9024   0.956   4.551   5.916
 2898SOL     OW 9025   1.014   3.960   6.557
 2898SOL    HW1 9026   1.006   3.924   6.464
 2898SOL    HW2 9027   1.012   3.884   6.622
 2899SOL     OW 9028   1.709   4.109   6.967
 2899SOL    HW1 9029   1.782   4.178   6.971
 2899SOL    HW2 9030   1.737   4.034   6.908
 2900SOL     OW 9031   0.105   4.737   7.312
 2900SOL    HW1 9032   0.028   4.704   7.366
 2900SOL    HW2 9033   0.190   4.707   7.354
 2901SOL     OW 9034   0.672   3.927   7.075
 2901SOL    HW1 9035   0.762   3.911   7.035
 2901SOL    HW2 9036   0.680   3.932   7.174
 2902SOL     OW 9037   0.075   4.069   5.619
 2902SOL    HW1 9038  -0.017   4.041   5.590
 2902SOL    HW2 9039   0.106   4.146   5.563
 2903SOL     OW 9040   1.440   4.580   6.984
 2903SOL    HW1 9041   1.383   4.632   6.921
 2903SOL    HW2 9042   1.536   4.592   6.960
 2904SOL     OW 9043   0.072   3.890   5.904
 2904SOL    HW1 9044   0.055   3.973   5.850
 2904SOL    HW2 9045   0.162   3.853   5.882
 2905SOL     OW 9046   0.613   4.566   7.017
 2905SOL    HW1 9047   0.669   4.647   7.000
 2905SOL    HW2 9048   0.672   4.486   7.020
 2906SOL     OW 9049   0.716   4.289   7.294
 2906SOL    HW1 9050   0.735   4.354   7.368
 2906SOL    HW2 9051   0.776   4.209   7.303
 2907SOL     OW 9052   1.674   4.607   6.840
 2907SOL    HW1 9053   1.647   4.518   6.803
 2907SOL    HW2 9054   1.675   4.675   6.767
 2908SOL     OW 9055   1.225   4.049   6.035
 2908SOL    HW1 9056   1.290   3.975   6.024
 2908SOL    HW2 9057   1.245   4.099   6.119
 2909SOL     OW 9058   0.594   4.469   6.238
 2909SOL    HW1 9059   0.644   4.554   6.219
 2909SOL    HW2 9060   0.506   4.471   6.190
 2910SOL     OW 9061   1.777   4.066   7.228
 2910SOL    HW1 9062   1.760   4.097   7.134
 2910SOL    HW2 9063   1.693   4.029   7.266
 2911SOL     OW 9064   1.730   4.658   7.103
 2911SOL    HW1 9065   1.768   4.749   7.118
 2911SOL    HW2 9066   1.722   4.641   7.004
 2912SOL     OW 9067   1.824   3.916   6.813
 2912SOL    HW1 9068   1.820   3.826   6.857
 2912SOL    HW2 9069   1.827   3.905   6.714
 2913SOL     OW 9070   0.428   4.148   6.106
 2913SOL    HW1 9071   0.458   4.076   6.044
 2913SOL    HW2 9072   0.389   4.108   6.189
 2914SOL     OW 9073   0.317   4.271   6.866
 2914SOL    HW1 9074   0.355   4.212   6.938
 2914SOL    HW2 9075   0.357   4.245   6.778
 2915SOL     OW 9076   1.424   3.938   6.698
 2915SOL    HW1 9077   1.476   3.873   6.753
 2915SOL    HW2 9078   1.375   4.001   6.759
 2916SOL     OW 9079   1.001   3.758   6.740
 2916SOL    HW1 9080   0.938   3.686   6.709
 2916SOL    HW2 9081   1.094   3.722   6.740
 2917SOL     OW 9082   1.352   3.776   5.754
 2917SOL    HW1 9083   1.387   3.735   5.670
 2917SOL    HW2 9084   1.262   3.738   5.774
 2918SOL     OW 9085   1.300   4.177   6.277
 2918SOL    HW1 9086   1.241   4.257   6.281
 2918SOL    HW2 9087   1.315   4.142   6.370
 2919SOL     OW 9088   1.593   3.945   6.468
 2919SOL    HW1 9089   1.509   3.944   6.522
 2919SOL    HW2 9090   1.595   4.028   6.412
 2920SOL     OW 9091   0.230   4.352   7.561
 2920SOL    HW1 9092   0.137   4.350   7.598
 2920SOL    HW2 9093   0.231   4.313   7.469
 2921SOL     OW 9094   0.225   3.999   8.444
 2921SOL    HW1 9095   0.260   3.982   8.536
 2921SOL    HW2 9096   0.137   3.954   8.432
 2922SOL     OW 9097   0.019   4.092   8.095
 2922SOL    HW1 9098  -0.063   4.135   8.134
 2922SOL    HW2 9099  -0.009   4.019   8.032
 2923SOL     OW 9100   1.135   4.427   8.165
 2923SOL    HW1 9101   1.192   4.505   8.140
 2923SOL    HW2 9102   1.075   4.453   8.241
 2924SOL     OW 9103   1.755   4.331   7.679
 2924SOL    HW1 9104   1.743   4.318   7.580
 2924SOL    HW2 9105   1.725   4.250   7.728
 2925SOL     OW 9106   0.850   4.522   9.271
 2925SOL    HW1 9107   0.846   4.598   9.336
 2925SOL    HW2 9108   0.872   4.558   9.180
 2926SOL     OW 9109   0.685   4.736   8.113
 2926SOL    HW1 9110   0.754   4.720   8.183
 2926SOL    HW2 9111   0.612   4.793   8.151
 2927SOL     OW 9112   0.438   4.116   8.947
 2927SOL    HW1 9113   0.520   4.060   8.956
 2927SOL    HW2 9114   0.357   4.058   8.951
 2928SOL     OW 9115   1.603   4.171   8.185
 2928SOL    HW1 9116   1.529   4.217   8.135
 2928SOL    HW2 9117   1.654   4.239   8.238
 2929SOL     OW 9118   1.594   3.838   8.928
 2929SOL    HW1 9119   1.576   3.905   8.856
 2929SOL    HW2 9120   1.591   3.884   9.017
 2930SOL     OW 9121   0.122   4.367   8.011
 2930SOL    HW1 9122   0.077   4.279   8.028
 2930SOL    HW2 9123   0.121   4.421   8.095
 2931SOL     OW 9124   0.113   4.461   9.045
 2931SOL    HW1 9125   0.201   4.448   9.090
 2931SOL    HW2 9126   0.100   4.558   9.023
 2932SOL     OW 9127   0.809   3.728   7.950
 2932SOL    HW1 9128   0.849   3.819   7.941
 2932SOL    HW2 9129   0.709   3.736   7.956
 2933SOL     OW 9130   0.197   4.700   8.712
 2933SOL    HW1 9131   0.286   4.655   8.698
 2933SOL    HW2 9132   0.124   4.635   8.693
 2934SOL     OW 9133   1.525   4.723   7.638
 2934SOL    HW1 9134   1.462   4.647   7.651
 2934SOL    HW2 9135   1.573   4.741   7.724
 2935SOL     OW 9136   0.317   3.975   9.249
 2935SOL    HW1 9137   0.388   4.046   9.255
 2935SOL    HW2 9138   0.229   4.014   9.277
 2936SOL     OW 9139   0.598   4.453   7.718
 2936SOL    HW1 9140   0.622   4.522   7.650
 2936SOL    HW2 9141   0.520   4.486   7.772
 2937SOL     OW 9142   1.281   4.069   8.392
 2937SOL    HW1 9143   1.195   4.019   8.379
 2937SOL    HW2 9144   1.343   4.015   8.448
 2938SOL     OW 9145   0.807   4.329   8.913
 2938SOL    HW1 9146   0.760   4.326   9.002
 2938SOL    HW2 9147   0.756   4.274   8.847
 2939SOL     OW 9148   1.394   4.193   9.122
 2939SOL    HW1 9149   1.374   4.236   9.210
 2939SOL    HW2 9150   1.472   4.131   9.131
 2940SOL     OW 9151   0.973   4.614   9.020
 2940SOL    HW1 9152   1.019   4.530   8.991
 2940SOL    HW2 9153   0.917   4.648   8.945
 2941SOL     OW 9154   0.991   4.134   8.690
 2941SOL    HW1 9155   0.914   4.168   8.744
 2941SOL    HW2 9156   0.957   4.083   8.611
 2942SOL     OW 9157   1.041   4.425   7.877
 2942SOL    HW1 9158   1.067   4.421   7.973
 2942SOL    HW2 9159   0.956   4.374   7.863
 2943SOL     OW 9160   0.076   4.535   8.237
 2943SOL    HW1 9161   0.175   4.523   8.246
 2943SOL    HW2 9162   0.052   4.630   8.258
 2944SOL     OW 9163   0.865   4.072   7.643
 2944SOL    HW1 9164   0.924   4.135   7.594
 2944SOL    HW2 9165   0.884   3.978   7.614
 2945SOL     OW 9166   1.719   4.309   9.279
 2945SOL    HW1 9167   1.693   4.398   9.243
 2945SOL    HW2 9168   1.717   4.241   9.206
 2946SOL     OW 9169   0.550   3.920   8.333
 2946SOL    HW1 9170   0.545   3.915   8.433
 2946SOL    HW2 9171   0.552   4.016   8.304
 2947SOL     OW 9172   1.458   4.459   8.176
 2947SOL    HW1 9173   1.453   4.394   8.251
 2947SOL    HW2 9174   1.538   4.518   8.189
 2948SOL     OW 9175   0.202   4.009   8.946
 2948SOL    HW1 9176   0.122   4.069   8.933
 2948SOL    HW2 9177   0.192   3.960   9.032
 2949SOL     OW 9178   1.400   3.831   7.874
 2949SOL    HW1 9179   1.376   3.794   7.784
 2949SOL    HW2 9180   1.499   3.847   7.878
 2950SOL     OW 9181   0.382   4.424   7.928
 2950SOL    HW1 9182   0.427   4.334   7.925
 2950SOL    HW2 9183   0.288   4.413   7.961
 2951SOL     OW 9184   1.547   3.946   9.177
 2951SOL    HW1 9185   1.542   3.983   9.269
 2951SOL    HW2 9186   1.475   3.877   9.165
 2952SOL     OW 9187   0.614   3.846   7.565
 2952SOL    HW1 9188   0.712   3.824   7.572
 2952SOL    HW2 9189   0.583   3.829   7.472
 2953SOL     OW 9190   0.781   3.988   9.197
 2953SOL    HW1 9191   0.848   3.927   9.240
 2953SOL    HW2 9192   0.708   4.007   9.262
 2954SOL     OW 9193   1.351   4.314   8.881
 2954SOL    HW1 9194   1.379   4.271   8.966
 2954SOL    HW2 9195   1.376   4.410   8.882
 2955SOL     OW 9196   0.922   4.227   8.347
 2955SOL    HW1 9197   0.897   4.218   8.251
 2955SOL    HW2 9198   0.970   4.145   8.378
 2956SOL     OW 9199   0.539   3.788   7.960
 2956SOL    HW1 9200   0.458   3.789   8.018
 2956SOL    HW2 9201   0.542   3.871   7.905
 2957SOL     OW 9202   0.297   3.759   7.619
 2957SOL    HW1 9203   0.346   3.843   7.598
 2957SOL    HW2 9204   0.359   3.694   7.664
 2958SOL     OW 9205   0.935   3.960   7.928
 2958SOL    HW1 9206   0.887   4.001   7.850
 2958SOL    HW2 9207   1.034   3.958   7.909
 2959SOL     OW 9208   1.076   4.407   8.912
 2959SOL    HW1 9209   0.996   4.346   8.915
 2959SOL    HW2 9210   1.157   4.354   8.888
 2960SOL     OW 9211   1.032   4.273   7.464
 2960SOL    HW1 9212   0.991   4.355   7.425
 2960SOL    HW2 9213   1.096   4.299   7.537
 2961SOL     OW 9214   0.078   4.280   8.834
 2961SOL    HW1 9215   0.170   4.279   8.793
 2961SOL    HW2 9216   0.072   4.354   8.901
 2962SOL     OW 9217   0.561   3.946   8.595
 2962SOL    HW1 9218   0.599   3.862   8.632
 2962SOL    HW2 9219   0.473   3.965   8.639
 2963SOL     OW 9220   0.866   4.178   8.090
 2963SOL    HW1 9221   0.834   4.250   8.028
 2963SOL    HW2 9222   0.890   4.097   8.037
 2964SOL     OW 9223   1.017   3.763   8.201
 2964SOL    HW1 9224   0.945   3.768   8.132
 2964SOL    HW2 9225   0.993   3.694   8.270
 2965SOL     OW 9226   1.466   4.314   8.440
 2965SOL    HW1 9227   1.436   4.219   8.447
 2965SOL    HW2 9228   1.539   4.330   8.506
 2966SOL     OW 9229   1.857   4.557   7.825
 2966SOL    HW1 9230   1.899   4.493   7.889
 2966SOL    HW2 9231   1.819   4.506   7.747
 2967SOL     OW 9232   1.390   4.299   7.526
 2967SOL    HW1 9233   1.336   4.278   7.607
 2967SOL    HW2 9234   1.481   4.258   7.535
 2968SOL     OW 9235   0.527   3.980   7.776
 2968SOL    HW1 9236   0.554   3.921   7.701
 2968SOL    HW2 9237   0.527   4.075   7.745
 2969SOL     OW 9238   1.638   4.823   8.527
 2969SOL    HW1 9239   1.643   4.904   8.586
 2969SOL    HW2 9240   1.552   4.825   8.476
 2970SOL     OW 9241   0.915   3.813   8.850
 2970SOL    HW1 9242   0.940   3.793   8.755
 2970SOL    HW2 9243   0.987   3.869   8.892
 2971SOL     OW 9244   0.410   4.537   8.699
 2971SOL    HW1 9245   0.496   4.549   8.749
 2971SOL    HW2 9246   0.368   4.450   8.726
 2972SOL     OW 9247   1.274   4.110   8.710
 2972SOL    HW1 9248   1.295   4.184   8.774
 2972SOL    HW2 9249   1.185   4.127   8.667
 2973SOL     OW 9250   0.566   4.261   8.313
 2973SOL    HW1 9251   0.578   4.327   8.239
 2973SOL    HW2 9252   0.612   4.295   8.396
 2974SOL     OW 9253   1.582   4.363   7.920
 2974SOL    HW1 9254   1.551   4.424   7.993
 2974SOL    HW2 9255   1.632   4.415   7.851
 2975SOL     OW 9256   0.402   4.475   9.046
 2975SOL    HW1 9257   0.470   4.530   8.999
 2975SOL    HW2 9258   0.442   4.387   9.073
 2976SOL     OW 9259   1.587   4.503   9.118
 2976SOL    HW1 9260   1.495   4.541   9.113
 2976SOL    HW2 9261   1.647   4.550   9.053
 2977SOL     OW 9262   1.013   3.829   9.218
 2977SOL    HW1 9263   1.019   3.914   9.166
 2977SOL    HW2 9264   1.045   3.753   9.161
 2978SOL     OW 9265   0.504   3.774   9.188
 2978SOL    HW1 9266   0.462   3.717   9.118
 2978SOL    HW2 9267   0.438   3.843   9.220
 2979SOL     OW 9268   0.573   4.594   8.477
 2979SOL    HW1 9269   0.617   4.683   8.468
 2979SOL    HW2 9270   0.510   4.594   8.554
 2980SOL     OW 9271   1.360   4.586   8.493
 2980SOL    HW1 9272   1.285   4.586   8.427
 2980SOL    HW2 9273   1.397   4.494   8.502
 2981SOL     OW 9274   1.209   4.249   7.723
 2981SOL    HW1 9275   1.222   4.165   7.777
 2981SOL    HW2 9276   1.180   4.323   7.783
 2982SOL     OW 9277   0.307   3.937   8.679
 2982SOL    HW1 9278   0.284   3.974   8.769
 2982SOL    HW2 9279   0.277   3.842   8.673
 2983SOL     OW 9280   0.037   5.034   8.730
 2983SOL    HW1 9281   0.090   4.985   8.798
 2983SOL    HW2 9282   0.059   5.132   8.735
 2984SOL     OW 9283   0.732   4.358   8.512
 2984SOL    HW1 9284   0.791   4.332   8.436
 2984SOL    HW2 9285   0.704   4.454   8.501
 2985SOL     OW 9286   1.728   4.659   9.302
 2985SOL    HW1 9287   1.682   4.652   9.213
 2985SOL    HW2 9288   1.666   4.703   9.368
 2986SOL     OW 9289   0.307   3.787   8.066
 2986SOL    HW1 9290   0.296   3.881   8.099
 2986SOL    HW2 9291   0.302   3.724   8.143
 2987SOL     OW 9292   1.622   4.091   7.822
 2987SOL    HW1 9293   1.624   4.015   7.886
 2987SOL    HW2 9294   1.574   4.168   7.862
 2988SOL     OW 9295   1.023   4.490   8.414
 2988SOL    HW1 9296   1.038   4.511   8.510
 2988SOL    HW2 9297   0.993   4.395   8.405
 2989SOL     OW 9298   0.350   4.622   9.252
 2989SOL    HW1 9299   0.426   4.666   9.300
 2989SOL    HW2 9300   0.385   4.575   9.170
 2990SOL     OW 9301   1.540   3.998   7.573
 2990SOL    HW1 9302   1.479   3.923   7.596
 2990SOL    HW2 9303   1.562   4.050   7.656
 2991SOL     OW 9304   1.303   4.562   7.490
 2991SOL    HW1 9305   1.337   4.469   7.505
 2991SOL    HW2 9306   1.321   4.589   7.395
 2992SOL     OW 9307   0.319   4.534   8.397
 2992SOL    HW1 9308   0.412   4.570   8.402
 2992SOL    HW2 9309   0.313   4.449   8.449
 2993SOL     OW 9310   0.339   4.233   8.454
 2993SOL    HW1 9311   0.287   4.150   8.437
 2993SOL    HW2 9312   0.416   4.238   8.390
 2994SOL     OW 9313   1.138   4.104   9.126
 2994SOL    HW1 9314   1.093   4.167   9.190
 2994SOL    HW2 9315   1.231   4.135   9.109
 2995SOL     OW 9316   1.160   3.931   8.925
 2995SOL    HW1 9317   1.160   3.995   9.002
 2995SOL    HW2 9318   1.188   3.979   8.842
 2996SOL     OW 9319   1.002   4.520   8.686
 2996SOL    HW1 9320   1.043   4.488   8.772
 2996SOL    HW2 9321   0.906   4.493   8.683
 2997SOL     OW 9322   0.040   4.268   8.562
 2997SOL    HW1 9323   0.125   4.235   8.521
 2997SOL    HW2 9324   0.053   4.283   8.660
 2998SOL     OW 9325   0.189   4.244   9.170
 2998SOL    HW1 9326   0.248   4.204   9.100
 2998SOL    HW2 9327   0.131   4.315   9.129
 2999SOL     OW 9328   1.369   4.674   9.108
 2999SOL    HW1 9329   1.408   4.763   9.128
 2999SOL    HW2 9330   1.379   4.654   9.011
 3000SOL     OW 9331   0.815   4.296   7.773
 3000SOL    HW1 9332   0.822   4.207   7.727
 3000SOL    HW2 9333   0.721   4.330   7.765
 3001SOL     OW 9334   1.657   4.328   8.654
 3001SOL    HW1 9335   1.619   4.259   8.716
 3001SOL    HW2 9336   1.739   4.292   8.610
 3002SOL     OW 9337   0.671   4.188   8.717
 3002SOL    HW1 9338   0.637   4.099   8.687
 3002SOL    HW2 9339   0.697   4.242   8.637
 3003SOL     OW 9340   0.473   4.224   7.639
 3003SOL    HW1 9341   0.534   4.304   7.643
 3003SOL    HW2 9342   0.378   4.255   7.646
 3004SOL     OW 9343   1.347   4.783   8.682
 3004SOL    HW1 9344   1.371   4.720   8.608
 3004SOL    HW2 9345   1.257   4.823   8.664
 3005SOL     OW 9346   1.302   4.579   7.757
 3005SOL    HW1 9347   1.216   4.548   7.799
 3005SOL    HW2 9348   1.298   4.565   7.658
 3006SOL     OW 9349   1.726   3.859   7.971
 3006SOL    HW1 9350   1.799   3.842   7.904
 3006SOL    HW2 9351   1.695   3.772   8.009
 3007SOL     OW 9352   1.280   4.651   8.120
 3007SOL    HW1 9353   1.340   4.570   8.122
 3007SOL    HW2 9354   1.320   4.720   8.060
 3008SOL     OW 9355   1.841   3.899   8.411
 3008SOL    HW1 9356   1.880   3.814   8.375
 3008SOL    HW2 9357   1.743   3.901   8.392
 3009SOL     OW 9358   0.263   4.050   8.168
 3009SOL    HW1 9359   0.184   4.101   8.134
 3009SOL    HW2 9360   0.254   4.035   8.266
 3010SOL     OW 9361   0.916   4.634   7.739
 3010SOL    HW1 9362   0.979   4.672   7.671
 3010SOL    HW2 9363   0.956   4.551   7.778
 3011SOL     OW 9364   1.014   3.960   8.419
 3011SOL    HW1 9365   1.006   3.924   8.326
 3011SOL    HW2 9366   1.012   3.884   8.484
 3012SOL     OW 9367   1.709   4.109   8.829
 3012SOL    HW1 9368   1.782   4.178   8.833
 3012SOL    HW2 9369   1.737   4.034   8.770
 3013SOL     OW 9370   0.105   4.737   9.174
 3013SOL    HW1 9371   0.028   4.704   9.228
 3013SOL    HW2 9372   0.190   4.707   9.216
 3014SOL     OW 9373   0.672   3.927   8.937
 3014SOL    HW1 9374   0.762   3.911   8.897
 3014SOL    HW2 9375   0.680   3.932   9.036
 3015SOL     OW 9376   0.075   4.069   7.481
 3015SOL    HW1 9377  -0.017   4.041   7.452
 3015SOL    HW2 9378   0.106   4.146   7.425
 3016SOL     OW 9379   1.440   4.580   8.846
 3016SOL    HW1 9380   1.383   4.632   8.783
 3016SOL    HW2 9381   1.536   4.592   8.822
 3017SOL     OW 9382   0.072   3.890   7.766
 3017SOL    HW1 9383   0.055   3.973   7.712
 3017SOL    HW2 9384   0.162   3.853   7.744
 3018SOL     OW 9385   0.613   4.566   8.879
 3018SOL    HW1 9386   0.669   4.647   8.862
 3018SOL    HW2 9387   0.672   4.486   8.882
 3019SOL     OW 9388   0.716   4.289   9.156
 3019SOL    HW1 9389   0.735   4.354   9.230
 3019SOL    HW2 9390   0.776   4.209   9.165
 3020SOL     OW 9391   1.674   4.607   8.702
 3020SOL    HW1 9392   1.647   4.518   8.665
 3020SOL    HW2 9393   1.675   4.675   8.629
 3021SOL     OW 9394   1.225   4.049   7.897
 3021SOL    HW1 9395   1.290   3.975   7.886
 3021SOL    HW2 9396   1.245   4.099   7.981
 3022SOL     OW 9397   0.594   4.469   8.100
 3022SOL    HW1 9398   0.644   4.554   8.081
 3022SOL    HW2 9399   0.506   4.471   8.052
 3023SOL     OW 9400   1.777   4.066   9.090
 3023SOL    HW1 9401   1.760   4.097   8.996
 3023SOL    HW2 9402   1.693   4.029   9.128
 3024SOL     OW 9403   1.730   4.658   8.965
 3024SOL    HW1 9404   1.768   4.749   8.980
 3024SOL    HW2 9405   1.722   4.641   8.866
 3025SOL     OW 9406   1.824   3.916   8.675
 3025SOL    HW1 9407   1.820   3.826   8.719
 3025SOL    HW2 9408   1.827   3.905   8.576
 3026SOL     OW 9409   0.428   4.148   7.968
 3026SOL    HW1 9410   0.458   4.076   7.906
 3026SOL    HW2 9411   0.389   4.108   8.051
 3027SOL     OW 9412   0.317   4.271   8.728
 3027SOL    HW1 9413   0.355   4.212   8.800
 3027SOL    HW2 9414   0.357   4.245   8.640
 3028SOL     OW 9415   1.424   3.938   8.560
 3028SOL    HW1 9416   1.476   3.873   8.615
 3028SOL    HW2 9417   1.375   4.001   8.621
 3029SOL     OW 9418   1.001   3.758   8.602
 3029SOL    HW1 9419   0.938   3.686   8.571
 3029SOL    HW2 9420   1.094   3.722   8.602
 3030SOL     OW 9421   1.352   3.776   7.616
 3030SOL    HW1 9422   1.387   3.735   7.532
 3030SOL    HW2 9423   1.262   3.738   7.636
 3031SOL     OW 9424   1.300   4.177   8.139
 3031SOL    HW1 9425   1.241   4.257   8.143
 3031SOL    HW2 9426   1.315   4.142   8.232
 3032SOL     OW 9427   1.593   3.945   8.330
 3032SOL    HW1 9428   1.509   3.944   8.384
 3032SOL    HW2 9429   1.595   4.028   8.274
 3033SOL     OW 9430   0.230   4.352   9.423
 3033SOL    HW1 9431   0.137   4.350   9.460
 3033SOL    HW2 9432   0.231   4.313   9.331
 3034SOL     OW 9433   0.225   3.999  10.306
 3034SOL    HW1 9434   0.260   3.982  10.398
 3034SOL    HW2 9435   0.137   3.954  10.294
 3035SOL     OW 9436   0.019   4.092   9.957
 3035SOL    HW1 9437  -0.063   4.135   9.996
 3035SOL    HW2 9438  -0.009   4.019   9.894
 3036SOL     OW 9439   1.135   4.427  10.027
 3036SOL    HW1 9440   1.192   4.505  10.002
 3036SOL    HW2 9441   1.075   4.453  10.103
 3037SOL     OW 9442   1.755   4.331   9.541
 3037SOL    HW1 9443   1.743   4.318   9.442
 3037SOL    HW2 9444   1.725   4.250   9.590
 3038SOL     OW 9445   0.850   4.522  11.133
 3038SOL    HW1 9446   0.846   4.598  11.198
 3038SOL    HW2 9447   0.872   4.558  11.042
 3039SOL     OW 9448   0.685   4.736   9.975
 3039SOL    HW1 9449   0.754   4.720  10.045
 3039SOL    HW2 9450   0.612   4.793  10.013
 3040SOL     OW 9451   0.438   4.116  10.809
 3040SOL    HW1 9452   0.520   4.060  10.818
 3040SOL    HW2 9453   0.357   4.058  10.813
 3041SOL     OW 9454   1.603   4.171  10.047
 3041SOL    HW1 9455   1.529   4.217   9.997
 3041SOL    HW2 9456   1.654   4.239  10.100
 3042SOL     OW 9457   1.594   3.838  10.790
 3042SOL    HW1 9458   1.576   3.905  10.718
 3042SOL    HW2 9459   1.591   3.884  10.879
 3043SOL     OW 9460   0.122   4.367   9.873
 3043SOL    HW1 9461   0.077   4.279   9.890
 3043SOL    HW2 9462   0.121   4.421   9.957
 3044SOL     OW 9463   0.809   3.728   9.812
 3044SOL    HW1 9464   0.849   3.819   9.803
 3044SOL    HW2 9465   0.709   3.736   9.818
 3045SOL     OW 9466   0.197   4.700  10.574
 3045SOL    HW1 9467   0.286   4.655  10.560
 3045SOL    HW2 9468   0.124   4.635  10.555
 3046SOL     OW 9469   1.525   4.723   9.500
 3046SOL    HW1 9470   1.462   4.647   9.513
 3046SOL    HW2 9471   1.573   4.741   9.586
 3047SOL     OW 9472   0.598   4.453   9.580
 3047SOL    HW1 9473   0.622   4.522   9.512
 3047SOL    HW2 9474   0.520   4.486   9.634
 3048SOL     OW 9475   1.281   4.069  10.254
 3048SOL    HW1 9476   1.195   4.019  10.241
 3048SOL    HW2 9477   1.343   4.015  10.310
 3049SOL     OW 9478   0.807   4.329  10.775
 3049SOL    HW1 9479   0.760   4.326  10.864
 3049SOL    HW2 9480   0.756   4.274  10.709
 3050SOL     OW 9481   0.973   4.614  10.882
 3050SOL    HW1 9482   1.019   4.530  10.853
 3050SOL    HW2 9483   0.917   4.648  10.807
 3051SOL     OW 9484   0.991   4.134  10.552
 3051SOL    HW1 9485   0.914   4.168  10.606
 3051SOL    HW2 9486   0.957   4.083  10.473
 3052SOL     OW 9487   1.041   4.425   9.739
 3052SOL    HW1 9488   1.067   4.421   9.835
 3052SOL    HW2 9489   0.956   4.374   9.725
 3053SOL     OW 9490   0.076   4.535  10.099
 3053SOL    HW1 9491   0.175   4.523  10.108
 3053SOL    HW2 9492   0.052   4.630  10.120
 3054SOL     OW 9493   0.865   4.072   9.505
 3054SOL    HW1 9494   0.924   4.135   9.456
 3054SOL    HW2 9495   0.884   3.978   9.476
 3055SOL     OW 9496   0.550   3.920  10.195
 3055SOL    HW1 9497   0.545   3.915  10.295
 3055SOL    HW2 9498   0.552   4.016  10.166
 3056SOL     OW 9499   1.458   4.459  10.038
 3056SOL    HW1 9500   1.453   4.394  10.113
 3056SOL    HW2 9501   1.538   4.518  10.051
 3057SOL     OW 9502   1.400   3.831   9.736
 3057SOL    HW1 9503   1.376   3.794   9.646
 3057SOL    HW2 9504   1.499   3.847   9.740
 3058SOL     OW 9505   0.382   4.424   9.790
 3058SOL    HW1 9506   0.427   4.334   9.787
 3058SOL    HW2 9507   0.288   4.413   9.823
 3059SOL     OW 9508   0.614   3.846   9.427
 3059SOL    HW1 9509   0.712   3.824   9.434
 3059SOL    HW2 9510   0.583   3.829   9.334
 3060SOL     OW 9511   0.922   4.227  10.209
 3060SOL    HW1 9512   0.897   4.218  10.113
 3060SOL    HW2 9513   0.970   4.145  10.240
 3061SOL     OW 9514   0.539   3.788   9.822
 3061SOL    HW1 9515   0.458   3.789   9.880
 3061SOL    HW2 9516   0.542   3.871   9.767
 3062SOL     OW 9517   0.297   3.759   9.481
 3062SOL    HW1 9518   0.346   3.843   9.460
 3062SOL    HW2 9519   0.359   3.694   9.526
 3063SOL     OW 9520   0.935   3.960   9.790
 3063SOL    HW1 9521   0.887   4.001   9.712
 3063SOL    HW2 9522   1.034   3.958   9.771
 3064SOL     OW 9523   1.032   4.273   9.326
 3064SOL    HW1 9524   0.991   4.355   9.287
 3064SOL    HW2 9525   1.096   4.299   9.399
 3065SOL     OW 9526   0.078   4.280  10.696
 3065SOL    HW1 9527   0.170   4.279  10.655
 3065SOL    HW2 9528   0.072   4.354  10.763
 3066SOL     OW 9529   0.561   3.946  10.457
 3066SOL    HW1 9530   0.599   3.862  10.494
 3066SOL    HW2 9531   0.473   3.965  10.501
 3067SOL     OW 9532   0.866   4.178   9.952
 3067SOL    HW1 9533   0.834   4.250   9.890
 3067SOL    HW2 9534   0.890   4.097   9.899
 3068SOL     OW 9535   1.017   3.763  10.063
 3068SOL    HW1 9536   0.945   3.768   9.994
 3068SOL    HW2 9537   0.993   3.694  10.132
 3069SOL     OW 9538   1.466   4.314  10.302
 3069SOL    HW1 9539   1.436   4.219  10.309
 3069SOL    HW2 9540   1.539   4.330  10.368
 3070SOL     OW 9541   1.857   4.557   9.687
 3070SOL    HW1 9542   1.899   4.493   9.751
 3070SOL    HW2 9543   1.819   4.506   9.609
 3071SOL     OW 9544   1.390   4.299   9.388
 3071SOL    HW1 9545   1.336   4.278   9.469
 3071SOL    HW2 9546   1.481   4.258   9.397
 3072SOL     OW 9547   0.527   3.980   9.638
 3072SOL    HW1 9548   0.554   3.921   9.563
 3072SOL    HW2 9549   0.527   4.075   9.607
 3073SOL     OW 9550   1.638   4.823  10.389
 3073SOL    HW1 9551   1.643   4.904  10.448
 3073SOL    HW2 9552   1.552   4.825  10.338
 3074SOL     OW 9553   0.915   3.813  10.712
 3074SOL    HW1 9554   0.940   3.793  10.617
 3074SOL    HW2 9555   0.987   3.869  10.754
 3075SOL     OW 9556   0.410   4.537  10.561
 3075SOL    HW1 9557   0.496   4.549  10.611
 3075SOL    HW2 9558   0.368   4.450  10.588
 3076SOL     OW 9559   1.274   4.110  10.572
 3076SOL    HW1 9560   1.295   4.184  10.636
 3076SOL    HW2 9561   1.185   4.127  10.529
 3077SOL     OW 9562   0.566   4.261  10.175
 3077SOL    HW1 9563   0.578   4.327  10.101
 3077SOL    HW2 9564   0.612   4.295  10.258
 3078SOL     OW 9565   1.582   4.363   9.782
 3078SOL    HW1 9566   1.551   4.424   9.855
 3078SOL    HW2 9567   1.632   4.415   9.713
 3079SOL     OW 9568   0.402   4.475  10.908
 3079SOL    HW1 9569   0.470   4.530  10.861
 3079SOL    HW2 9570   0.442   4.387  10.935
 3080SOL     OW 9571   1.587   4.503  10.980
 3080SOL    HW1 9572   1.495   4.541  10.975
 3080SOL    HW2 9573   1.647   4.550  10.915
 3081SOL     OW 9574   0.573   4.594  10.339
 3081SOL    HW1 9575   0.617   4.683  10.330
 3081SOL    HW2 9576   0.510   4.594  10.416
 3082SOL     OW 9577   1.360   4.586  10.355
 3082SOL    HW1 9578   1.285   4.586  10.289
 3082SOL    HW2 9579   1.397   4.494  10.364
 3083SOL     OW 9580   1.209   4.249   9.585
 3083SOL    HW1 9581   1.222   4.165   9.639
 3083SOL    HW2 9582   1.180   4.323   9.645
 3084SOL     OW 9583   0.307   3.937  10.541
 3084SOL    HW1 9584   0.284   3.974  10.631
 3084SOL    HW2 9585   0.277   3.842  10.535
 3085SOL     OW 9586   0.037   5.034  10.592
 3085SOL    HW1 9587   0.090   4.985  10.660
 3085SOL    HW2 9588   0.059   5.132  10.597
 3086SOL     OW 9589   0.732   4.358  10.374
 3086SOL    HW1 9590   0.791   4.332  10.298
 3086SOL    HW2 9591   0.704   4.454  10.363
 3087SOL     OW 9592   0.307   3.787   9.928
 3087SOL    HW1 9593   0.296   3.881   9.961
 3087SOL    HW2 9594   0.302   3.724  10.005
 3088SOL     OW 9595   1.622   4.091   9.684
 3088SOL    HW1 9596   1.624   4.015   9.748
 3088SOL    HW2 9597   1.574   4.168   9.724
 3089SOL     OW 9598   1.023   4.490  10.276
 3089SOL    HW1 9599   1.038   4.511  10.372
 3089SOL    HW2 9600   0.993   4.395  10.267
 3090SOL     OW 9601   1.540   3.998   9.435
 3090SOL    HW1 9602   1.479   3.923   9.458
 3090SOL    HW2 9603   1.562   4.050   9.518
 3091SOL     OW 9604   1.303   4.562   9.352
 3091SOL    HW1 9605   1.337   4.469   9.367
 3091SOL    HW2 9606   1.321   4.589   9.257
 3092SOL     OW 9607   0.319   4.534  10.259
 3092SOL    HW1 9608   0.412   4.570  10.264
 3092SOL    HW2 9609   0.313   4.449  10.311
 3093SOL     OW 9610   0.339   4.233  10.316
 3093SOL    HW1 9611   0.287   4.150  10.299
 3093SOL    HW2 9612   0.416   4.238  10.252
 3094SOL     OW 9613   1.138   4.104  10.988
 3094SOL    HW1 9614   1.093   4.167  11.052
 3094SOL    HW2 9615   1.231   4.135  10.971
 3095SOL     OW 9616   1.160   3.931  10.787
 3095SOL    HW1 9617   1.160   3.995  10.864
 3095SOL    HW2 9618   1.188   3.979  10.704
 3096SOL     OW 9619   1.002   4.520  10.548
 3096SOL    HW1 9620   1.043   4.488  10.634
 3096SOL    HW2 9621   0.906   4.493  10.545
 3097SOL     OW 9622   0.040   4.268  10.424
 3097SOL    HW1 9623   0.125   4.235  10.383
 3097SOL    HW2 9624   0.053   4.283  10.522
 3098SOL     OW 9625   0.815   4.296   9.635
 3098SOL    HW1 9626   0.822   4.207   9.589
 3098SOL    HW2 9627   0.721   4.330   9.627
 3099SOL     OW 9628   1.657   4.328  10.516
 3099SOL    HW1 9629   1.619   4.259  10.578
 3099SOL    HW2 9630   1.739   4.292  10.472
 3100SOL     OW 9631   0.671   4.188  10.579
 3100SOL    HW1 9632   0.637   4.099  10.549
 3100SOL    HW2 9633   0.697   4.242  10.499
 3101SOL     OW 9634   0.473   4.224   9.501
 3101SOL    HW1 9635   0.534   4.304   9.505
 3101SOL    HW2 9636   0.378   4.255   9.508
 3102SOL     OW 9637   0.159   4.861  10.776
 3102SOL    HW1 9638   0.181   4.800  10.852
 3102SOL    HW2 9639   0.169   4.812  10.690
 3103SOL     OW 9640   1.347   4.783  10.544
 3103SOL    HW1 9641   1.371   4.720  10.470
 3103SOL    HW2 9642   1.257   4.823  10.526
 3104SOL     OW 9643   1.302   4.579   9.619
 3104SOL    HW1 9644   1.216   4.548   9.661
 3104SOL    HW2 9645   1.298   4.565   9.520
 3105SOL     OW 9646   1.726   3.859   9.833
 3105SOL    HW1 9647   1.799   3.842   9.766
 3105SOL    HW2 9648   1.695   3.772   9.871
 3106SOL     OW 9649   1.280   4.651   9.982
 3106SOL    HW1 9650   1.340   4.570   9.984
 3106SOL    HW2 9651   1.320   4.720   9.922
 3107SOL     OW 9652   0.830   4.997  10.732
 3107SOL    HW1 9653   0.825   5.030  10.827
 3107SOL    HW2 9654   0.744   5.016  10.686
 3108SOL     OW 9655   1.841   3.899  10.273
 3108SOL    HW1 9656   1.880   3.814  10.237
 3108SOL    HW2 9657   1.743   3.901  10.254
 3109SOL     OW 9658   0.263   4.050  10.030
 3109SOL    HW1 9659   0.184   4.101   9.996
 3109SOL    HW2 9660   0.254   4.035  10.128
 3110SOL     OW 9661   0.916   4.634   9.601
 3110SOL    HW1 9662   0.979   4.672   9.533
 3110SOL    HW2 9663   0.956   4.551   9.640
 3111SOL     OW 9664   1.014   3.960  10.281
 3111SOL    HW1 9665   1.006   3.924  10.188
 3111SOL    HW2 9666   1.012   3.884  10.346
 3112SOL     OW 9667   1.709   4.109  10.691
 3112SOL    HW1 9668   1.782   4.178  10.695
 3112SOL    HW2 9669   1.737   4.034  10.632
 3113SOL     OW 9670   0.075   4.069   9.343
 3113SOL    HW1 9671  -0.017   4.041   9.314
 3113SOL    HW2 9672   0.106   4.146   9.287
 3114SOL     OW 9673   1.440   4.580  10.708
 3114SOL    HW1 9674   1.383   4.632  10.645
 3114SOL    HW2 9675   1.536   4.592  10.684
 3115SOL     OW 9676   0.072   3.890   9.628
 3115SOL    HW1 9677   0.055   3.973   9.574
 3115SOL    HW2 9678   0.162   3.853   9.606
 3116SOL     OW 9679   0.613   4.566  10.741
 3116SOL    HW1 9680   0.669   4.647  10.724
 3116SOL    HW2 9681   0.672   4.486  10.744
 3117SOL     OW 9682   1.674   4.607  10.564
 3117SOL    HW1 9683   1.647   4.518  10.527
 3117SOL    HW2 9684   1.675   4.675  10.491
 3118SOL     OW 9685   1.225   4.049   9.759
 3118SOL    HW1 9686   1.290   3.975   9.748
 3118SOL    HW2 9687   1.245   4.099   9.843
 3119SOL     OW 9688   0.594   4.469   9.962
 3119SOL    HW1 9689   0.644   4.554   9.943
 3119SOL    HW2 9690   0.506   4.471   9.914
 3120SOL     OW 9691   1.730   4.658  10.827
 3120SOL    HW1 9692   1.768   4.749  10.842
 3120SOL    HW2 9693   1.722   4.641  10.728
 3121SOL     OW 9694   1.824   3.916  10.537
 3121SOL    HW1 9695   1.820   3.826  10.581
 3121SOL    HW2 9696   1.827   3.905  10.438
 3122SOL     OW 9697   0.428   4.148   9.830
 3122SOL    HW1 9698   0.458   4.076   9.768
 3122SOL    HW2 9699   0.389   4.108   9.913
 3123SOL     OW 9700   0.317   4.271  10.590
 3123SOL    HW1 9701   0.355   4.212  10.662
 3123SOL    HW2 9702   0.357   4.245  10.502
 3124SOL     OW 9703   1.424   3.938  10.422
 3124SOL    HW1 9704   1.476   3.873  10.477
 3124SOL    HW2 9705   1.375   4.001  10.483
 3125SOL     OW 9706   1.001   3.758  10.464
 3125SOL    HW1 9707   0.938   3.686  10.433
 3125SOL    HW2 9708   1.094   3.722  10.464
 3126SOL     OW 9709   1.352   3.776   9.478
 3126SOL    HW1 9710   1.387   3.735   9.394
 3126SOL    HW2 9711   1.262   3.738   9.498
 3127SOL     OW 9712   1.300   4.177  10.001
 3127SOL    HW1 9713   1.241   4.257  10.005
 3127SOL    HW2 9714   1.315   4.142  10.094
 3128SOL     OW 9715   1.593   3.945  10.192
 3128SOL    HW1 9716   1.509   3.944  10.246
 3128SOL    HW2 9717   1.595   4.028  10.136
 3129SOL     OW 9718   2.092   0.628   0.113
 3129SOL    HW1 9719   1.999   0.626   0.150
 3129SOL    HW2 9720   2.093   0.589   0.021
 3130SOL     OW 9721   2.087   0.275   0.996
 3130SOL    HW1 9722   2.122   0.258   1.088
 3130SOL    HW2 9723   1.999   0.230   0.984
 3131SOL     OW 9724   1.881   0.368   0.647
 3131SOL    HW1 9725   1.799   0.411   0.686
 3131SOL    HW2 9726   1.853   0.295   0.584
 3132SOL     OW 9727   2.431   1.275   1.165
 3132SOL    HW1 9728   2.338   1.268   1.128
 3132SOL    HW2 9729   2.442   1.364   1.209
 3133SOL     OW 9730   3.417   1.511   0.703
 3133SOL    HW1 9731   3.360   1.495   0.784
 3133SOL    HW2 9732   3.358   1.521   0.623
 3134SOL     OW 9733   2.997   0.703   0.717
 3134SOL    HW1 9734   3.054   0.781   0.692
 3134SOL    HW2 9735   2.937   0.729   0.793
 3135SOL     OW 9736   3.617   0.607   0.231
 3135SOL    HW1 9737   3.605   0.594   0.132
 3135SOL    HW2 9738   3.587   0.526   0.280
 3136SOL     OW 9739   2.630   1.144   1.023
 3136SOL    HW1 9740   2.552   1.161   1.083
 3136SOL    HW2 9741   2.664   1.231   0.987
 3137SOL     OW 9742   2.712   0.798   1.823
 3137SOL    HW1 9743   2.708   0.874   1.888
 3137SOL    HW2 9744   2.734   0.834   1.732
 3138SOL     OW 9745   2.547   1.012   0.665
 3138SOL    HW1 9746   2.616   0.996   0.735
 3138SOL    HW2 9747   2.474   1.069   0.703
 3139SOL     OW 9748   2.548   1.161   1.803
 3139SOL    HW1 9749   2.608   1.240   1.817
 3139SOL    HW2 9750   2.462   1.192   1.762
 3140SOL     OW 9751   2.197   1.435   1.061
 3140SOL    HW1 9752   2.119   1.404   1.008
 3140SOL    HW2 9753   2.255   1.493   1.004
 3141SOL     OW 9754   3.322   1.505   1.339
 3141SOL    HW1 9755   3.346   1.599   1.365
 3141SOL    HW2 9756   3.306   1.451   1.421
 3142SOL     OW 9757   2.300   0.392   1.499
 3142SOL    HW1 9758   2.382   0.336   1.508
 3142SOL    HW2 9759   2.219   0.334   1.503
 3143SOL     OW 9760   3.465   0.447   0.737
 3143SOL    HW1 9761   3.391   0.493   0.687
 3143SOL    HW2 9762   3.516   0.515   0.790
 3144SOL     OW 9763   2.093   1.713   0.483
 3144SOL    HW1 9764   2.127   1.790   0.537
 3144SOL    HW2 9765   2.137   1.713   0.393
 3145SOL     OW 9766   2.989   1.341   1.690
 3145SOL    HW1 9767   3.036   1.341   1.778
 3145SOL    HW2 9768   2.941   1.254   1.679
 3146SOL     OW 9769   2.092   1.434   0.538
 3146SOL    HW1 9770   2.066   1.530   0.538
 3146SOL    HW2 9771   2.021   1.380   0.583
 3147SOL     OW 9772   2.102   1.091   0.886
 3147SOL    HW1 9773   2.116   1.007   0.938
 3147SOL    HW2 9774   2.047   1.155   0.941
 3148SOL     OW 9775   2.482   1.786   1.439
 3148SOL    HW1 9776   2.390   1.769   1.474
 3148SOL    HW2 9777   2.510   1.878   1.465
 3149SOL     OW 9778   2.468   0.964   0.123
 3149SOL    HW1 9779   2.475   1.048   0.069
 3149SOL    HW2 9780   2.514   0.977   0.211
 3150SOL     OW 9781   3.456   0.114   1.480
 3150SOL    HW1 9782   3.438   0.181   1.408
 3150SOL    HW2 9783   3.453   0.160   1.569
 3151SOL     OW 9784   1.984   0.643   0.563
 3151SOL    HW1 9785   1.939   0.555   0.580
 3151SOL    HW2 9786   1.983   0.697   0.647
 3152SOL     OW 9787   3.704   1.767   0.359
 3152SOL    HW1 9788   3.758   1.738   0.439
 3152SOL    HW2 9789   3.734   1.857   0.330
 3153SOL     OW 9790   1.889   1.596   0.117
 3153SOL    HW1 9791   1.870   1.500   0.138
 3153SOL    HW2 9792   1.856   1.654   0.192
 3154SOL     OW 9793   3.551   0.922   0.612
 3154SOL    HW1 9794   3.646   0.893   0.620
 3154SOL    HW2 9795   3.543   0.987   0.537
 3155SOL     OW 9796   3.503   1.108   0.432
 3155SOL    HW1 9797   3.589   1.110   0.380
 3155SOL    HW2 9798   3.517   1.155   0.520
 3156SOL     OW 9799   1.975   0.737   1.597
 3156SOL    HW1 9800   2.063   0.724   1.642
 3156SOL    HW2 9801   1.962   0.834   1.575
 3157SOL     OW 9802   2.475   1.365   0.726
 3157SOL    HW1 9803   2.426   1.278   0.735
 3157SOL    HW2 9804   2.452   1.408   0.639
 3158SOL     OW 9805   3.155   1.228   1.423
 3158SOL    HW1 9806   3.192   1.155   1.365
 3158SOL    HW2 9807   3.207   1.233   1.508
 3159SOL     OW 9808   2.671   0.004   0.502
 3159SOL    HW1 9809   2.711   0.095   0.493
 3159SOL    HW2 9810   2.571   0.012   0.508
 3160SOL     OW 9811   2.059   0.976   1.264
 3160SOL    HW1 9812   2.148   0.931   1.250
 3160SOL    HW2 9813   1.986   0.911   1.245
 3161SOL     OW 9814   3.387   0.999   0.190
 3161SOL    HW1 9815   3.324   0.923   0.203
 3161SOL    HW2 9816   3.435   1.017   0.276
 3162SOL     OW 9817   3.049   1.792   1.616
 3162SOL    HW1 9818   3.073   1.852   1.540
 3162SOL    HW2 9819   3.056   1.697   1.586
 3163SOL     OW 9820   2.179   0.251   1.801
 3163SOL    HW1 9821   2.250   0.322   1.807
 3163SOL    HW2 9822   2.091   0.290   1.829
 3164SOL     OW 9823   3.328   1.417   0.953
 3164SOL    HW1 9824   3.269   1.423   1.033
 3164SOL    HW2 9825   3.313   1.329   0.907
 3165SOL     OW 9826   3.529   1.714   0.572
 3165SOL    HW1 9827   3.488   1.691   0.484
 3165SOL    HW2 9828   3.511   1.640   0.637
 3166SOL     OW 9829   2.460   0.729   0.270
 3166SOL    HW1 9830   2.484   0.798   0.202
 3166SOL    HW2 9831   2.382   0.762   0.324
 3167SOL     OW 9832   3.143   0.345   0.944
 3167SOL    HW1 9833   3.057   0.295   0.931
 3167SOL    HW2 9834   3.205   0.291   1.000
 3168SOL     OW 9835   3.438   1.662   0.307
 3168SOL    HW1 9836   3.527   1.708   0.310
 3168SOL    HW2 9837   3.417   1.638   0.212
 3169SOL     OW 9838   2.669   0.605   1.465
 3169SOL    HW1 9839   2.622   0.602   1.554
 3169SOL    HW2 9840   2.618   0.550   1.399
 3170SOL     OW 9841   3.256   0.469   1.674
 3170SOL    HW1 9842   3.236   0.512   1.762
 3170SOL    HW2 9843   3.334   0.407   1.683
 3171SOL     OW 9844   2.835   0.890   1.572
 3171SOL    HW1 9845   2.881   0.806   1.543
 3171SOL    HW2 9846   2.779   0.924   1.497
 3172SOL     OW 9847   2.853   0.410   1.242
 3172SOL    HW1 9848   2.776   0.444   1.296
 3172SOL    HW2 9849   2.819   0.359   1.163
 3173SOL     OW 9850   2.903   0.701   0.429
 3173SOL    HW1 9851   2.929   0.697   0.525
 3173SOL    HW2 9852   2.818   0.650   0.415
 3174SOL     OW 9853   1.938   0.811   0.789
 3174SOL    HW1 9854   2.037   0.799   0.798
 3174SOL    HW2 9855   1.914   0.906   0.810
 3175SOL     OW 9856   1.992   1.821   1.571
 3175SOL    HW1 9857   1.982   1.806   1.670
 3175SOL    HW2 9858   1.906   1.857   1.535
 3176SOL     OW 9859   2.727   0.348   0.195
 3176SOL    HW1 9860   2.786   0.411   0.146
 3176SOL    HW2 9861   2.746   0.254   0.166
 3177SOL     OW 9862   3.581   0.585   1.831
 3177SOL    HW1 9863   3.555   0.674   1.795
 3177SOL    HW2 9864   3.579   0.517   1.758
 3178SOL     OW 9865   3.224   1.144   0.545
 3178SOL    HW1 9866   3.307   1.115   0.497
 3178SOL    HW2 9867   3.175   1.211   0.489
 3179SOL     OW 9868   2.412   0.196   0.885
 3179SOL    HW1 9869   2.407   0.191   0.985
 3179SOL    HW2 9870   2.414   0.292   0.856
 3180SOL     OW 9871   2.870   1.456   0.477
 3180SOL    HW1 9872   2.824   1.528   0.425
 3180SOL    HW2 9873   2.866   1.476   0.575
 3181SOL     OW 9874   2.213   1.801   0.853
 3181SOL    HW1 9875   2.263   1.715   0.859
 3181SOL    HW2 9876   2.278   1.878   0.850
 3182SOL     OW 9877   3.657   1.066   0.873
 3182SOL    HW1 9878   3.595   1.051   0.797
 3182SOL    HW2 9879   3.605   1.077   0.958
 3183SOL     OW 9880   3.089   1.550   1.506
 3183SOL    HW1 9881   3.095   1.473   1.570
 3183SOL    HW2 9882   3.037   1.524   1.426
 3184SOL     OW 9883   2.183   0.943   0.242
 3184SOL    HW1 9884   2.265   0.982   0.200
 3184SOL    HW2 9885   2.156   0.861   0.193
 3185SOL     OW 9886   3.320   0.735   0.728
 3185SOL    HW1 9887   3.315   0.670   0.803
 3185SOL    HW2 9888   3.400   0.794   0.741
 3186SOL     OW 9889   2.323   1.266   1.727
 3186SOL    HW1 9890   2.273   1.267   1.641
 3186SOL    HW2 9891   2.260   1.248   1.803
 3187SOL     OW 9892   2.973   1.776   0.237
 3187SOL    HW1 9893   2.913   1.714   0.287
 3187SOL    HW2 9894   3.004   1.732   0.152
 3188SOL     OW 9895   2.064   0.285   1.498
 3188SOL    HW1 9896   1.984   0.345   1.485
 3188SOL    HW2 9897   2.054   0.236   1.584
 3189SOL     OW 9898   3.494   1.377   0.081
 3189SOL    HW1 9899   3.462   1.471   0.071
 3189SOL    HW2 9900   3.418   1.314   0.069
 3190SOL     OW 9901   2.326   1.743   0.323
 3190SOL    HW1 9902   2.359   1.782   0.409
 3190SOL    HW2 9903   2.402   1.736   0.258
 3191SOL     OW 9904   3.262   0.107   0.426
 3191SOL    HW1 9905   3.238   0.070   0.336
 3191SOL    HW2 9906   3.361   0.123   0.430
 3192SOL     OW 9907   2.111   1.785   1.241
 3192SOL    HW1 9908   2.168   1.720   1.291
 3192SOL    HW2 9909   2.095   1.752   1.148
 3193SOL     OW 9910   2.802   1.698   0.904
 3193SOL    HW1 9911   2.882   1.641   0.925
 3193SOL    HW2 9912   2.753   1.658   0.827
 3194SOL     OW 9913   2.244   0.700   0.480
 3194SOL    HW1 9914   2.289   0.610   0.477
 3194SOL    HW2 9915   2.150   0.689   0.513
 3195SOL     OW 9916   3.409   0.222   1.729
 3195SOL    HW1 9917   3.404   0.259   1.821
 3195SOL    HW2 9918   3.337   0.153   1.717
 3196SOL     OW 9919   2.476   0.122   0.117
 3196SOL    HW1 9920   2.574   0.100   0.124
 3196SOL    HW2 9921   2.445   0.105   0.024
 3197SOL     OW 9922   2.643   0.264   1.749
 3197SOL    HW1 9923   2.710   0.203   1.792
 3197SOL    HW2 9924   2.570   0.283   1.814
 3198SOL     OW 9925   2.750   1.514   1.195
 3198SOL    HW1 9926   2.727   1.489   1.101
 3198SOL    HW2 9927   2.811   1.445   1.234
 3199SOL     OW 9928   3.213   0.590   1.433
 3199SOL    HW1 9929   3.241   0.547   1.518
 3199SOL    HW2 9930   3.238   0.686   1.434
 3200SOL     OW 9931   2.665   1.402   0.924
 3200SOL    HW1 9932   2.755   1.416   0.882
 3200SOL    HW2 9933   2.594   1.404   0.853
 3201SOL     OW 9934   2.784   0.503   0.899
 3201SOL    HW1 9935   2.759   0.494   0.803
 3201SOL    HW2 9936   2.832   0.421   0.930
 3202SOL     OW 9937   2.401   0.064   0.512
 3202SOL    HW1 9938   2.320   0.065   0.570
 3202SOL    HW2 9939   2.404   0.147   0.457
 3203SOL     OW 9940   3.296   1.188   0.041
 3203SOL    HW1 9941   3.328   1.112   0.098
 3203SOL    HW2 9942   3.204   1.215   0.071
 3204SOL     OW 9943   2.159   0.035   0.171
 3204SOL    HW1 9944   2.208   0.119   0.150
 3204SOL    HW2 9945   2.221  -0.030   0.216
 3205SOL     OW 9946   2.797   0.236   0.480
 3205SOL    HW1 9947   2.749   0.277   0.402
 3205SOL    HW2 9948   2.896   0.234   0.461
 3206SOL     OW 9949   2.938   0.683   1.464
 3206SOL    HW1 9950   2.858   0.622   1.467
 3206SOL    HW2 9951   3.019   0.630   1.440
 3207SOL     OW 9952   3.089   1.570   0.793
 3207SOL    HW1 9953   3.110   1.644   0.728
 3207SOL    HW2 9954   3.157   1.570   0.866
 3208SOL     OW 9955   2.321   1.152   0.741
 3208SOL    HW1 9956   2.250   1.125   0.806
 3208SOL    HW2 9957   2.295   1.124   0.648
 3209SOL     OW 9958   3.133   1.797   0.591
 3209SOL    HW1 9959   3.177   1.861   0.527
 3209SOL    HW2 9960   3.083   1.849   0.661
 3210SOL     OW 9961   2.894   0.549   0.016
 3210SOL    HW1 9962   2.853   0.631  -0.023
 3210SOL    HW2 9963   2.958   0.575   0.089
 3211SOL     OW 9964   1.940   0.556   1.386
 3211SOL    HW1 9965   2.032   0.555   1.345
 3211SOL    HW2 9966   1.934   0.630   1.453
 3212SOL     OW 9967   2.423   0.222   1.147
 3212SOL    HW1 9968   2.461   0.138   1.184
 3212SOL    HW2 9969   2.335   0.241   1.191
 3213SOL     OW 9970   2.728   0.454   0.642
 3213SOL    HW1 9971   2.696   0.526   0.580
 3213SOL    HW2 9972   2.752   0.373   0.589
 3214SOL     OW 9973   2.879   0.039   0.753
 3214SOL    HW1 9974   2.807   0.044   0.684
 3214SOL    HW2 9975   2.855  -0.030   0.822
 3215SOL     OW 9976   3.291   1.173   0.867
 3215SOL    HW1 9977   3.236   1.089   0.860
 3215SOL    HW2 9978   3.317   1.202   0.775
 3216SOL     OW 9979   3.328   0.590   0.992
 3216SOL    HW1 9980   3.298   0.495   0.999
 3216SOL    HW2 9981   3.401   0.606   1.058
 3217SOL     OW 9982   3.719   0.833   0.377
 3217SOL    HW1 9983   3.761   0.769   0.441
 3217SOL    HW2 9984   3.681   0.782   0.299
 3218SOL     OW 9985   2.350   1.385   0.174
 3218SOL    HW1 9986   2.263   1.370   0.221
 3218SOL    HW2 9987   2.333   1.411   0.079
 3219SOL     OW 9988   3.526   1.280   0.657
 3219SOL    HW1 9989   3.625   1.288   0.671
 3219SOL    HW2 9990   3.481   1.364   0.688
 3220SOL     OW 9991   3.252   0.575   0.078
 3220SOL    HW1 9992   3.198   0.554   0.159
 3220SOL    HW2 9993   3.343   0.534   0.087
 3221SOL     OW 9994   2.389   0.256   0.328
 3221SOL    HW1 9995   2.416   0.197   0.253
 3221SOL    HW2 9996   2.389   0.351   0.297
 3222SOL     OW 9997   3.616   1.223   1.588
 3222SOL    HW1 9998   3.707   1.184   1.575
 3222SOL    HW2 9999   3.624   1.319   1.612
 3223SOL     OW10000   2.926   1.347   1.340
 3223SOL    HW110001   2.846   1.324   1.395
 3223SOL    HW210002   3.009   1.321   1.389
 3224SOL     OW10003   3.454   1.629   1.625
 3224SOL    HW110004   3.481   1.663   1.535
 3224SOL    HW210005   3.533   1.591   1.671
 3225SOL     OW10006   2.973   1.195   1.100
 3225SOL    HW110007   2.933   1.239   1.181
 3225SOL    HW210008   2.932   1.232   1.017
 3226SOL     OW10009   3.500   1.099   1.079
 3226SOL    HW110010   3.505   1.180   1.138
 3226SOL    HW210011   3.414   1.101   1.028
 3227SOL     OW10012   2.777   0.089   1.402
 3227SOL    HW110013   2.802   0.069   1.307
 3227SOL    HW210014   2.849   0.145   1.444
 3228SOL     OW10015   2.842   1.116   1.719
 3228SOL    HW110016   2.743   1.122   1.729
 3228SOL    HW210017   2.865   1.036   1.663
 3229SOL     OW10018   2.567   1.050   0.368
 3229SOL    HW110019   2.553   1.057   0.467
 3229SOL    HW210020   2.651   0.999   0.350
 3230SOL     OW10021   2.272   0.813   1.251
 3230SOL    HW110022   2.358   0.825   1.301
 3230SOL    HW210023   2.230   0.726   1.278
 3231SOL     OW10024   3.136   0.386   1.262
 3231SOL    HW110025   3.157   0.460   1.326
 3231SOL    HW210026   3.047   0.403   1.219
 3232SOL     OW10027   1.926   1.564   1.331
 3232SOL    HW110028   1.880   1.646   1.297
 3232SOL    HW210029   2.024   1.583   1.340
 3233SOL     OW10030   2.229   1.100   0.501
 3233SOL    HW110031   2.222   1.183   0.445
 3233SOL    HW210032   2.233   1.020   0.441
 3234SOL     OW10033   2.428   0.537   0.865
 3234SOL    HW110034   2.440   0.603   0.791
 3234SOL    HW210035   2.474   0.571   0.948
 3235SOL     OW10036   3.114   1.348   0.388
 3235SOL    HW110037   3.164   1.425   0.428
 3235SOL    HW210038   3.019   1.350   0.420
 3236SOL     OW10039   3.134   1.445   1.142
 3236SOL    HW110040   3.181   1.458   1.229
 3236SOL    HW210041   3.068   1.371   1.151
 3237SOL     OW10042   3.444   0.639   0.472
 3237SOL    HW110043   3.413   0.700   0.545
 3237SOL    HW210044   3.494   0.691   0.403
 3238SOL     OW10045   2.216   1.510   1.329
 3238SOL    HW110046   2.195   1.466   1.242
 3238SOL    HW210047   2.313   1.536   1.332
 3239SOL     OW10048   2.264   0.751   1.598
 3239SOL    HW110049   2.332   0.806   1.551
 3239SOL    HW210050   2.304   0.663   1.625
 3240SOL     OW10051   3.449   0.779   1.670
 3240SOL    HW110052   3.357   0.817   1.665
 3240SOL    HW210053   3.509   0.826   1.605
 3241SOL     OW10054   2.875   0.105   1.770
 3241SOL    HW110055   2.881   0.190   1.718
 3241SOL    HW210056   2.907   0.029   1.713
 3242SOL     OW10057   2.366   0.050   1.740
 3242SOL    HW110058   2.324  -0.007   1.670
 3242SOL    HW210059   2.300   0.119   1.772
 3243SOL     OW10060   2.435   0.870   1.029
 3243SOL    HW110061   2.479   0.959   1.020
 3243SOL    HW210062   2.372   0.870   1.106
 3244SOL     OW10063   3.222   0.862   1.045
 3244SOL    HW110064   3.147   0.862   0.979
 3244SOL    HW210065   3.259   0.770   1.054
 3245SOL     OW10066   3.071   0.525   0.275
 3245SOL    HW110067   3.084   0.441   0.329
 3245SOL    HW210068   3.042   0.599   0.335
 3246SOL     OW10069   2.169   0.213   1.231
 3246SOL    HW110070   2.146   0.250   1.321
 3246SOL    HW210071   2.139   0.118   1.225
 3247SOL     OW10072   1.899   1.310   1.282
 3247SOL    HW110073   1.952   1.261   1.350
 3247SOL    HW210074   1.921   1.408   1.287
 3248SOL     OW10075   2.594   0.634   1.064
 3248SOL    HW110076   2.653   0.608   0.988
 3248SOL    HW210077   2.566   0.730   1.053
 3249SOL     OW10078   3.590   0.935   1.854
 3249SOL    HW110079   3.544   0.928   1.765
 3249SOL    HW210080   3.528   0.979   1.920
 3250SOL     OW10081   2.169   0.063   0.618
 3250SOL    HW110082   2.158   0.157   0.651
 3250SOL    HW210083   2.164   0.000   0.695
 3251SOL     OW10084   3.484   0.367   0.374
 3251SOL    HW110085   3.486   0.291   0.438
 3251SOL    HW210086   3.436   0.444   0.414
 3252SOL     OW10087   2.885   0.766   0.966
 3252SOL    HW110088   2.900   0.787   1.062
 3252SOL    HW210089   2.855   0.671   0.957
 3253SOL     OW10090   2.842   1.573   1.700
 3253SOL    HW110091   2.822   1.617   1.612
 3253SOL    HW210092   2.881   1.482   1.684
 3254SOL     OW10093   3.721   1.518   1.605
 3254SOL    HW110094   3.735   1.545   1.510
 3254SOL    HW210095   3.804   1.540   1.658
 3255SOL     OW10096   2.212   0.898   1.804
 3255SOL    HW110097   2.288   0.942   1.852
 3255SOL    HW210098   2.247   0.851   1.722
 3256SOL     OW10099   3.402   0.274   0.125
 3256SOL    HW110100   3.341   0.199   0.148
 3256SOL    HW210101   3.424   0.326   0.208
 3257SOL     OW10102   3.165   0.838   0.042
 3257SOL    HW110103   3.199   0.745   0.057
 3257SOL    HW210104   3.183   0.865  -0.053
 3258SOL     OW10105   2.930   1.333   0.849
 3258SOL    HW110106   2.937   1.249   0.794
 3258SOL    HW210107   2.992   1.402   0.813
 3259SOL     OW10108   2.181   0.810   0.949
 3259SOL    HW110109   2.274   0.846   0.954
 3259SOL    HW210110   2.175   0.725   1.001
 3260SOL     OW10111   2.201   0.509   1.006
 3260SOL    HW110112   2.149   0.426   0.989
 3260SOL    HW210113   2.278   0.514   0.942
 3261SOL     OW10114   3.000   0.380   1.678
 3261SOL    HW110115   2.955   0.443   1.742
 3261SOL    HW210116   3.093   0.411   1.661
 3262SOL     OW10117   3.022   0.207   1.477
 3262SOL    HW110118   3.022   0.271   1.554
 3262SOL    HW210119   3.050   0.255   1.394
 3263SOL     OW10120   1.870   1.326   0.200
 3263SOL    HW110121   1.777   1.347   0.169
 3263SOL    HW210122   1.880   1.227   0.213
 3264SOL     OW10123   1.950   1.801   0.927
 3264SOL    HW110124   1.908   1.715   0.900
 3264SOL    HW210125   2.044   1.804   0.893
 3265SOL     OW10126   2.366   1.568   0.910
 3265SOL    HW110127   2.432   1.642   0.919
 3265SOL    HW210128   2.410   1.489   0.868
 3266SOL     OW10129   2.864   0.796   1.238
 3266SOL    HW110130   2.905   0.764   1.324
 3266SOL    HW210131   2.768   0.769   1.235
 3267SOL     OW10132   1.902   0.544   1.114
 3267SOL    HW110133   1.987   0.511   1.073
 3267SOL    HW210134   1.915   0.559   1.212
 3268SOL     OW10135   2.051   0.520   1.722
 3268SOL    HW110136   2.110   0.480   1.652
 3268SOL    HW210137   1.993   0.591   1.681
 3269SOL     OW10138   3.231   0.950   1.660
 3269SOL    HW110139   3.270   1.039   1.680
 3269SOL    HW210140   3.241   0.930   1.563
 3270SOL     OW10141   2.677   0.572   0.325
 3270SOL    HW110142   2.684   0.483   0.279
 3270SOL    HW210143   2.583   0.606   0.317
 3271SOL     OW10144   3.519   0.604   1.206
 3271SOL    HW110145   3.481   0.535   1.268
 3271SOL    HW210146   3.601   0.568   1.162
 3272SOL     OW10147   2.114   1.564   1.744
 3272SOL    HW110148   2.084   1.621   1.820
 3272SOL    HW210149   2.107   1.467   1.770
 3273SOL     OW10150   2.533   0.464   1.269
 3273SOL    HW110151   2.499   0.375   1.239
 3273SOL    HW210152   2.559   0.518   1.189
 3274SOL     OW10153   2.792   1.678   1.465
 3274SOL    HW110154   2.768   1.660   1.370
 3274SOL    HW210155   2.822   1.772   1.475
 3275SOL     OW10156   2.335   0.500   0.191
 3275SOL    HW110157   2.396   0.580   0.195
 3275SOL    HW210158   2.240   0.531   0.198
 3276SOL     OW10159   2.021   1.137   1.466
 3276SOL    HW110160   2.043   1.076   1.542
 3276SOL    HW210161   2.031   1.088   1.380
 3277SOL     OW10162   3.209   1.059   1.234
 3277SOL    HW110163   3.233   0.996   1.160
 3277SOL    HW210164   3.119   1.099   1.216
 3278SOL     OW10165   3.164   0.855   0.309
 3278SOL    HW110166   3.078   0.824   0.351
 3278SOL    HW210167   3.160   0.841   0.210
 3279SOL     OW10168   3.621   1.747   1.154
 3279SOL    HW110169   3.682   1.777   1.081
 3279SOL    HW210170   3.583   1.658   1.132
 3280SOL     OW10171   3.114   1.731   1.128
 3280SOL    HW110172   3.198   1.736   1.074
 3280SOL    HW210173   3.091   1.635   1.146
 3281SOL     OW10174   1.945   1.258   1.022
 3281SOL    HW110175   1.940   1.257   1.122
 3281SOL    HW210176   1.862   1.217   0.984
 3282SOL     OW10177   2.550   1.662   1.716
 3282SOL    HW110178   2.494   1.743   1.725
 3282SOL    HW210179   2.602   1.666   1.630
 3283SOL     OW10180   2.765   0.086   0.133
 3283SOL    HW110181   2.816   0.087   0.047
 3283SOL    HW210182   2.821   0.044   0.204
 3284SOL     OW10183   3.588   0.135   0.523
 3284SOL    HW110184   3.661   0.118   0.456
 3284SOL    HW210185   3.557   0.048   0.561
 3285SOL     OW10186   3.250   1.573   0.477
 3285SOL    HW110187   3.317   1.585   0.403
 3285SOL    HW210188   3.210   1.662   0.500
 3286SOL     OW10189   1.992   1.794   1.851
 3286SOL    HW110190   1.951   1.720   1.904
 3286SOL    HW210191   2.056   1.845   1.909
 3287SOL     OW10192   3.142   0.927   0.672
 3287SOL    HW110193   3.202   0.846   0.674
 3287SOL    HW210194   3.182   0.996   0.612
 3288SOL     OW10195   2.692   1.273   1.422
 3288SOL    HW110196   2.687   1.306   1.517
 3288SOL    HW210197   2.606   1.292   1.376
 3289SOL     OW10198   2.534   1.616   0.154
 3289SOL    HW110199   2.543   1.626   0.055
 3289SOL    HW210200   2.494   1.527   0.175
 3290SOL     OW10201   3.512   1.720   1.394
 3290SOL    HW110202   3.565   1.730   1.310
 3290SOL    HW210203   3.485   1.810   1.428
 3291SOL     OW10204   3.703   0.175   0.963
 3291SOL    HW110205   3.742   0.090   0.927
 3291SOL    HW210206   3.605   0.177   0.944
 3292SOL     OW10207   2.125   0.326   0.720
 3292SOL    HW110208   2.046   0.377   0.686
 3292SOL    HW210209   2.116   0.311   0.818
 3293SOL     OW10210   3.056   1.612   0.031
 3293SOL    HW110211   3.062   1.519   0.068
 3293SOL    HW210212   2.997   1.612  -0.049
 3294SOL     OW10213   2.684   1.002   1.372
 3294SOL    HW110214   2.724   1.001   1.280
 3294SOL    HW210215   2.694   1.094   1.412
 3295SOL     OW10216   2.778   0.910   0.291
 3295SOL    HW110217   2.841   0.948   0.223
 3295SOL    HW210218   2.818   0.827   0.330
 3296SOL     OW10219   3.366   1.607   0.044
 3296SOL    HW110220   3.274   1.644   0.051
 3296SOL    HW210221   3.404   1.627  -0.046
 3297SOL     OW10222   2.234   1.288   1.490
 3297SOL    HW110223   2.221   1.381   1.456
 3297SOL    HW210224   2.150   1.236   1.477
 3298SOL     OW10225   3.476   1.292   1.289
 3298SOL    HW110226   3.536   1.295   1.369
 3298SOL    HW210227   3.401   1.356   1.302
 3299SOL     OW10228   2.901   1.098   0.696
 3299SOL    HW110229   2.831   1.051   0.750
 3299SOL    HW210230   2.960   1.030   0.653
 3300SOL     OW10231   2.876   0.236   0.971
 3300SOL    HW110232   2.868   0.200   0.878
 3300SOL    HW210233   2.874   0.160   1.036
 3301SOL     OW10234   2.452   1.487   0.491
 3301SOL    HW110235   2.494   1.429   0.421
 3301SOL    HW210236   2.408   1.566   0.447
 3302SOL     OW10237   3.571   0.385   1.381
 3302SOL    HW110238   3.644   0.454   1.385
 3302SOL    HW210239   3.599   0.310   1.322
 3303SOL     OW10240   2.117   1.348   0.290
 3303SOL    HW110241   2.021   1.349   0.263
 3303SOL    HW210242   2.129   1.401   0.374
 3304SOL     OW10243   1.967   1.013   1.726
 3304SOL    HW110244   1.890   0.980   1.780
 3304SOL    HW210245   2.052   0.983   1.768
 3305SOL     OW10246   2.534   0.203   1.489
 3305SOL    HW110247   2.624   0.187   1.449
 3305SOL    HW210248   2.542   0.208   1.588
 3306SOL     OW10249   1.937   0.345   0.033
 3306SOL    HW110250   1.845   0.317   0.004
 3306SOL    HW210251   1.968   0.422  -0.023
 3307SOL     OW10252   3.302   0.856   1.398
 3307SOL    HW110253   3.245   0.908   1.335
 3307SOL    HW210254   3.398   0.868   1.374
 3308SOL     OW10255   1.934   0.166   0.318
 3308SOL    HW110256   1.917   0.249   0.264
 3308SOL    HW210257   2.024   0.129   0.296
 3309SOL     OW10258   3.045   1.335   0.119
 3309SOL    HW110259   2.946   1.324   0.121
 3309SOL    HW210260   3.079   1.350   0.212
 3310SOL     OW10261   2.475   0.842   1.431
 3310SOL    HW110262   2.531   0.923   1.414
 3310SOL    HW210263   2.534   0.762   1.434
 3311SOL     OW10264   3.355   1.767   0.959
 3311SOL    HW110265   3.388   1.831   0.890
 3311SOL    HW210266   3.421   1.761   1.034
 3312SOL     OW10267   2.578   0.565   1.708
 3312SOL    HW110268   2.597   0.630   1.782
 3312SOL    HW210269   2.638   0.485   1.717
 3313SOL     OW10270   3.312   1.220   1.633
 3313SOL    HW110271   3.303   1.210   1.732
 3313SOL    HW210272   3.408   1.213   1.607
 3314SOL     OW10273   2.252   1.741   1.560
 3314SOL    HW110274   2.161   1.782   1.558
 3314SOL    HW210275   2.245   1.647   1.592
 3315SOL     OW10276   3.536   0.883   1.254
 3315SOL    HW110277   3.509   0.794   1.217
 3315SOL    HW210278   3.537   0.951   1.181
 3316SOL     OW10279   3.087   0.325   0.449
 3316SOL    HW110280   3.152   0.251   0.438
 3316SOL    HW210281   3.107   0.375   0.533
 3317SOL     OW10282   2.456   0.745   0.652
 3317SOL    HW110283   2.506   0.830   0.633
 3317SOL    HW210284   2.368   0.747   0.604
 3318SOL     OW10285   3.639   0.342   1.642
 3318SOL    HW110286   3.622   0.373   1.548
 3318SOL    HW210287   3.555   0.305   1.680
 3319SOL     OW10288   3.592   0.934   1.517
 3319SOL    HW110289   3.630   1.025   1.532
 3319SOL    HW210290   3.584   0.917   1.418
 3320SOL     OW10291   2.721   1.374   0.016
 3320SOL    HW110292   2.675   1.389   0.104
 3320SOL    HW210293   2.765   1.459  -0.014
 3321SOL     OW10294   2.523   1.790   0.953
 3321SOL    HW110295   2.477   1.878   0.940
 3321SOL    HW210296   2.622   1.802   0.946
 3322SOL     OW10297   2.721   0.956   0.861
 3322SOL    HW110298   2.775   0.887   0.909
 3322SOL    HW210299   2.689   1.025   0.927
 3323SOL     OW10300   2.945   0.984   0.087
 3323SOL    HW110301   2.922   1.037   0.005
 3323SOL    HW210302   3.026   0.928   0.068
 3324SOL     OW10303   3.723   1.569   0.851
 3324SOL    HW110304   3.652   1.557   0.781
 3324SOL    HW210305   3.724   1.490   0.911
 3325SOL     OW10306   2.083   1.314   1.844
 3325SOL    HW110307   2.018   1.241   1.823
 3325SOL    HW210308   2.087   1.328   1.942
 3326SOL     OW10309   1.941   1.240   0.653
 3326SOL    HW110310   1.940   1.193   0.741
 3326SOL    HW210311   2.023   1.212   0.602
 3327SOL     OW10312   2.534   1.391   1.624
 3327SOL    HW110313   2.456   1.341   1.662
 3327SOL    HW210314   2.531   1.486   1.655
 3328SOL     OW10315   3.686   0.192   1.227
 3328SOL    HW110316   3.682   0.102   1.271
 3328SOL    HW210317   3.689   0.181   1.128
 3329SOL     OW10318   2.290   0.424   0.520
 3329SOL    HW110319   2.320   0.352   0.458
 3329SOL    HW210320   2.251   0.384   0.603
 3330SOL     OW10321   3.567   1.487   1.104
 3330SOL    HW110322   3.474   1.462   1.077
 3330SOL    HW210323   3.593   1.437   1.186
 3331SOL     OW10324   2.179   0.547   1.280
 3331SOL    HW110325   2.217   0.488   1.352
 3331SOL    HW210326   2.219   0.521   1.192
 3332SOL     OW10327   2.674   1.586   0.687
 3332SOL    HW110328   2.706   1.596   0.593
 3332SOL    HW210329   2.595   1.524   0.689
 3333SOL     OW10330   3.286   0.214   1.112
 3333SOL    HW110331   3.338   0.149   1.167
 3333SOL    HW210332   3.237   0.277   1.173
 3334SOL     OW10333   2.863   0.034   1.154
 3334SOL    HW110334   2.800  -0.038   1.123
 3334SOL    HW210335   2.956  -0.002   1.154
 3335SOL     OW10336   2.632   1.330   0.301
 3335SOL    HW110337   2.586   1.243   0.318
 3335SOL    HW210338   2.723   1.327   0.342
 3336SOL     OW10339   2.480   1.567   1.284
 3336SOL    HW110340   2.475   1.649   1.341
 3336SOL    HW210341   2.569   1.564   1.239
 3337SOL     OW10342   3.214   0.052   0.168
 3337SOL    HW110343   3.249   0.011   0.084
 3337SOL    HW210344   3.124   0.014   0.188
 3338SOL     OW10345   3.162   0.453   0.691
 3338SOL    HW110346   3.103   0.533   0.695
 3338SOL    HW210347   3.177   0.418   0.784
 3339SOL     OW10348   3.455   0.221   0.882
 3339SOL    HW110349   3.371   0.220   0.936
 3339SOL    HW210350   3.457   0.304   0.826
 3340SOL     OW10351   1.901   1.077   0.300
 3340SOL    HW110352   2.000   1.066   0.291
 3340SOL    HW210353   1.861   0.991   0.332
 3341SOL     OW10354   2.737   1.646   0.337
 3341SOL    HW110355   2.660   1.611   0.283
 3341SOL    HW210356   2.705   1.717   0.399
 3342SOL     OW10357   2.092   0.628   1.975
 3342SOL    HW110358   1.999   0.626   2.012
 3342SOL    HW210359   2.093   0.589   1.883
 3343SOL     OW10360   2.087   0.275   2.858
 3343SOL    HW110361   2.122   0.258   2.950
 3343SOL    HW210362   1.999   0.230   2.846
 3344SOL     OW10363   1.881   0.368   2.509
 3344SOL    HW110364   1.799   0.411   2.548
 3344SOL    HW210365   1.853   0.295   2.446
 3345SOL     OW10366   2.431   1.275   3.027
 3345SOL    HW110367   2.338   1.268   2.990
 3345SOL    HW210368   2.442   1.364   3.071
 3346SOL     OW10369   3.417   1.511   2.565
 3346SOL    HW110370   3.360   1.495   2.646
 3346SOL    HW210371   3.358   1.521   2.485
 3347SOL     OW10372   2.997   0.703   2.579
 3347SOL    HW110373   3.054   0.781   2.554
 3347SOL    HW210374   2.937   0.729   2.655
 3348SOL     OW10375   3.617   0.607   2.093
 3348SOL    HW110376   3.605   0.594   1.994
 3348SOL    HW210377   3.587   0.526   2.142
 3349SOL     OW10378   2.630   1.144   2.885
 3349SOL    HW110379   2.552   1.161   2.945
 3349SOL    HW210380   2.664   1.231   2.849
 3350SOL     OW10381   2.712   0.798   3.685
 3350SOL    HW110382   2.708   0.874   3.750
 3350SOL    HW210383   2.734   0.834   3.594
 3351SOL     OW10384   2.547   1.012   2.527
 3351SOL    HW110385   2.616   0.996   2.597
 3351SOL    HW210386   2.474   1.069   2.565
 3352SOL     OW10387   2.548   1.161   3.665
 3352SOL    HW110388   2.608   1.240   3.679
 3352SOL    HW210389   2.462   1.192   3.624
 3353SOL     OW10390   2.197   1.435   2.923
 3353SOL    HW110391   2.119   1.404   2.870
 3353SOL    HW210392   2.255   1.493   2.866
 3354SOL     OW10393   3.322   1.505   3.201
 3354SOL    HW110394   3.346   1.599   3.227
 3354SOL    HW210395   3.306   1.451   3.283
 3355SOL     OW10396   2.300   0.392   3.361
 3355SOL    HW110397   2.382   0.336   3.370
 3355SOL    HW210398   2.219   0.334   3.365
 3356SOL     OW10399   3.465   0.447   2.599
 3356SOL    HW110400   3.391   0.493   2.549
 3356SOL    HW210401   3.516   0.515   2.652
 3357SOL     OW10402   2.093   1.713   2.345
 3357SOL    HW110403   2.127   1.790   2.399
 3357SOL    HW210404   2.137   1.713   2.255
 3358SOL     OW10405   2.989   1.341   3.552
 3358SOL    HW110406   3.036   1.341   3.640
 3358SOL    HW210407   2.941   1.254   3.541
 3359SOL     OW10408   2.092   1.434   2.400
 3359SOL    HW110409   2.066   1.530   2.400
 3359SOL    HW210410   2.021   1.380   2.445
 3360SOL     OW10411   2.102   1.091   2.748
 3360SOL    HW110412   2.116   1.007   2.800
 3360SOL    HW210413   2.047   1.155   2.803
 3361SOL     OW10414   2.482   1.786   3.301
 3361SOL    HW110415   2.390   1.769   3.336
 3361SOL    HW210416   2.510   1.878   3.327
 3362SOL     OW10417   2.468   0.964   1.985
 3362SOL    HW110418   2.475   1.048   1.931
 3362SOL    HW210419   2.514   0.977   2.073
 3363SOL     OW10420   3.456   0.114   3.342
 3363SOL    HW110421   3.438   0.181   3.270
 3363SOL    HW210422   3.453   0.160   3.431
 3364SOL     OW10423   1.984   0.643   2.425
 3364SOL    HW110424   1.939   0.555   2.442
 3364SOL    HW210425   1.983   0.697   2.509
 3365SOL     OW10426   3.704   1.767   2.221
 3365SOL    HW110427   3.758   1.738   2.301
 3365SOL    HW210428   3.734   1.857   2.192
 3366SOL     OW10429   1.889   1.596   1.979
 3366SOL    HW110430   1.870   1.500   2.000
 3366SOL    HW210431   1.856   1.654   2.054
 3367SOL     OW10432   3.551   0.922   2.474
 3367SOL    HW110433   3.646   0.893   2.482
 3367SOL    HW210434   3.543   0.987   2.399
 3368SOL     OW10435   3.503   1.108   2.294
 3368SOL    HW110436   3.589   1.110   2.242
 3368SOL    HW210437   3.517   1.155   2.382
 3369SOL     OW10438   1.975   0.737   3.459
 3369SOL    HW110439   2.063   0.724   3.504
 3369SOL    HW210440   1.962   0.834   3.437
 3370SOL     OW10441   2.475   1.365   2.588
 3370SOL    HW110442   2.426   1.278   2.597
 3370SOL    HW210443   2.452   1.408   2.501
 3371SOL     OW10444   3.155   1.228   3.285
 3371SOL    HW110445   3.192   1.155   3.227
 3371SOL    HW210446   3.207   1.233   3.370
 3372SOL     OW10447   2.671   0.004   2.364
 3372SOL    HW110448   2.711   0.095   2.355
 3372SOL    HW210449   2.571   0.012   2.370
 3373SOL     OW10450   2.059   0.976   3.126
 3373SOL    HW110451   2.148   0.931   3.112
 3373SOL    HW210452   1.986   0.911   3.107
 3374SOL     OW10453   3.387   0.999   2.052
 3374SOL    HW110454   3.324   0.923   2.065
 3374SOL    HW210455   3.435   1.017   2.138
 3375SOL     OW10456   3.049   1.792   3.478
 3375SOL    HW110457   3.073   1.852   3.402
 3375SOL    HW210458   3.056   1.697   3.448
 3376SOL     OW10459   2.179   0.251   3.663
 3376SOL    HW110460   2.250   0.322   3.669
 3376SOL    HW210461   2.091   0.290   3.691
 3377SOL     OW10462   3.328   1.417   2.815
 3377SOL    HW110463   3.269   1.423   2.895
 3377SOL    HW210464   3.313   1.329   2.769
 3378SOL     OW10465   3.529   1.714   2.434
 3378SOL    HW110466   3.488   1.691   2.346
 3378SOL    HW210467   3.511   1.640   2.499
 3379SOL     OW10468   2.460   0.729   2.132
 3379SOL    HW110469   2.484   0.798   2.064
 3379SOL    HW210470   2.382   0.762   2.186
 3380SOL     OW10471   3.143   0.345   2.806
 3380SOL    HW110472   3.057   0.295   2.793
 3380SOL    HW210473   3.205   0.291   2.862
 3381SOL     OW10474   3.438   1.662   2.169
 3381SOL    HW110475   3.527   1.708   2.172
 3381SOL    HW210476   3.417   1.638   2.074
 3382SOL     OW10477   2.669   0.605   3.327
 3382SOL    HW110478   2.622   0.602   3.416
 3382SOL    HW210479   2.618   0.550   3.261
 3383SOL     OW10480   3.256   0.469   3.536
 3383SOL    HW110481   3.236   0.512   3.624
 3383SOL    HW210482   3.334   0.407   3.545
 3384SOL     OW10483   2.835   0.890   3.434
 3384SOL    HW110484   2.881   0.806   3.405
 3384SOL    HW210485   2.779   0.924   3.359
 3385SOL     OW10486   2.853   0.410   3.104
 3385SOL    HW110487   2.776   0.444   3.158
 3385SOL    HW210488   2.819   0.359   3.025
 3386SOL     OW10489   2.903   0.701   2.291
 3386SOL    HW110490   2.929   0.697   2.387
 3386SOL    HW210491   2.818   0.650   2.277
 3387SOL     OW10492   1.938   0.811   2.651
 3387SOL    HW110493   2.037   0.799   2.660
 3387SOL    HW210494   1.914   0.906   2.672
 3388SOL     OW10495   1.992   1.821   3.433
 3388SOL    HW110496   1.982   1.806   3.532
 3388SOL    HW210497   1.906   1.857   3.397
 3389SOL     OW10498   2.727   0.348   2.057
 3389SOL    HW110499   2.786   0.411   2.008
 3389SOL    HW210500   2.746   0.254   2.028
 3390SOL     OW10501   3.581   0.585   3.693
 3390SOL    HW110502   3.555   0.674   3.657
 3390SOL    HW210503   3.579   0.517   3.620
 3391SOL     OW10504   3.224   1.144   2.407
 3391SOL    HW110505   3.307   1.115   2.359
 3391SOL    HW210506   3.175   1.211   2.351
 3392SOL     OW10507   2.412   0.196   2.747
 3392SOL    HW110508   2.407   0.191   2.847
 3392SOL    HW210509   2.414   0.292   2.718
 3393SOL     OW10510   2.870   1.456   2.339
 3393SOL    HW110511   2.824   1.528   2.287
 3393SOL    HW210512   2.866   1.476   2.437
 3394SOL     OW10513   2.213   1.801   2.715
 3394SOL    HW110514   2.263   1.715   2.721
 3394SOL    HW210515   2.278   1.878   2.712
 3395SOL     OW10516   3.657   1.066   2.735
 3395SOL    HW110517   3.595   1.051   2.659
 3395SOL    HW210518   3.605   1.077   2.820
 3396SOL     OW10519   3.089   1.550   3.368
 3396SOL    HW110520   3.095   1.473   3.432
 3396SOL    HW210521   3.037   1.524   3.288
 3397SOL     OW10522   2.183   0.943   2.104
 3397SOL    HW110523   2.265   0.982   2.062
 3397SOL    HW210524   2.156   0.861   2.055
 3398SOL     OW10525   3.320   0.735   2.590
 3398SOL    HW110526   3.315   0.670   2.665
 3398SOL    HW210527   3.400   0.794   2.603
 3399SOL     OW10528   2.323   1.266   3.589
 3399SOL    HW110529   2.273   1.267   3.503
 3399SOL    HW210530   2.260   1.248   3.665
 3400SOL     OW10531   2.973   1.776   2.099
 3400SOL    HW110532   2.913   1.714   2.149
 3400SOL    HW210533   3.004   1.732   2.014
 3401SOL     OW10534   2.064   0.285   3.360
 3401SOL    HW110535   1.984   0.345   3.347
 3401SOL    HW210536   2.054   0.236   3.446
 3402SOL     OW10537   3.494   1.377   1.943
 3402SOL    HW110538   3.462   1.471   1.933
 3402SOL    HW210539   3.418   1.314   1.931
 3403SOL     OW10540   2.326   1.743   2.185
 3403SOL    HW110541   2.359   1.782   2.271
 3403SOL    HW210542   2.402   1.736   2.120
 3404SOL     OW10543   3.262   0.107   2.288
 3404SOL    HW110544   3.238   0.070   2.198
 3404SOL    HW210545   3.361   0.123   2.292
 3405SOL     OW10546   2.111   1.785   3.103
 3405SOL    HW110547   2.168   1.720   3.153
 3405SOL    HW210548   2.095   1.752   3.010
 3406SOL     OW10549   2.802   1.698   2.766
 3406SOL    HW110550   2.882   1.641   2.787
 3406SOL    HW210551   2.753   1.658   2.689
 3407SOL     OW10552   2.244   0.700   2.342
 3407SOL    HW110553   2.289   0.610   2.339
 3407SOL    HW210554   2.150   0.689   2.375
 3408SOL     OW10555   3.409   0.222   3.591
 3408SOL    HW110556   3.404   0.259   3.683
 3408SOL    HW210557   3.337   0.153   3.579
 3409SOL     OW10558   2.476   0.122   1.979
 3409SOL    HW110559   2.574   0.100   1.986
 3409SOL    HW210560   2.445   0.105   1.886
 3410SOL     OW10561   2.643   0.264   3.611
 3410SOL    HW110562   2.710   0.203   3.654
 3410SOL    HW210563   2.570   0.283   3.676
 3411SOL     OW10564   2.750   1.514   3.057
 3411SOL    HW110565   2.727   1.489   2.963
 3411SOL    HW210566   2.811   1.445   3.096
 3412SOL     OW10567   3.213   0.590   3.295
 3412SOL    HW110568   3.241   0.547   3.380
 3412SOL    HW210569   3.238   0.686   3.296
 3413SOL     OW10570   2.665   1.402   2.786
 3413SOL    HW110571   2.755   1.416   2.744
 3413SOL    HW210572   2.594   1.404   2.715
 3414SOL     OW10573   2.784   0.503   2.761
 3414SOL    HW110574   2.759   0.494   2.665
 3414SOL    HW210575   2.832   0.421   2.792
 3415SOL     OW10576   2.401   0.064   2.374
 3415SOL    HW110577   2.320   0.065   2.432
 3415SOL    HW210578   2.404   0.147   2.319
 3416SOL     OW10579   3.296   1.188   1.903
 3416SOL    HW110580   3.328   1.112   1.960
 3416SOL    HW210581   3.204   1.215   1.933
 3417SOL     OW10582   2.159   0.035   2.033
 3417SOL    HW110583   2.208   0.119   2.012
 3417SOL    HW210584   2.221  -0.030   2.078
 3418SOL     OW10585   2.797   0.236   2.342
 3418SOL    HW110586   2.749   0.277   2.264
 3418SOL    HW210587   2.896   0.234   2.323
 3419SOL     OW10588   2.938   0.683   3.326
 3419SOL    HW110589   2.858   0.622   3.329
 3419SOL    HW210590   3.019   0.630   3.302
 3420SOL     OW10591   3.089   1.570   2.655
 3420SOL    HW110592   3.110   1.644   2.590
 3420SOL    HW210593   3.157   1.570   2.728
 3421SOL     OW10594   2.321   1.152   2.603
 3421SOL    HW110595   2.250   1.125   2.668
 3421SOL    HW210596   2.295   1.124   2.510
 3422SOL     OW10597   3.133   1.797   2.453
 3422SOL    HW110598   3.177   1.861   2.389
 3422SOL    HW210599   3.083   1.849   2.523
 3423SOL     OW10600   2.894   0.549   1.878
 3423SOL    HW110601   2.853   0.631   1.839
 3423SOL    HW210602   2.958   0.575   1.951
 3424SOL     OW10603   1.940   0.556   3.248
 3424SOL    HW110604   2.032   0.555   3.207
 3424SOL    HW210605   1.934   0.630   3.315
 3425SOL     OW10606   2.423   0.222   3.009
 3425SOL    HW110607   2.461   0.138   3.046
 3425SOL    HW210608   2.335   0.241   3.053
 3426SOL     OW10609   2.728   0.454   2.504
 3426SOL    HW110610   2.696   0.526   2.442
 3426SOL    HW210611   2.752   0.373   2.451
 3427SOL     OW10612   2.879   0.039   2.615
 3427SOL    HW110613   2.807   0.044   2.546
 3427SOL    HW210614   2.855  -0.030   2.684
 3428SOL     OW10615   3.291   1.173   2.729
 3428SOL    HW110616   3.236   1.089   2.722
 3428SOL    HW210617   3.317   1.202   2.637
 3429SOL     OW10618   3.328   0.590   2.854
 3429SOL    HW110619   3.298   0.495   2.861
 3429SOL    HW210620   3.401   0.606   2.920
 3430SOL     OW10621   3.719   0.833   2.239
 3430SOL    HW110622   3.761   0.769   2.303
 3430SOL    HW210623   3.681   0.782   2.161
 3431SOL     OW10624   2.350   1.385   2.036
 3431SOL    HW110625   2.263   1.370   2.083
 3431SOL    HW210626   2.333   1.411   1.941
 3432SOL     OW10627   3.526   1.280   2.519
 3432SOL    HW110628   3.625   1.288   2.533
 3432SOL    HW210629   3.481   1.364   2.550
 3433SOL     OW10630   3.252   0.575   1.940
 3433SOL    HW110631   3.198   0.554   2.021
 3433SOL    HW210632   3.343   0.534   1.949
 3434SOL     OW10633   2.389   0.256   2.190
 3434SOL    HW110634   2.416   0.197   2.115
 3434SOL    HW210635   2.389   0.351   2.159
 3435SOL     OW10636   3.616   1.223   3.450
 3435SOL    HW110637   3.707   1.184   3.437
 3435SOL    HW210638   3.624   1.319   3.474
 3436SOL     OW10639   2.926   1.347   3.202
 3436SOL    HW110640   2.846   1.324   3.257
 3436SOL    HW210641   3.009   1.321   3.251
 3437SOL     OW10642   3.454   1.629   3.487
 3437SOL    HW110643   3.481   1.663   3.397
 3437SOL    HW210644   3.533   1.591   3.533
 3438SOL     OW10645   2.973   1.195   2.962
 3438SOL    HW110646   2.933   1.239   3.043
 3438SOL    HW210647   2.932   1.232   2.879
 3439SOL     OW10648   3.500   1.099   2.941
 3439SOL    HW110649   3.505   1.180   3.000
 3439SOL    HW210650   3.414   1.101   2.890
 3440SOL     OW10651   2.777   0.089   3.264
 3440SOL    HW110652   2.802   0.069   3.169
 3440SOL    HW210653   2.849   0.145   3.306
 3441SOL     OW10654   2.842   1.116   3.581
 3441SOL    HW110655   2.743   1.122   3.591
 3441SOL    HW210656   2.865   1.036   3.525
 3442SOL     OW10657   2.567   1.050   2.230
 3442SOL    HW110658   2.553   1.057   2.329
 3442SOL    HW210659   2.651   0.999   2.212
 3443SOL     OW10660   2.272   0.813   3.113
 3443SOL    HW110661   2.358   0.825   3.163
 3443SOL    HW210662   2.230   0.726   3.140
 3444SOL     OW10663   3.136   0.386   3.124
 3444SOL    HW110664   3.157   0.460   3.188
 3444SOL    HW210665   3.047   0.403   3.081
 3445SOL     OW10666   1.926   1.564   3.193
 3445SOL    HW110667   1.880   1.646   3.159
 3445SOL    HW210668   2.024   1.583   3.202
 3446SOL     OW10669   2.229   1.100   2.363
 3446SOL    HW110670   2.222   1.183   2.307
 3446SOL    HW210671   2.233   1.020   2.303
 3447SOL     OW10672   2.428   0.537   2.727
 3447SOL    HW110673   2.440   0.603   2.653
 3447SOL    HW210674   2.474   0.571   2.810
 3448SOL     OW10675   3.114   1.348   2.250
 3448SOL    HW110676   3.164   1.425   2.290
 3448SOL    HW210677   3.019   1.350   2.282
 3449SOL     OW10678   3.134   1.445   3.004
 3449SOL    HW110679   3.181   1.458   3.091
 3449SOL    HW210680   3.068   1.371   3.013
 3450SOL     OW10681   3.444   0.639   2.334
 3450SOL    HW110682   3.413   0.700   2.407
 3450SOL    HW210683   3.494   0.691   2.265
 3451SOL     OW10684   2.216   1.510   3.191
 3451SOL    HW110685   2.195   1.466   3.104
 3451SOL    HW210686   2.313   1.536   3.194
 3452SOL     OW10687   2.264   0.751   3.460
 3452SOL    HW110688   2.332   0.806   3.413
 3452SOL    HW210689   2.304   0.663   3.487
 3453SOL     OW10690   3.449   0.779   3.532
 3453SOL    HW110691   3.357   0.817   3.527
 3453SOL    HW210692   3.509   0.826   3.467
 3454SOL     OW10693   2.875   0.105   3.632
 3454SOL    HW110694   2.881   0.190   3.580
 3454SOL    HW210695   2.907   0.029   3.575
 3455SOL     OW10696   2.366   0.050   3.602
 3455SOL    HW110697   2.324  -0.007   3.532
 3455SOL    HW210698   2.300   0.119   3.634
 3456SOL     OW10699   2.435   0.870   2.891
 3456SOL    HW110700   2.479   0.959   2.882
 3456SOL    HW210701   2.372   0.870   2.968
 3457SOL     OW10702   3.222   0.862   2.907
 3457SOL    HW110703   3.147   0.862   2.841
 3457SOL    HW210704   3.259   0.770   2.916
 3458SOL     OW10705   3.071   0.525   2.137
 3458SOL    HW110706   3.084   0.441   2.191
 3458SOL    HW210707   3.042   0.599   2.197
 3459SOL     OW10708   2.169   0.213   3.093
 3459SOL    HW110709   2.146   0.250   3.183
 3459SOL    HW210710   2.139   0.118   3.087
 3460SOL     OW10711   1.899   1.310   3.144
 3460SOL    HW110712   1.952   1.261   3.212
 3460SOL    HW210713   1.921   1.408   3.149
 3461SOL     OW10714   2.594   0.634   2.926
 3461SOL    HW110715   2.653   0.608   2.850
 3461SOL    HW210716   2.566   0.730   2.915
 3462SOL     OW10717   3.590   0.935   3.716
 3462SOL    HW110718   3.544   0.928   3.627
 3462SOL    HW210719   3.528   0.979   3.782
 3463SOL     OW10720   2.169   0.063   2.480
 3463SOL    HW110721   2.158   0.157   2.513
 3463SOL    HW210722   2.164   0.000   2.557
 3464SOL     OW10723   3.484   0.367   2.236
 3464SOL    HW110724   3.486   0.291   2.300
 3464SOL    HW210725   3.436   0.444   2.276
 3465SOL     OW10726   2.885   0.766   2.828
 3465SOL    HW110727   2.900   0.787   2.924
 3465SOL    HW210728   2.855   0.671   2.819
 3466SOL     OW10729   2.842   1.573   3.562
 3466SOL    HW110730   2.822   1.617   3.474
 3466SOL    HW210731   2.881   1.482   3.546
 3467SOL     OW10732   3.721   1.518   3.467
 3467SOL    HW110733   3.735   1.545   3.372
 3467SOL    HW210734   3.804   1.540   3.520
 3468SOL     OW10735   2.212   0.898   3.666
 3468SOL    HW110736   2.288   0.942   3.714
 3468SOL    HW210737   2.247   0.851   3.584
 3469SOL     OW10738   3.402   0.274   1.987
 3469SOL    HW110739   3.341   0.199   2.010
 3469SOL    HW210740   3.424   0.326   2.070
 3470SOL     OW10741   3.165   0.838   1.904
 3470SOL    HW110742   3.199   0.745   1.919
 3470SOL    HW210743   3.183   0.865   1.809
 3471SOL     OW10744   2.930   1.333   2.711
 3471SOL    HW110745   2.937   1.249   2.656
 3471SOL    HW210746   2.992   1.402   2.675
 3472SOL     OW10747   2.181   0.810   2.811
 3472SOL    HW110748   2.274   0.846   2.816
 3472SOL    HW210749   2.175   0.725   2.863
 3473SOL     OW10750   2.201   0.509   2.868
 3473SOL    HW110751   2.149   0.426   2.851
 3473SOL    HW210752   2.278   0.514   2.804
 3474SOL     OW10753   3.000   0.380   3.540
 3474SOL    HW110754   2.955   0.443   3.604
 3474SOL    HW210755   3.093   0.411   3.523
 3475SOL     OW10756   3.022   0.207   3.339
 3475SOL    HW110757   3.022   0.271   3.416
 3475SOL    HW210758   3.050   0.255   3.256
 3476SOL     OW10759   1.870   1.326   2.062
 3476SOL    HW110760   1.777   1.347   2.031
 3476SOL    HW210761   1.880   1.227   2.075
 3477SOL     OW10762   1.950   1.801   2.789
 3477SOL    HW110763   1.908   1.715   2.762
 3477SOL    HW210764   2.044   1.804   2.755
 3478SOL     OW10765   2.366   1.568   2.772
 3478SOL    HW110766   2.432   1.642   2.781
 3478SOL    HW210767   2.410   1.489   2.730
 3479SOL     OW10768   2.864   0.796   3.100
 3479SOL    HW110769   2.905   0.764   3.186
 3479SOL    HW210770   2.768   0.769   3.097
 3480SOL     OW10771   1.902   0.544   2.976
 3480SOL    HW110772   1.987   0.511   2.935
 3480SOL    HW210773   1.915   0.559   3.074
 3481SOL     OW10774   2.051   0.520   3.584
 3481SOL    HW110775   2.110   0.480   3.514
 3481SOL    HW210776   1.993   0.591   3.543
 3482SOL     OW10777   3.231   0.950   3.522
 3482SOL    HW110778   3.270   1.039   3.542
 3482SOL    HW210779   3.241   0.930   3.425
 3483SOL     OW10780   2.677   0.572   2.187
 3483SOL    HW110781   2.684   0.483   2.141
 3483SOL    HW210782   2.583   0.606   2.179
 3484SOL     OW10783   3.519   0.604   3.068
 3484SOL    HW110784   3.481   0.535   3.130
 3484SOL    HW210785   3.601   0.568   3.024
 3485SOL     OW10786   2.114   1.564   3.606
 3485SOL    HW110787   2.084   1.621   3.682
 3485SOL    HW210788   2.107   1.467   3.632
 3486SOL     OW10789   2.533   0.464   3.131
 3486SOL    HW110790   2.499   0.375   3.101
 3486SOL    HW210791   2.559   0.518   3.051
 3487SOL     OW10792   2.792   1.678   3.327
 3487SOL    HW110793   2.768   1.660   3.232
 3487SOL    HW210794   2.822   1.772   3.337
 3488SOL     OW10795   2.335   0.500   2.053
 3488SOL    HW110796   2.396   0.580   2.057
 3488SOL    HW210797   2.240   0.531   2.060
 3489SOL     OW10798   2.021   1.137   3.328
 3489SOL    HW110799   2.043   1.076   3.404
 3489SOL    HW210800   2.031   1.088   3.242
 3490SOL     OW10801   3.209   1.059   3.096
 3490SOL    HW110802   3.233   0.996   3.022
 3490SOL    HW210803   3.119   1.099   3.078
 3491SOL     OW10804   3.164   0.855   2.171
 3491SOL    HW110805   3.078   0.824   2.213
 3491SOL    HW210806   3.160   0.841   2.072
 3492SOL     OW10807   3.621   1.747   3.016
 3492SOL    HW110808   3.682   1.777   2.943
 3492SOL    HW210809   3.583   1.658   2.994
 3493SOL     OW10810   3.114   1.731   2.990
 3493SOL    HW110811   3.198   1.736   2.936
 3493SOL    HW210812   3.091   1.635   3.008
 3494SOL     OW10813   1.945   1.258   2.884
 3494SOL    HW110814   1.940   1.257   2.984
 3494SOL    HW210815   1.862   1.217   2.846
 3495SOL     OW10816   2.550   1.662   3.578
 3495SOL    HW110817   2.494   1.743   3.587
 3495SOL    HW210818   2.602   1.666   3.492
 3496SOL     OW10819   3.588   0.135   2.385
 3496SOL    HW110820   3.661   0.118   2.318
 3496SOL    HW210821   3.557   0.048   2.423
 3497SOL     OW10822   3.250   1.573   2.339
 3497SOL    HW110823   3.317   1.585   2.265
 3497SOL    HW210824   3.210   1.662   2.362
 3498SOL     OW10825   1.992   1.794   3.713
 3498SOL    HW110826   1.951   1.720   3.766
 3498SOL    HW210827   2.056   1.845   3.771
 3499SOL     OW10828   3.142   0.927   2.534
 3499SOL    HW110829   3.202   0.846   2.536
 3499SOL    HW210830   3.182   0.996   2.474
 3500SOL     OW10831   2.692   1.273   3.284
 3500SOL    HW110832   2.687   1.306   3.379
 3500SOL    HW210833   2.606   1.292   3.238
 3501SOL     OW10834   2.534   1.616   2.016
 3501SOL    HW110835   2.543   1.626   1.917
 3501SOL    HW210836   2.494   1.527   2.037
 3502SOL     OW10837   3.512   1.720   3.256
 3502SOL    HW110838   3.565   1.730   3.172
 3502SOL    HW210839   3.485   1.810   3.290
 3503SOL     OW10840   3.703   0.175   2.825
 3503SOL    HW110841   3.742   0.090   2.789
 3503SOL    HW210842   3.605   0.177   2.806
 3504SOL     OW10843   2.125   0.326   2.582
 3504SOL    HW110844   2.046   0.377   2.548
 3504SOL    HW210845   2.116   0.311   2.680
 3505SOL     OW10846   3.056   1.612   1.893
 3505SOL    HW110847   3.062   1.519   1.930
 3505SOL    HW210848   2.997   1.612   1.813
 3506SOL     OW10849   2.684   1.002   3.234
 3506SOL    HW110850   2.724   1.001   3.142
 3506SOL    HW210851   2.694   1.094   3.274
 3507SOL     OW10852   2.778   0.910   2.153
 3507SOL    HW110853   2.841   0.948   2.085
 3507SOL    HW210854   2.818   0.827   2.192
 3508SOL     OW10855   3.366   1.607   1.906
 3508SOL    HW110856   3.274   1.644   1.913
 3508SOL    HW210857   3.404   1.627   1.816
 3509SOL     OW10858   2.234   1.288   3.352
 3509SOL    HW110859   2.221   1.381   3.318
 3509SOL    HW210860   2.150   1.236   3.339
 3510SOL     OW10861   3.476   1.292   3.151
 3510SOL    HW110862   3.536   1.295   3.231
 3510SOL    HW210863   3.401   1.356   3.164
 3511SOL     OW10864   2.901   1.098   2.558
 3511SOL    HW110865   2.831   1.051   2.612
 3511SOL    HW210866   2.960   1.030   2.515
 3512SOL     OW10867   2.876   0.236   2.833
 3512SOL    HW110868   2.868   0.200   2.740
 3512SOL    HW210869   2.874   0.160   2.898
 3513SOL     OW10870   2.452   1.487   2.353
 3513SOL    HW110871   2.494   1.429   2.283
 3513SOL    HW210872   2.408   1.566   2.309
 3514SOL     OW10873   3.571   0.385   3.243
 3514SOL    HW110874   3.644   0.454   3.247
 3514SOL    HW210875   3.599   0.310   3.184
 3515SOL     OW10876   2.117   1.348   2.152
 3515SOL    HW110877   2.021   1.349   2.125
 3515SOL    HW210878   2.129   1.401   2.236
 3516SOL     OW10879   1.967   1.013   3.588
 3516SOL    HW110880   1.890   0.980   3.642
 3516SOL    HW210881   2.052   0.983   3.630
 3517SOL     OW10882   2.534   0.203   3.351
 3517SOL    HW110883   2.624   0.187   3.311
 3517SOL    HW210884   2.542   0.208   3.450
 3518SOL     OW10885   1.937   0.345   1.895
 3518SOL    HW110886   1.845   0.317   1.866
 3518SOL    HW210887   1.968   0.422   1.839
 3519SOL     OW10888   3.302   0.856   3.260
 3519SOL    HW110889   3.245   0.908   3.197
 3519SOL    HW210890   3.398   0.868   3.236
 3520SOL     OW10891   1.934   0.166   2.180
 3520SOL    HW110892   1.917   0.249   2.126
 3520SOL    HW210893   2.024   0.129   2.158
 3521SOL     OW10894   3.045   1.335   1.981
 3521SOL    HW110895   2.946   1.324   1.983
 3521SOL    HW210896   3.079   1.350   2.074
 3522SOL     OW10897   2.475   0.842   3.293
 3522SOL    HW110898   2.531   0.923   3.276
 3522SOL    HW210899   2.534   0.762   3.296
 3523SOL     OW10900   3.355   1.767   2.821
 3523SOL    HW110901   3.388   1.831   2.752
 3523SOL    HW210902   3.421   1.761   2.896
 3524SOL     OW10903   2.578   0.565   3.570
 3524SOL    HW110904   2.597   0.630   3.644
 3524SOL    HW210905   2.638   0.485   3.579
 3525SOL     OW10906   3.312   1.220   3.495
 3525SOL    HW110907   3.303   1.210   3.594
 3525SOL    HW210908   3.408   1.213   3.469
 3526SOL     OW10909   2.252   1.741   3.422
 3526SOL    HW110910   2.161   1.782   3.420
 3526SOL    HW210911   2.245   1.647   3.454
 3527SOL     OW10912   3.536   0.883   3.116
 3527SOL    HW110913   3.509   0.794   3.079
 3527SOL    HW210914   3.537   0.951   3.043
 3528SOL     OW10915   3.087   0.325   2.311
 3528SOL    HW110916   3.152   0.251   2.300
 3528SOL    HW210917   3.107   0.375   2.395
 3529SOL     OW10918   2.456   0.745   2.514
 3529SOL    HW110919   2.506   0.830   2.495
 3529SOL    HW210920   2.368   0.747   2.466
 3530SOL     OW10921   3.639   0.342   3.504
 3530SOL    HW110922   3.622   0.373   3.410
 3530SOL    HW210923   3.555   0.305   3.542
 3531SOL     OW10924   3.592   0.934   3.379
 3531SOL    HW110925   3.630   1.025   3.394
 3531SOL    HW210926   3.584   0.917   3.280
 3532SOL     OW10927   2.721   1.374   1.878
 3532SOL    HW110928   2.675   1.389   1.966
 3532SOL    HW210929   2.765   1.459   1.848
 3533SOL     OW10930   2.523   1.790   2.815
 3533SOL    HW110931   2.477   1.878   2.802
 3533SOL    HW210932   2.622   1.802   2.808
 3534SOL     OW10933   2.721   0.956   2.723
 3534SOL    HW110934   2.775   0.887   2.771
 3534SOL    HW210935   2.689   1.025   2.789
 3535SOL     OW10936   2.945   0.984   1.949
 3535SOL    HW110937   2.922   1.037   1.867
 3535SOL    HW210938   3.026   0.928   1.930
 3536SOL     OW10939   3.723   1.569   2.713
 3536SOL    HW110940   3.652   1.557   2.643
 3536SOL    HW210941   3.724   1.490   2.773
 3537SOL     OW10942   2.083   1.314   3.706
 3537SOL    HW110943   2.018   1.241   3.685
 3537SOL    HW210944   2.087   1.328   3.804
 3538SOL     OW10945   1.941   1.240   2.515
 3538SOL    HW110946   1.940   1.193   2.603
 3538SOL    HW210947   2.023   1.212   2.464
 3539SOL     OW10948   2.534   1.391   3.486
 3539SOL    HW110949   2.456   1.341   3.524
 3539SOL    HW210950   2.531   1.486   3.517
 3540SOL     OW10951   3.686   0.192   3.089
 3540SOL    HW110952   3.682   0.102   3.133
 3540SOL    HW210953   3.689   0.181   2.990
 3541SOL     OW10954   2.290   0.424   2.382
 3541SOL    HW110955   2.320   0.352   2.320
 3541SOL    HW210956   2.251   0.384   2.465
 3542SOL     OW10957   3.567   1.487   2.966
 3542SOL    HW110958   3.474   1.462   2.939
 3542SOL    HW210959   3.593   1.437   3.048
 3543SOL     OW10960   2.179   0.547   3.142
 3543SOL    HW110961   2.217   0.488   3.214
 3543SOL    HW210962   2.219   0.521   3.054
 3544SOL     OW10963   2.674   1.586   2.549
 3544SOL    HW110964   2.706   1.596   2.455
 3544SOL    HW210965   2.595   1.524   2.551
 3545SOL     OW10966   3.286   0.214   2.974
 3545SOL    HW110967   3.338   0.149   3.029
 3545SOL    HW210968   3.237   0.277   3.035
 3546SOL     OW10969   2.863   0.034   3.016
 3546SOL    HW110970   2.800  -0.038   2.985
 3546SOL    HW210971   2.956  -0.002   3.016
 3547SOL     OW10972   2.632   1.330   2.163
 3547SOL    HW110973   2.586   1.243   2.180
 3547SOL    HW210974   2.723   1.327   2.204
 3548SOL     OW10975   2.480   1.567   3.146
 3548SOL    HW110976   2.475   1.649   3.203
 3548SOL    HW210977   2.569   1.564   3.101
 3549SOL     OW10978   3.214   0.052   2.030
 3549SOL    HW110979   3.249   0.011   1.946
 3549SOL    HW210980   3.124   0.014   2.050
 3550SOL     OW10981   3.162   0.453   2.553
 3550SOL    HW110982   3.103   0.533   2.557
 3550SOL    HW210983   3.177   0.418   2.646
 3551SOL     OW10984   3.455   0.221   2.744
 3551SOL    HW110985   3.371   0.220   2.798
 3551SOL    HW210986   3.457   0.304   2.688
 3552SOL     OW10987   1.901   1.077   2.162
 3552SOL    HW110988   2.000   1.066   2.153
 3552SOL    HW210989   1.861   0.991   2.194
 3553SOL     OW10990   2.737   1.646   2.199
 3553SOL    HW110991   2.660   1.611   2.145
 3553SOL    HW210992   2.705   1.717   2.261
 3554SOL     OW10993   2.092   0.628   3.837
 3554SOL    HW110994   1.999   0.626   3.874
 3554SOL    HW210995   2.093   0.589   3.745
 3555SOL     OW10996   2.087   0.275   4.720
 3555SOL    HW110997   2.122   0.258   4.812
 3555SOL    HW210998   1.999   0.230   4.708
 3556SOL     OW10999   1.881   0.368   4.371
 3556SOL    HW111000   1.799   0.411   4.410
 3556SOL    HW211001   1.853   0.295   4.308
 3557SOL     OW11002   2.431   1.275   4.889
 3557SOL    HW111003   2.338   1.268   4.852
 3557SOL    HW211004   2.442   1.364   4.933
 3558SOL     OW11005   3.417   1.511   4.427
 3558SOL    HW111006   3.360   1.495   4.508
 3558SOL    HW211007   3.358   1.521   4.347
 3559SOL     OW11008   2.997   0.703   4.441
 3559SOL    HW111009   3.054   0.781   4.416
 3559SOL    HW211010   2.937   0.729   4.517
 3560SOL     OW11011   3.617   0.607   3.955
 3560SOL    HW111012   3.605   0.594   3.856
 3560SOL    HW211013   3.587   0.526   4.004
 3561SOL     OW11014   2.630   1.144   4.747
 3561SOL    HW111015   2.552   1.161   4.807
 3561SOL    HW211016   2.664   1.231   4.711
 3562SOL     OW11017   2.712   0.798   5.547
 3562SOL    HW111018   2.708   0.874   5.612
 3562SOL    HW211019   2.734   0.834   5.456
 3563SOL     OW11020   2.547   1.012   4.389
 3563SOL    HW111021   2.616   0.996   4.459
 3563SOL    HW211022   2.474   1.069   4.427
 3564SOL     OW11023   2.548   1.161   5.527
 3564SOL    HW111024   2.608   1.240   5.541
 3564SOL    HW211025   2.462   1.192   5.486
 3565SOL     OW11026   2.197   1.435   4.785
 3565SOL    HW111027   2.119   1.404   4.732
 3565SOL    HW211028   2.255   1.493   4.728
 3566SOL     OW11029   3.322   1.505   5.063
 3566SOL    HW111030   3.346   1.599   5.089
 3566SOL    HW211031   3.306   1.451   5.145
 3567SOL     OW11032   2.300   0.392   5.223
 3567SOL    HW111033   2.382   0.336   5.232
 3567SOL    HW211034   2.219   0.334   5.227
 3568SOL     OW11035   3.465   0.447   4.461
 3568SOL    HW111036   3.391   0.493   4.411
 3568SOL    HW211037   3.516   0.515   4.514
 3569SOL     OW11038   2.093   1.713   4.207
 3569SOL    HW111039   2.127   1.790   4.261
 3569SOL    HW211040   2.137   1.713   4.117
 3570SOL     OW11041   2.989   1.341   5.414
 3570SOL    HW111042   3.036   1.341   5.502
 3570SOL    HW211043   2.941   1.254   5.403
 3571SOL     OW11044   2.092   1.434   4.262
 3571SOL    HW111045   2.066   1.530   4.262
 3571SOL    HW211046   2.021   1.380   4.307
 3572SOL     OW11047   2.102   1.091   4.610
 3572SOL    HW111048   2.116   1.007   4.662
 3572SOL    HW211049   2.047   1.155   4.665
 3573SOL     OW11050   2.468   0.964   3.847
 3573SOL    HW111051   2.475   1.048   3.793
 3573SOL    HW211052   2.514   0.977   3.935
 3574SOL     OW11053   3.456   0.114   5.204
 3574SOL    HW111054   3.438   0.181   5.132
 3574SOL    HW211055   3.453   0.160   5.293
 3575SOL     OW11056   1.984   0.643   4.287
 3575SOL    HW111057   1.939   0.555   4.304
 3575SOL    HW211058   1.983   0.697   4.371
 3576SOL     OW11059   3.704   1.767   4.083
 3576SOL    HW111060   3.758   1.738   4.163
 3576SOL    HW211061   3.734   1.857   4.054
 3577SOL     OW11062   1.889   1.596   3.841
 3577SOL    HW111063   1.870   1.500   3.862
 3577SOL    HW211064   1.856   1.654   3.916
 3578SOL     OW11065   3.551   0.922   4.336
 3578SOL    HW111066   3.646   0.893   4.344
 3578SOL    HW211067   3.543   0.987   4.261
 3579SOL     OW11068   3.503   1.108   4.156
 3579SOL    HW111069   3.589   1.110   4.104
 3579SOL    HW211070   3.517   1.155   4.244
 3580SOL     OW11071   1.975   0.737   5.321
 3580SOL    HW111072   2.063   0.724   5.366
 3580SOL    HW211073   1.962   0.834   5.299
 3581SOL     OW11074   2.475   1.365   4.450
 3581SOL    HW111075   2.426   1.278   4.459
 3581SOL    HW211076   2.452   1.408   4.363
 3582SOL     OW11077   3.155   1.228   5.147
 3582SOL    HW111078   3.192   1.155   5.089
 3582SOL    HW211079   3.207   1.233   5.232
 3583SOL     OW11080   2.671   0.004   4.226
 3583SOL    HW111081   2.711   0.095   4.217
 3583SOL    HW211082   2.571   0.012   4.232
 3584SOL     OW11083   2.059   0.976   4.988
 3584SOL    HW111084   2.148   0.931   4.974
 3584SOL    HW211085   1.986   0.911   4.969
 3585SOL     OW11086   3.387   0.999   3.914
 3585SOL    HW111087   3.324   0.923   3.927
 3585SOL    HW211088   3.435   1.017   4.000
 3586SOL     OW11089   3.049   1.792   5.340
 3586SOL    HW111090   3.073   1.852   5.264
 3586SOL    HW211091   3.056   1.697   5.310
 3587SOL     OW11092   2.179   0.251   5.525
 3587SOL    HW111093   2.250   0.322   5.531
 3587SOL    HW211094   2.091   0.290   5.553
 3588SOL     OW11095   3.328   1.417   4.677
 3588SOL    HW111096   3.269   1.423   4.757
 3588SOL    HW211097   3.313   1.329   4.631
 3589SOL     OW11098   3.529   1.714   4.296
 3589SOL    HW111099   3.488   1.691   4.208
 3589SOL    HW211100   3.511   1.640   4.361
 3590SOL     OW11101   2.460   0.729   3.994
 3590SOL    HW111102   2.484   0.798   3.926
 3590SOL    HW211103   2.382   0.762   4.048
 3591SOL     OW11104   3.143   0.345   4.668
 3591SOL    HW111105   3.057   0.295   4.655
 3591SOL    HW211106   3.205   0.291   4.724
 3592SOL     OW11107   3.438   1.662   4.031
 3592SOL    HW111108   3.527   1.708   4.034
 3592SOL    HW211109   3.417   1.638   3.936
 3593SOL     OW11110   2.669   0.605   5.189
 3593SOL    HW111111   2.622   0.602   5.278
 3593SOL    HW211112   2.618   0.550   5.123
 3594SOL     OW11113   3.256   0.469   5.398
 3594SOL    HW111114   3.236   0.512   5.486
 3594SOL    HW211115   3.334   0.407   5.407
 3595SOL     OW11116   2.835   0.890   5.296
 3595SOL    HW111117   2.881   0.806   5.267
 3595SOL    HW211118   2.779   0.924   5.221
 3596SOL     OW11119   2.853   0.410   4.966
 3596SOL    HW111120   2.776   0.444   5.020
 3596SOL    HW211121   2.819   0.359   4.887
 3597SOL     OW11122   2.903   0.701   4.153
 3597SOL    HW111123   2.929   0.697   4.249
 3597SOL    HW211124   2.818   0.650   4.139
 3598SOL     OW11125   1.938   0.811   4.513
 3598SOL    HW111126   2.037   0.799   4.522
 3598SOL    HW211127   1.914   0.906   4.534
 3599SOL     OW11128   2.727   0.348   3.919
 3599SOL    HW111129   2.786   0.411   3.870
 3599SOL    HW211130   2.746   0.254   3.890
 3600SOL     OW11131   3.581   0.585   5.555
 3600SOL    HW111132   3.555   0.674   5.519
 3600SOL    HW211133   3.579   0.517   5.482
 3601SOL     OW11134   3.224   1.144   4.269
 3601SOL    HW111135   3.307   1.115   4.221
 3601SOL    HW211136   3.175   1.211   4.213
 3602SOL     OW11137   2.412   0.196   4.609
 3602SOL    HW111138   2.407   0.191   4.709
 3602SOL    HW211139   2.414   0.292   4.580
 3603SOL     OW11140   2.870   1.456   4.201
 3603SOL    HW111141   2.824   1.528   4.149
 3603SOL    HW211142   2.866   1.476   4.299
 3604SOL     OW11143   2.213   1.801   4.577
 3604SOL    HW111144   2.263   1.715   4.583
 3604SOL    HW211145   2.278   1.878   4.574
 3605SOL     OW11146   3.657   1.066   4.597
 3605SOL    HW111147   3.595   1.051   4.521
 3605SOL    HW211148   3.605   1.077   4.682
 3606SOL     OW11149   3.089   1.550   5.230
 3606SOL    HW111150   3.095   1.473   5.294
 3606SOL    HW211151   3.037   1.524   5.150
 3607SOL     OW11152   2.183   0.943   3.966
 3607SOL    HW111153   2.265   0.982   3.924
 3607SOL    HW211154   2.156   0.861   3.917
 3608SOL     OW11155   3.320   0.735   4.452
 3608SOL    HW111156   3.315   0.670   4.527
 3608SOL    HW211157   3.400   0.794   4.465
 3609SOL     OW11158   2.323   1.266   5.451
 3609SOL    HW111159   2.273   1.267   5.365
 3609SOL    HW211160   2.260   1.248   5.527
 3610SOL     OW11161   2.973   1.776   3.961
 3610SOL    HW111162   2.913   1.714   4.011
 3610SOL    HW211163   3.004   1.732   3.876
 3611SOL     OW11164   2.064   0.285   5.222
 3611SOL    HW111165   1.984   0.345   5.209
 3611SOL    HW211166   2.054   0.236   5.308
 3612SOL     OW11167   3.494   1.377   3.805
 3612SOL    HW111168   3.462   1.471   3.795
 3612SOL    HW211169   3.418   1.314   3.793
 3613SOL     OW11170   2.326   1.743   4.047
 3613SOL    HW111171   2.359   1.782   4.133
 3613SOL    HW211172   2.402   1.736   3.982
 3614SOL     OW11173   3.262   0.107   4.150
 3614SOL    HW111174   3.238   0.070   4.060
 3614SOL    HW211175   3.361   0.123   4.154
 3615SOL     OW11176   2.111   1.785   4.965
 3615SOL    HW111177   2.168   1.720   5.015
 3615SOL    HW211178   2.095   1.752   4.872
 3616SOL     OW11179   2.802   1.698   4.628
 3616SOL    HW111180   2.882   1.641   4.649
 3616SOL    HW211181   2.753   1.658   4.551
 3617SOL     OW11182   2.244   0.700   4.204
 3617SOL    HW111183   2.289   0.610   4.201
 3617SOL    HW211184   2.150   0.689   4.237
 3618SOL     OW11185   3.409   0.222   5.453
 3618SOL    HW111186   3.404   0.259   5.545
 3618SOL    HW211187   3.337   0.153   5.441
 3619SOL     OW11188   2.476   0.122   3.841
 3619SOL    HW111189   2.574   0.100   3.848
 3619SOL    HW211190   2.445   0.105   3.748
 3620SOL     OW11191   2.643   0.264   5.473
 3620SOL    HW111192   2.710   0.203   5.516
 3620SOL    HW211193   2.570   0.283   5.538
 3621SOL     OW11194   2.750   1.514   4.919
 3621SOL    HW111195   2.727   1.489   4.825
 3621SOL    HW211196   2.811   1.445   4.958
 3622SOL     OW11197   3.213   0.590   5.157
 3622SOL    HW111198   3.241   0.547   5.242
 3622SOL    HW211199   3.238   0.686   5.158
 3623SOL     OW11200   2.665   1.402   4.648
 3623SOL    HW111201   2.755   1.416   4.606
 3623SOL    HW211202   2.594   1.404   4.577
 3624SOL     OW11203   2.784   0.503   4.623
 3624SOL    HW111204   2.759   0.494   4.527
 3624SOL    HW211205   2.832   0.421   4.654
 3625SOL     OW11206   2.401   0.064   4.236
 3625SOL    HW111207   2.320   0.065   4.294
 3625SOL    HW211208   2.404   0.147   4.181
 3626SOL     OW11209   3.296   1.188   3.765
 3626SOL    HW111210   3.328   1.112   3.822
 3626SOL    HW211211   3.204   1.215   3.795
 3627SOL     OW11212   2.159   0.035   3.895
 3627SOL    HW111213   2.208   0.119   3.874
 3627SOL    HW211214   2.221  -0.030   3.940
 3628SOL     OW11215   2.797   0.236   4.204
 3628SOL    HW111216   2.749   0.277   4.126
 3628SOL    HW211217   2.896   0.234   4.185
 3629SOL     OW11218   2.938   0.683   5.188
 3629SOL    HW111219   2.858   0.622   5.191
 3629SOL    HW211220   3.019   0.630   5.164
 3630SOL     OW11221   3.089   1.570   4.517
 3630SOL    HW111222   3.110   1.644   4.452
 3630SOL    HW211223   3.157   1.570   4.590
 3631SOL     OW11224   2.321   1.152   4.465
 3631SOL    HW111225   2.250   1.125   4.530
 3631SOL    HW211226   2.295   1.124   4.372
 3632SOL     OW11227   3.133   1.797   4.315
 3632SOL    HW111228   3.177   1.861   4.251
 3632SOL    HW211229   3.083   1.849   4.385
 3633SOL     OW11230   2.894   0.549   3.740
 3633SOL    HW111231   2.853   0.631   3.701
 3633SOL    HW211232   2.958   0.575   3.813
 3634SOL     OW11233   1.940   0.556   5.110
 3634SOL    HW111234   2.032   0.555   5.069
 3634SOL    HW211235   1.934   0.630   5.177
 3635SOL     OW11236   2.423   0.222   4.871
 3635SOL    HW111237   2.461   0.138   4.908
 3635SOL    HW211238   2.335   0.241   4.915
 3636SOL     OW11239   2.728   0.454   4.366
 3636SOL    HW111240   2.696   0.526   4.304
 3636SOL    HW211241   2.752   0.373   4.313
 3637SOL     OW11242   2.879   0.039   4.477
 3637SOL    HW111243   2.807   0.044   4.408
 3637SOL    HW211244   2.855  -0.030   4.546
 3638SOL     OW11245   3.291   1.173   4.591
 3638SOL    HW111246   3.236   1.089   4.584
 3638SOL    HW211247   3.317   1.202   4.499
 3639SOL     OW11248   3.328   0.590   4.716
 3639SOL    HW111249   3.298   0.495   4.723
 3639SOL    HW211250   3.401   0.606   4.782
 3640SOL     OW11251   3.719   0.833   4.101
 3640SOL    HW111252   3.761   0.769   4.165
 3640SOL    HW211253   3.681   0.782   4.023
 3641SOL     OW11254   2.350   1.385   3.898
 3641SOL    HW111255   2.263   1.370   3.945
 3641SOL    HW211256   2.333   1.411   3.803
 3642SOL     OW11257   3.526   1.280   4.381
 3642SOL    HW111258   3.625   1.288   4.395
 3642SOL    HW211259   3.481   1.364   4.412
 3643SOL     OW11260   3.252   0.575   3.802
 3643SOL    HW111261   3.198   0.554   3.883
 3643SOL    HW211262   3.343   0.534   3.811
 3644SOL     OW11263   2.389   0.256   4.052
 3644SOL    HW111264   2.416   0.197   3.977
 3644SOL    HW211265   2.389   0.351   4.021
 3645SOL     OW11266   3.616   1.223   5.312
 3645SOL    HW111267   3.707   1.184   5.299
 3645SOL    HW211268   3.624   1.319   5.336
 3646SOL     OW11269   2.926   1.347   5.064
 3646SOL    HW111270   2.846   1.324   5.119
 3646SOL    HW211271   3.009   1.321   5.113
 3647SOL     OW11272   3.454   1.629   5.349
 3647SOL    HW111273   3.481   1.663   5.259
 3647SOL    HW211274   3.533   1.591   5.395
 3648SOL     OW11275   2.973   1.195   4.824
 3648SOL    HW111276   2.933   1.239   4.905
 3648SOL    HW211277   2.932   1.232   4.741
 3649SOL     OW11278   3.500   1.099   4.803
 3649SOL    HW111279   3.505   1.180   4.862
 3649SOL    HW211280   3.414   1.101   4.752
 3650SOL     OW11281   2.777   0.089   5.126
 3650SOL    HW111282   2.802   0.069   5.031
 3650SOL    HW211283   2.849   0.145   5.168
 3651SOL     OW11284   2.842   1.116   5.443
 3651SOL    HW111285   2.743   1.122   5.453
 3651SOL    HW211286   2.865   1.036   5.387
 3652SOL     OW11287   2.567   1.050   4.092
 3652SOL    HW111288   2.553   1.057   4.191
 3652SOL    HW211289   2.651   0.999   4.074
 3653SOL     OW11290   2.272   0.813   4.975
 3653SOL    HW111291   2.358   0.825   5.025
 3653SOL    HW211292   2.230   0.726   5.002
 3654SOL     OW11293   3.136   0.386   4.986
 3654SOL    HW111294   3.157   0.460   5.050
 3654SOL    HW211295   3.047   0.403   4.943
 3655SOL     OW11296   1.926   1.564   5.055
 3655SOL    HW111297   1.880   1.646   5.021
 3655SOL    HW211298   2.024   1.583   5.064
 3656SOL     OW11299   2.229   1.100   4.225
 3656SOL    HW111300   2.222   1.183   4.169
 3656SOL    HW211301   2.233   1.020   4.165
 3657SOL     OW11302   2.428   0.537   4.589
 3657SOL    HW111303   2.440   0.603   4.515
 3657SOL    HW211304   2.474   0.571   4.672
 3658SOL     OW11305   3.114   1.348   4.112
 3658SOL    HW111306   3.164   1.425   4.152
 3658SOL    HW211307   3.019   1.350   4.144
 3659SOL     OW11308   3.134   1.445   4.866
 3659SOL    HW111309   3.181   1.458   4.953
 3659SOL    HW211310   3.068   1.371   4.875
 3660SOL     OW11311   3.444   0.639   4.196
 3660SOL    HW111312   3.413   0.700   4.269
 3660SOL    HW211313   3.494   0.691   4.127
 3661SOL     OW11314   2.216   1.510   5.053
 3661SOL    HW111315   2.195   1.466   4.966
 3661SOL    HW211316   2.313   1.536   5.056
 3662SOL     OW11317   2.264   0.751   5.322
 3662SOL    HW111318   2.332   0.806   5.275
 3662SOL    HW211319   2.304   0.663   5.349
 3663SOL     OW11320   3.449   0.779   5.394
 3663SOL    HW111321   3.357   0.817   5.389
 3663SOL    HW211322   3.509   0.826   5.329
 3664SOL     OW11323   2.875   0.105   5.494
 3664SOL    HW111324   2.881   0.190   5.442
 3664SOL    HW211325   2.907   0.029   5.437
 3665SOL     OW11326   2.366   0.050   5.464
 3665SOL    HW111327   2.324  -0.007   5.394
 3665SOL    HW211328   2.300   0.119   5.496
 3666SOL     OW11329   2.435   0.870   4.753
 3666SOL    HW111330   2.479   0.959   4.744
 3666SOL    HW211331   2.372   0.870   4.830
 3667SOL     OW11332   3.222   0.862   4.769
 3667SOL    HW111333   3.147   0.862   4.703
 3667SOL    HW211334   3.259   0.770   4.778
 3668SOL     OW11335   3.071   0.525   3.999
 3668SOL    HW111336   3.084   0.441   4.053
 3668SOL    HW211337   3.042   0.599   4.059
 3669SOL     OW11338   2.169   0.213   4.955
 3669SOL    HW111339   2.146   0.250   5.045
 3669SOL    HW211340   2.139   0.118   4.949
 3670SOL     OW11341   1.899   1.310   5.006
 3670SOL    HW111342   1.952   1.261   5.074
 3670SOL    HW211343   1.921   1.408   5.011
 3671SOL     OW11344   2.594   0.634   4.788
 3671SOL    HW111345   2.653   0.608   4.712
 3671SOL    HW211346   2.566   0.730   4.777
 3672SOL     OW11347   3.590   0.935   5.578
 3672SOL    HW111348   3.544   0.928   5.489
 3672SOL    HW211349   3.528   0.979   5.644
 3673SOL     OW11350   2.169   0.063   4.342
 3673SOL    HW111351   2.158   0.157   4.375
 3673SOL    HW211352   2.164   0.000   4.419
 3674SOL     OW11353   3.484   0.367   4.098
 3674SOL    HW111354   3.486   0.291   4.162
 3674SOL    HW211355   3.436   0.444   4.138
 3675SOL     OW11356   2.885   0.766   4.690
 3675SOL    HW111357   2.900   0.787   4.786
 3675SOL    HW211358   2.855   0.671   4.681
 3676SOL     OW11359   2.842   1.573   5.424
 3676SOL    HW111360   2.822   1.617   5.336
 3676SOL    HW211361   2.881   1.482   5.408
 3677SOL     OW11362   3.721   1.518   5.329
 3677SOL    HW111363   3.735   1.545   5.234
 3677SOL    HW211364   3.804   1.540   5.382
 3678SOL     OW11365   2.212   0.898   5.528
 3678SOL    HW111366   2.288   0.942   5.576
 3678SOL    HW211367   2.247   0.851   5.446
 3679SOL     OW11368   3.402   0.274   3.849
 3679SOL    HW111369   3.341   0.199   3.872
 3679SOL    HW211370   3.424   0.326   3.932
 3680SOL     OW11371   3.165   0.838   3.766
 3680SOL    HW111372   3.199   0.745   3.781
 3680SOL    HW211373   3.183   0.865   3.671
 3681SOL     OW11374   2.930   1.333   4.573
 3681SOL    HW111375   2.937   1.249   4.518
 3681SOL    HW211376   2.992   1.402   4.537
 3682SOL     OW11377   2.181   0.810   4.673
 3682SOL    HW111378   2.274   0.846   4.678
 3682SOL    HW211379   2.175   0.725   4.725
 3683SOL     OW11380   2.201   0.509   4.730
 3683SOL    HW111381   2.149   0.426   4.713
 3683SOL    HW211382   2.278   0.514   4.666
 3684SOL     OW11383   3.000   0.380   5.402
 3684SOL    HW111384   2.955   0.443   5.466
 3684SOL    HW211385   3.093   0.411   5.385
 3685SOL     OW11386   3.022   0.207   5.201
 3685SOL    HW111387   3.022   0.271   5.278
 3685SOL    HW211388   3.050   0.255   5.118
 3686SOL     OW11389   1.870   1.326   3.924
 3686SOL    HW111390   1.777   1.347   3.893
 3686SOL    HW211391   1.880   1.227   3.937
 3687SOL     OW11392   1.950   1.801   4.651
 3687SOL    HW111393   1.908   1.715   4.624
 3687SOL    HW211394   2.044   1.804   4.617
 3688SOL     OW11395   2.366   1.568   4.634
 3688SOL    HW111396   2.432   1.642   4.643
 3688SOL    HW211397   2.410   1.489   4.592
 3689SOL     OW11398   2.864   0.796   4.962
 3689SOL    HW111399   2.905   0.764   5.048
 3689SOL    HW211400   2.768   0.769   4.959
 3690SOL     OW11401   1.902   0.544   4.838
 3690SOL    HW111402   1.987   0.511   4.797
 3690SOL    HW211403   1.915   0.559   4.936
 3691SOL     OW11404   2.051   0.520   5.446
 3691SOL    HW111405   2.110   0.480   5.376
 3691SOL    HW211406   1.993   0.591   5.405
 3692SOL     OW11407   3.231   0.950   5.384
 3692SOL    HW111408   3.270   1.039   5.404
 3692SOL    HW211409   3.241   0.930   5.287
 3693SOL     OW11410   2.677   0.572   4.049
 3693SOL    HW111411   2.684   0.483   4.003
 3693SOL    HW211412   2.583   0.606   4.041
 3694SOL     OW11413   3.519   0.604   4.930
 3694SOL    HW111414   3.481   0.535   4.992
 3694SOL    HW211415   3.601   0.568   4.886
 3695SOL     OW11416   2.114   1.564   5.468
 3695SOL    HW111417   2.084   1.621   5.544
 3695SOL    HW211418   2.107   1.467   5.494
 3696SOL     OW11419   2.533   0.464   4.993
 3696SOL    HW111420   2.499   0.375   4.963
 3696SOL    HW211421   2.559   0.518   4.913
 3697SOL     OW11422   2.792   1.678   5.189
 3697SOL    HW111423   2.768   1.660   5.094
 3697SOL    HW211424   2.822   1.772   5.199
 3698SOL     OW11425   2.335   0.500   3.915
 3698SOL    HW111426   2.396   0.580   3.919
 3698SOL    HW211427   2.240   0.531   3.922
 3699SOL     OW11428   2.021   1.137   5.190
 3699SOL    HW111429   2.043   1.076   5.266
 3699SOL    HW211430   2.031   1.088   5.104
 3700SOL     OW11431   3.209   1.059   4.958
 3700SOL    HW111432   3.233   0.996   4.884
 3700SOL    HW211433   3.119   1.099   4.940
 3701SOL     OW11434   3.164   0.855   4.033
 3701SOL    HW111435   3.078   0.824   4.075
 3701SOL    HW211436   3.160   0.841   3.934
 3702SOL     OW11437   3.621   1.747   4.878
 3702SOL    HW111438   3.682   1.777   4.805
 3702SOL    HW211439   3.583   1.658   4.856
 3703SOL     OW11440   3.114   1.731   4.852
 3703SOL    HW111441   3.198   1.736   4.798
 3703SOL    HW211442   3.091   1.635   4.870
 3704SOL     OW11443   1.945   1.258   4.746
 3704SOL    HW111444   1.940   1.257   4.846
 3704SOL    HW211445   1.862   1.217   4.708
 3705SOL     OW11446   3.588   0.135   4.247
 3705SOL    HW111447   3.661   0.118   4.180
 3705SOL    HW211448   3.557   0.048   4.285
 3706SOL     OW11449   3.250   1.573   4.201
 3706SOL    HW111450   3.317   1.585   4.127
 3706SOL    HW211451   3.210   1.662   4.224
 3707SOL     OW11452   3.142   0.927   4.396
 3707SOL    HW111453   3.202   0.846   4.398
 3707SOL    HW211454   3.182   0.996   4.336
 3708SOL     OW11455   2.692   1.273   5.146
 3708SOL    HW111456   2.687   1.306   5.241
 3708SOL    HW211457   2.606   1.292   5.100
 3709SOL     OW11458   2.534   1.616   3.878
 3709SOL    HW111459   2.543   1.626   3.779
 3709SOL    HW211460   2.494   1.527   3.899
 3710SOL     OW11461   3.512   1.720   5.118
 3710SOL    HW111462   3.565   1.730   5.034
 3710SOL    HW211463   3.485   1.810   5.152
 3711SOL     OW11464   3.703   0.175   4.687
 3711SOL    HW111465   3.742   0.090   4.651
 3711SOL    HW211466   3.605   0.177   4.668
 3712SOL     OW11467   2.125   0.326   4.444
 3712SOL    HW111468   2.046   0.377   4.410
 3712SOL    HW211469   2.116   0.311   4.542
 3713SOL     OW11470   3.056   1.612   3.755
 3713SOL    HW111471   3.062   1.519   3.792
 3713SOL    HW211472   2.997   1.612   3.675
 3714SOL     OW11473   2.684   1.002   5.096
 3714SOL    HW111474   2.724   1.001   5.004
 3714SOL    HW211475   2.694   1.094   5.136
 3715SOL     OW11476   2.778   0.910   4.015
 3715SOL    HW111477   2.841   0.948   3.947
 3715SOL    HW211478   2.818   0.827   4.054
 3716SOL     OW11479   3.366   1.607   3.768
 3716SOL    HW111480   3.274   1.644   3.775
 3716SOL    HW211481   3.404   1.627   3.678
 3717SOL     OW11482   2.234   1.288   5.214
 3717SOL    HW111483   2.221   1.381   5.180
 3717SOL    HW211484   2.150   1.236   5.201
 3718SOL     OW11485   3.476   1.292   5.013
 3718SOL    HW111486   3.536   1.295   5.093
 3718SOL    HW211487   3.401   1.356   5.026
 3719SOL     OW11488   2.901   1.098   4.420
 3719SOL    HW111489   2.831   1.051   4.474
 3719SOL    HW211490   2.960   1.030   4.377
 3720SOL     OW11491   2.876   0.236   4.695
 3720SOL    HW111492   2.868   0.200   4.602
 3720SOL    HW211493   2.874   0.160   4.760
 3721SOL     OW11494   2.452   1.487   4.215
 3721SOL    HW111495   2.494   1.429   4.145
 3721SOL    HW211496   2.408   1.566   4.171
 3722SOL     OW11497   3.571   0.385   5.105
 3722SOL    HW111498   3.644   0.454   5.109
 3722SOL    HW211499   3.599   0.310   5.046
 3723SOL     OW11500   2.117   1.348   4.014
 3723SOL    HW111501   2.021   1.349   3.987
 3723SOL    HW211502   2.129   1.401   4.098
 3724SOL     OW11503   1.967   1.013   5.450
 3724SOL    HW111504   1.890   0.980   5.504
 3724SOL    HW211505   2.052   0.983   5.492
 3725SOL     OW11506   2.534   0.203   5.213
 3725SOL    HW111507   2.624   0.187   5.173
 3725SOL    HW211508   2.542   0.208   5.312
 3726SOL     OW11509   1.937   0.345   3.757
 3726SOL    HW111510   1.845   0.317   3.728
 3726SOL    HW211511   1.968   0.422   3.701
 3727SOL     OW11512   3.302   0.856   5.122
 3727SOL    HW111513   3.245   0.908   5.059
 3727SOL    HW211514   3.398   0.868   5.098
 3728SOL     OW11515   1.934   0.166   4.042
 3728SOL    HW111516   1.917   0.249   3.988
 3728SOL    HW211517   2.024   0.129   4.020
 3729SOL     OW11518   3.045   1.335   3.843
 3729SOL    HW111519   2.946   1.324   3.845
 3729SOL    HW211520   3.079   1.350   3.936
 3730SOL     OW11521   2.475   0.842   5.155
 3730SOL    HW111522   2.531   0.923   5.138
 3730SOL    HW211523   2.534   0.762   5.158
 3731SOL     OW11524   3.355   1.767   4.683
 3731SOL    HW111525   3.388   1.831   4.614
 3731SOL    HW211526   3.421   1.761   4.758
 3732SOL     OW11527   2.578   0.565   5.432
 3732SOL    HW111528   2.597   0.630   5.506
 3732SOL    HW211529   2.638   0.485   5.441
 3733SOL     OW11530   3.312   1.220   5.357
 3733SOL    HW111531   3.303   1.210   5.456
 3733SOL    HW211532   3.408   1.213   5.331
 3734SOL     OW11533   3.536   0.883   4.978
 3734SOL    HW111534   3.509   0.794   4.941
 3734SOL    HW211535   3.537   0.951   4.905
 3735SOL     OW11536   3.087   0.325   4.173
 3735SOL    HW111537   3.152   0.251   4.162
 3735SOL    HW211538   3.107   0.375   4.257
 3736SOL     OW11539   2.456   0.745   4.376
 3736SOL    HW111540   2.506   0.830   4.357
 3736SOL    HW211541   2.368   0.747   4.328
 3737SOL     OW11542   3.639   0.342   5.366
 3737SOL    HW111543   3.622   0.373   5.272
 3737SOL    HW211544   3.555   0.305   5.404
 3738SOL     OW11545   3.592   0.934   5.241
 3738SOL    HW111546   3.630   1.025   5.256
 3738SOL    HW211547   3.584   0.917   5.142
 3739SOL     OW11548   2.721   1.374   3.740
 3739SOL    HW111549   2.675   1.389   3.828
 3739SOL    HW211550   2.765   1.459   3.710
 3740SOL     OW11551   2.523   1.790   4.677
 3740SOL    HW111552   2.477   1.878   4.664
 3740SOL    HW211553   2.622   1.802   4.670
 3741SOL     OW11554   2.721   0.956   4.585
 3741SOL    HW111555   2.775   0.887   4.633
 3741SOL    HW211556   2.689   1.025   4.651
 3742SOL     OW11557   2.945   0.984   3.811
 3742SOL    HW111558   2.922   1.037   3.729
 3742SOL    HW211559   3.026   0.928   3.792
 3743SOL     OW11560   3.723   1.569   4.575
 3743SOL    HW111561   3.652   1.557   4.505
 3743SOL    HW211562   3.724   1.490   4.635
 3744SOL     OW11563   2.083   1.314   5.568
 3744SOL    HW111564   2.018   1.241   5.547
 3744SOL    HW211565   2.087   1.328   5.666
 3745SOL     OW11566   1.941   1.240   4.377
 3745SOL    HW111567   1.940   1.193   4.465
 3745SOL    HW211568   2.023   1.212   4.326
 3746SOL     OW11569   2.534   1.391   5.348
 3746SOL    HW111570   2.456   1.341   5.386
 3746SOL    HW211571   2.531   1.486   5.379
 3747SOL     OW11572   3.686   0.192   4.951
 3747SOL    HW111573   3.682   0.102   4.995
 3747SOL    HW211574   3.689   0.181   4.852
 3748SOL     OW11575   2.290   0.424   4.244
 3748SOL    HW111576   2.320   0.352   4.182
 3748SOL    HW211577   2.251   0.384   4.327
 3749SOL     OW11578   3.567   1.487   4.828
 3749SOL    HW111579   3.474   1.462   4.801
 3749SOL    HW211580   3.593   1.437   4.910
 3750SOL     OW11581   2.179   0.547   5.004
 3750SOL    HW111582   2.217   0.488   5.076
 3750SOL    HW211583   2.219   0.521   4.916
 3751SOL     OW11584   2.674   1.586   4.411
 3751SOL    HW111585   2.706   1.596   4.317
 3751SOL    HW211586   2.595   1.524   4.413
 3752SOL     OW11587   3.286   0.214   4.836
 3752SOL    HW111588   3.338   0.149   4.891
 3752SOL    HW211589   3.237   0.277   4.897
 3753SOL     OW11590   2.863   0.034   4.878
 3753SOL    HW111591   2.800  -0.038   4.847
 3753SOL    HW211592   2.956  -0.002   4.878
 3754SOL     OW11593   2.632   1.330   4.025
 3754SOL    HW111594   2.586   1.243   4.042
 3754SOL    HW211595   2.723   1.327   4.066
 3755SOL     OW11596   2.480   1.567   5.008
 3755SOL    HW111597   2.475   1.649   5.065
 3755SOL    HW211598   2.569   1.564   4.963
 3756SOL     OW11599   3.214   0.052   3.892
 3756SOL    HW111600   3.249   0.011   3.808
 3756SOL    HW211601   3.124   0.014   3.912
 3757SOL     OW11602   3.162   0.453   4.415
 3757SOL    HW111603   3.103   0.533   4.419
 3757SOL    HW211604   3.177   0.418   4.508
 3758SOL     OW11605   3.455   0.221   4.606
 3758SOL    HW111606   3.371   0.220   4.660
 3758SOL    HW211607   3.457   0.304   4.550
 3759SOL     OW11608   1.901   1.077   4.024
 3759SOL    HW111609   2.000   1.066   4.015
 3759SOL    HW211610   1.861   0.991   4.056
 3760SOL     OW11611   2.737   1.646   4.061
 3760SOL    HW111612   2.660   1.611   4.007
 3760SOL    HW211613   2.705   1.717   4.123
 3761SOL     OW11614   2.092   0.628   5.699
 3761SOL    HW111615   1.999   0.626   5.736
 3761SOL    HW211616   2.093   0.589   5.607
 3762SOL     OW11617   2.087   0.275   6.582
 3762SOL    HW111618   2.122   0.258   6.674
 3762SOL    HW211619   1.999   0.230   6.570
 3763SOL     OW11620   1.881   0.368   6.233
 3763SOL    HW111621   1.799   0.411   6.272
 3763SOL    HW211622   1.853   0.295   6.170
 3764SOL     OW11623   2.431   1.275   6.751
 3764SOL    HW111624   2.338   1.268   6.714
 3764SOL    HW211625   2.442   1.364   6.795
 3765SOL     OW11626   3.417   1.511   6.289
 3765SOL    HW111627   3.360   1.495   6.370
 3765SOL    HW211628   3.358   1.521   6.209
 3766SOL     OW11629   2.997   0.703   6.303
 3766SOL    HW111630   3.054   0.781   6.278
 3766SOL    HW211631   2.937   0.729   6.379
 3767SOL     OW11632   3.617   0.607   5.817
 3767SOL    HW111633   3.605   0.594   5.718
 3767SOL    HW211634   3.587   0.526   5.866
 3768SOL     OW11635   2.630   1.144   6.609
 3768SOL    HW111636   2.552   1.161   6.669
 3768SOL    HW211637   2.664   1.231   6.573
 3769SOL     OW11638   2.712   0.798   7.409
 3769SOL    HW111639   2.708   0.874   7.474
 3769SOL    HW211640   2.734   0.834   7.318
 3770SOL     OW11641   2.547   1.012   6.251
 3770SOL    HW111642   2.616   0.996   6.321
 3770SOL    HW211643   2.474   1.069   6.289
 3771SOL     OW11644   2.548   1.161   7.389
 3771SOL    HW111645   2.608   1.240   7.403
 3771SOL    HW211646   2.462   1.192   7.348
 3772SOL     OW11647   2.197   1.435   6.647
 3772SOL    HW111648   2.119   1.404   6.594
 3772SOL    HW211649   2.255   1.493   6.590
 3773SOL     OW11650   3.322   1.505   6.925
 3773SOL    HW111651   3.346   1.599   6.951
 3773SOL    HW211652   3.306   1.451   7.007
 3774SOL     OW11653   2.300   0.392   7.085
 3774SOL    HW111654   2.382   0.336   7.094
 3774SOL    HW211655   2.219   0.334   7.089
 3775SOL     OW11656   3.465   0.447   6.323
 3775SOL    HW111657   3.391   0.493   6.273
 3775SOL    HW211658   3.516   0.515   6.376
 3776SOL     OW11659   2.093   1.713   6.069
 3776SOL    HW111660   2.127   1.790   6.123
 3776SOL    HW211661   2.137   1.713   5.979
 3777SOL     OW11662   2.989   1.341   7.276
 3777SOL    HW111663   3.036   1.341   7.364
 3777SOL    HW211664   2.941   1.254   7.265
 3778SOL     OW11665   2.092   1.434   6.124
 3778SOL    HW111666   2.066   1.530   6.124
 3778SOL    HW211667   2.021   1.380   6.169
 3779SOL     OW11668   2.102   1.091   6.472
 3779SOL    HW111669   2.116   1.007   6.524
 3779SOL    HW211670   2.047   1.155   6.527
 3780SOL     OW11671   2.482   1.786   7.025
 3780SOL    HW111672   2.390   1.769   7.060
 3780SOL    HW211673   2.510   1.878   7.051
 3781SOL     OW11674   2.468   0.964   5.709
 3781SOL    HW111675   2.475   1.048   5.655
 3781SOL    HW211676   2.514   0.977   5.797
 3782SOL     OW11677   3.456   0.114   7.066
 3782SOL    HW111678   3.438   0.181   6.994
 3782SOL    HW211679   3.453   0.160   7.155
 3783SOL     OW11680   1.984   0.643   6.149
 3783SOL    HW111681   1.939   0.555   6.166
 3783SOL    HW211682   1.983   0.697   6.233
 3784SOL     OW11683   3.704   1.767   5.945
 3784SOL    HW111684   3.758   1.738   6.025
 3784SOL    HW211685   3.734   1.857   5.916
 3785SOL     OW11686   1.889   1.596   5.703
 3785SOL    HW111687   1.870   1.500   5.724
 3785SOL    HW211688   1.856   1.654   5.778
 3786SOL     OW11689   3.551   0.922   6.198
 3786SOL    HW111690   3.646   0.893   6.206
 3786SOL    HW211691   3.543   0.987   6.123
 3787SOL     OW11692   3.503   1.108   6.018
 3787SOL    HW111693   3.589   1.110   5.966
 3787SOL    HW211694   3.517   1.155   6.106
 3788SOL     OW11695   1.975   0.737   7.183
 3788SOL    HW111696   2.063   0.724   7.228
 3788SOL    HW211697   1.962   0.834   7.161
 3789SOL     OW11698   2.475   1.365   6.312
 3789SOL    HW111699   2.426   1.278   6.321
 3789SOL    HW211700   2.452   1.408   6.225
 3790SOL     OW11701   3.155   1.228   7.009
 3790SOL    HW111702   3.192   1.155   6.951
 3790SOL    HW211703   3.207   1.233   7.094
 3791SOL     OW11704   2.671   0.004   6.088
 3791SOL    HW111705   2.711   0.095   6.079
 3791SOL    HW211706   2.571   0.012   6.094
 3792SOL     OW11707   2.059   0.976   6.850
 3792SOL    HW111708   2.148   0.931   6.836
 3792SOL    HW211709   1.986   0.911   6.831
 3793SOL     OW11710   3.387   0.999   5.776
 3793SOL    HW111711   3.324   0.923   5.789
 3793SOL    HW211712   3.435   1.017   5.862
 3794SOL     OW11713   3.049   1.792   7.202
 3794SOL    HW111714   3.073   1.852   7.126
 3794SOL    HW211715   3.056   1.697   7.172
 3795SOL     OW11716   2.179   0.251   7.387
 3795SOL    HW111717   2.250   0.322   7.393
 3795SOL    HW211718   2.091   0.290   7.415
 3796SOL     OW11719   3.328   1.417   6.539
 3796SOL    HW111720   3.269   1.423   6.619
 3796SOL    HW211721   3.313   1.329   6.493
 3797SOL     OW11722   3.529   1.714   6.158
 3797SOL    HW111723   3.488   1.691   6.070
 3797SOL    HW211724   3.511   1.640   6.223
 3798SOL     OW11725   2.460   0.729   5.856
 3798SOL    HW111726   2.484   0.798   5.788
 3798SOL    HW211727   2.382   0.762   5.910
 3799SOL     OW11728   3.143   0.345   6.530
 3799SOL    HW111729   3.057   0.295   6.517
 3799SOL    HW211730   3.205   0.291   6.586
 3800SOL     OW11731   3.438   1.662   5.893
 3800SOL    HW111732   3.527   1.708   5.896
 3800SOL    HW211733   3.417   1.638   5.798
 3801SOL     OW11734   2.669   0.605   7.051
 3801SOL    HW111735   2.622   0.602   7.140
 3801SOL    HW211736   2.618   0.550   6.985
 3802SOL     OW11737   3.256   0.469   7.260
 3802SOL    HW111738   3.236   0.512   7.348
 3802SOL    HW211739   3.334   0.407   7.269
 3803SOL     OW11740   2.835   0.890   7.158
 3803SOL    HW111741   2.881   0.806   7.129
 3803SOL    HW211742   2.779   0.924   7.083
 3804SOL     OW11743   2.853   0.410   6.828
 3804SOL    HW111744   2.776   0.444   6.882
 3804SOL    HW211745   2.819   0.359   6.749
 3805SOL     OW11746   2.903   0.701   6.015
 3805SOL    HW111747   2.929   0.697   6.111
 3805SOL    HW211748   2.818   0.650   6.001
 3806SOL     OW11749   1.938   0.811   6.375
 3806SOL    HW111750   2.037   0.799   6.384
 3806SOL    HW211751   1.914   0.906   6.396
 3807SOL     OW11752   1.992   1.821   7.157
 3807SOL    HW111753   1.982   1.806   7.256
 3807SOL    HW211754   1.906   1.857   7.121
 3808SOL     OW11755   2.727   0.348   5.781
 3808SOL    HW111756   2.786   0.411   5.732
 3808SOL    HW211757   2.746   0.254   5.752
 3809SOL     OW11758   3.581   0.585   7.417
 3809SOL    HW111759   3.555   0.674   7.381
 3809SOL    HW211760   3.579   0.517   7.344
 3810SOL     OW11761   3.224   1.144   6.131
 3810SOL    HW111762   3.307   1.115   6.083
 3810SOL    HW211763   3.175   1.211   6.075
 3811SOL     OW11764   2.412   0.196   6.471
 3811SOL    HW111765   2.407   0.191   6.571
 3811SOL    HW211766   2.414   0.292   6.442
 3812SOL     OW11767   2.870   1.456   6.063
 3812SOL    HW111768   2.824   1.528   6.011
 3812SOL    HW211769   2.866   1.476   6.161
 3813SOL     OW11770   2.213   1.801   6.439
 3813SOL    HW111771   2.263   1.715   6.445
 3813SOL    HW211772   2.278   1.878   6.436
 3814SOL     OW11773   3.657   1.066   6.459
 3814SOL    HW111774   3.595   1.051   6.383
 3814SOL    HW211775   3.605   1.077   6.544
 3815SOL     OW11776   3.089   1.550   7.092
 3815SOL    HW111777   3.095   1.473   7.156
 3815SOL    HW211778   3.037   1.524   7.012
 3816SOL     OW11779   2.183   0.943   5.828
 3816SOL    HW111780   2.265   0.982   5.786
 3816SOL    HW211781   2.156   0.861   5.779
 3817SOL     OW11782   3.320   0.735   6.314
 3817SOL    HW111783   3.315   0.670   6.389
 3817SOL    HW211784   3.400   0.794   6.327
 3818SOL     OW11785   2.323   1.266   7.313
 3818SOL    HW111786   2.273   1.267   7.227
 3818SOL    HW211787   2.260   1.248   7.389
 3819SOL     OW11788   2.973   1.776   5.823
 3819SOL    HW111789   2.913   1.714   5.873
 3819SOL    HW211790   3.004   1.732   5.738
 3820SOL     OW11791   2.064   0.285   7.084
 3820SOL    HW111792   1.984   0.345   7.071
 3820SOL    HW211793   2.054   0.236   7.170
 3821SOL     OW11794   3.494   1.377   5.667
 3821SOL    HW111795   3.462   1.471   5.657
 3821SOL    HW211796   3.418   1.314   5.655
 3822SOL     OW11797   2.326   1.743   5.909
 3822SOL    HW111798   2.359   1.782   5.995
 3822SOL    HW211799   2.402   1.736   5.844
 3823SOL     OW11800   3.262   0.107   6.012
 3823SOL    HW111801   3.238   0.070   5.922
 3823SOL    HW211802   3.361   0.123   6.016
 3824SOL     OW11803   2.111   1.785   6.827
 3824SOL    HW111804   2.168   1.720   6.877
 3824SOL    HW211805   2.095   1.752   6.734
 3825SOL     OW11806   2.802   1.698   6.490
 3825SOL    HW111807   2.882   1.641   6.511
 3825SOL    HW211808   2.753   1.658   6.413
 3826SOL     OW11809   2.244   0.700   6.066
 3826SOL    HW111810   2.289   0.610   6.063
 3826SOL    HW211811   2.150   0.689   6.099
 3827SOL     OW11812   3.409   0.222   7.315
 3827SOL    HW111813   3.404   0.259   7.407
 3827SOL    HW211814   3.337   0.153   7.303
 3828SOL     OW11815   2.476   0.122   5.703
 3828SOL    HW111816   2.574   0.100   5.710
 3828SOL    HW211817   2.445   0.105   5.610
 3829SOL     OW11818   2.643   0.264   7.335
 3829SOL    HW111819   2.710   0.203   7.378
 3829SOL    HW211820   2.570   0.283   7.400
 3830SOL     OW11821   2.750   1.514   6.781
 3830SOL    HW111822   2.727   1.489   6.687
 3830SOL    HW211823   2.811   1.445   6.820
 3831SOL     OW11824   3.213   0.590   7.019
 3831SOL    HW111825   3.241   0.547   7.104
 3831SOL    HW211826   3.238   0.686   7.020
 3832SOL     OW11827   2.665   1.402   6.510
 3832SOL    HW111828   2.755   1.416   6.468
 3832SOL    HW211829   2.594   1.404   6.439
 3833SOL     OW11830   2.784   0.503   6.485
 3833SOL    HW111831   2.759   0.494   6.389
 3833SOL    HW211832   2.832   0.421   6.516
 3834SOL     OW11833   2.401   0.064   6.098
 3834SOL    HW111834   2.320   0.065   6.156
 3834SOL    HW211835   2.404   0.147   6.043
 3835SOL     OW11836   3.296   1.188   5.627
 3835SOL    HW111837   3.328   1.112   5.684
 3835SOL    HW211838   3.204   1.215   5.657
 3836SOL     OW11839   2.159   0.035   5.757
 3836SOL    HW111840   2.208   0.119   5.736
 3836SOL    HW211841   2.221  -0.030   5.802
 3837SOL     OW11842   2.797   0.236   6.066
 3837SOL    HW111843   2.749   0.277   5.988
 3837SOL    HW211844   2.896   0.234   6.047
 3838SOL     OW11845   2.938   0.683   7.050
 3838SOL    HW111846   2.858   0.622   7.053
 3838SOL    HW211847   3.019   0.630   7.026
 3839SOL     OW11848   3.089   1.570   6.379
 3839SOL    HW111849   3.110   1.644   6.314
 3839SOL    HW211850   3.157   1.570   6.452
 3840SOL     OW11851   2.321   1.152   6.327
 3840SOL    HW111852   2.250   1.125   6.392
 3840SOL    HW211853   2.295   1.124   6.234
 3841SOL     OW11854   3.133   1.797   6.177
 3841SOL    HW111855   3.177   1.861   6.113
 3841SOL    HW211856   3.083   1.849   6.247
 3842SOL     OW11857   2.894   0.549   5.602
 3842SOL    HW111858   2.853   0.631   5.563
 3842SOL    HW211859   2.958   0.575   5.675
 3843SOL     OW11860   1.940   0.556   6.972
 3843SOL    HW111861   2.032   0.555   6.931
 3843SOL    HW211862   1.934   0.630   7.039
 3844SOL     OW11863   2.423   0.222   6.733
 3844SOL    HW111864   2.461   0.138   6.770
 3844SOL    HW211865   2.335   0.241   6.777
 3845SOL     OW11866   2.728   0.454   6.228
 3845SOL    HW111867   2.696   0.526   6.166
 3845SOL    HW211868   2.752   0.373   6.175
 3846SOL     OW11869   2.879   0.039   6.339
 3846SOL    HW111870   2.807   0.044   6.270
 3846SOL    HW211871   2.855  -0.030   6.408
 3847SOL     OW11872   3.291   1.173   6.453
 3847SOL    HW111873   3.236   1.089   6.446
 3847SOL    HW211874   3.317   1.202   6.361
 3848SOL     OW11875   3.328   0.590   6.578
 3848SOL    HW111876   3.298   0.495   6.585
 3848SOL    HW211877   3.401   0.606   6.644
 3849SOL     OW11878   3.719   0.833   5.963
 3849SOL    HW111879   3.761   0.769   6.027
 3849SOL    HW211880   3.681   0.782   5.885
 3850SOL     OW11881   2.350   1.385   5.760
 3850SOL    HW111882   2.263   1.370   5.807
 3850SOL    HW211883   2.333   1.411   5.665
 3851SOL     OW11884   3.526   1.280   6.243
 3851SOL    HW111885   3.625   1.288   6.257
 3851SOL    HW211886   3.481   1.364   6.274
 3852SOL     OW11887   3.252   0.575   5.664
 3852SOL    HW111888   3.198   0.554   5.745
 3852SOL    HW211889   3.343   0.534   5.673
 3853SOL     OW11890   2.389   0.256   5.914
 3853SOL    HW111891   2.416   0.197   5.839
 3853SOL    HW211892   2.389   0.351   5.883
 3854SOL     OW11893   3.616   1.223   7.174
 3854SOL    HW111894   3.707   1.184   7.161
 3854SOL    HW211895   3.624   1.319   7.198
 3855SOL     OW11896   2.926   1.347   6.926
 3855SOL    HW111897   2.846   1.324   6.981
 3855SOL    HW211898   3.009   1.321   6.975
 3856SOL     OW11899   3.454   1.629   7.211
 3856SOL    HW111900   3.481   1.663   7.121
 3856SOL    HW211901   3.533   1.591   7.257
 3857SOL     OW11902   2.973   1.195   6.686
 3857SOL    HW111903   2.933   1.239   6.767
 3857SOL    HW211904   2.932   1.232   6.603
 3858SOL     OW11905   3.500   1.099   6.665
 3858SOL    HW111906   3.505   1.180   6.724
 3858SOL    HW211907   3.414   1.101   6.614
 3859SOL     OW11908   2.777   0.089   6.988
 3859SOL    HW111909   2.802   0.069   6.893
 3859SOL    HW211910   2.849   0.145   7.030
 3860SOL     OW11911   2.842   1.116   7.305
 3860SOL    HW111912   2.743   1.122   7.315
 3860SOL    HW211913   2.865   1.036   7.249
 3861SOL     OW11914   2.567   1.050   5.954
 3861SOL    HW111915   2.553   1.057   6.053
 3861SOL    HW211916   2.651   0.999   5.936
 3862SOL     OW11917   2.272   0.813   6.837
 3862SOL    HW111918   2.358   0.825   6.887
 3862SOL    HW211919   2.230   0.726   6.864
 3863SOL     OW11920   3.136   0.386   6.848
 3863SOL    HW111921   3.157   0.460   6.912
 3863SOL    HW211922   3.047   0.403   6.805
 3864SOL     OW11923   1.926   1.564   6.917
 3864SOL    HW111924   1.880   1.646   6.883
 3864SOL    HW211925   2.024   1.583   6.926
 3865SOL     OW11926   2.229   1.100   6.087
 3865SOL    HW111927   2.222   1.183   6.031
 3865SOL    HW211928   2.233   1.020   6.027
 3866SOL     OW11929   2.428   0.537   6.451
 3866SOL    HW111930   2.440   0.603   6.377
 3866SOL    HW211931   2.474   0.571   6.534
 3867SOL     OW11932   3.114   1.348   5.974
 3867SOL    HW111933   3.164   1.425   6.014
 3867SOL    HW211934   3.019   1.350   6.006
 3868SOL     OW11935   3.134   1.445   6.728
 3868SOL    HW111936   3.181   1.458   6.815
 3868SOL    HW211937   3.068   1.371   6.737
 3869SOL     OW11938   3.444   0.639   6.058
 3869SOL    HW111939   3.413   0.700   6.131
 3869SOL    HW211940   3.494   0.691   5.989
 3870SOL     OW11941   2.216   1.510   6.915
 3870SOL    HW111942   2.195   1.466   6.828
 3870SOL    HW211943   2.313   1.536   6.918
 3871SOL     OW11944   2.264   0.751   7.184
 3871SOL    HW111945   2.332   0.806   7.137
 3871SOL    HW211946   2.304   0.663   7.211
 3872SOL     OW11947   3.449   0.779   7.256
 3872SOL    HW111948   3.357   0.817   7.251
 3872SOL    HW211949   3.509   0.826   7.191
 3873SOL     OW11950   2.875   0.105   7.356
 3873SOL    HW111951   2.881   0.190   7.304
 3873SOL    HW211952   2.907   0.029   7.299
 3874SOL     OW11953   2.366   0.050   7.326
 3874SOL    HW111954   2.324  -0.007   7.256
 3874SOL    HW211955   2.300   0.119   7.358
 3875SOL     OW11956   2.435   0.870   6.615
 3875SOL    HW111957   2.479   0.959   6.606
 3875SOL    HW211958   2.372   0.870   6.692
 3876SOL     OW11959   3.222   0.862   6.631
 3876SOL    HW111960   3.147   0.862   6.565
 3876SOL    HW211961   3.259   0.770   6.640
 3877SOL     OW11962   3.071   0.525   5.861
 3877SOL    HW111963   3.084   0.441   5.915
 3877SOL    HW211964   3.042   0.599   5.921
 3878SOL     OW11965   2.169   0.213   6.817
 3878SOL    HW111966   2.146   0.250   6.907
 3878SOL    HW211967   2.139   0.118   6.811
 3879SOL     OW11968   1.899   1.310   6.868
 3879SOL    HW111969   1.952   1.261   6.936
 3879SOL    HW211970   1.921   1.408   6.873
 3880SOL     OW11971   2.594   0.634   6.650
 3880SOL    HW111972   2.653   0.608   6.574
 3880SOL    HW211973   2.566   0.730   6.639
 3881SOL     OW11974   3.590   0.935   7.440
 3881SOL    HW111975   3.544   0.928   7.351
 3881SOL    HW211976   3.528   0.979   7.506
 3882SOL     OW11977   2.169   0.063   6.204
 3882SOL    HW111978   2.158   0.157   6.237
 3882SOL    HW211979   2.164   0.000   6.281
 3883SOL     OW11980   3.484   0.367   5.960
 3883SOL    HW111981   3.486   0.291   6.024
 3883SOL    HW211982   3.436   0.444   6.000
 3884SOL     OW11983   2.885   0.766   6.552
 3884SOL    HW111984   2.900   0.787   6.648
 3884SOL    HW211985   2.855   0.671   6.543
 3885SOL     OW11986   2.842   1.573   7.286
 3885SOL    HW111987   2.822   1.617   7.198
 3885SOL    HW211988   2.881   1.482   7.270
 3886SOL     OW11989   3.721   1.518   7.191
 3886SOL    HW111990   3.735   1.545   7.096
 3886SOL    HW211991   3.804   1.540   7.244
 3887SOL     OW11992   2.212   0.898   7.390
 3887SOL    HW111993   2.288   0.942   7.438
 3887SOL    HW211994   2.247   0.851   7.308
 3888SOL     OW11995   3.402   0.274   5.711
 3888SOL    HW111996   3.341   0.199   5.734
 3888SOL    HW211997   3.424   0.326   5.794
 3889SOL     OW11998   3.165   0.838   5.628
 3889SOL    HW111999   3.199   0.745   5.643
 3889SOL    HW212000   3.183   0.865   5.533
 3890SOL     OW12001   2.930   1.333   6.435
 3890SOL    HW112002   2.937   1.249   6.380
 3890SOL    HW212003   2.992   1.402   6.399
 3891SOL     OW12004   2.181   0.810   6.535
 3891SOL    HW112005   2.274   0.846   6.540
 3891SOL    HW212006   2.175   0.725   6.587
 3892SOL     OW12007   2.201   0.509   6.592
 3892SOL    HW112008   2.149   0.426   6.575
 3892SOL    HW212009   2.278   0.514   6.528
 3893SOL     OW12010   3.000   0.380   7.264
 3893SOL    HW112011   2.955   0.443   7.328
 3893SOL    HW212012   3.093   0.411   7.247
 3894SOL     OW12013   3.022   0.207   7.063
 3894SOL    HW112014   3.022   0.271   7.140
 3894SOL    HW212015   3.050   0.255   6.980
 3895SOL     OW12016   1.870   1.326   5.786
 3895SOL    HW112017   1.777   1.347   5.755
 3895SOL    HW212018   1.880   1.227   5.799
 3896SOL     OW12019   1.950   1.801   6.513
 3896SOL    HW112020   1.908   1.715   6.486
 3896SOL    HW212021   2.044   1.804   6.479
 3897SOL     OW12022   2.366   1.568   6.496
 3897SOL    HW112023   2.432   1.642   6.505
 3897SOL    HW212024   2.410   1.489   6.454
 3898SOL     OW12025   2.864   0.796   6.824
 3898SOL    HW112026   2.905   0.764   6.910
 3898SOL    HW212027   2.768   0.769   6.821
 3899SOL     OW12028   1.902   0.544   6.700
 3899SOL    HW112029   1.987   0.511   6.659
 3899SOL    HW212030   1.915   0.559   6.798
 3900SOL     OW12031   2.051   0.520   7.308
 3900SOL    HW112032   2.110   0.480   7.238
 3900SOL    HW212033   1.993   0.591   7.267
 3901SOL     OW12034   3.231   0.950   7.246
 3901SOL    HW112035   3.270   1.039   7.266
 3901SOL    HW212036   3.241   0.930   7.149
 3902SOL     OW12037   2.677   0.572   5.911
 3902SOL    HW112038   2.684   0.483   5.865
 3902SOL    HW212039   2.583   0.606   5.903
 3903SOL     OW12040   3.519   0.604   6.792
 3903SOL    HW112041   3.481   0.535   6.854
 3903SOL    HW212042   3.601   0.568   6.748
 3904SOL     OW12043   2.114   1.564   7.330
 3904SOL    HW112044   2.084   1.621   7.406
 3904SOL    HW212045   2.107   1.467   7.356
 3905SOL     OW12046   2.533   0.464   6.855
 3905SOL    HW112047   2.499   0.375   6.825
 3905SOL    HW212048   2.559   0.518   6.775
 3906SOL     OW12049   2.792   1.678   7.051
 3906SOL    HW112050   2.768   1.660   6.956
 3906SOL    HW212051   2.822   1.772   7.061
 3907SOL     OW12052   2.335   0.500   5.777
 3907SOL    HW112053   2.396   0.580   5.781
 3907SOL    HW212054   2.240   0.531   5.784
 3908SOL     OW12055   2.021   1.137   7.052
 3908SOL    HW112056   2.043   1.076   7.128
 3908SOL    HW212057   2.031   1.088   6.966
 3909SOL     OW12058   3.209   1.059   6.820
 3909SOL    HW112059   3.233   0.996   6.746
 3909SOL    HW212060   3.119   1.099   6.802
 3910SOL     OW12061   3.164   0.855   5.895
 3910SOL    HW112062   3.078   0.824   5.937
 3910SOL    HW212063   3.160   0.841   5.796
 3911SOL     OW12064   3.621   1.747   6.740
 3911SOL    HW112065   3.682   1.777   6.667
 3911SOL    HW212066   3.583   1.658   6.718
 3912SOL     OW12067   3.114   1.731   6.714
 3912SOL    HW112068   3.198   1.736   6.660
 3912SOL    HW212069   3.091   1.635   6.732
 3913SOL     OW12070   1.945   1.258   6.608
 3913SOL    HW112071   1.940   1.257   6.708
 3913SOL    HW212072   1.862   1.217   6.570
 3914SOL     OW12073   2.550   1.662   7.302
 3914SOL    HW112074   2.494   1.743   7.311
 3914SOL    HW212075   2.602   1.666   7.216
 3915SOL     OW12076   3.588   0.135   6.109
 3915SOL    HW112077   3.661   0.118   6.042
 3915SOL    HW212078   3.557   0.048   6.147
 3916SOL     OW12079   3.250   1.573   6.063
 3916SOL    HW112080   3.317   1.585   5.989
 3916SOL    HW212081   3.210   1.662   6.086
 3917SOL     OW12082   1.992   1.794   7.437
 3917SOL    HW112083   1.951   1.720   7.490
 3917SOL    HW212084   2.056   1.845   7.495
 3918SOL     OW12085   3.142   0.927   6.258
 3918SOL    HW112086   3.202   0.846   6.260
 3918SOL    HW212087   3.182   0.996   6.198
 3919SOL     OW12088   2.692   1.273   7.008
 3919SOL    HW112089   2.687   1.306   7.103
 3919SOL    HW212090   2.606   1.292   6.962
 3920SOL     OW12091   2.534   1.616   5.740
 3920SOL    HW112092   2.543   1.626   5.641
 3920SOL    HW212093   2.494   1.527   5.761
 3921SOL     OW12094   3.512   1.720   6.980
 3921SOL    HW112095   3.565   1.730   6.896
 3921SOL    HW212096   3.485   1.810   7.014
 3922SOL     OW12097   3.703   0.175   6.549
 3922SOL    HW112098   3.742   0.090   6.513
 3922SOL    HW212099   3.605   0.177   6.530
 3923SOL     OW12100   2.125   0.326   6.306
 3923SOL    HW112101   2.046   0.377   6.272
 3923SOL    HW212102   2.116   0.311   6.404
 3924SOL     OW12103   3.056   1.612   5.617
 3924SOL    HW112104   3.062   1.519   5.654
 3924SOL    HW212105   2.997   1.612   5.537
 3925SOL     OW12106   2.684   1.002   6.958
 3925SOL    HW112107   2.724   1.001   6.866
 3925SOL    HW212108   2.694   1.094   6.998
 3926SOL     OW12109   2.778   0.910   5.877
 3926SOL    HW112110   2.841   0.948   5.809
 3926SOL    HW212111   2.818   0.827   5.916
 3927SOL     OW12112   3.366   1.607   5.630
 3927SOL    HW112113   3.274   1.644   5.637
 3927SOL    HW212114   3.404   1.627   5.540
 3928SOL     OW12115   2.234   1.288   7.076
 3928SOL    HW112116   2.221   1.381   7.042
 3928SOL    HW212117   2.150   1.236   7.063
 3929SOL     OW12118   3.476   1.292   6.875
 3929SOL    HW112119   3.536   1.295   6.955
 3929SOL    HW212120   3.401   1.356   6.888
 3930SOL     OW12121   2.901   1.098   6.282
 3930SOL    HW112122   2.831   1.051   6.336
 3930SOL    HW212123   2.960   1.030   6.239
 3931SOL     OW12124   2.876   0.236   6.557
 3931SOL    HW112125   2.868   0.200   6.464
 3931SOL    HW212126   2.874   0.160   6.622
 3932SOL     OW12127   2.452   1.487   6.077
 3932SOL    HW112128   2.494   1.429   6.007
 3932SOL    HW212129   2.408   1.566   6.033
 3933SOL     OW12130   3.571   0.385   6.967
 3933SOL    HW112131   3.644   0.454   6.971
 3933SOL    HW212132   3.599   0.310   6.908
 3934SOL     OW12133   2.117   1.348   5.876
 3934SOL    HW112134   2.021   1.349   5.849
 3934SOL    HW212135   2.129   1.401   5.960
 3935SOL     OW12136   1.967   1.013   7.312
 3935SOL    HW112137   1.890   0.980   7.366
 3935SOL    HW212138   2.052   0.983   7.354
 3936SOL     OW12139   2.534   0.203   7.075
 3936SOL    HW112140   2.624   0.187   7.035
 3936SOL    HW212141   2.542   0.208   7.174
 3937SOL     OW12142   1.937   0.345   5.619
 3937SOL    HW112143   1.845   0.317   5.590
 3937SOL    HW212144   1.968   0.422   5.563
 3938SOL     OW12145   3.302   0.856   6.984
 3938SOL    HW112146   3.245   0.908   6.921
 3938SOL    HW212147   3.398   0.868   6.960
 3939SOL     OW12148   1.934   0.166   5.904
 3939SOL    HW112149   1.917   0.249   5.850
 3939SOL    HW212150   2.024   0.129   5.882
 3940SOL     OW12151   3.045   1.335   5.705
 3940SOL    HW112152   2.946   1.324   5.707
 3940SOL    HW212153   3.079   1.350   5.798
 3941SOL     OW12154   2.475   0.842   7.017
 3941SOL    HW112155   2.531   0.923   7.000
 3941SOL    HW212156   2.534   0.762   7.020
 3942SOL     OW12157   3.355   1.767   6.545
 3942SOL    HW112158   3.388   1.831   6.476
 3942SOL    HW212159   3.421   1.761   6.620
 3943SOL     OW12160   2.578   0.565   7.294
 3943SOL    HW112161   2.597   0.630   7.368
 3943SOL    HW212162   2.638   0.485   7.303
 3944SOL     OW12163   3.312   1.220   7.219
 3944SOL    HW112164   3.303   1.210   7.318
 3944SOL    HW212165   3.408   1.213   7.193
 3945SOL     OW12166   2.252   1.741   7.146
 3945SOL    HW112167   2.161   1.782   7.144
 3945SOL    HW212168   2.245   1.647   7.178
 3946SOL     OW12169   3.536   0.883   6.840
 3946SOL    HW112170   3.509   0.794   6.803
 3946SOL    HW212171   3.537   0.951   6.767
 3947SOL     OW12172   3.087   0.325   6.035
 3947SOL    HW112173   3.152   0.251   6.024
 3947SOL    HW212174   3.107   0.375   6.119
 3948SOL     OW12175   2.456   0.745   6.238
 3948SOL    HW112176   2.506   0.830   6.219
 3948SOL    HW212177   2.368   0.747   6.190
 3949SOL     OW12178   3.639   0.342   7.228
 3949SOL    HW112179   3.622   0.373   7.134
 3949SOL    HW212180   3.555   0.305   7.266
 3950SOL     OW12181   3.592   0.934   7.103
 3950SOL    HW112182   3.630   1.025   7.118
 3950SOL    HW212183   3.584   0.917   7.004
 3951SOL     OW12184   2.721   1.374   5.602
 3951SOL    HW112185   2.675   1.389   5.690
 3951SOL    HW212186   2.765   1.459   5.572
 3952SOL     OW12187   2.523   1.790   6.539
 3952SOL    HW112188   2.477   1.878   6.526
 3952SOL    HW212189   2.622   1.802   6.532
 3953SOL     OW12190   2.721   0.956   6.447
 3953SOL    HW112191   2.775   0.887   6.495
 3953SOL    HW212192   2.689   1.025   6.513
 3954SOL     OW12193   2.945   0.984   5.673
 3954SOL    HW112194   2.922   1.037   5.591
 3954SOL    HW212195   3.026   0.928   5.654
 3955SOL     OW12196   3.723   1.569   6.437
 3955SOL    HW112197   3.652   1.557   6.367
 3955SOL    HW212198   3.724   1.490   6.497
 3956SOL     OW12199   2.083   1.314   7.430
 3956SOL    HW112200   2.018   1.241   7.409
 3956SOL    HW212201   2.087   1.328   7.528
 3957SOL     OW12202   1.941   1.240   6.239
 3957SOL    HW112203   1.940   1.193   6.327
 3957SOL    HW212204   2.023   1.212   6.188
 3958SOL     OW12205   2.534   1.391   7.210
 3958SOL    HW112206   2.456   1.341   7.248
 3958SOL    HW212207   2.531   1.486   7.241
 3959SOL     OW12208   3.686   0.192   6.813
 3959SOL    HW112209   3.682   0.102   6.857
 3959SOL    HW212210   3.689   0.181   6.714
 3960SOL     OW12211   2.290   0.424   6.106
 3960SOL    HW112212   2.320   0.352   6.044
 3960SOL    HW212213   2.251   0.384   6.189
 3961SOL     OW12214   3.567   1.487   6.690
 3961SOL    HW112215   3.474   1.462   6.663
 3961SOL    HW212216   3.593   1.437   6.772
 3962SOL     OW12217   2.179   0.547   6.866
 3962SOL    HW112218   2.217   0.488   6.938
 3962SOL    HW212219   2.219   0.521   6.778
 3963SOL     OW12220   2.674   1.586   6.273
 3963SOL    HW112221   2.706   1.596   6.179
 3963SOL    HW212222   2.595   1.524   6.275
 3964SOL     OW12223   3.286   0.214   6.698
 3964SOL    HW112224   3.338   0.149   6.753
 3964SOL    HW212225   3.237   0.277   6.759
 3965SOL     OW12226   2.863   0.034   6.740
 3965SOL    HW112227   2.800  -0.038   6.709
 3965SOL    HW212228   2.956  -0.002   6.740
 3966SOL     OW12229   2.632   1.330   5.887
 3966SOL    HW112230   2.586   1.243   5.904
 3966SOL    HW212231   2.723   1.327   5.928
 3967SOL     OW12232   2.480   1.567   6.870
 3967SOL    HW112233   2.475   1.649   6.927
 3967SOL    HW212234   2.569   1.564   6.825
 3968SOL     OW12235   3.214   0.052   5.754
 3968SOL    HW112236   3.249   0.011   5.670
 3968SOL    HW212237   3.124   0.014   5.774
 3969SOL     OW12238   3.162   0.453   6.277
 3969SOL    HW112239   3.103   0.533   6.281
 3969SOL    HW212240   3.177   0.418   6.370
 3970SOL     OW12241   3.455   0.221   6.468
 3970SOL    HW112242   3.371   0.220   6.522
 3970SOL    HW212243   3.457   0.304   6.412
 3971SOL     OW12244   1.901   1.077   5.886
 3971SOL    HW112245   2.000   1.066   5.877
 3971SOL    HW212246   1.861   0.991   5.918
 3972SOL     OW12247   2.737   1.646   5.923
 3972SOL    HW112248   2.660   1.611   5.869
 3972SOL    HW212249   2.705   1.717   5.985
 3973SOL     OW12250   2.092   0.628   7.561
 3973SOL    HW112251   1.999   0.626   7.598
 3973SOL    HW212252   2.093   0.589   7.469
 3974SOL     OW12253   2.087   0.275   8.444
 3974SOL    HW112254   2.122   0.258   8.536
 3974SOL    HW212255   1.999   0.230   8.432
 3975SOL     OW12256   1.881   0.368   8.095
 3975SOL    HW112257   1.799   0.411   8.134
 3975SOL    HW212258   1.853   0.295   8.032
 3976SOL     OW12259   2.431   1.275   8.613
 3976SOL    HW112260   2.338   1.268   8.576
 3976SOL    HW212261   2.442   1.364   8.657
 3977SOL     OW12262   3.417   1.511   8.151
 3977SOL    HW112263   3.360   1.495   8.232
 3977SOL    HW212264   3.358   1.521   8.071
 3978SOL     OW12265   2.997   0.703   8.165
 3978SOL    HW112266   3.054   0.781   8.140
 3978SOL    HW212267   2.937   0.729   8.241
 3979SOL     OW12268   3.617   0.607   7.679
 3979SOL    HW112269   3.605   0.594   7.580
 3979SOL    HW212270   3.587   0.526   7.728
 3980SOL     OW12271   2.630   1.144   8.471
 3980SOL    HW112272   2.552   1.161   8.531
 3980SOL    HW212273   2.664   1.231   8.435
 3981SOL     OW12274   2.712   0.798   9.271
 3981SOL    HW112275   2.708   0.874   9.336
 3981SOL    HW212276   2.734   0.834   9.180
 3982SOL     OW12277   2.547   1.012   8.113
 3982SOL    HW112278   2.616   0.996   8.183
 3982SOL    HW212279   2.474   1.069   8.151
 3983SOL     OW12280   2.548   1.161   9.251
 3983SOL    HW112281   2.608   1.240   9.265
 3983SOL    HW212282   2.462   1.192   9.210
 3984SOL     OW12283   2.197   1.435   8.509
 3984SOL    HW112284   2.119   1.404   8.456
 3984SOL    HW212285   2.255   1.493   8.452
 3985SOL     OW12286   3.322   1.505   8.787
 3985SOL    HW112287   3.346   1.599   8.813
 3985SOL    HW212288   3.306   1.451   8.869
 3986SOL     OW12289   2.300   0.392   8.947
 3986SOL    HW112290   2.382   0.336   8.956
 3986SOL    HW212291   2.219   0.334   8.951
 3987SOL     OW12292   3.465   0.447   8.185
 3987SOL    HW112293   3.391   0.493   8.135
 3987SOL    HW212294   3.516   0.515   8.238
 3988SOL     OW12295   2.093   1.713   7.931
 3988SOL    HW112296   2.127   1.790   7.985
 3988SOL    HW212297   2.137   1.713   7.841
 3989SOL     OW12298   2.989   1.341   9.138
 3989SOL    HW112299   3.036   1.341   9.226
 3989SOL    HW212300   2.941   1.254   9.127
 3990SOL     OW12301   2.092   1.434   7.986
 3990SOL    HW112302   2.066   1.530   7.986
 3990SOL    HW212303   2.021   1.380   8.031
 3991SOL     OW12304   2.102   1.091   8.334
 3991SOL    HW112305   2.116   1.007   8.386
 3991SOL    HW212306   2.047   1.155   8.389
 3992SOL     OW12307   2.482   1.786   8.887
 3992SOL    HW112308   2.390   1.769   8.922
 3992SOL    HW212309   2.510   1.878   8.913
 3993SOL     OW12310   2.468   0.964   7.571
 3993SOL    HW112311   2.475   1.048   7.517
 3993SOL    HW212312   2.514   0.977   7.659
 3994SOL     OW12313   3.456   0.114   8.928
 3994SOL    HW112314   3.438   0.181   8.856
 3994SOL    HW212315   3.453   0.160   9.017
 3995SOL     OW12316   1.984   0.643   8.011
 3995SOL    HW112317   1.939   0.555   8.028
 3995SOL    HW212318   1.983   0.697   8.095
 3996SOL     OW12319   3.704   1.767   7.807
 3996SOL    HW112320   3.758   1.738   7.887
 3996SOL    HW212321   3.734   1.857   7.778
 3997SOL     OW12322   1.889   1.596   7.565
 3997SOL    HW112323   1.870   1.500   7.586
 3997SOL    HW212324   1.856   1.654   7.640
 3998SOL     OW12325   3.551   0.922   8.060
 3998SOL    HW112326   3.646   0.893   8.068
 3998SOL    HW212327   3.543   0.987   7.985
 3999SOL     OW12328   3.503   1.108   7.880
 3999SOL    HW112329   3.589   1.110   7.828
 3999SOL    HW212330   3.517   1.155   7.968
 4000SOL     OW12331   1.975   0.737   9.045
 4000SOL    HW112332   2.063   0.724   9.090
 4000SOL    HW212333   1.962   0.834   9.023
 4001SOL     OW12334   2.475   1.365   8.174
 4001SOL    HW112335   2.426   1.278   8.183
 4001SOL    HW212336   2.452   1.408   8.087
 4002SOL     OW12337   3.155   1.228   8.871
 4002SOL    HW112338   3.192   1.155   8.813
 4002SOL    HW212339   3.207   1.233   8.956
 4003SOL     OW12340   2.671   0.004   7.950
 4003SOL    HW112341   2.711   0.095   7.941
 4003SOL    HW212342   2.571   0.012   7.956
 4004SOL     OW12343   2.059   0.976   8.712
 4004SOL    HW112344   2.148   0.931   8.698
 4004SOL    HW212345   1.986   0.911   8.693
 4005SOL     OW12346   3.387   0.999   7.638
 4005SOL    HW112347   3.324   0.923   7.651
 4005SOL    HW212348   3.435   1.017   7.724
 4006SOL     OW12349   3.049   1.792   9.064
 4006SOL    HW112350   3.073   1.852   8.988
 4006SOL    HW212351   3.056   1.697   9.034
 4007SOL     OW12352   2.179   0.251   9.249
 4007SOL    HW112353   2.250   0.322   9.255
 4007SOL    HW212354   2.091   0.290   9.277
 4008SOL     OW12355   3.328   1.417   8.401
 4008SOL    HW112356   3.269   1.423   8.481
 4008SOL    HW212357   3.313   1.329   8.355
 4009SOL     OW12358   3.529   1.714   8.020
 4009SOL    HW112359   3.488   1.691   7.932
 4009SOL    HW212360   3.511   1.640   8.085
 4010SOL     OW12361   2.460   0.729   7.718
 4010SOL    HW112362   2.484   0.798   7.650
 4010SOL    HW212363   2.382   0.762   7.772
 4011SOL     OW12364   3.143   0.345   8.392
 4011SOL    HW112365   3.057   0.295   8.379
 4011SOL    HW212366   3.205   0.291   8.448
 4012SOL     OW12367   3.438   1.662   7.755
 4012SOL    HW112368   3.527   1.708   7.758
 4012SOL    HW212369   3.417   1.638   7.660
 4013SOL     OW12370   2.669   0.605   8.913
 4013SOL    HW112371   2.622   0.602   9.002
 4013SOL    HW212372   2.618   0.550   8.847
 4014SOL     OW12373   3.256   0.469   9.122
 4014SOL    HW112374   3.236   0.512   9.210
 4014SOL    HW212375   3.334   0.407   9.131
 4015SOL     OW12376   2.835   0.890   9.020
 4015SOL    HW112377   2.881   0.806   8.991
 4015SOL    HW212378   2.779   0.924   8.945
 4016SOL     OW12379   2.853   0.410   8.690
 4016SOL    HW112380   2.776   0.444   8.744
 4016SOL    HW212381   2.819   0.359   8.611
 4017SOL     OW12382   2.903   0.701   7.877
 4017SOL    HW112383   2.929   0.697   7.973
 4017SOL    HW212384   2.818   0.650   7.863
 4018SOL     OW12385   1.938   0.811   8.237
 4018SOL    HW112386   2.037   0.799   8.246
 4018SOL    HW212387   1.914   0.906   8.258
 4019SOL     OW12388   1.992   1.821   9.019
 4019SOL    HW112389   1.982   1.806   9.118
 4019SOL    HW212390   1.906   1.857   8.983
 4020SOL     OW12391   2.727   0.348   7.643
 4020SOL    HW112392   2.786   0.411   7.594
 4020SOL    HW212393   2.746   0.254   7.614
 4021SOL     OW12394   3.581   0.585   9.279
 4021SOL    HW112395   3.555   0.674   9.243
 4021SOL    HW212396   3.579   0.517   9.206
 4022SOL     OW12397   3.224   1.144   7.993
 4022SOL    HW112398   3.307   1.115   7.945
 4022SOL    HW212399   3.175   1.211   7.937
 4023SOL     OW12400   2.412   0.196   8.333
 4023SOL    HW112401   2.407   0.191   8.433
 4023SOL    HW212402   2.414   0.292   8.304
 4024SOL     OW12403   2.870   1.456   7.925
 4024SOL    HW112404   2.824   1.528   7.873
 4024SOL    HW212405   2.866   1.476   8.023
 4025SOL     OW12406   2.213   1.801   8.301
 4025SOL    HW112407   2.263   1.715   8.307
 4025SOL    HW212408   2.278   1.878   8.298
 4026SOL     OW12409   3.657   1.066   8.321
 4026SOL    HW112410   3.595   1.051   8.245
 4026SOL    HW212411   3.605   1.077   8.406
 4027SOL     OW12412   3.089   1.550   8.954
 4027SOL    HW112413   3.095   1.473   9.018
 4027SOL    HW212414   3.037   1.524   8.874
 4028SOL     OW12415   2.183   0.943   7.690
 4028SOL    HW112416   2.265   0.982   7.648
 4028SOL    HW212417   2.156   0.861   7.641
 4029SOL     OW12418   3.320   0.735   8.176
 4029SOL    HW112419   3.315   0.670   8.251
 4029SOL    HW212420   3.400   0.794   8.189
 4030SOL     OW12421   2.323   1.266   9.175
 4030SOL    HW112422   2.273   1.267   9.089
 4030SOL    HW212423   2.260   1.248   9.251
 4031SOL     OW12424   2.973   1.776   7.685
 4031SOL    HW112425   2.913   1.714   7.735
 4031SOL    HW212426   3.004   1.732   7.600
 4032SOL     OW12427   2.064   0.285   8.946
 4032SOL    HW112428   1.984   0.345   8.933
 4032SOL    HW212429   2.054   0.236   9.032
 4033SOL     OW12430   3.494   1.377   7.529
 4033SOL    HW112431   3.462   1.471   7.519
 4033SOL    HW212432   3.418   1.314   7.517
 4034SOL     OW12433   2.326   1.743   7.771
 4034SOL    HW112434   2.359   1.782   7.857
 4034SOL    HW212435   2.402   1.736   7.706
 4035SOL     OW12436   3.262   0.107   7.874
 4035SOL    HW112437   3.238   0.070   7.784
 4035SOL    HW212438   3.361   0.123   7.878
 4036SOL     OW12439   2.111   1.785   8.689
 4036SOL    HW112440   2.168   1.720   8.739
 4036SOL    HW212441   2.095   1.752   8.596
 4037SOL     OW12442   2.802   1.698   8.352
 4037SOL    HW112443   2.882   1.641   8.373
 4037SOL    HW212444   2.753   1.658   8.275
 4038SOL     OW12445   2.244   0.700   7.928
 4038SOL    HW112446   2.289   0.610   7.925
 4038SOL    HW212447   2.150   0.689   7.961
 4039SOL     OW12448   3.409   0.222   9.177
 4039SOL    HW112449   3.404   0.259   9.269
 4039SOL    HW212450   3.337   0.153   9.165
 4040SOL     OW12451   2.476   0.122   7.565
 4040SOL    HW112452   2.574   0.100   7.572
 4040SOL    HW212453   2.445   0.105   7.472
 4041SOL     OW12454   2.643   0.264   9.197
 4041SOL    HW112455   2.710   0.203   9.240
 4041SOL    HW212456   2.570   0.283   9.262
 4042SOL     OW12457   2.750   1.514   8.643
 4042SOL    HW112458   2.727   1.489   8.549
 4042SOL    HW212459   2.811   1.445   8.682
 4043SOL     OW12460   3.213   0.590   8.881
 4043SOL    HW112461   3.241   0.547   8.966
 4043SOL    HW212462   3.238   0.686   8.882
 4044SOL     OW12463   2.665   1.402   8.372
 4044SOL    HW112464   2.755   1.416   8.330
 4044SOL    HW212465   2.594   1.404   8.301
 4045SOL     OW12466   2.784   0.503   8.347
 4045SOL    HW112467   2.759   0.494   8.251
 4045SOL    HW212468   2.832   0.421   8.378
 4046SOL     OW12469   2.401   0.064   7.960
 4046SOL    HW112470   2.320   0.065   8.018
 4046SOL    HW212471   2.404   0.147   7.905
 4047SOL     OW12472   3.296   1.188   7.489
 4047SOL    HW112473   3.328   1.112   7.546
 4047SOL    HW212474   3.204   1.215   7.519
 4048SOL     OW12475   2.159   0.035   7.619
 4048SOL    HW112476   2.208   0.119   7.598
 4048SOL    HW212477   2.221  -0.030   7.664
 4049SOL     OW12478   2.797   0.236   7.928
 4049SOL    HW112479   2.749   0.277   7.850
 4049SOL    HW212480   2.896   0.234   7.909
 4050SOL     OW12481   2.938   0.683   8.912
 4050SOL    HW112482   2.858   0.622   8.915
 4050SOL    HW212483   3.019   0.630   8.888
 4051SOL     OW12484   3.089   1.570   8.241
 4051SOL    HW112485   3.110   1.644   8.176
 4051SOL    HW212486   3.157   1.570   8.314
 4052SOL     OW12487   2.321   1.152   8.189
 4052SOL    HW112488   2.250   1.125   8.254
 4052SOL    HW212489   2.295   1.124   8.096
 4053SOL     OW12490   3.133   1.797   8.039
 4053SOL    HW112491   3.177   1.861   7.975
 4053SOL    HW212492   3.083   1.849   8.109
 4054SOL     OW12493   2.894   0.549   7.464
 4054SOL    HW112494   2.853   0.631   7.425
 4054SOL    HW212495   2.958   0.575   7.537
 4055SOL     OW12496   1.940   0.556   8.834
 4055SOL    HW112497   2.032   0.555   8.793
 4055SOL    HW212498   1.934   0.630   8.901
 4056SOL     OW12499   2.423   0.222   8.595
 4056SOL    HW112500   2.461   0.138   8.632
 4056SOL    HW212501   2.335   0.241   8.639
 4057SOL     OW12502   2.728   0.454   8.090
 4057SOL    HW112503   2.696   0.526   8.028
 4057SOL    HW212504   2.752   0.373   8.037
 4058SOL     OW12505   2.879   0.039   8.201
 4058SOL    HW112506   2.807   0.044   8.132
 4058SOL    HW212507   2.855  -0.030   8.270
 4059SOL     OW12508   3.291   1.173   8.315
 4059SOL    HW112509   3.236   1.089   8.308
 4059SOL    HW212510   3.317   1.202   8.223
 4060SOL     OW12511   3.328   0.590   8.440
 4060SOL    HW112512   3.298   0.495   8.447
 4060SOL    HW212513   3.401   0.606   8.506
 4061SOL     OW12514   3.719   0.833   7.825
 4061SOL    HW112515   3.761   0.769   7.889
 4061SOL    HW212516   3.681   0.782   7.747
 4062SOL     OW12517   2.350   1.385   7.622
 4062SOL    HW112518   2.263   1.370   7.669
 4062SOL    HW212519   2.333   1.411   7.527
 4063SOL     OW12520   3.526   1.280   8.105
 4063SOL    HW112521   3.625   1.288   8.119
 4063SOL    HW212522   3.481   1.364   8.136
 4064SOL     OW12523   3.252   0.575   7.526
 4064SOL    HW112524   3.198   0.554   7.607
 4064SOL    HW212525   3.343   0.534   7.535
 4065SOL     OW12526   2.389   0.256   7.776
 4065SOL    HW112527   2.416   0.197   7.701
 4065SOL    HW212528   2.389   0.351   7.745
 4066SOL     OW12529   3.616   1.223   9.036
 4066SOL    HW112530   3.707   1.184   9.023
 4066SOL    HW212531   3.624   1.319   9.060
 4067SOL     OW12532   2.926   1.347   8.788
 4067SOL    HW112533   2.846   1.324   8.843
 4067SOL    HW212534   3.009   1.321   8.837
 4068SOL     OW12535   3.454   1.629   9.073
 4068SOL    HW112536   3.481   1.663   8.983
 4068SOL    HW212537   3.533   1.591   9.119
 4069SOL     OW12538   2.973   1.195   8.548
 4069SOL    HW112539   2.933   1.239   8.629
 4069SOL    HW212540   2.932   1.232   8.465
 4070SOL     OW12541   3.500   1.099   8.527
 4070SOL    HW112542   3.505   1.180   8.586
 4070SOL    HW212543   3.414   1.101   8.476
 4071SOL     OW12544   2.777   0.089   8.850
 4071SOL    HW112545   2.802   0.069   8.755
 4071SOL    HW212546   2.849   0.145   8.892
 4072SOL     OW12547   2.842   1.116   9.167
 4072SOL    HW112548   2.743   1.122   9.177
 4072SOL    HW212549   2.865   1.036   9.111
 4073SOL     OW12550   2.567   1.050   7.816
 4073SOL    HW112551   2.553   1.057   7.915
 4073SOL    HW212552   2.651   0.999   7.798
 4074SOL     OW12553   2.272   0.813   8.699
 4074SOL    HW112554   2.358   0.825   8.749
 4074SOL    HW212555   2.230   0.726   8.726
 4075SOL     OW12556   3.136   0.386   8.710
 4075SOL    HW112557   3.157   0.460   8.774
 4075SOL    HW212558   3.047   0.403   8.667
 4076SOL     OW12559   1.926   1.564   8.779
 4076SOL    HW112560   1.880   1.646   8.745
 4076SOL    HW212561   2.024   1.583   8.788
 4077SOL     OW12562   2.229   1.100   7.949
 4077SOL    HW112563   2.222   1.183   7.893
 4077SOL    HW212564   2.233   1.020   7.889
 4078SOL     OW12565   2.428   0.537   8.313
 4078SOL    HW112566   2.440   0.603   8.239
 4078SOL    HW212567   2.474   0.571   8.396
 4079SOL     OW12568   3.114   1.348   7.836
 4079SOL    HW112569   3.164   1.425   7.876
 4079SOL    HW212570   3.019   1.350   7.868
 4080SOL     OW12571   3.134   1.445   8.590
 4080SOL    HW112572   3.181   1.458   8.677
 4080SOL    HW212573   3.068   1.371   8.599
 4081SOL     OW12574   3.444   0.639   7.920
 4081SOL    HW112575   3.413   0.700   7.993
 4081SOL    HW212576   3.494   0.691   7.851
 4082SOL     OW12577   2.216   1.510   8.777
 4082SOL    HW112578   2.195   1.466   8.690
 4082SOL    HW212579   2.313   1.536   8.780
 4083SOL     OW12580   2.264   0.751   9.046
 4083SOL    HW112581   2.332   0.806   8.999
 4083SOL    HW212582   2.304   0.663   9.073
 4084SOL     OW12583   3.449   0.779   9.118
 4084SOL    HW112584   3.357   0.817   9.113
 4084SOL    HW212585   3.509   0.826   9.053
 4085SOL     OW12586   2.875   0.105   9.218
 4085SOL    HW112587   2.881   0.190   9.166
 4085SOL    HW212588   2.907   0.029   9.161
 4086SOL     OW12589   2.366   0.050   9.188
 4086SOL    HW112590   2.324  -0.007   9.118
 4086SOL    HW212591   2.300   0.119   9.220
 4087SOL     OW12592   2.435   0.870   8.477
 4087SOL    HW112593   2.479   0.959   8.468
 4087SOL    HW212594   2.372   0.870   8.554
 4088SOL     OW12595   3.222   0.862   8.493
 4088SOL    HW112596   3.147   0.862   8.427
 4088SOL    HW212597   3.259   0.770   8.502
 4089SOL     OW12598   3.071   0.525   7.723
 4089SOL    HW112599   3.084   0.441   7.777
 4089SOL    HW212600   3.042   0.599   7.783
 4090SOL     OW12601   2.169   0.213   8.679
 4090SOL    HW112602   2.146   0.250   8.769
 4090SOL    HW212603   2.139   0.118   8.673
 4091SOL     OW12604   1.899   1.310   8.730
 4091SOL    HW112605   1.952   1.261   8.798
 4091SOL    HW212606   1.921   1.408   8.735
 4092SOL     OW12607   2.594   0.634   8.512
 4092SOL    HW112608   2.653   0.608   8.436
 4092SOL    HW212609   2.566   0.730   8.501
 4093SOL     OW12610   3.590   0.935   9.302
 4093SOL    HW112611   3.544   0.928   9.213
 4093SOL    HW212612   3.528   0.979   9.368
 4094SOL     OW12613   2.169   0.063   8.066
 4094SOL    HW112614   2.158   0.157   8.099
 4094SOL    HW212615   2.164   0.000   8.143
 4095SOL     OW12616   3.484   0.367   7.822
 4095SOL    HW112617   3.486   0.291   7.886
 4095SOL    HW212618   3.436   0.444   7.862
 4096SOL     OW12619   2.885   0.766   8.414
 4096SOL    HW112620   2.900   0.787   8.510
 4096SOL    HW212621   2.855   0.671   8.405
 4097SOL     OW12622   2.842   1.573   9.148
 4097SOL    HW112623   2.822   1.617   9.060
 4097SOL    HW212624   2.881   1.482   9.132
 4098SOL     OW12625   3.721   1.518   9.053
 4098SOL    HW112626   3.735   1.545   8.958
 4098SOL    HW212627   3.804   1.540   9.106
 4099SOL     OW12628   2.212   0.898   9.252
 4099SOL    HW112629   2.288   0.942   9.300
 4099SOL    HW212630   2.247   0.851   9.170
 4100SOL     OW12631   3.402   0.274   7.573
 4100SOL    HW112632   3.341   0.199   7.596
 4100SOL    HW212633   3.424   0.326   7.656
 4101SOL     OW12634   3.165   0.838   7.490
 4101SOL    HW112635   3.199   0.745   7.505
 4101SOL    HW212636   3.183   0.865   7.395
 4102SOL     OW12637   2.930   1.333   8.297
 4102SOL    HW112638   2.937   1.249   8.242
 4102SOL    HW212639   2.992   1.402   8.261
 4103SOL     OW12640   2.181   0.810   8.397
 4103SOL    HW112641   2.274   0.846   8.402
 4103SOL    HW212642   2.175   0.725   8.449
 4104SOL     OW12643   2.201   0.509   8.454
 4104SOL    HW112644   2.149   0.426   8.437
 4104SOL    HW212645   2.278   0.514   8.390
 4105SOL     OW12646   3.000   0.380   9.126
 4105SOL    HW112647   2.955   0.443   9.190
 4105SOL    HW212648   3.093   0.411   9.109
 4106SOL     OW12649   3.022   0.207   8.925
 4106SOL    HW112650   3.022   0.271   9.002
 4106SOL    HW212651   3.050   0.255   8.842
 4107SOL     OW12652   1.870   1.326   7.648
 4107SOL    HW112653   1.777   1.347   7.617
 4107SOL    HW212654   1.880   1.227   7.661
 4108SOL     OW12655   1.950   1.801   8.375
 4108SOL    HW112656   1.908   1.715   8.348
 4108SOL    HW212657   2.044   1.804   8.341
 4109SOL     OW12658   2.366   1.568   8.358
 4109SOL    HW112659   2.432   1.642   8.367
 4109SOL    HW212660   2.410   1.489   8.316
 4110SOL     OW12661   2.864   0.796   8.686
 4110SOL    HW112662   2.905   0.764   8.772
 4110SOL    HW212663   2.768   0.769   8.683
 4111SOL     OW12664   1.902   0.544   8.562
 4111SOL    HW112665   1.987   0.511   8.521
 4111SOL    HW212666   1.915   0.559   8.660
 4112SOL     OW12667   2.051   0.520   9.170
 4112SOL    HW112668   2.110   0.480   9.100
 4112SOL    HW212669   1.993   0.591   9.129
 4113SOL     OW12670   3.231   0.950   9.108
 4113SOL    HW112671   3.270   1.039   9.128
 4113SOL    HW212672   3.241   0.930   9.011
 4114SOL     OW12673   2.677   0.572   7.773
 4114SOL    HW112674   2.684   0.483   7.727
 4114SOL    HW212675   2.583   0.606   7.765
 4115SOL     OW12676   3.519   0.604   8.654
 4115SOL    HW112677   3.481   0.535   8.716
 4115SOL    HW212678   3.601   0.568   8.610
 4116SOL     OW12679   2.114   1.564   9.192
 4116SOL    HW112680   2.084   1.621   9.268
 4116SOL    HW212681   2.107   1.467   9.218
 4117SOL     OW12682   2.533   0.464   8.717
 4117SOL    HW112683   2.499   0.375   8.687
 4117SOL    HW212684   2.559   0.518   8.637
 4118SOL     OW12685   2.792   1.678   8.913
 4118SOL    HW112686   2.768   1.660   8.818
 4118SOL    HW212687   2.822   1.772   8.923
 4119SOL     OW12688   2.335   0.500   7.639
 4119SOL    HW112689   2.396   0.580   7.643
 4119SOL    HW212690   2.240   0.531   7.646
 4120SOL     OW12691   2.021   1.137   8.914
 4120SOL    HW112692   2.043   1.076   8.990
 4120SOL    HW212693   2.031   1.088   8.828
 4121SOL     OW12694   3.209   1.059   8.682
 4121SOL    HW112695   3.233   0.996   8.608
 4121SOL    HW212696   3.119   1.099   8.664
 4122SOL     OW12697   3.164   0.855   7.757
 4122SOL    HW112698   3.078   0.824   7.799
 4122SOL    HW212699   3.160   0.841   7.658
 4123SOL     OW12700   3.621   1.747   8.602
 4123SOL    HW112701   3.682   1.777   8.529
 4123SOL    HW212702   3.583   1.658   8.580
 4124SOL     OW12703   3.114   1.731   8.576
 4124SOL    HW112704   3.198   1.736   8.522
 4124SOL    HW212705   3.091   1.635   8.594
 4125SOL     OW12706   1.945   1.258   8.470
 4125SOL    HW112707   1.940   1.257   8.570
 4125SOL    HW212708   1.862   1.217   8.432
 4126SOL     OW12709   2.550   1.662   9.164
 4126SOL    HW112710   2.494   1.743   9.173
 4126SOL    HW212711   2.602   1.666   9.078
 4127SOL     OW12712   3.588   0.135   7.971
 4127SOL    HW112713   3.661   0.118   7.904
 4127SOL    HW212714   3.557   0.048   8.009
 4128SOL     OW12715   3.250   1.573   7.925
 4128SOL    HW112716   3.317   1.585   7.851
 4128SOL    HW212717   3.210   1.662   7.948
 4129SOL     OW12718   1.992   1.794   9.299
 4129SOL    HW112719   1.951   1.720   9.352
 4129SOL    HW212720   2.056   1.845   9.357
 4130SOL     OW12721   3.142   0.927   8.120
 4130SOL    HW112722   3.202   0.846   8.122
 4130SOL    HW212723   3.182   0.996   8.060
 4131SOL     OW12724   2.692   1.273   8.870
 4131SOL    HW112725   2.687   1.306   8.965
 4131SOL    HW212726   2.606   1.292   8.824
 4132SOL     OW12727   2.534   1.616   7.602
 4132SOL    HW112728   2.543   1.626   7.503
 4132SOL    HW212729   2.494   1.527   7.623
 4133SOL     OW12730   3.512   1.720   8.842
 4133SOL    HW112731   3.565   1.730   8.758
 4133SOL    HW212732   3.485   1.810   8.876
 4134SOL     OW12733   3.703   0.175   8.411
 4134SOL    HW112734   3.742   0.090   8.375
 4134SOL    HW212735   3.605   0.177   8.392
 4135SOL     OW12736   2.125   0.326   8.168
 4135SOL    HW112737   2.046   0.377   8.134
 4135SOL    HW212738   2.116   0.311   8.266
 4136SOL     OW12739   3.056   1.612   7.479
 4136SOL    HW112740   3.062   1.519   7.516
 4136SOL    HW212741   2.997   1.612   7.399
 4137SOL     OW12742   2.684   1.002   8.820
 4137SOL    HW112743   2.724   1.001   8.728
 4137SOL    HW212744   2.694   1.094   8.860
 4138SOL     OW12745   2.778   0.910   7.739
 4138SOL    HW112746   2.841   0.948   7.671
 4138SOL    HW212747   2.818   0.827   7.778
 4139SOL     OW12748   3.366   1.607   7.492
 4139SOL    HW112749   3.274   1.644   7.499
 4139SOL    HW212750   3.404   1.627   7.402
 4140SOL     OW12751   2.234   1.288   8.938
 4140SOL    HW112752   2.221   1.381   8.904
 4140SOL    HW212753   2.150   1.236   8.925
 4141SOL     OW12754   3.476   1.292   8.737
 4141SOL    HW112755   3.536   1.295   8.817
 4141SOL    HW212756   3.401   1.356   8.750
 4142SOL     OW12757   2.901   1.098   8.144
 4142SOL    HW112758   2.831   1.051   8.198
 4142SOL    HW212759   2.960   1.030   8.101
 4143SOL     OW12760   2.876   0.236   8.419
 4143SOL    HW112761   2.868   0.200   8.326
 4143SOL    HW212762   2.874   0.160   8.484
 4144SOL     OW12763   2.452   1.487   7.939
 4144SOL    HW112764   2.494   1.429   7.869
 4144SOL    HW212765   2.408   1.566   7.895
 4145SOL     OW12766   3.571   0.385   8.829
 4145SOL    HW112767   3.644   0.454   8.833
 4145SOL    HW212768   3.599   0.310   8.770
 4146SOL     OW12769   2.117   1.348   7.738
 4146SOL    HW112770   2.021   1.349   7.711
 4146SOL    HW212771   2.129   1.401   7.822
 4147SOL     OW12772   1.967   1.013   9.174
 4147SOL    HW112773   1.890   0.980   9.228
 4147SOL    HW212774   2.052   0.983   9.216
 4148SOL     OW12775   2.534   0.203   8.937
 4148SOL    HW112776   2.624   0.187   8.897
 4148SOL    HW212777   2.542   0.208   9.036
 4149SOL     OW12778   1.937   0.345   7.481
 4149SOL    HW112779   1.845   0.317   7.452
 4149SOL    HW212780   1.968   0.422   7.425
 4150SOL     OW12781   3.302   0.856   8.846
 4150SOL    HW112782   3.245   0.908   8.783
 4150SOL    HW212783   3.398   0.868   8.822
 4151SOL     OW12784   1.934   0.166   7.766
 4151SOL    HW112785   1.917   0.249   7.712
 4151SOL    HW212786   2.024   0.129   7.744
 4152SOL     OW12787   3.045   1.335   7.567
 4152SOL    HW112788   2.946   1.324   7.569
 4152SOL    HW212789   3.079   1.350   7.660
 4153SOL     OW12790   2.475   0.842   8.879
 4153SOL    HW112791   2.531   0.923   8.862
 4153SOL    HW212792   2.534   0.762   8.882
 4154SOL     OW12793   3.355   1.767   8.407
 4154SOL    HW112794   3.388   1.831   8.338
 4154SOL    HW212795   3.421   1.761   8.482
 4155SOL     OW12796   2.578   0.565   9.156
 4155SOL    HW112797   2.597   0.630   9.230
 4155SOL    HW212798   2.638   0.485   9.165
 4156SOL     OW12799   3.312   1.220   9.081
 4156SOL    HW112800   3.303   1.210   9.180
 4156SOL    HW212801   3.408   1.213   9.055
 4157SOL     OW12802   2.252   1.741   9.008
 4157SOL    HW112803   2.161   1.782   9.006
 4157SOL    HW212804   2.245   1.647   9.040
 4158SOL     OW12805   3.536   0.883   8.702
 4158SOL    HW112806   3.509   0.794   8.665
 4158SOL    HW212807   3.537   0.951   8.629
 4159SOL     OW12808   3.087   0.325   7.897
 4159SOL    HW112809   3.152   0.251   7.886
 4159SOL    HW212810   3.107   0.375   7.981
 4160SOL     OW12811   2.456   0.745   8.100
 4160SOL    HW112812   2.506   0.830   8.081
 4160SOL    HW212813   2.368   0.747   8.052
 4161SOL     OW12814   3.639   0.342   9.090
 4161SOL    HW112815   3.622   0.373   8.996
 4161SOL    HW212816   3.555   0.305   9.128
 4162SOL     OW12817   3.592   0.934   8.965
 4162SOL    HW112818   3.630   1.025   8.980
 4162SOL    HW212819   3.584   0.917   8.866
 4163SOL     OW12820   2.721   1.374   7.464
 4163SOL    HW112821   2.675   1.389   7.552
 4163SOL    HW212822   2.765   1.459   7.434
 4164SOL     OW12823   2.523   1.790   8.401
 4164SOL    HW112824   2.477   1.878   8.388
 4164SOL    HW212825   2.622   1.802   8.394
 4165SOL     OW12826   2.721   0.956   8.309
 4165SOL    HW112827   2.775   0.887   8.357
 4165SOL    HW212828   2.689   1.025   8.375
 4166SOL     OW12829   2.945   0.984   7.535
 4166SOL    HW112830   2.922   1.037   7.453
 4166SOL    HW212831   3.026   0.928   7.516
 4167SOL     OW12832   3.723   1.569   8.299
 4167SOL    HW112833   3.652   1.557   8.229
 4167SOL    HW212834   3.724   1.490   8.359
 4168SOL     OW12835   2.083   1.314   9.292
 4168SOL    HW112836   2.018   1.241   9.271
 4168SOL    HW212837   2.087   1.328   9.390
 4169SOL     OW12838   1.941   1.240   8.101
 4169SOL    HW112839   1.940   1.193   8.189
 4169SOL    HW212840   2.023   1.212   8.050
 4170SOL     OW12841   2.534   1.391   9.072
 4170SOL    HW112842   2.456   1.341   9.110
 4170SOL    HW212843   2.531   1.486   9.103
 4171SOL     OW12844   3.686   0.192   8.675
 4171SOL    HW112845   3.682   0.102   8.719
 4171SOL    HW212846   3.689   0.181   8.576
 4172SOL     OW12847   2.290   0.424   7.968
 4172SOL    HW112848   2.320   0.352   7.906
 4172SOL    HW212849   2.251   0.384   8.051
 4173SOL     OW12850   3.567   1.487   8.552
 4173SOL    HW112851   3.474   1.462   8.525
 4173SOL    HW212852   3.593   1.437   8.634
 4174SOL     OW12853   2.179   0.547   8.728
 4174SOL    HW112854   2.217   0.488   8.800
 4174SOL    HW212855   2.219   0.521   8.640
 4175SOL     OW12856   2.674   1.586   8.135
 4175SOL    HW112857   2.706   1.596   8.041
 4175SOL    HW212858   2.595   1.524   8.137
 4176SOL     OW12859   3.286   0.214   8.560
 4176SOL    HW112860   3.338   0.149   8.615
 4176SOL    HW212861   3.237   0.277   8.621
 4177SOL     OW12862   2.863   0.034   8.602
 4177SOL    HW112863   2.800  -0.038   8.571
 4177SOL    HW212864   2.956  -0.002   8.602
 4178SOL     OW12865   2.632   1.330   7.749
 4178SOL    HW112866   2.586   1.243   7.766
 4178SOL    HW212867   2.723   1.327   7.790
 4179SOL     OW12868   2.480   1.567   8.732
 4179SOL    HW112869   2.475   1.649   8.789
 4179SOL    HW212870   2.569   1.564   8.687
 4180SOL     OW12871   3.214   0.052   7.616
 4180SOL    HW112872   3.249   0.011   7.532
 4180SOL    HW212873   3.124   0.014   7.636
 4181SOL     OW12874   3.162   0.453   8.139
 4181SOL    HW112875   3.103   0.533   8.143
 4181SOL    HW212876   3.177   0.418   8.232
 4182SOL     OW12877   3.455   0.221   8.330
 4182SOL    HW112878   3.371   0.220   8.384
 4182SOL    HW212879   3.457   0.304   8.274
 4183SOL     OW12880   1.901   1.077   7.748
 4183SOL    HW112881   2.000   1.066   7.739
 4183SOL    HW212882   1.861   0.991   7.780
 4184SOL     OW12883   2.737   1.646   7.785
 4184SOL    HW112884   2.660   1.611   7.731
 4184SOL    HW212885   2.705   1.717   7.847
 4185SOL     OW12886   2.092   0.628   9.423
 4185SOL    HW112887   1.999   0.626   9.460
 4185SOL    HW212888   2.093   0.589   9.331
 4186SOL     OW12889   2.087   0.275  10.306
 4186SOL    HW112890   2.122   0.258  10.398
 4186SOL    HW212891   1.999   0.230  10.294
 4187SOL     OW12892   1.881   0.368   9.957
 4187SOL    HW112893   1.799   0.411   9.996
 4187SOL    HW212894   1.853   0.295   9.894
 4188SOL     OW12895   2.431   1.275  10.475
 4188SOL    HW112896   2.338   1.268  10.438
 4188SOL    HW212897   2.442   1.364  10.519
 4189SOL     OW12898   3.417   1.511  10.013
 4189SOL    HW112899   3.360   1.495  10.094
 4189SOL    HW212900   3.358   1.521   9.933
 4190SOL     OW12901   2.997   0.703  10.027
 4190SOL    HW112902   3.054   0.781  10.002
 4190SOL    HW212903   2.937   0.729  10.103
 4191SOL     OW12904   3.617   0.607   9.541
 4191SOL    HW112905   3.605   0.594   9.442
 4191SOL    HW212906   3.587   0.526   9.590
 4192SOL     OW12907   2.630   1.144  10.333
 4192SOL    HW112908   2.552   1.161  10.393
 4192SOL    HW212909   2.664   1.231  10.297
 4193SOL     OW12910   2.547   1.012   9.975
 4193SOL    HW112911   2.616   0.996  10.045
 4193SOL    HW212912   2.474   1.069  10.013
 4194SOL     OW12913   2.197   1.435  10.371
 4194SOL    HW112914   2.119   1.404  10.318
 4194SOL    HW212915   2.255   1.493  10.314
 4195SOL     OW12916   3.322   1.505  10.649
 4195SOL    HW112917   3.346   1.599  10.675
 4195SOL    HW212918   3.306   1.451  10.731
 4196SOL     OW12919   2.300   0.392  10.809
 4196SOL    HW112920   2.382   0.336  10.818
 4196SOL    HW212921   2.219   0.334  10.813
 4197SOL     OW12922   3.465   0.447  10.047
 4197SOL    HW112923   3.391   0.493   9.997
 4197SOL    HW212924   3.516   0.515  10.100
 4198SOL     OW12925   2.093   1.713   9.793
 4198SOL    HW112926   2.127   1.790   9.847
 4198SOL    HW212927   2.137   1.713   9.703
 4199SOL     OW12928   2.092   1.434   9.848
 4199SOL    HW112929   2.066   1.530   9.848
 4199SOL    HW212930   2.021   1.380   9.893
 4200SOL     OW12931   2.102   1.091  10.196
 4200SOL    HW112932   2.116   1.007  10.248
 4200SOL    HW212933   2.047   1.155  10.251
 4201SOL     OW12934   2.482   1.786  10.749
 4201SOL    HW112935   2.390   1.769  10.784
 4201SOL    HW212936   2.510   1.878  10.775
 4202SOL     OW12937   2.468   0.964   9.433
 4202SOL    HW112938   2.475   1.048   9.379
 4202SOL    HW212939   2.514   0.977   9.521
 4203SOL     OW12940   3.456   0.114  10.790
 4203SOL    HW112941   3.438   0.181  10.718
 4203SOL    HW212942   3.453   0.160  10.879
 4204SOL     OW12943   1.984   0.643   9.873
 4204SOL    HW112944   1.939   0.555   9.890
 4204SOL    HW212945   1.983   0.697   9.957
 4205SOL     OW12946   3.704   1.767   9.669
 4205SOL    HW112947   3.758   1.738   9.749
 4205SOL    HW212948   3.734   1.857   9.640
 4206SOL     OW12949   1.889   1.596   9.427
 4206SOL    HW112950   1.870   1.500   9.448
 4206SOL    HW212951   1.856   1.654   9.502
 4207SOL     OW12952   3.551   0.922   9.922
 4207SOL    HW112953   3.646   0.893   9.930
 4207SOL    HW212954   3.543   0.987   9.847
 4208SOL     OW12955   3.503   1.108   9.742
 4208SOL    HW112956   3.589   1.110   9.690
 4208SOL    HW212957   3.517   1.155   9.830
 4209SOL     OW12958   2.475   1.365  10.036
 4209SOL    HW112959   2.426   1.278  10.045
 4209SOL    HW212960   2.452   1.408   9.949
 4210SOL     OW12961   2.671   0.004   9.812
 4210SOL    HW112962   2.711   0.095   9.803
 4210SOL    HW212963   2.571   0.012   9.818
 4211SOL     OW12964   2.059   0.976  10.574
 4211SOL    HW112965   2.148   0.931  10.560
 4211SOL    HW212966   1.986   0.911  10.555
 4212SOL     OW12967   3.387   0.999   9.500
 4212SOL    HW112968   3.324   0.923   9.513
 4212SOL    HW212969   3.435   1.017   9.586
 4213SOL     OW12970   3.328   1.417  10.263
 4213SOL    HW112971   3.269   1.423  10.343
 4213SOL    HW212972   3.313   1.329  10.217
 4214SOL     OW12973   3.529   1.714   9.882
 4214SOL    HW112974   3.488   1.691   9.794
 4214SOL    HW212975   3.511   1.640   9.947
 4215SOL     OW12976   2.460   0.729   9.580
 4215SOL    HW112977   2.484   0.798   9.512
 4215SOL    HW212978   2.382   0.762   9.634
 4216SOL     OW12979   3.143   0.345  10.254
 4216SOL    HW112980   3.057   0.295  10.241
 4216SOL    HW212981   3.205   0.291  10.310
 4217SOL     OW12982   3.438   1.662   9.617
 4217SOL    HW112983   3.527   1.708   9.620
 4217SOL    HW212984   3.417   1.638   9.522
 4218SOL     OW12985   2.669   0.605  10.775
 4218SOL    HW112986   2.622   0.602  10.864
 4218SOL    HW212987   2.618   0.550  10.709
 4219SOL     OW12988   2.853   0.410  10.552
 4219SOL    HW112989   2.776   0.444  10.606
 4219SOL    HW212990   2.819   0.359  10.473
 4220SOL     OW12991   2.903   0.701   9.739
 4220SOL    HW112992   2.929   0.697   9.835
 4220SOL    HW212993   2.818   0.650   9.725
 4221SOL     OW12994   1.938   0.811  10.099
 4221SOL    HW112995   2.037   0.799  10.108
 4221SOL    HW212996   1.914   0.906  10.120
 4222SOL     OW12997   1.992   1.821  10.881
 4222SOL    HW112998   1.982   1.806  10.980
 4222SOL    HW212999   1.906   1.857  10.845
 4223SOL     OW13000   2.727   0.348   9.505
 4223SOL    HW113001   2.786   0.411   9.456
 4223SOL    HW213002   2.746   0.254   9.476
 4224SOL     OW13003   3.224   1.144   9.855
 4224SOL    HW113004   3.307   1.115   9.807
 4224SOL    HW213005   3.175   1.211   9.799
 4225SOL     OW13006   2.412   0.196  10.195
 4225SOL    HW113007   2.407   0.191  10.295
 4225SOL    HW213008   2.414   0.292  10.166
 4226SOL     OW13009   2.870   1.456   9.787
 4226SOL    HW113010   2.824   1.528   9.735
 4226SOL    HW213011   2.866   1.476   9.885
 4227SOL     OW13012   2.213   1.801  10.163
 4227SOL    HW113013   2.263   1.715  10.169
 4227SOL    HW213014   2.278   1.878  10.160
 4228SOL     OW13015   3.657   1.066  10.183
 4228SOL    HW113016   3.595   1.051  10.107
 4228SOL    HW213017   3.605   1.077  10.268
 4229SOL     OW13018   2.183   0.943   9.552
 4229SOL    HW113019   2.265   0.982   9.510
 4229SOL    HW213020   2.156   0.861   9.503
 4230SOL     OW13021   3.320   0.735  10.038
 4230SOL    HW113022   3.315   0.670  10.113
 4230SOL    HW213023   3.400   0.794  10.051
 4231SOL     OW13024   2.973   1.776   9.547
 4231SOL    HW113025   2.913   1.714   9.597
 4231SOL    HW213026   3.004   1.732   9.462
 4232SOL     OW13027   3.494   1.377   9.391
 4232SOL    HW113028   3.462   1.471   9.381
 4232SOL    HW213029   3.418   1.314   9.379
 4233SOL     OW13030   2.326   1.743   9.633
 4233SOL    HW113031   2.359   1.782   9.719
 4233SOL    HW213032   2.402   1.736   9.568
 4234SOL     OW13033   3.262   0.107   9.736
 4234SOL    HW113034   3.238   0.070   9.646
 4234SOL    HW213035   3.361   0.123   9.740
 4235SOL     OW13036   2.111   1.785  10.551
 4235SOL    HW113037   2.168   1.720  10.601
 4235SOL    HW213038   2.095   1.752  10.458
 4236SOL     OW13039   2.802   1.698  10.214
 4236SOL    HW113040   2.882   1.641  10.235
 4236SOL    HW213041   2.753   1.658  10.137
 4237SOL     OW13042   2.244   0.700   9.790
 4237SOL    HW113043   2.289   0.610   9.787
 4237SOL    HW213044   2.150   0.689   9.823
 4238SOL     OW13045   2.476   0.122   9.427
 4238SOL    HW113046   2.574   0.100   9.434
 4238SOL    HW213047   2.445   0.105   9.334
 4239SOL     OW13048   2.750   1.514  10.505
 4239SOL    HW113049   2.727   1.489  10.411
 4239SOL    HW213050   2.811   1.445  10.544
 4240SOL     OW13051   2.665   1.402  10.234
 4240SOL    HW113052   2.755   1.416  10.192
 4240SOL    HW213053   2.594   1.404  10.163
 4241SOL     OW13054   2.784   0.503  10.209
 4241SOL    HW113055   2.759   0.494  10.113
 4241SOL    HW213056   2.832   0.421  10.240
 4242SOL     OW13057   2.401   0.064   9.822
 4242SOL    HW113058   2.320   0.065   9.880
 4242SOL    HW213059   2.404   0.147   9.767
 4243SOL     OW13060   3.296   1.188   9.351
 4243SOL    HW113061   3.328   1.112   9.408
 4243SOL    HW213062   3.204   1.215   9.381
 4244SOL     OW13063   2.159   0.035   9.481
 4244SOL    HW113064   2.208   0.119   9.460
 4244SOL    HW213065   2.221  -0.030   9.526
 4245SOL     OW13066   2.797   0.236   9.790
 4245SOL    HW113067   2.749   0.277   9.712
 4245SOL    HW213068   2.896   0.234   9.771
 4246SOL     OW13069   3.089   1.570  10.103
 4246SOL    HW113070   3.110   1.644  10.038
 4246SOL    HW213071   3.157   1.570  10.176
 4247SOL     OW13072   2.321   1.152  10.051
 4247SOL    HW113073   2.250   1.125  10.116
 4247SOL    HW213074   2.295   1.124   9.958
 4248SOL     OW13075   3.133   1.797   9.901
 4248SOL    HW113076   3.177   1.861   9.837
 4248SOL    HW213077   3.083   1.849   9.971
 4249SOL     OW13078   2.894   0.549   9.326
 4249SOL    HW113079   2.853   0.631   9.287
 4249SOL    HW213080   2.958   0.575   9.399
 4250SOL     OW13081   1.940   0.556  10.696
 4250SOL    HW113082   2.032   0.555  10.655
 4250SOL    HW213083   1.934   0.630  10.763
 4251SOL     OW13084   2.423   0.222  10.457
 4251SOL    HW113085   2.461   0.138  10.494
 4251SOL    HW213086   2.335   0.241  10.501
 4252SOL     OW13087   2.728   0.454   9.952
 4252SOL    HW113088   2.696   0.526   9.890
 4252SOL    HW213089   2.752   0.373   9.899
 4253SOL     OW13090   2.879   0.039  10.063
 4253SOL    HW113091   2.807   0.044   9.994
 4253SOL    HW213092   2.855  -0.030  10.132
 4254SOL     OW13093   3.291   1.173  10.177
 4254SOL    HW113094   3.236   1.089  10.170
 4254SOL    HW213095   3.317   1.202  10.085
 4255SOL     OW13096   3.328   0.590  10.302
 4255SOL    HW113097   3.298   0.495  10.309
 4255SOL    HW213098   3.401   0.606  10.368
 4256SOL     OW13099   3.719   0.833   9.687
 4256SOL    HW113100   3.761   0.769   9.751
 4256SOL    HW213101   3.681   0.782   9.609
 4257SOL     OW13102   2.350   1.385   9.484
 4257SOL    HW113103   2.263   1.370   9.531
 4257SOL    HW213104   2.333   1.411   9.389
 4258SOL     OW13105   3.526   1.280   9.967
 4258SOL    HW113106   3.625   1.288   9.981
 4258SOL    HW213107   3.481   1.364   9.998
 4259SOL     OW13108   3.252   0.575   9.388
 4259SOL    HW113109   3.198   0.554   9.469
 4259SOL    HW213110   3.343   0.534   9.397
 4260SOL     OW13111   2.389   0.256   9.638
 4260SOL    HW113112   2.416   0.197   9.563
 4260SOL    HW213113   2.389   0.351   9.607
 4261SOL     OW13114   2.926   1.347  10.650
 4261SOL    HW113115   2.846   1.324  10.705
 4261SOL    HW213116   3.009   1.321  10.699
 4262SOL     OW13117   2.973   1.195  10.410
 4262SOL    HW113118   2.933   1.239  10.491
 4262SOL    HW213119   2.932   1.232  10.327
 4263SOL     OW13120   3.500   1.099  10.389
 4263SOL    HW113121   3.505   1.180  10.448
 4263SOL    HW213122   3.414   1.101  10.338
 4264SOL     OW13123   2.777   0.089  10.712
 4264SOL    HW113124   2.802   0.069  10.617
 4264SOL    HW213125   2.849   0.145  10.754
 4265SOL     OW13126   2.567   1.050   9.678
 4265SOL    HW113127   2.553   1.057   9.777
 4265SOL    HW213128   2.651   0.999   9.660
 4266SOL     OW13129   2.272   0.813  10.561
 4266SOL    HW113130   2.358   0.825  10.611
 4266SOL    HW213131   2.230   0.726  10.588
 4267SOL     OW13132   3.136   0.386  10.572
 4267SOL    HW113133   3.157   0.460  10.636
 4267SOL    HW213134   3.047   0.403  10.529
 4268SOL     OW13135   1.926   1.564  10.641
 4268SOL    HW113136   1.880   1.646  10.607
 4268SOL    HW213137   2.024   1.583  10.650
 4269SOL     OW13138   2.229   1.100   9.811
 4269SOL    HW113139   2.222   1.183   9.755
 4269SOL    HW213140   2.233   1.020   9.751
 4270SOL     OW13141   2.428   0.537  10.175
 4270SOL    HW113142   2.440   0.603  10.101
 4270SOL    HW213143   2.474   0.571  10.258
 4271SOL     OW13144   3.114   1.348   9.698
 4271SOL    HW113145   3.164   1.425   9.738
 4271SOL    HW213146   3.019   1.350   9.730
 4272SOL     OW13147   3.134   1.445  10.452
 4272SOL    HW113148   3.181   1.458  10.539
 4272SOL    HW213149   3.068   1.371  10.461
 4273SOL     OW13150   3.444   0.639   9.782
 4273SOL    HW113151   3.413   0.700   9.855
 4273SOL    HW213152   3.494   0.691   9.713
 4274SOL     OW13153   2.216   1.510  10.639
 4274SOL    HW113154   2.195   1.466  10.552
 4274SOL    HW213155   2.313   1.536  10.642
 4275SOL     OW13156   2.264   0.751  10.908
 4275SOL    HW113157   2.332   0.806  10.861
 4275SOL    HW213158   2.304   0.663  10.935
 4276SOL     OW13159   3.449   0.779  10.980
 4276SOL    HW113160   3.357   0.817  10.975
 4276SOL    HW213161   3.509   0.826  10.915
 4277SOL     OW13162   2.435   0.870  10.339
 4277SOL    HW113163   2.479   0.959  10.330
 4277SOL    HW213164   2.372   0.870  10.416
 4278SOL     OW13165   3.222   0.862  10.355
 4278SOL    HW113166   3.147   0.862  10.289
 4278SOL    HW213167   3.259   0.770  10.364
 4279SOL     OW13168   3.071   0.525   9.585
 4279SOL    HW113169   3.084   0.441   9.639
 4279SOL    HW213170   3.042   0.599   9.645
 4280SOL     OW13171   2.169   0.213  10.541
 4280SOL    HW113172   2.146   0.250  10.631
 4280SOL    HW213173   2.139   0.118  10.535
 4281SOL     OW13174   1.899   1.310  10.592
 4281SOL    HW113175   1.952   1.261  10.660
 4281SOL    HW213176   1.921   1.408  10.597
 4282SOL     OW13177   2.594   0.634  10.374
 4282SOL    HW113178   2.653   0.608  10.298
 4282SOL    HW213179   2.566   0.730  10.363
 4283SOL     OW13180   2.169   0.063   9.928
 4283SOL    HW113181   2.158   0.157   9.961
 4283SOL    HW213182   2.164   0.000  10.005
 4284SOL     OW13183   3.484   0.367   9.684
 4284SOL    HW113184   3.486   0.291   9.748
 4284SOL    HW213185   3.436   0.444   9.724
 4285SOL     OW13186   2.885   0.766  10.276
 4285SOL    HW113187   2.900   0.787  10.372
 4285SOL    HW213188   2.855   0.671  10.267
 4286SOL     OW13189   2.842   1.573  11.010
 4286SOL    HW113190   2.822   1.617  10.922
 4286SOL    HW213191   2.881   1.482  10.994
 4287SOL     OW13192   3.402   0.274   9.435
 4287SOL    HW113193   3.341   0.199   9.458
 4287SOL    HW213194   3.424   0.326   9.518
 4288SOL     OW13195   3.165   0.838   9.352
 4288SOL    HW113196   3.199   0.745   9.367
 4288SOL    HW213197   3.183   0.865   9.257
 4289SOL     OW13198   2.930   1.333  10.159
 4289SOL    HW113199   2.937   1.249  10.104
 4289SOL    HW213200   2.992   1.402  10.123
 4290SOL     OW13201   2.181   0.810  10.259
 4290SOL    HW113202   2.274   0.846  10.264
 4290SOL    HW213203   2.175   0.725  10.311
 4291SOL     OW13204   2.201   0.509  10.316
 4291SOL    HW113205   2.149   0.426  10.299
 4291SOL    HW213206   2.278   0.514  10.252
 4292SOL     OW13207   3.000   0.380  10.988
 4292SOL    HW113208   2.955   0.443  11.052
 4292SOL    HW213209   3.093   0.411  10.971
 4293SOL     OW13210   3.022   0.207  10.787
 4293SOL    HW113211   3.022   0.271  10.864
 4293SOL    HW213212   3.050   0.255  10.704
 4294SOL     OW13213   1.870   1.326   9.510
 4294SOL    HW113214   1.777   1.347   9.479
 4294SOL    HW213215   1.880   1.227   9.523
 4295SOL     OW13216   1.950   1.801  10.237
 4295SOL    HW113217   1.908   1.715  10.210
 4295SOL    HW213218   2.044   1.804  10.203
 4296SOL     OW13219   2.366   1.568  10.220
 4296SOL    HW113220   2.432   1.642  10.229
 4296SOL    HW213221   2.410   1.489  10.178
 4297SOL     OW13222   2.864   0.796  10.548
 4297SOL    HW113223   2.905   0.764  10.634
 4297SOL    HW213224   2.768   0.769  10.545
 4298SOL     OW13225   1.902   0.544  10.424
 4298SOL    HW113226   1.987   0.511  10.383
 4298SOL    HW213227   1.915   0.559  10.522
 4299SOL     OW13228   2.677   0.572   9.635
 4299SOL    HW113229   2.684   0.483   9.589
 4299SOL    HW213230   2.583   0.606   9.627
 4300SOL     OW13231   3.519   0.604  10.516
 4300SOL    HW113232   3.481   0.535  10.578
 4300SOL    HW213233   3.601   0.568  10.472
 4301SOL     OW13234   2.533   0.464  10.579
 4301SOL    HW113235   2.499   0.375  10.549
 4301SOL    HW213236   2.559   0.518  10.499
 4302SOL     OW13237   2.792   1.678  10.775
 4302SOL    HW113238   2.768   1.660  10.680
 4302SOL    HW213239   2.822   1.772  10.785
 4303SOL     OW13240   2.335   0.500   9.501
 4303SOL    HW113241   2.396   0.580   9.505
 4303SOL    HW213242   2.240   0.531   9.508
 4304SOL     OW13243   2.021   1.137  10.776
 4304SOL    HW113244   2.043   1.076  10.852
 4304SOL    HW213245   2.031   1.088  10.690
 4305SOL     OW13246   3.209   1.059  10.544
 4305SOL    HW113247   3.233   0.996  10.470
 4305SOL    HW213248   3.119   1.099  10.526
 4306SOL     OW13249   3.164   0.855   9.619
 4306SOL    HW113250   3.078   0.824   9.661
 4306SOL    HW213251   3.160   0.841   9.520
 4307SOL     OW13252   3.621   1.747  10.464
 4307SOL    HW113253   3.682   1.777  10.391
 4307SOL    HW213254   3.583   1.658  10.442
 4308SOL     OW13255   3.114   1.731  10.438
 4308SOL    HW113256   3.198   1.736  10.384
 4308SOL    HW213257   3.091   1.635  10.456
 4309SOL     OW13258   1.945   1.258  10.332
 4309SOL    HW113259   1.940   1.257  10.432
 4309SOL    HW213260   1.862   1.217  10.294
 4310SOL     OW13261   3.588   0.135   9.833
 4310SOL    HW113262   3.661   0.118   9.766
 4310SOL    HW213263   3.557   0.048   9.871
 4311SOL     OW13264   3.250   1.573   9.787
 4311SOL    HW113265   3.317   1.585   9.713
 4311SOL    HW213266   3.210   1.662   9.810
 4312SOL     OW13267   3.142   0.927   9.982
 4312SOL    HW113268   3.202   0.846   9.984
 4312SOL    HW213269   3.182   0.996   9.922
 4313SOL     OW13270   2.534   1.616   9.464
 4313SOL    HW113271   2.543   1.626   9.365
 4313SOL    HW213272   2.494   1.527   9.485
 4314SOL     OW13273   3.512   1.720  10.704
 4314SOL    HW113274   3.565   1.730  10.620
 4314SOL    HW213275   3.485   1.810  10.738
 4315SOL     OW13276   3.703   0.175  10.273
 4315SOL    HW113277   3.742   0.090  10.237
 4315SOL    HW213278   3.605   0.177  10.254
 4316SOL     OW13279   2.125   0.326  10.030
 4316SOL    HW113280   2.046   0.377   9.996
 4316SOL    HW213281   2.116   0.311  10.128
 4317SOL     OW13282   3.056   1.612   9.341
 4317SOL    HW113283   3.062   1.519   9.378
 4317SOL    HW213284   2.997   1.612   9.261
 4318SOL     OW13285   2.684   1.002  10.682
 4318SOL    HW113286   2.724   1.001  10.590
 4318SOL    HW213287   2.694   1.094  10.722
 4319SOL     OW13288   2.778   0.910   9.601
 4319SOL    HW113289   2.841   0.948   9.533
 4319SOL    HW213290   2.818   0.827   9.640
 4320SOL     OW13291   3.366   1.607   9.354
 4320SOL    HW113292   3.274   1.644   9.361
 4320SOL    HW213293   3.404   1.627   9.264
 4321SOL     OW13294   2.234   1.288  10.800
 4321SOL    HW113295   2.221   1.381  10.766
 4321SOL    HW213296   2.150   1.236  10.787
 4322SOL     OW13297   3.476   1.292  10.599
 4322SOL    HW113298   3.536   1.295  10.679
 4322SOL    HW213299   3.401   1.356  10.612
 4323SOL     OW13300   2.901   1.098  10.006
 4323SOL    HW113301   2.831   1.051  10.060
 4323SOL    HW213302   2.960   1.030   9.963
 4324SOL     OW13303   2.876   0.236  10.281
 4324SOL    HW113304   2.868   0.200  10.188
 4324SOL    HW213305   2.874   0.160  10.346
 4325SOL     OW13306   2.452   1.487   9.801
 4325SOL    HW113307   2.494   1.429   9.731
 4325SOL    HW213308   2.408   1.566   9.757
 4326SOL     OW13309   3.571   0.385  10.691
 4326SOL    HW113310   3.644   0.454  10.695
 4326SOL    HW213311   3.599   0.310  10.632
 4327SOL     OW13312   2.117   1.348   9.600
 4327SOL    HW113313   2.021   1.349   9.573
 4327SOL    HW213314   2.129   1.401   9.684
 4328SOL     OW13315   1.937   0.345   9.343
 4328SOL    HW113316   1.845   0.317   9.314
 4328SOL    HW213317   1.968   0.422   9.287
 4329SOL     OW13318   3.302   0.856  10.708
 4329SOL    HW113319   3.245   0.908  10.645
 4329SOL    HW213320   3.398   0.868  10.684
 4330SOL     OW13321   1.934   0.166   9.628
 4330SOL    HW113322   1.917   0.249   9.574
 4330SOL    HW213323   2.024   0.129   9.606
 4331SOL     OW13324   3.045   1.335   9.429
 4331SOL    HW113325   2.946   1.324   9.431
 4331SOL    HW213326   3.079   1.350   9.522
 4332SOL     OW13327   2.475   0.842  10.741
 4332SOL    HW113328   2.531   0.923  10.724
 4332SOL    HW213329   2.534   0.762  10.744
 4333SOL     OW13330   3.355   1.767  10.269
 4333SOL    HW113331   3.388   1.831  10.200
 4333SOL    HW213332   3.421   1.761  10.344
 4334SOL     OW13333   2.252   1.741  10.870
 4334SOL    HW113334   2.161   1.782  10.868
 4334SOL    HW213335   2.245   1.647  10.902
 4335SOL     OW13336   3.536   0.883  10.564
 4335SOL    HW113337   3.509   0.794  10.527
 4335SOL    HW213338   3.537   0.951  10.491
 4336SOL     OW13339   3.087   0.325   9.759
 4336SOL    HW113340   3.152   0.251   9.748
 4336SOL    HW213341   3.107   0.375   9.843
 4337SOL     OW13342   2.456   0.745   9.962
 4337SOL    HW113343   2.506   0.830   9.943
 4337SOL    HW213344   2.368   0.747   9.914
 4338SOL     OW13345   3.592   0.934  10.827
 4338SOL    HW113346   3.630   1.025  10.842
 4338SOL    HW213347   3.584   0.917  10.728
 4339SOL     OW13348   2.721   1.374   9.326
 4339SOL    HW113349   2.675   1.389   9.414
 4339SOL    HW213350   2.765   1.459   9.296
 4340SOL     OW13351   2.523   1.790  10.263
 4340SOL    HW113352   2.477   1.878  10.250
 4340SOL    HW213353   2.622   1.802  10.256
 4341SOL     OW13354   2.721   0.956  10.171
 4341SOL    HW113355   2.775   0.887  10.219
 4341SOL    HW213356   2.689   1.025  10.237
 4342SOL     OW13357   2.945   0.984   9.397
 4342SOL    HW113358   2.922   1.037   9.315
 4342SOL    HW213359   3.026   0.928   9.378
 4343SOL     OW13360   3.723   1.569  10.161
 4343SOL    HW113361   3.652   1.557  10.091
 4343SOL    HW213362   3.724   1.490  10.221
 4344SOL     OW13363   1.941   1.240   9.963
 4344SOL    HW113364   1.940   1.193  10.051
 4344SOL    HW213365   2.023   1.212   9.912
 4345SOL     OW13366   3.686   0.192  10.537
 4345SOL    HW113367   3.682   0.102  10.581
 4345SOL    HW213368   3.689   0.181  10.438
 4346SOL     OW13369   2.290   0.424   9.830
 4346SOL    HW113370   2.320   0.352   9.768
 4346SOL    HW213371   2.251   0.384   9.913
 4347SOL     OW13372   3.567   1.487  10.414
 4347SOL    HW113373   3.474   1.462  10.387
 4347SOL    HW213374   3.593   1.437  10.496
 4348SOL     OW13375   2.179   0.547  10.590
 4348SOL    HW113376   2.217   0.488  10.662
 4348SOL    HW213377   2.219   0.521  10.502
 4349SOL     OW13378   2.674   1.586   9.997
 4349SOL    HW113379   2.706   1.596   9.903
 4349SOL    HW213380   2.595   1.524   9.999
 4350SOL     OW13381   3.286   0.214  10.422
 4350SOL    HW113382   3.338   0.149  10.477
 4350SOL    HW213383   3.237   0.277  10.483
 4351SOL     OW13384   2.863   0.034  10.464
 4351SOL    HW113385   2.800  -0.038  10.433
 4351SOL    HW213386   2.956  -0.002  10.464
 4352SOL     OW13387   2.632   1.330   9.611
 4352SOL    HW113388   2.586   1.243   9.628
 4352SOL    HW213389   2.723   1.327   9.652
 4353SOL     OW13390   2.480   1.567  10.594
 4353SOL    HW113391   2.475   1.649  10.651
 4353SOL    HW213392   2.569   1.564  10.549
 4354SOL     OW13393   3.214   0.052   9.478
 4354SOL    HW113394   3.249   0.011   9.394
 4354SOL    HW213395   3.124   0.014   9.498
 4355SOL     OW13396   3.162   0.453  10.001
 4355SOL    HW113397   3.103   0.533  10.005
 4355SOL    HW213398   3.177   0.418  10.094
 4356SOL     OW13399   3.455   0.221  10.192
 4356SOL    HW113400   3.371   0.220  10.246
 4356SOL    HW213401   3.457   0.304  10.136
 4357SOL     OW13402   1.901   1.077   9.610
 4357SOL    HW113403   2.000   1.066   9.601
 4357SOL    HW213404   1.861   0.991   9.642
 4358SOL     OW13405   2.737   1.646   9.647
 4358SOL    HW113406   2.660   1.611   9.593
 4358SOL    HW213407   2.705   1.717   9.709
 4359SOL     OW13408   2.092   2.490   0.113
 4359SOL    HW113409   1.999   2.488   0.150
 4359SOL    HW213410   2.093   2.451   0.021
 4360SOL     OW13411   2.087   2.137   0.996
 4360SOL    HW113412   2.122   2.120   1.088
 4360SOL    HW213413   1.999   2.092   0.984
 4361SOL     OW13414   1.881   2.230   0.647
 4361SOL    HW113415   1.799   2.273   0.686
 4361SOL    HW213416   1.853   2.157   0.584
 4362SOL     OW13417   2.431   3.137   1.165
 4362SOL    HW113418   2.338   3.130   1.128
 4362SOL    HW213419   2.442   3.226   1.209
 4363SOL     OW13420   3.417   3.373   0.703
 4363SOL    HW113421   3.360   3.357   0.784
 4363SOL    HW213422   3.358   3.383   0.623
 4364SOL     OW13423   2.997   2.565   0.717
 4364SOL    HW113424   3.054   2.643   0.692
 4364SOL    HW213425   2.937   2.591   0.793
 4365SOL     OW13426   3.617   2.469   0.231
 4365SOL    HW113427   3.605   2.456   0.132
 4365SOL    HW213428   3.587   2.388   0.280
 4366SOL     OW13429   2.630   3.006   1.023
 4366SOL    HW113430   2.552   3.023   1.083
 4366SOL    HW213431   2.664   3.093   0.987
 4367SOL     OW13432   2.712   2.660   1.823
 4367SOL    HW113433   2.708   2.736   1.888
 4367SOL    HW213434   2.734   2.696   1.732
 4368SOL     OW13435   2.547   2.874   0.665
 4368SOL    HW113436   2.616   2.858   0.735
 4368SOL    HW213437   2.474   2.931   0.703
 4369SOL     OW13438   2.548   3.023   1.803
 4369SOL    HW113439   2.608   3.102   1.817
 4369SOL    HW213440   2.462   3.054   1.762
 4370SOL     OW13441   2.197   3.297   1.061
 4370SOL    HW113442   2.119   3.266   1.008
 4370SOL    HW213443   2.255   3.355   1.004
 4371SOL     OW13444   3.322   3.367   1.339
 4371SOL    HW113445   3.346   3.461   1.365
 4371SOL    HW213446   3.306   3.313   1.421
 4372SOL     OW13447   3.465   2.309   0.737
 4372SOL    HW113448   3.391   2.355   0.687
 4372SOL    HW213449   3.516   2.377   0.790
 4373SOL     OW13450   2.093   3.575   0.483
 4373SOL    HW113451   2.127   3.652   0.537
 4373SOL    HW213452   2.137   3.575   0.393
 4374SOL     OW13453   2.989   3.203   1.690
 4374SOL    HW113454   3.036   3.203   1.778
 4374SOL    HW213455   2.941   3.116   1.679
 4375SOL     OW13456   2.092   3.296   0.538
 4375SOL    HW113457   2.066   3.392   0.538
 4375SOL    HW213458   2.021   3.242   0.583
 4376SOL     OW13459   2.102   2.953   0.886
 4376SOL    HW113460   2.116   2.869   0.938
 4376SOL    HW213461   2.047   3.017   0.941
 4377SOL     OW13462   2.482   3.648   1.439
 4377SOL    HW113463   2.390   3.631   1.474
 4377SOL    HW213464   2.510   3.740   1.465
 4378SOL     OW13465   2.468   2.826   0.123
 4378SOL    HW113466   2.475   2.910   0.069
 4378SOL    HW213467   2.514   2.839   0.211
 4379SOL     OW13468   3.456   1.976   1.480
 4379SOL    HW113469   3.438   2.043   1.408
 4379SOL    HW213470   3.453   2.022   1.569
 4380SOL     OW13471   1.984   2.505   0.563
 4380SOL    HW113472   1.939   2.417   0.580
 4380SOL    HW213473   1.983   2.559   0.647
 4381SOL     OW13474   3.704   3.629   0.359
 4381SOL    HW113475   3.758   3.600   0.439
 4381SOL    HW213476   3.734   3.719   0.330
 4382SOL     OW13477   1.889   3.458   0.117
 4382SOL    HW113478   1.870   3.362   0.138
 4382SOL    HW213479   1.856   3.516   0.192
 4383SOL     OW13480   3.551   2.784   0.612
 4383SOL    HW113481   3.646   2.755   0.620
 4383SOL    HW213482   3.543   2.849   0.537
 4384SOL     OW13483   3.503   2.970   0.432
 4384SOL    HW113484   3.589   2.972   0.380
 4384SOL    HW213485   3.517   3.017   0.520
 4385SOL     OW13486   1.975   2.599   1.597
 4385SOL    HW113487   2.063   2.586   1.642
 4385SOL    HW213488   1.962   2.696   1.575
 4386SOL     OW13489   2.475   3.227   0.726
 4386SOL    HW113490   2.426   3.140   0.735
 4386SOL    HW213491   2.452   3.270   0.639
 4387SOL     OW13492   3.155   3.090   1.423
 4387SOL    HW113493   3.192   3.017   1.365
 4387SOL    HW213494   3.207   3.095   1.508
 4388SOL     OW13495   2.671   1.866   0.502
 4388SOL    HW113496   2.711   1.957   0.493
 4388SOL    HW213497   2.571   1.874   0.508
 4389SOL     OW13498   2.059   2.838   1.264
 4389SOL    HW113499   2.148   2.793   1.250
 4389SOL    HW213500   1.986   2.773   1.245
 4390SOL     OW13501   3.387   2.861   0.190
 4390SOL    HW113502   3.324   2.785   0.203
 4390SOL    HW213503   3.435   2.879   0.276
 4391SOL     OW13504   3.049   3.654   1.616
 4391SOL    HW113505   3.073   3.714   1.540
 4391SOL    HW213506   3.056   3.559   1.586
 4392SOL     OW13507   2.179   2.113   1.801
 4392SOL    HW113508   2.250   2.184   1.807
 4392SOL    HW213509   2.091   2.152   1.829
 4393SOL     OW13510   3.328   3.279   0.953
 4393SOL    HW113511   3.269   3.285   1.033
 4393SOL    HW213512   3.313   3.191   0.907
 4394SOL     OW13513   3.529   3.576   0.572
 4394SOL    HW113514   3.488   3.553   0.484
 4394SOL    HW213515   3.511   3.502   0.637
 4395SOL     OW13516   2.460   2.591   0.270
 4395SOL    HW113517   2.484   2.660   0.202
 4395SOL    HW213518   2.382   2.624   0.324
 4396SOL     OW13519   3.143   2.207   0.944
 4396SOL    HW113520   3.057   2.157   0.931
 4396SOL    HW213521   3.205   2.153   1.000
 4397SOL     OW13522   3.438   3.524   0.307
 4397SOL    HW113523   3.527   3.570   0.310
 4397SOL    HW213524   3.417   3.500   0.212
 4398SOL     OW13525   3.256   2.331   1.674
 4398SOL    HW113526   3.236   2.374   1.762
 4398SOL    HW213527   3.334   2.269   1.683
 4399SOL     OW13528   2.835   2.752   1.572
 4399SOL    HW113529   2.881   2.668   1.543
 4399SOL    HW213530   2.779   2.786   1.497
 4400SOL     OW13531   2.853   2.272   1.242
 4400SOL    HW113532   2.776   2.306   1.296
 4400SOL    HW213533   2.819   2.221   1.163
 4401SOL     OW13534   2.903   2.563   0.429
 4401SOL    HW113535   2.929   2.559   0.525
 4401SOL    HW213536   2.818   2.512   0.415
 4402SOL     OW13537   1.938   2.673   0.789
 4402SOL    HW113538   2.037   2.661   0.798
 4402SOL    HW213539   1.914   2.768   0.810
 4403SOL     OW13540   1.992   3.683   1.571
 4403SOL    HW113541   1.982   3.668   1.670
 4403SOL    HW213542   1.906   3.719   1.535
 4404SOL     OW13543   2.727   2.210   0.195
 4404SOL    HW113544   2.786   2.273   0.146
 4404SOL    HW213545   2.746   2.116   0.166
 4405SOL     OW13546   3.581   2.447   1.831
 4405SOL    HW113547   3.555   2.536   1.795
 4405SOL    HW213548   3.579   2.379   1.758
 4406SOL     OW13549   3.224   3.006   0.545
 4406SOL    HW113550   3.307   2.977   0.497
 4406SOL    HW213551   3.175   3.073   0.489
 4407SOL     OW13552   2.412   2.058   0.885
 4407SOL    HW113553   2.407   2.053   0.985
 4407SOL    HW213554   2.414   2.154   0.856
 4408SOL     OW13555   2.870   3.318   0.477
 4408SOL    HW113556   2.824   3.390   0.425
 4408SOL    HW213557   2.866   3.338   0.575
 4409SOL     OW13558   2.213   3.663   0.853
 4409SOL    HW113559   2.263   3.577   0.859
 4409SOL    HW213560   2.278   3.740   0.850
 4410SOL     OW13561   3.657   2.928   0.873
 4410SOL    HW113562   3.595   2.913   0.797
 4410SOL    HW213563   3.605   2.939   0.958
 4411SOL     OW13564   3.089   3.412   1.506
 4411SOL    HW113565   3.095   3.335   1.570
 4411SOL    HW213566   3.037   3.386   1.426
 4412SOL     OW13567   2.183   2.805   0.242
 4412SOL    HW113568   2.265   2.844   0.200
 4412SOL    HW213569   2.156   2.723   0.193
 4413SOL     OW13570   3.320   2.597   0.728
 4413SOL    HW113571   3.315   2.532   0.803
 4413SOL    HW213572   3.400   2.656   0.741
 4414SOL     OW13573   2.323   3.128   1.727
 4414SOL    HW113574   2.273   3.129   1.641
 4414SOL    HW213575   2.260   3.110   1.803
 4415SOL     OW13576   2.973   3.638   0.237
 4415SOL    HW113577   2.913   3.576   0.287
 4415SOL    HW213578   3.004   3.594   0.152
 4416SOL     OW13579   2.064   2.147   1.498
 4416SOL    HW113580   1.984   2.207   1.485
 4416SOL    HW213581   2.054   2.098   1.584
 4417SOL     OW13582   3.494   3.239   0.081
 4417SOL    HW113583   3.462   3.333   0.071
 4417SOL    HW213584   3.418   3.176   0.069
 4418SOL     OW13585   2.326   3.605   0.323
 4418SOL    HW113586   2.359   3.644   0.409
 4418SOL    HW213587   2.402   3.598   0.258
 4419SOL     OW13588   3.262   1.969   0.426
 4419SOL    HW113589   3.238   1.932   0.336
 4419SOL    HW213590   3.361   1.985   0.430
 4420SOL     OW13591   2.111   3.647   1.241
 4420SOL    HW113592   2.168   3.582   1.291
 4420SOL    HW213593   2.095   3.614   1.148
 4421SOL     OW13594   2.802   3.560   0.904
 4421SOL    HW113595   2.882   3.503   0.925
 4421SOL    HW213596   2.753   3.520   0.827
 4422SOL     OW13597   3.409   2.084   1.729
 4422SOL    HW113598   3.404   2.121   1.821
 4422SOL    HW213599   3.337   2.015   1.717
 4423SOL     OW13600   2.476   1.984   0.117
 4423SOL    HW113601   2.574   1.962   0.124
 4423SOL    HW213602   2.445   1.967   0.024
 4424SOL     OW13603   2.643   2.126   1.749
 4424SOL    HW113604   2.710   2.065   1.792
 4424SOL    HW213605   2.570   2.145   1.814
 4425SOL     OW13606   2.750   3.376   1.195
 4425SOL    HW113607   2.727   3.351   1.101
 4425SOL    HW213608   2.811   3.307   1.234
 4426SOL     OW13609   3.213   2.452   1.433
 4426SOL    HW113610   3.241   2.409   1.518
 4426SOL    HW213611   3.238   2.548   1.434
 4427SOL     OW13612   2.665   3.264   0.924
 4427SOL    HW113613   2.755   3.278   0.882
 4427SOL    HW213614   2.594   3.266   0.853
 4428SOL     OW13615   2.784   2.365   0.899
 4428SOL    HW113616   2.759   2.356   0.803
 4428SOL    HW213617   2.832   2.283   0.930
 4429SOL     OW13618   2.401   1.926   0.512
 4429SOL    HW113619   2.320   1.927   0.570
 4429SOL    HW213620   2.404   2.009   0.457
 4430SOL     OW13621   3.296   3.050   0.041
 4430SOL    HW113622   3.328   2.974   0.098
 4430SOL    HW213623   3.204   3.077   0.071
 4431SOL     OW13624   2.159   1.897   0.171
 4431SOL    HW113625   2.208   1.981   0.150
 4431SOL    HW213626   2.221   1.832   0.216
 4432SOL     OW13627   2.797   2.098   0.480
 4432SOL    HW113628   2.749   2.139   0.402
 4432SOL    HW213629   2.896   2.096   0.461
 4433SOL     OW13630   2.938   2.545   1.464
 4433SOL    HW113631   2.858   2.484   1.467
 4433SOL    HW213632   3.019   2.492   1.440
 4434SOL     OW13633   3.089   3.432   0.793
 4434SOL    HW113634   3.110   3.506   0.728
 4434SOL    HW213635   3.157   3.432   0.866
 4435SOL     OW13636   2.321   3.014   0.741
 4435SOL    HW113637   2.250   2.987   0.806
 4435SOL    HW213638   2.295   2.986   0.648
 4436SOL     OW13639   3.133   3.659   0.591
 4436SOL    HW113640   3.177   3.723   0.527
 4436SOL    HW213641   3.083   3.711   0.661
 4437SOL     OW13642   2.894   2.411   0.016
 4437SOL    HW113643   2.853   2.493  -0.023
 4437SOL    HW213644   2.958   2.437   0.089
 4438SOL     OW13645   1.940   2.418   1.386
 4438SOL    HW113646   2.032   2.417   1.345
 4438SOL    HW213647   1.934   2.492   1.453
 4439SOL     OW13648   2.728   2.316   0.642
 4439SOL    HW113649   2.696   2.388   0.580
 4439SOL    HW213650   2.752   2.235   0.589
 4440SOL     OW13651   2.879   1.901   0.753
 4440SOL    HW113652   2.807   1.906   0.684
 4440SOL    HW213653   2.855   1.832   0.822
 4441SOL     OW13654   3.291   3.035   0.867
 4441SOL    HW113655   3.236   2.951   0.860
 4441SOL    HW213656   3.317   3.064   0.775
 4442SOL     OW13657   3.328   2.452   0.992
 4442SOL    HW113658   3.298   2.357   0.999
 4442SOL    HW213659   3.401   2.468   1.058
 4443SOL     OW13660   3.719   2.695   0.377
 4443SOL    HW113661   3.761   2.631   0.441
 4443SOL    HW213662   3.681   2.644   0.299
 4444SOL     OW13663   2.350   3.247   0.174
 4444SOL    HW113664   2.263   3.232   0.221
 4444SOL    HW213665   2.333   3.273   0.079
 4445SOL     OW13666   3.526   3.142   0.657
 4445SOL    HW113667   3.625   3.150   0.671
 4445SOL    HW213668   3.481   3.226   0.688
 4446SOL     OW13669   3.252   2.437   0.078
 4446SOL    HW113670   3.198   2.416   0.159
 4446SOL    HW213671   3.343   2.396   0.087
 4447SOL     OW13672   3.616   3.085   1.588
 4447SOL    HW113673   3.707   3.046   1.575
 4447SOL    HW213674   3.624   3.181   1.612
 4448SOL     OW13675   2.926   3.209   1.340
 4448SOL    HW113676   2.846   3.186   1.395
 4448SOL    HW213677   3.009   3.183   1.389
 4449SOL     OW13678   3.454   3.491   1.625
 4449SOL    HW113679   3.481   3.525   1.535
 4449SOL    HW213680   3.533   3.453   1.671
 4450SOL     OW13681   2.973   3.057   1.100
 4450SOL    HW113682   2.933   3.101   1.181
 4450SOL    HW213683   2.932   3.094   1.017
 4451SOL     OW13684   3.500   2.961   1.079
 4451SOL    HW113685   3.505   3.042   1.138
 4451SOL    HW213686   3.414   2.963   1.028
 4452SOL     OW13687   2.777   1.951   1.402
 4452SOL    HW113688   2.802   1.931   1.307
 4452SOL    HW213689   2.849   2.007   1.444
 4453SOL     OW13690   2.842   2.978   1.719
 4453SOL    HW113691   2.743   2.984   1.729
 4453SOL    HW213692   2.865   2.898   1.663
 4454SOL     OW13693   2.567   2.912   0.368
 4454SOL    HW113694   2.553   2.919   0.467
 4454SOL    HW213695   2.651   2.861   0.350
 4455SOL     OW13696   2.272   2.675   1.251
 4455SOL    HW113697   2.358   2.687   1.301
 4455SOL    HW213698   2.230   2.588   1.278
 4456SOL     OW13699   3.136   2.248   1.262
 4456SOL    HW113700   3.157   2.322   1.326
 4456SOL    HW213701   3.047   2.265   1.219
 4457SOL     OW13702   1.926   3.426   1.331
 4457SOL    HW113703   1.880   3.508   1.297
 4457SOL    HW213704   2.024   3.445   1.340
 4458SOL     OW13705   2.229   2.962   0.501
 4458SOL    HW113706   2.222   3.045   0.445
 4458SOL    HW213707   2.233   2.882   0.441
 4459SOL     OW13708   3.114   3.210   0.388
 4459SOL    HW113709   3.164   3.287   0.428
 4459SOL    HW213710   3.019   3.212   0.420
 4460SOL     OW13711   3.134   3.307   1.142
 4460SOL    HW113712   3.181   3.320   1.229
 4460SOL    HW213713   3.068   3.233   1.151
 4461SOL     OW13714   3.444   2.501   0.472
 4461SOL    HW113715   3.413   2.562   0.545
 4461SOL    HW213716   3.494   2.553   0.403
 4462SOL     OW13717   2.216   3.372   1.329
 4462SOL    HW113718   2.195   3.328   1.242
 4462SOL    HW213719   2.313   3.398   1.332
 4463SOL     OW13720   3.449   2.641   1.670
 4463SOL    HW113721   3.357   2.679   1.665
 4463SOL    HW213722   3.509   2.688   1.605
 4464SOL     OW13723   2.875   1.967   1.770
 4464SOL    HW113724   2.881   2.052   1.718
 4464SOL    HW213725   2.907   1.891   1.713
 4465SOL     OW13726   2.366   1.912   1.740
 4465SOL    HW113727   2.324   1.855   1.670
 4465SOL    HW213728   2.300   1.981   1.772
 4466SOL     OW13729   2.435   2.732   1.029
 4466SOL    HW113730   2.479   2.821   1.020
 4466SOL    HW213731   2.372   2.732   1.106
 4467SOL     OW13732   3.222   2.724   1.045
 4467SOL    HW113733   3.147   2.724   0.979
 4467SOL    HW213734   3.259   2.632   1.054
 4468SOL     OW13735   3.071   2.387   0.275
 4468SOL    HW113736   3.084   2.303   0.329
 4468SOL    HW213737   3.042   2.461   0.335
 4469SOL     OW13738   2.169   2.075   1.231
 4469SOL    HW113739   2.146   2.112   1.321
 4469SOL    HW213740   2.139   1.980   1.225
 4470SOL     OW13741   1.899   3.172   1.282
 4470SOL    HW113742   1.952   3.123   1.350
 4470SOL    HW213743   1.921   3.270   1.287
 4471SOL     OW13744   2.594   2.496   1.064
 4471SOL    HW113745   2.653   2.470   0.988
 4471SOL    HW213746   2.566   2.592   1.053
 4472SOL     OW13747   3.590   2.797   1.854
 4472SOL    HW113748   3.544   2.790   1.765
 4472SOL    HW213749   3.528   2.841   1.920
 4473SOL     OW13750   2.169   1.925   0.618
 4473SOL    HW113751   2.158   2.019   0.651
 4473SOL    HW213752   2.164   1.862   0.695
 4474SOL     OW13753   3.484   2.229   0.374
 4474SOL    HW113754   3.486   2.153   0.438
 4474SOL    HW213755   3.436   2.306   0.414
 4475SOL     OW13756   2.885   2.628   0.966
 4475SOL    HW113757   2.900   2.649   1.062
 4475SOL    HW213758   2.855   2.533   0.957
 4476SOL     OW13759   2.842   3.435   1.700
 4476SOL    HW113760   2.822   3.479   1.612
 4476SOL    HW213761   2.881   3.344   1.684
 4477SOL     OW13762   3.721   3.380   1.605
 4477SOL    HW113763   3.735   3.407   1.510
 4477SOL    HW213764   3.804   3.402   1.658
 4478SOL     OW13765   2.212   2.760   1.804
 4478SOL    HW113766   2.288   2.804   1.852
 4478SOL    HW213767   2.247   2.713   1.722
 4479SOL     OW13768   3.402   2.136   0.125
 4479SOL    HW113769   3.341   2.061   0.148
 4479SOL    HW213770   3.424   2.188   0.208
 4480SOL     OW13771   3.165   2.700   0.042
 4480SOL    HW113772   3.199   2.607   0.057
 4480SOL    HW213773   3.183   2.727  -0.053
 4481SOL     OW13774   2.930   3.195   0.849
 4481SOL    HW113775   2.937   3.111   0.794
 4481SOL    HW213776   2.992   3.264   0.813
 4482SOL     OW13777   2.181   2.672   0.949
 4482SOL    HW113778   2.274   2.708   0.954
 4482SOL    HW213779   2.175   2.587   1.001
 4483SOL     OW13780   3.000   2.242   1.678
 4483SOL    HW113781   2.955   2.305   1.742
 4483SOL    HW213782   3.093   2.273   1.661
 4484SOL     OW13783   3.022   2.069   1.477
 4484SOL    HW113784   3.022   2.133   1.554
 4484SOL    HW213785   3.050   2.117   1.394
 4485SOL     OW13786   1.870   3.188   0.200
 4485SOL    HW113787   1.777   3.209   0.169
 4485SOL    HW213788   1.880   3.089   0.213
 4486SOL     OW13789   1.950   3.663   0.927
 4486SOL    HW113790   1.908   3.577   0.900
 4486SOL    HW213791   2.044   3.666   0.893
 4487SOL     OW13792   2.366   3.430   0.910
 4487SOL    HW113793   2.432   3.504   0.919
 4487SOL    HW213794   2.410   3.351   0.868
 4488SOL     OW13795   2.864   2.658   1.238
 4488SOL    HW113796   2.905   2.626   1.324
 4488SOL    HW213797   2.768   2.631   1.235
 4489SOL     OW13798   1.902   2.406   1.114
 4489SOL    HW113799   1.987   2.373   1.073
 4489SOL    HW213800   1.915   2.421   1.212
 4490SOL     OW13801   2.051   2.382   1.722
 4490SOL    HW113802   2.110   2.342   1.652
 4490SOL    HW213803   1.993   2.453   1.681
 4491SOL     OW13804   3.231   2.812   1.660
 4491SOL    HW113805   3.270   2.901   1.680
 4491SOL    HW213806   3.241   2.792   1.563
 4492SOL     OW13807   2.677   2.434   0.325
 4492SOL    HW113808   2.684   2.345   0.279
 4492SOL    HW213809   2.583   2.468   0.317
 4493SOL     OW13810   3.519   2.466   1.206
 4493SOL    HW113811   3.481   2.397   1.268
 4493SOL    HW213812   3.601   2.430   1.162
 4494SOL     OW13813   2.114   3.426   1.744
 4494SOL    HW113814   2.084   3.483   1.820
 4494SOL    HW213815   2.107   3.329   1.770
 4495SOL     OW13816   2.792   3.540   1.465
 4495SOL    HW113817   2.768   3.522   1.370
 4495SOL    HW213818   2.822   3.634   1.475
 4496SOL     OW13819   2.021   2.999   1.466
 4496SOL    HW113820   2.043   2.938   1.542
 4496SOL    HW213821   2.031   2.950   1.380
 4497SOL     OW13822   3.209   2.921   1.234
 4497SOL    HW113823   3.233   2.858   1.160
 4497SOL    HW213824   3.119   2.961   1.216
 4498SOL     OW13825   3.164   2.717   0.309
 4498SOL    HW113826   3.078   2.686   0.351
 4498SOL    HW213827   3.160   2.703   0.210
 4499SOL     OW13828   3.621   3.609   1.154
 4499SOL    HW113829   3.682   3.639   1.081
 4499SOL    HW213830   3.583   3.520   1.132
 4500SOL     OW13831   3.114   3.593   1.128
 4500SOL    HW113832   3.198   3.598   1.074
 4500SOL    HW213833   3.091   3.497   1.146
 4501SOL     OW13834   1.945   3.120   1.022
 4501SOL    HW113835   1.940   3.119   1.122
 4501SOL    HW213836   1.862   3.079   0.984
 4502SOL     OW13837   2.550   3.524   1.716
 4502SOL    HW113838   2.494   3.605   1.725
 4502SOL    HW213839   2.602   3.528   1.630
 4503SOL     OW13840   2.765   1.948   0.133
 4503SOL    HW113841   2.816   1.949   0.047
 4503SOL    HW213842   2.821   1.906   0.204
 4504SOL     OW13843   3.588   1.997   0.523
 4504SOL    HW113844   3.661   1.980   0.456
 4504SOL    HW213845   3.557   1.910   0.561
 4505SOL     OW13846   3.250   3.435   0.477
 4505SOL    HW113847   3.317   3.447   0.403
 4505SOL    HW213848   3.210   3.524   0.500
 4506SOL     OW13849   1.992   3.656   1.851
 4506SOL    HW113850   1.951   3.582   1.904
 4506SOL    HW213851   2.056   3.707   1.909
 4507SOL     OW13852   3.142   2.789   0.672
 4507SOL    HW113853   3.202   2.708   0.674
 4507SOL    HW213854   3.182   2.858   0.612
 4508SOL     OW13855   2.692   3.135   1.422
 4508SOL    HW113856   2.687   3.168   1.517
 4508SOL    HW213857   2.606   3.154   1.376
 4509SOL     OW13858   2.534   3.478   0.154
 4509SOL    HW113859   2.543   3.488   0.055
 4509SOL    HW213860   2.494   3.389   0.175
 4510SOL     OW13861   3.512   3.582   1.394
 4510SOL    HW113862   3.565   3.592   1.310
 4510SOL    HW213863   3.485   3.672   1.428
 4511SOL     OW13864   3.703   2.037   0.963
 4511SOL    HW113865   3.742   1.952   0.927
 4511SOL    HW213866   3.605   2.039   0.944
 4512SOL     OW13867   2.125   2.188   0.720
 4512SOL    HW113868   2.046   2.239   0.686
 4512SOL    HW213869   2.116   2.173   0.818
 4513SOL     OW13870   3.056   3.474   0.031
 4513SOL    HW113871   3.062   3.381   0.068
 4513SOL    HW213872   2.997   3.474  -0.049
 4514SOL     OW13873   2.684   2.864   1.372
 4514SOL    HW113874   2.724   2.863   1.280
 4514SOL    HW213875   2.694   2.956   1.412
 4515SOL     OW13876   2.778   2.772   0.291
 4515SOL    HW113877   2.841   2.810   0.223
 4515SOL    HW213878   2.818   2.689   0.330
 4516SOL     OW13879   3.366   3.469   0.044
 4516SOL    HW113880   3.274   3.506   0.051
 4516SOL    HW213881   3.404   3.489  -0.046
 4517SOL     OW13882   2.234   3.150   1.490
 4517SOL    HW113883   2.221   3.243   1.456
 4517SOL    HW213884   2.150   3.098   1.477
 4518SOL     OW13885   3.476   3.154   1.289
 4518SOL    HW113886   3.536   3.157   1.369
 4518SOL    HW213887   3.401   3.218   1.302
 4519SOL     OW13888   2.901   2.960   0.696
 4519SOL    HW113889   2.831   2.913   0.750
 4519SOL    HW213890   2.960   2.892   0.653
 4520SOL     OW13891   2.876   2.098   0.971
 4520SOL    HW113892   2.868   2.062   0.878
 4520SOL    HW213893   2.874   2.022   1.036
 4521SOL     OW13894   2.452   3.349   0.491
 4521SOL    HW113895   2.494   3.291   0.421
 4521SOL    HW213896   2.408   3.428   0.447
 4522SOL     OW13897   3.571   2.247   1.381
 4522SOL    HW113898   3.644   2.316   1.385
 4522SOL    HW213899   3.599   2.172   1.322
 4523SOL     OW13900   2.117   3.210   0.290
 4523SOL    HW113901   2.021   3.211   0.263
 4523SOL    HW213902   2.129   3.263   0.374
 4524SOL     OW13903   1.967   2.875   1.726
 4524SOL    HW113904   1.890   2.842   1.780
 4524SOL    HW213905   2.052   2.845   1.768
 4525SOL     OW13906   2.534   2.065   1.489
 4525SOL    HW113907   2.624   2.049   1.449
 4525SOL    HW213908   2.542   2.070   1.588
 4526SOL     OW13909   1.937   2.207   0.033
 4526SOL    HW113910   1.845   2.179   0.004
 4526SOL    HW213911   1.968   2.284  -0.023
 4527SOL     OW13912   3.302   2.718   1.398
 4527SOL    HW113913   3.245   2.770   1.335
 4527SOL    HW213914   3.398   2.730   1.374
 4528SOL     OW13915   1.934   2.028   0.318
 4528SOL    HW113916   1.917   2.111   0.264
 4528SOL    HW213917   2.024   1.991   0.296
 4529SOL     OW13918   3.045   3.197   0.119
 4529SOL    HW113919   2.946   3.186   0.121
 4529SOL    HW213920   3.079   3.212   0.212
 4530SOL     OW13921   2.475   2.704   1.431
 4530SOL    HW113922   2.531   2.785   1.414
 4530SOL    HW213923   2.534   2.624   1.434
 4531SOL     OW13924   3.355   3.629   0.959
 4531SOL    HW113925   3.388   3.693   0.890
 4531SOL    HW213926   3.421   3.623   1.034
 4532SOL     OW13927   3.312   3.082   1.633
 4532SOL    HW113928   3.303   3.072   1.732
 4532SOL    HW213929   3.408   3.075   1.607
 4533SOL     OW13930   2.252   3.603   1.560
 4533SOL    HW113931   2.161   3.644   1.558
 4533SOL    HW213932   2.245   3.509   1.592
 4534SOL     OW13933   3.536   2.745   1.254
 4534SOL    HW113934   3.509   2.656   1.217
 4534SOL    HW213935   3.537   2.813   1.181
 4535SOL     OW13936   3.087   2.187   0.449
 4535SOL    HW113937   3.152   2.113   0.438
 4535SOL    HW213938   3.107   2.237   0.533
 4536SOL     OW13939   3.639   2.204   1.642
 4536SOL    HW113940   3.622   2.235   1.548
 4536SOL    HW213941   3.555   2.167   1.680
 4537SOL     OW13942   3.592   2.796   1.517
 4537SOL    HW113943   3.630   2.887   1.532
 4537SOL    HW213944   3.584   2.779   1.418
 4538SOL     OW13945   2.721   3.236   0.016
 4538SOL    HW113946   2.675   3.251   0.104
 4538SOL    HW213947   2.765   3.321  -0.014
 4539SOL     OW13948   2.523   3.652   0.953
 4539SOL    HW113949   2.477   3.740   0.940
 4539SOL    HW213950   2.622   3.664   0.946
 4540SOL     OW13951   2.721   2.818   0.861
 4540SOL    HW113952   2.775   2.749   0.909
 4540SOL    HW213953   2.689   2.887   0.927
 4541SOL     OW13954   2.945   2.846   0.087
 4541SOL    HW113955   2.922   2.899   0.005
 4541SOL    HW213956   3.026   2.790   0.068
 4542SOL     OW13957   3.723   3.431   0.851
 4542SOL    HW113958   3.652   3.419   0.781
 4542SOL    HW213959   3.724   3.352   0.911
 4543SOL     OW13960   2.083   3.176   1.844
 4543SOL    HW113961   2.018   3.103   1.823
 4543SOL    HW213962   2.087   3.190   1.942
 4544SOL     OW13963   1.941   3.102   0.653
 4544SOL    HW113964   1.940   3.055   0.741
 4544SOL    HW213965   2.023   3.074   0.602
 4545SOL     OW13966   2.534   3.253   1.624
 4545SOL    HW113967   2.456   3.203   1.662
 4545SOL    HW213968   2.531   3.348   1.655
 4546SOL     OW13969   3.686   2.054   1.227
 4546SOL    HW113970   3.682   1.964   1.271
 4546SOL    HW213971   3.689   2.043   1.128
 4547SOL     OW13972   3.567   3.349   1.104
 4547SOL    HW113973   3.474   3.324   1.077
 4547SOL    HW213974   3.593   3.299   1.186
 4548SOL     OW13975   2.674   3.448   0.687
 4548SOL    HW113976   2.706   3.458   0.593
 4548SOL    HW213977   2.595   3.386   0.689
 4549SOL     OW13978   3.286   2.076   1.112
 4549SOL    HW113979   3.338   2.011   1.167
 4549SOL    HW213980   3.237   2.139   1.173
 4550SOL     OW13981   2.863   1.896   1.154
 4550SOL    HW113982   2.800   1.824   1.123
 4550SOL    HW213983   2.956   1.860   1.154
 4551SOL     OW13984   2.632   3.192   0.301
 4551SOL    HW113985   2.586   3.105   0.318
 4551SOL    HW213986   2.723   3.189   0.342
 4552SOL     OW13987   2.480   3.429   1.284
 4552SOL    HW113988   2.475   3.511   1.341
 4552SOL    HW213989   2.569   3.426   1.239
 4553SOL     OW13990   3.214   1.914   0.168
 4553SOL    HW113991   3.249   1.873   0.084
 4553SOL    HW213992   3.124   1.876   0.188
 4554SOL     OW13993   3.162   2.315   0.691
 4554SOL    HW113994   3.103   2.395   0.695
 4554SOL    HW213995   3.177   2.280   0.784
 4555SOL     OW13996   3.455   2.083   0.882
 4555SOL    HW113997   3.371   2.082   0.936
 4555SOL    HW213998   3.457   2.166   0.826
 4556SOL     OW13999   1.901   2.939   0.300
 4556SOL    HW114000   2.000   2.928   0.291
 4556SOL    HW214001   1.861   2.853   0.332
 4557SOL     OW14002   2.737   3.508   0.337
 4557SOL    HW114003   2.660   3.473   0.283
 4557SOL    HW214004   2.705   3.579   0.399
 4558SOL     OW14005   2.092   2.490   1.975
 4558SOL    HW114006   1.999   2.488   2.012
 4558SOL    HW214007   2.093   2.451   1.883
 4559SOL     OW14008   2.087   2.137   2.858
 4559SOL    HW114009   2.122   2.120   2.950
 4559SOL    HW214010   1.999   2.092   2.846
 4560SOL     OW14011   1.881   2.230   2.509
 4560SOL    HW114012   1.799   2.273   2.548
 4560SOL    HW214013   1.853   2.157   2.446
 4561SOL     OW14014   2.431   3.137   3.027
 4561SOL    HW114015   2.338   3.130   2.990
 4561SOL    HW214016   2.442   3.226   3.071
 4562SOL     OW14017   3.417   3.373   2.565
 4562SOL    HW114018   3.360   3.357   2.646
 4562SOL    HW214019   3.358   3.383   2.485
 4563SOL     OW14020   2.997   2.565   2.579
 4563SOL    HW114021   3.054   2.643   2.554
 4563SOL    HW214022   2.937   2.591   2.655
 4564SOL     OW14023   3.617   2.469   2.093
 4564SOL    HW114024   3.605   2.456   1.994
 4564SOL    HW214025   3.587   2.388   2.142
 4565SOL     OW14026   2.630   3.006   2.885
 4565SOL    HW114027   2.552   3.023   2.945
 4565SOL    HW214028   2.664   3.093   2.849
 4566SOL     OW14029   2.712   2.660   3.685
 4566SOL    HW114030   2.708   2.736   3.750
 4566SOL    HW214031   2.734   2.696   3.594
 4567SOL     OW14032   2.547   2.874   2.527
 4567SOL    HW114033   2.616   2.858   2.597
 4567SOL    HW214034   2.474   2.931   2.565
 4568SOL     OW14035   2.548   3.023   3.665
 4568SOL    HW114036   2.608   3.102   3.679
 4568SOL    HW214037   2.462   3.054   3.624
 4569SOL     OW14038   2.197   3.297   2.923
 4569SOL    HW114039   2.119   3.266   2.870
 4569SOL    HW214040   2.255   3.355   2.866
 4570SOL     OW14041   3.322   3.367   3.201
 4570SOL    HW114042   3.346   3.461   3.227
 4570SOL    HW214043   3.306   3.313   3.283
 4571SOL     OW14044   3.465   2.309   2.599
 4571SOL    HW114045   3.391   2.355   2.549
 4571SOL    HW214046   3.516   2.377   2.652
 4572SOL     OW14047   2.093   3.575   2.345
 4572SOL    HW114048   2.127   3.652   2.399
 4572SOL    HW214049   2.137   3.575   2.255
 4573SOL     OW14050   2.989   3.203   3.552
 4573SOL    HW114051   3.036   3.203   3.640
 4573SOL    HW214052   2.941   3.116   3.541
 4574SOL     OW14053   2.092   3.296   2.400
 4574SOL    HW114054   2.066   3.392   2.400
 4574SOL    HW214055   2.021   3.242   2.445
 4575SOL     OW14056   2.102   2.953   2.748
 4575SOL    HW114057   2.116   2.869   2.800
 4575SOL    HW214058   2.047   3.017   2.803
 4576SOL     OW14059   2.482   3.648   3.301
 4576SOL    HW114060   2.390   3.631   3.336
 4576SOL    HW214061   2.510   3.740   3.327
 4577SOL     OW14062   2.468   2.826   1.985
 4577SOL    HW114063   2.475   2.910   1.931
 4577SOL    HW214064   2.514   2.839   2.073
 4578SOL     OW14065   3.456   1.976   3.342
 4578SOL    HW114066   3.438   2.043   3.270
 4578SOL    HW214067   3.453   2.022   3.431
 4579SOL     OW14068   1.984   2.505   2.425
 4579SOL    HW114069   1.939   2.417   2.442
 4579SOL    HW214070   1.983   2.559   2.509
 4580SOL     OW14071   3.704   3.629   2.221
 4580SOL    HW114072   3.758   3.600   2.301
 4580SOL    HW214073   3.734   3.719   2.192
 4581SOL     OW14074   1.889   3.458   1.979
 4581SOL    HW114075   1.870   3.362   2.000
 4581SOL    HW214076   1.856   3.516   2.054
 4582SOL     OW14077   3.551   2.784   2.474
 4582SOL    HW114078   3.646   2.755   2.482
 4582SOL    HW214079   3.543   2.849   2.399
 4583SOL     OW14080   3.503   2.970   2.294
 4583SOL    HW114081   3.589   2.972   2.242
 4583SOL    HW214082   3.517   3.017   2.382
 4584SOL     OW14083   1.975   2.599   3.459
 4584SOL    HW114084   2.063   2.586   3.504
 4584SOL    HW214085   1.962   2.696   3.437
 4585SOL     OW14086   2.475   3.227   2.588
 4585SOL    HW114087   2.426   3.140   2.597
 4585SOL    HW214088   2.452   3.270   2.501
 4586SOL     OW14089   3.155   3.090   3.285
 4586SOL    HW114090   3.192   3.017   3.227
 4586SOL    HW214091   3.207   3.095   3.370
 4587SOL     OW14092   2.671   1.866   2.364
 4587SOL    HW114093   2.711   1.957   2.355
 4587SOL    HW214094   2.571   1.874   2.370
 4588SOL     OW14095   2.059   2.838   3.126
 4588SOL    HW114096   2.148   2.793   3.112
 4588SOL    HW214097   1.986   2.773   3.107
 4589SOL     OW14098   3.387   2.861   2.052
 4589SOL    HW114099   3.324   2.785   2.065
 4589SOL    HW214100   3.435   2.879   2.138
 4590SOL     OW14101   3.049   3.654   3.478
 4590SOL    HW114102   3.073   3.714   3.402
 4590SOL    HW214103   3.056   3.559   3.448
 4591SOL     OW14104   2.179   2.113   3.663
 4591SOL    HW114105   2.250   2.184   3.669
 4591SOL    HW214106   2.091   2.152   3.691
 4592SOL     OW14107   3.328   3.279   2.815
 4592SOL    HW114108   3.269   3.285   2.895
 4592SOL    HW214109   3.313   3.191   2.769
 4593SOL     OW14110   3.529   3.576   2.434
 4593SOL    HW114111   3.488   3.553   2.346
 4593SOL    HW214112   3.511   3.502   2.499
 4594SOL     OW14113   3.143   2.207   2.806
 4594SOL    HW114114   3.057   2.157   2.793
 4594SOL    HW214115   3.205   2.153   2.862
 4595SOL     OW14116   3.438   3.524   2.169
 4595SOL    HW114117   3.527   3.570   2.172
 4595SOL    HW214118   3.417   3.500   2.074
 4596SOL     OW14119   2.669   2.467   3.327
 4596SOL    HW114120   2.622   2.464   3.416
 4596SOL    HW214121   2.618   2.412   3.261
 4597SOL     OW14122   3.256   2.331   3.536
 4597SOL    HW114123   3.236   2.374   3.624
 4597SOL    HW214124   3.334   2.269   3.545
 4598SOL     OW14125   2.835   2.752   3.434
 4598SOL    HW114126   2.881   2.668   3.405
 4598SOL    HW214127   2.779   2.786   3.359
 4599SOL     OW14128   2.853   2.272   3.104
 4599SOL    HW114129   2.776   2.306   3.158
 4599SOL    HW214130   2.819   2.221   3.025
 4600SOL     OW14131   2.903   2.563   2.291
 4600SOL    HW114132   2.929   2.559   2.387
 4600SOL    HW214133   2.818   2.512   2.277
 4601SOL     OW14134   1.938   2.673   2.651
 4601SOL    HW114135   2.037   2.661   2.660
 4601SOL    HW214136   1.914   2.768   2.672
 4602SOL     OW14137   1.992   3.683   3.433
 4602SOL    HW114138   1.982   3.668   3.532
 4602SOL    HW214139   1.906   3.719   3.397
 4603SOL     OW14140   2.727   2.210   2.057
 4603SOL    HW114141   2.786   2.273   2.008
 4603SOL    HW214142   2.746   2.116   2.028
 4604SOL     OW14143   3.581   2.447   3.693
 4604SOL    HW114144   3.555   2.536   3.657
 4604SOL    HW214145   3.579   2.379   3.620
 4605SOL     OW14146   3.224   3.006   2.407
 4605SOL    HW114147   3.307   2.977   2.359
 4605SOL    HW214148   3.175   3.073   2.351
 4606SOL     OW14149   2.870   3.318   2.339
 4606SOL    HW114150   2.824   3.390   2.287
 4606SOL    HW214151   2.866   3.338   2.437
 4607SOL     OW14152   2.213   3.663   2.715
 4607SOL    HW114153   2.263   3.577   2.721
 4607SOL    HW214154   2.278   3.740   2.712
 4608SOL     OW14155   3.657   2.928   2.735
 4608SOL    HW114156   3.595   2.913   2.659
 4608SOL    HW214157   3.605   2.939   2.820
 4609SOL     OW14158   3.089   3.412   3.368
 4609SOL    HW114159   3.095   3.335   3.432
 4609SOL    HW214160   3.037   3.386   3.288
 4610SOL     OW14161   2.183   2.805   2.104
 4610SOL    HW114162   2.265   2.844   2.062
 4610SOL    HW214163   2.156   2.723   2.055
 4611SOL     OW14164   3.320   2.597   2.590
 4611SOL    HW114165   3.315   2.532   2.665
 4611SOL    HW214166   3.400   2.656   2.603
 4612SOL     OW14167   2.323   3.128   3.589
 4612SOL    HW114168   2.273   3.129   3.503
 4612SOL    HW214169   2.260   3.110   3.665
 4613SOL     OW14170   2.973   3.638   2.099
 4613SOL    HW114171   2.913   3.576   2.149
 4613SOL    HW214172   3.004   3.594   2.014
 4614SOL     OW14173   2.064   2.147   3.360
 4614SOL    HW114174   1.984   2.207   3.347
 4614SOL    HW214175   2.054   2.098   3.446
 4615SOL     OW14176   3.494   3.239   1.943
 4615SOL    HW114177   3.462   3.333   1.933
 4615SOL    HW214178   3.418   3.176   1.931
 4616SOL     OW14179   2.326   3.605   2.185
 4616SOL    HW114180   2.359   3.644   2.271
 4616SOL    HW214181   2.402   3.598   2.120
 4617SOL     OW14182   3.262   1.969   2.288
 4617SOL    HW114183   3.238   1.932   2.198
 4617SOL    HW214184   3.361   1.985   2.292
 4618SOL     OW14185   2.111   3.647   3.103
 4618SOL    HW114186   2.168   3.582   3.153
 4618SOL    HW214187   2.095   3.614   3.010
 4619SOL     OW14188   2.802   3.560   2.766
 4619SOL    HW114189   2.882   3.503   2.787
 4619SOL    HW214190   2.753   3.520   2.689
 4620SOL     OW14191   3.409   2.084   3.591
 4620SOL    HW114192   3.404   2.121   3.683
 4620SOL    HW214193   3.337   2.015   3.579
 4621SOL     OW14194   2.476   1.984   1.979
 4621SOL    HW114195   2.574   1.962   1.986
 4621SOL    HW214196   2.445   1.967   1.886
 4622SOL     OW14197   2.643   2.126   3.611
 4622SOL    HW114198   2.710   2.065   3.654
 4622SOL    HW214199   2.570   2.145   3.676
 4623SOL     OW14200   2.750   3.376   3.057
 4623SOL    HW114201   2.727   3.351   2.963
 4623SOL    HW214202   2.811   3.307   3.096
 4624SOL     OW14203   3.213   2.452   3.295
 4624SOL    HW114204   3.241   2.409   3.380
 4624SOL    HW214205   3.238   2.548   3.296
 4625SOL     OW14206   2.665   3.264   2.786
 4625SOL    HW114207   2.755   3.278   2.744
 4625SOL    HW214208   2.594   3.266   2.715
 4626SOL     OW14209   2.784   2.365   2.761
 4626SOL    HW114210   2.759   2.356   2.665
 4626SOL    HW214211   2.832   2.283   2.792
 4627SOL     OW14212   2.401   1.926   2.374
 4627SOL    HW114213   2.320   1.927   2.432
 4627SOL    HW214214   2.404   2.009   2.319
 4628SOL     OW14215   3.296   3.050   1.903
 4628SOL    HW114216   3.328   2.974   1.960
 4628SOL    HW214217   3.204   3.077   1.933
 4629SOL     OW14218   2.159   1.897   2.033
 4629SOL    HW114219   2.208   1.981   2.012
 4629SOL    HW214220   2.221   1.832   2.078
 4630SOL     OW14221   2.797   2.098   2.342
 4630SOL    HW114222   2.749   2.139   2.264
 4630SOL    HW214223   2.896   2.096   2.323
 4631SOL     OW14224   2.938   2.545   3.326
 4631SOL    HW114225   2.858   2.484   3.329
 4631SOL    HW214226   3.019   2.492   3.302
 4632SOL     OW14227   3.089   3.432   2.655
 4632SOL    HW114228   3.110   3.506   2.590
 4632SOL    HW214229   3.157   3.432   2.728
 4633SOL     OW14230   2.321   3.014   2.603
 4633SOL    HW114231   2.250   2.987   2.668
 4633SOL    HW214232   2.295   2.986   2.510
 4634SOL     OW14233   3.133   3.659   2.453
 4634SOL    HW114234   3.177   3.723   2.389
 4634SOL    HW214235   3.083   3.711   2.523
 4635SOL     OW14236   2.894   2.411   1.878
 4635SOL    HW114237   2.853   2.493   1.839
 4635SOL    HW214238   2.958   2.437   1.951
 4636SOL     OW14239   1.940   2.418   3.248
 4636SOL    HW114240   2.032   2.417   3.207
 4636SOL    HW214241   1.934   2.492   3.315
 4637SOL     OW14242   2.423   2.084   3.009
 4637SOL    HW114243   2.461   2.000   3.046
 4637SOL    HW214244   2.335   2.103   3.053
 4638SOL     OW14245   2.728   2.316   2.504
 4638SOL    HW114246   2.696   2.388   2.442
 4638SOL    HW214247   2.752   2.235   2.451
 4639SOL     OW14248   2.879   1.901   2.615
 4639SOL    HW114249   2.807   1.906   2.546
 4639SOL    HW214250   2.855   1.832   2.684
 4640SOL     OW14251   3.291   3.035   2.729
 4640SOL    HW114252   3.236   2.951   2.722
 4640SOL    HW214253   3.317   3.064   2.637
 4641SOL     OW14254   3.328   2.452   2.854
 4641SOL    HW114255   3.298   2.357   2.861
 4641SOL    HW214256   3.401   2.468   2.920
 4642SOL     OW14257   3.719   2.695   2.239
 4642SOL    HW114258   3.761   2.631   2.303
 4642SOL    HW214259   3.681   2.644   2.161
 4643SOL     OW14260   2.350   3.247   2.036
 4643SOL    HW114261   2.263   3.232   2.083
 4643SOL    HW214262   2.333   3.273   1.941
 4644SOL     OW14263   3.526   3.142   2.519
 4644SOL    HW114264   3.625   3.150   2.533
 4644SOL    HW214265   3.481   3.226   2.550
 4645SOL     OW14266   3.252   2.437   1.940
 4645SOL    HW114267   3.198   2.416   2.021
 4645SOL    HW214268   3.343   2.396   1.949
 4646SOL     OW14269   3.616   3.085   3.450
 4646SOL    HW114270   3.707   3.046   3.437
 4646SOL    HW214271   3.624   3.181   3.474
 4647SOL     OW14272   2.926   3.209   3.202
 4647SOL    HW114273   2.846   3.186   3.257
 4647SOL    HW214274   3.009   3.183   3.251
 4648SOL     OW14275   3.454   3.491   3.487
 4648SOL    HW114276   3.481   3.525   3.397
 4648SOL    HW214277   3.533   3.453   3.533
 4649SOL     OW14278   2.973   3.057   2.962
 4649SOL    HW114279   2.933   3.101   3.043
 4649SOL    HW214280   2.932   3.094   2.879
 4650SOL     OW14281   3.500   2.961   2.941
 4650SOL    HW114282   3.505   3.042   3.000
 4650SOL    HW214283   3.414   2.963   2.890
 4651SOL     OW14284   2.777   1.951   3.264
 4651SOL    HW114285   2.802   1.931   3.169
 4651SOL    HW214286   2.849   2.007   3.306
 4652SOL     OW14287   2.842   2.978   3.581
 4652SOL    HW114288   2.743   2.984   3.591
 4652SOL    HW214289   2.865   2.898   3.525
 4653SOL     OW14290   2.567   2.912   2.230
 4653SOL    HW114291   2.553   2.919   2.329
 4653SOL    HW214292   2.651   2.861   2.212
 4654SOL     OW14293   2.272   2.675   3.113
 4654SOL    HW114294   2.358   2.687   3.163
 4654SOL    HW214295   2.230   2.588   3.140
 4655SOL     OW14296   3.136   2.248   3.124
 4655SOL    HW114297   3.157   2.322   3.188
 4655SOL    HW214298   3.047   2.265   3.081
 4656SOL     OW14299   1.926   3.426   3.193
 4656SOL    HW114300   1.880   3.508   3.159
 4656SOL    HW214301   2.024   3.445   3.202
 4657SOL     OW14302   2.229   2.962   2.363
 4657SOL    HW114303   2.222   3.045   2.307
 4657SOL    HW214304   2.233   2.882   2.303
 4658SOL     OW14305   3.114   3.210   2.250
 4658SOL    HW114306   3.164   3.287   2.290
 4658SOL    HW214307   3.019   3.212   2.282
 4659SOL     OW14308   3.134   3.307   3.004
 4659SOL    HW114309   3.181   3.320   3.091
 4659SOL    HW214310   3.068   3.233   3.013
 4660SOL     OW14311   3.444   2.501   2.334
 4660SOL    HW114312   3.413   2.562   2.407
 4660SOL    HW214313   3.494   2.553   2.265
 4661SOL     OW14314   2.216   3.372   3.191
 4661SOL    HW114315   2.195   3.328   3.104
 4661SOL    HW214316   2.313   3.398   3.194
 4662SOL     OW14317   3.449   2.641   3.532
 4662SOL    HW114318   3.357   2.679   3.527
 4662SOL    HW214319   3.509   2.688   3.467
 4663SOL     OW14320   2.875   1.967   3.632
 4663SOL    HW114321   2.881   2.052   3.580
 4663SOL    HW214322   2.907   1.891   3.575
 4664SOL     OW14323   2.366   1.912   3.602
 4664SOL    HW114324   2.324   1.855   3.532
 4664SOL    HW214325   2.300   1.981   3.634
 4665SOL     OW14326   2.435   2.732   2.891
 4665SOL    HW114327   2.479   2.821   2.882
 4665SOL    HW214328   2.372   2.732   2.968
 4666SOL     OW14329   3.222   2.724   2.907
 4666SOL    HW114330   3.147   2.724   2.841
 4666SOL    HW214331   3.259   2.632   2.916
 4667SOL     OW14332   3.071   2.387   2.137
 4667SOL    HW114333   3.084   2.303   2.191
 4667SOL    HW214334   3.042   2.461   2.197
 4668SOL     OW14335   2.169   2.075   3.093
 4668SOL    HW114336   2.146   2.112   3.183
 4668SOL    HW214337   2.139   1.980   3.087
 4669SOL     OW14338   1.899   3.172   3.144
 4669SOL    HW114339   1.952   3.123   3.212
 4669SOL    HW214340   1.921   3.270   3.149
 4670SOL     OW14341   2.594   2.496   2.926
 4670SOL    HW114342   2.653   2.470   2.850
 4670SOL    HW214343   2.566   2.592   2.915
 4671SOL     OW14344   3.590   2.797   3.716
 4671SOL    HW114345   3.544   2.790   3.627
 4671SOL    HW214346   3.528   2.841   3.782
 4672SOL     OW14347   2.169   1.925   2.480
 4672SOL    HW114348   2.158   2.019   2.513
 4672SOL    HW214349   2.164   1.862   2.557
 4673SOL     OW14350   3.484   2.229   2.236
 4673SOL    HW114351   3.486   2.153   2.300
 4673SOL    HW214352   3.436   2.306   2.276
 4674SOL     OW14353   2.885   2.628   2.828
 4674SOL    HW114354   2.900   2.649   2.924
 4674SOL    HW214355   2.855   2.533   2.819
 4675SOL     OW14356   2.842   3.435   3.562
 4675SOL    HW114357   2.822   3.479   3.474
 4675SOL    HW214358   2.881   3.344   3.546
 4676SOL     OW14359   3.721   3.380   3.467
 4676SOL    HW114360   3.735   3.407   3.372
 4676SOL    HW214361   3.804   3.402   3.520
 4677SOL     OW14362   2.212   2.760   3.666
 4677SOL    HW114363   2.288   2.804   3.714
 4677SOL    HW214364   2.247   2.713   3.584
 4678SOL     OW14365   3.402   2.136   1.987
 4678SOL    HW114366   3.341   2.061   2.010
 4678SOL    HW214367   3.424   2.188   2.070
 4679SOL     OW14368   3.165   2.700   1.904
 4679SOL    HW114369   3.199   2.607   1.919
 4679SOL    HW214370   3.183   2.727   1.809
 4680SOL     OW14371   2.930   3.195   2.711
 4680SOL    HW114372   2.937   3.111   2.656
 4680SOL    HW214373   2.992   3.264   2.675
 4681SOL     OW14374   2.181   2.672   2.811
 4681SOL    HW114375   2.274   2.708   2.816
 4681SOL    HW214376   2.175   2.587   2.863
 4682SOL     OW14377   3.000   2.242   3.540
 4682SOL    HW114378   2.955   2.305   3.604
 4682SOL    HW214379   3.093   2.273   3.523
 4683SOL     OW14380   3.022   2.069   3.339
 4683SOL    HW114381   3.022   2.133   3.416
 4683SOL    HW214382   3.050   2.117   3.256
 4684SOL     OW14383   1.870   3.188   2.062
 4684SOL    HW114384   1.777   3.209   2.031
 4684SOL    HW214385   1.880   3.089   2.075
 4685SOL     OW14386   1.950   3.663   2.789
 4685SOL    HW114387   1.908   3.577   2.762
 4685SOL    HW214388   2.044   3.666   2.755
 4686SOL     OW14389   2.366   3.430   2.772
 4686SOL    HW114390   2.432   3.504   2.781
 4686SOL    HW214391   2.410   3.351   2.730
 4687SOL     OW14392   2.864   2.658   3.100
 4687SOL    HW114393   2.905   2.626   3.186
 4687SOL    HW214394   2.768   2.631   3.097
 4688SOL     OW14395   1.902   2.406   2.976
 4688SOL    HW114396   1.987   2.373   2.935
 4688SOL    HW214397   1.915   2.421   3.074
 4689SOL     OW14398   2.051   2.382   3.584
 4689SOL    HW114399   2.110   2.342   3.514
 4689SOL    HW214400   1.993   2.453   3.543
 4690SOL     OW14401   3.231   2.812   3.522
 4690SOL    HW114402   3.270   2.901   3.542
 4690SOL    HW214403   3.241   2.792   3.425
 4691SOL     OW14404   2.677   2.434   2.187
 4691SOL    HW114405   2.684   2.345   2.141
 4691SOL    HW214406   2.583   2.468   2.179
 4692SOL     OW14407   3.519   2.466   3.068
 4692SOL    HW114408   3.481   2.397   3.130
 4692SOL    HW214409   3.601   2.430   3.024
 4693SOL     OW14410   2.114   3.426   3.606
 4693SOL    HW114411   2.084   3.483   3.682
 4693SOL    HW214412   2.107   3.329   3.632
 4694SOL     OW14413   2.792   3.540   3.327
 4694SOL    HW114414   2.768   3.522   3.232
 4694SOL    HW214415   2.822   3.634   3.337
 4695SOL     OW14416   2.021   2.999   3.328
 4695SOL    HW114417   2.043   2.938   3.404
 4695SOL    HW214418   2.031   2.950   3.242
 4696SOL     OW14419   3.209   2.921   3.096
 4696SOL    HW114420   3.233   2.858   3.022
 4696SOL    HW214421   3.119   2.961   3.078
 4697SOL     OW14422   3.164   2.717   2.171
 4697SOL    HW114423   3.078   2.686   2.213
 4697SOL    HW214424   3.160   2.703   2.072
 4698SOL     OW14425   3.621   3.609   3.016
 4698SOL    HW114426   3.682   3.639   2.943
 4698SOL    HW214427   3.583   3.520   2.994
 4699SOL     OW14428   3.114   3.593   2.990
 4699SOL    HW114429   3.198   3.598   2.936
 4699SOL    HW214430   3.091   3.497   3.008
 4700SOL     OW14431   1.945   3.120   2.884
 4700SOL    HW114432   1.940   3.119   2.984
 4700SOL    HW214433   1.862   3.079   2.846
 4701SOL     OW14434   2.550   3.524   3.578
 4701SOL    HW114435   2.494   3.605   3.587
 4701SOL    HW214436   2.602   3.528   3.492
 4702SOL     OW14437   3.588   1.997   2.385
 4702SOL    HW114438   3.661   1.980   2.318
 4702SOL    HW214439   3.557   1.910   2.423
 4703SOL     OW14440   3.250   3.435   2.339
 4703SOL    HW114441   3.317   3.447   2.265
 4703SOL    HW214442   3.210   3.524   2.362
 4704SOL     OW14443   1.992   3.656   3.713
 4704SOL    HW114444   1.951   3.582   3.766
 4704SOL    HW214445   2.056   3.707   3.771
 4705SOL     OW14446   3.142   2.789   2.534
 4705SOL    HW114447   3.202   2.708   2.536
 4705SOL    HW214448   3.182   2.858   2.474
 4706SOL     OW14449   2.692   3.135   3.284
 4706SOL    HW114450   2.687   3.168   3.379
 4706SOL    HW214451   2.606   3.154   3.238
 4707SOL     OW14452   2.534   3.478   2.016
 4707SOL    HW114453   2.543   3.488   1.917
 4707SOL    HW214454   2.494   3.389   2.037
 4708SOL     OW14455   3.512   3.582   3.256
 4708SOL    HW114456   3.565   3.592   3.172
 4708SOL    HW214457   3.485   3.672   3.290
 4709SOL     OW14458   3.703   2.037   2.825
 4709SOL    HW114459   3.742   1.952   2.789
 4709SOL    HW214460   3.605   2.039   2.806
 4710SOL     OW14461   2.125   2.188   2.582
 4710SOL    HW114462   2.046   2.239   2.548
 4710SOL    HW214463   2.116   2.173   2.680
 4711SOL     OW14464   3.056   3.474   1.893
 4711SOL    HW114465   3.062   3.381   1.930
 4711SOL    HW214466   2.997   3.474   1.813
 4712SOL     OW14467   2.684   2.864   3.234
 4712SOL    HW114468   2.724   2.863   3.142
 4712SOL    HW214469   2.694   2.956   3.274
 4713SOL     OW14470   2.778   2.772   2.153
 4713SOL    HW114471   2.841   2.810   2.085
 4713SOL    HW214472   2.818   2.689   2.192
 4714SOL     OW14473   3.366   3.469   1.906
 4714SOL    HW114474   3.274   3.506   1.913
 4714SOL    HW214475   3.404   3.489   1.816
 4715SOL     OW14476   2.234   3.150   3.352
 4715SOL    HW114477   2.221   3.243   3.318
 4715SOL    HW214478   2.150   3.098   3.339
 4716SOL     OW14479   3.476   3.154   3.151
 4716SOL    HW114480   3.536   3.157   3.231
 4716SOL    HW214481   3.401   3.218   3.164
 4717SOL     OW14482   2.901   2.960   2.558
 4717SOL    HW114483   2.831   2.913   2.612
 4717SOL    HW214484   2.960   2.892   2.515
 4718SOL     OW14485   2.876   2.098   2.833
 4718SOL    HW114486   2.868   2.062   2.740
 4718SOL    HW214487   2.874   2.022   2.898
 4719SOL     OW14488   2.452   3.349   2.353
 4719SOL    HW114489   2.494   3.291   2.283
 4719SOL    HW214490   2.408   3.428   2.309
 4720SOL     OW14491   3.571   2.247   3.243
 4720SOL    HW114492   3.644   2.316   3.247
 4720SOL    HW214493   3.599   2.172   3.184
 4721SOL     OW14494   2.117   3.210   2.152
 4721SOL    HW114495   2.021   3.211   2.125
 4721SOL    HW214496   2.129   3.263   2.236
 4722SOL     OW14497   1.967   2.875   3.588
 4722SOL    HW114498   1.890   2.842   3.642
 4722SOL    HW214499   2.052   2.845   3.630
 4723SOL     OW14500   2.534   2.065   3.351
 4723SOL    HW114501   2.624   2.049   3.311
 4723SOL    HW214502   2.542   2.070   3.450
 4724SOL     OW14503   1.937   2.207   1.895
 4724SOL    HW114504   1.845   2.179   1.866
 4724SOL    HW214505   1.968   2.284   1.839
 4725SOL     OW14506   3.302   2.718   3.260
 4725SOL    HW114507   3.245   2.770   3.197
 4725SOL    HW214508   3.398   2.730   3.236
 4726SOL     OW14509   1.934   2.028   2.180
 4726SOL    HW114510   1.917   2.111   2.126
 4726SOL    HW214511   2.024   1.991   2.158
 4727SOL     OW14512   3.045   3.197   1.981
 4727SOL    HW114513   2.946   3.186   1.983
 4727SOL    HW214514   3.079   3.212   2.074
 4728SOL     OW14515   2.475   2.704   3.293
 4728SOL    HW114516   2.531   2.785   3.276
 4728SOL    HW214517   2.534   2.624   3.296
 4729SOL     OW14518   3.355   3.629   2.821
 4729SOL    HW114519   3.388   3.693   2.752
 4729SOL    HW214520   3.421   3.623   2.896
 4730SOL     OW14521   3.312   3.082   3.495
 4730SOL    HW114522   3.303   3.072   3.594
 4730SOL    HW214523   3.408   3.075   3.469
 4731SOL     OW14524   2.252   3.603   3.422
 4731SOL    HW114525   2.161   3.644   3.420
 4731SOL    HW214526   2.245   3.509   3.454
 4732SOL     OW14527   3.536   2.745   3.116
 4732SOL    HW114528   3.509   2.656   3.079
 4732SOL    HW214529   3.537   2.813   3.043
 4733SOL     OW14530   3.087   2.187   2.311
 4733SOL    HW114531   3.152   2.113   2.300
 4733SOL    HW214532   3.107   2.237   2.395
 4734SOL     OW14533   2.456   2.607   2.514
 4734SOL    HW114534   2.506   2.692   2.495
 4734SOL    HW214535   2.368   2.609   2.466
 4735SOL     OW14536   3.639   2.204   3.504
 4735SOL    HW114537   3.622   2.235   3.410
 4735SOL    HW214538   3.555   2.167   3.542
 4736SOL     OW14539   3.592   2.796   3.379
 4736SOL    HW114540   3.630   2.887   3.394
 4736SOL    HW214541   3.584   2.779   3.280
 4737SOL     OW14542   2.721   3.236   1.878
 4737SOL    HW114543   2.675   3.251   1.966
 4737SOL    HW214544   2.765   3.321   1.848
 4738SOL     OW14545   2.523   3.652   2.815
 4738SOL    HW114546   2.477   3.740   2.802
 4738SOL    HW214547   2.622   3.664   2.808
 4739SOL     OW14548   2.721   2.818   2.723
 4739SOL    HW114549   2.775   2.749   2.771
 4739SOL    HW214550   2.689   2.887   2.789
 4740SOL     OW14551   2.945   2.846   1.949
 4740SOL    HW114552   2.922   2.899   1.867
 4740SOL    HW214553   3.026   2.790   1.930
 4741SOL     OW14554   3.723   3.431   2.713
 4741SOL    HW114555   3.652   3.419   2.643
 4741SOL    HW214556   3.724   3.352   2.773
 4742SOL     OW14557   2.083   3.176   3.706
 4742SOL    HW114558   2.018   3.103   3.685
 4742SOL    HW214559   2.087   3.190   3.804
 4743SOL     OW14560   1.941   3.102   2.515
 4743SOL    HW114561   1.940   3.055   2.603
 4743SOL    HW214562   2.023   3.074   2.464
 4744SOL     OW14563   2.534   3.253   3.486
 4744SOL    HW114564   2.456   3.203   3.524
 4744SOL    HW214565   2.531   3.348   3.517
 4745SOL     OW14566   3.686   2.054   3.089
 4745SOL    HW114567   3.682   1.964   3.133
 4745SOL    HW214568   3.689   2.043   2.990
 4746SOL     OW14569   3.567   3.349   2.966
 4746SOL    HW114570   3.474   3.324   2.939
 4746SOL    HW214571   3.593   3.299   3.048
 4747SOL     OW14572   2.674   3.448   2.549
 4747SOL    HW114573   2.706   3.458   2.455
 4747SOL    HW214574   2.595   3.386   2.551
 4748SOL     OW14575   3.286   2.076   2.974
 4748SOL    HW114576   3.338   2.011   3.029
 4748SOL    HW214577   3.237   2.139   3.035
 4749SOL     OW14578   2.863   1.896   3.016
 4749SOL    HW114579   2.800   1.824   2.985
 4749SOL    HW214580   2.956   1.860   3.016
 4750SOL     OW14581   2.632   3.192   2.163
 4750SOL    HW114582   2.586   3.105   2.180
 4750SOL    HW214583   2.723   3.189   2.204
 4751SOL     OW14584   2.480   3.429   3.146
 4751SOL    HW114585   2.475   3.511   3.203
 4751SOL    HW214586   2.569   3.426   3.101
 4752SOL     OW14587   3.214   1.914   2.030
 4752SOL    HW114588   3.249   1.873   1.946
 4752SOL    HW214589   3.124   1.876   2.050
 4753SOL     OW14590   3.162   2.315   2.553
 4753SOL    HW114591   3.103   2.395   2.557
 4753SOL    HW214592   3.177   2.280   2.646
 4754SOL     OW14593   3.455   2.083   2.744
 4754SOL    HW114594   3.371   2.082   2.798
 4754SOL    HW214595   3.457   2.166   2.688
 4755SOL     OW14596   1.901   2.939   2.162
 4755SOL    HW114597   2.000   2.928   2.153
 4755SOL    HW214598   1.861   2.853   2.194
 4756SOL     OW14599   2.737   3.508   2.199
 4756SOL    HW114600   2.660   3.473   2.145
 4756SOL    HW214601   2.705   3.579   2.261
 4757SOL     OW14602   2.092   2.490   3.837
 4757SOL    HW114603   1.999   2.488   3.874
 4757SOL    HW214604   2.093   2.451   3.745
 4758SOL     OW14605   2.087   2.137   4.720
 4758SOL    HW114606   2.122   2.120   4.812
 4758SOL    HW214607   1.999   2.092   4.708
 4759SOL     OW14608   1.881   2.230   4.371
 4759SOL    HW114609   1.799   2.273   4.410
 4759SOL    HW214610   1.853   2.157   4.308
 4760SOL     OW14611   2.431   3.137   4.889
 4760SOL    HW114612   2.338   3.130   4.852
 4760SOL    HW214613   2.442   3.226   4.933
 4761SOL     OW14614   3.417   3.373   4.427
 4761SOL    HW114615   3.360   3.357   4.508
 4761SOL    HW214616   3.358   3.383   4.347
 4762SOL     OW14617   2.997   2.565   4.441
 4762SOL    HW114618   3.054   2.643   4.416
 4762SOL    HW214619   2.937   2.591   4.517
 4763SOL     OW14620   3.617   2.469   3.955
 4763SOL    HW114621   3.605   2.456   3.856
 4763SOL    HW214622   3.587   2.388   4.004
 4764SOL     OW14623   2.630   3.006   4.747
 4764SOL    HW114624   2.552   3.023   4.807
 4764SOL    HW214625   2.664   3.093   4.711
 4765SOL     OW14626   2.547   2.874   4.389
 4765SOL    HW114627   2.616   2.858   4.459
 4765SOL    HW214628   2.474   2.931   4.427
 4766SOL     OW14629   2.197   3.297   4.785
 4766SOL    HW114630   2.119   3.266   4.732
 4766SOL    HW214631   2.255   3.355   4.728
 4767SOL     OW14632   3.322   3.367   5.063
 4767SOL    HW114633   3.346   3.461   5.089
 4767SOL    HW214634   3.306   3.313   5.145
 4768SOL     OW14635   3.465   2.309   4.461
 4768SOL    HW114636   3.391   2.355   4.411
 4768SOL    HW214637   3.516   2.377   4.514
 4769SOL     OW14638   2.093   3.575   4.207
 4769SOL    HW114639   2.127   3.652   4.261
 4769SOL    HW214640   2.137   3.575   4.117
 4770SOL     OW14641   2.989   3.203   5.414
 4770SOL    HW114642   3.036   3.203   5.502
 4770SOL    HW214643   2.941   3.116   5.403
 4771SOL     OW14644   2.092   3.296   4.262
 4771SOL    HW114645   2.066   3.392   4.262
 4771SOL    HW214646   2.021   3.242   4.307
 4772SOL     OW14647   2.102   2.953   4.610
 4772SOL    HW114648   2.116   2.869   4.662
 4772SOL    HW214649   2.047   3.017   4.665
 4773SOL     OW14650   2.482   3.648   5.163
 4773SOL    HW114651   2.390   3.631   5.198
 4773SOL    HW214652   2.510   3.740   5.189
 4774SOL     OW14653   2.468   2.826   3.847
 4774SOL    HW114654   2.475   2.910   3.793
 4774SOL    HW214655   2.514   2.839   3.935
 4775SOL     OW14656   3.456   1.976   5.204
 4775SOL    HW114657   3.438   2.043   5.132
 4775SOL    HW214658   3.453   2.022   5.293
 4776SOL     OW14659   1.984   2.505   4.287
 4776SOL    HW114660   1.939   2.417   4.304
 4776SOL    HW214661   1.983   2.559   4.371
 4777SOL     OW14662   3.704   3.629   4.083
 4777SOL    HW114663   3.758   3.600   4.163
 4777SOL    HW214664   3.734   3.719   4.054
 4778SOL     OW14665   1.889   3.458   3.841
 4778SOL    HW114666   1.870   3.362   3.862
 4778SOL    HW214667   1.856   3.516   3.916
 4779SOL     OW14668   3.551   2.784   4.336
 4779SOL    HW114669   3.646   2.755   4.344
 4779SOL    HW214670   3.543   2.849   4.261
 4780SOL     OW14671   3.503   2.970   4.156
 4780SOL    HW114672   3.589   2.972   4.104
 4780SOL    HW214673   3.517   3.017   4.244
 4781SOL     OW14674   2.475   3.227   4.450
 4781SOL    HW114675   2.426   3.140   4.459
 4781SOL    HW214676   2.452   3.270   4.363
 4782SOL     OW14677   3.155   3.090   5.147
 4782SOL    HW114678   3.192   3.017   5.089
 4782SOL    HW214679   3.207   3.095   5.232
 4783SOL     OW14680   2.671   1.866   4.226
 4783SOL    HW114681   2.711   1.957   4.217
 4783SOL    HW214682   2.571   1.874   4.232
 4784SOL     OW14683   2.059   2.838   4.988
 4784SOL    HW114684   2.148   2.793   4.974
 4784SOL    HW214685   1.986   2.773   4.969
 4785SOL     OW14686   3.387   2.861   3.914
 4785SOL    HW114687   3.324   2.785   3.927
 4785SOL    HW214688   3.435   2.879   4.000
 4786SOL     OW14689   3.049   3.654   5.340
 4786SOL    HW114690   3.073   3.714   5.264
 4786SOL    HW214691   3.056   3.559   5.310
 4787SOL     OW14692   3.328   3.279   4.677
 4787SOL    HW114693   3.269   3.285   4.757
 4787SOL    HW214694   3.313   3.191   4.631
 4788SOL     OW14695   3.529   3.576   4.296
 4788SOL    HW114696   3.488   3.553   4.208
 4788SOL    HW214697   3.511   3.502   4.361
 4789SOL     OW14698   2.460   2.591   3.994
 4789SOL    HW114699   2.484   2.660   3.926
 4789SOL    HW214700   2.382   2.624   4.048
 4790SOL     OW14701   3.143   2.207   4.668
 4790SOL    HW114702   3.057   2.157   4.655
 4790SOL    HW214703   3.205   2.153   4.724
 4791SOL     OW14704   3.438   3.524   4.031
 4791SOL    HW114705   3.527   3.570   4.034
 4791SOL    HW214706   3.417   3.500   3.936
 4792SOL     OW14707   2.669   2.467   5.189
 4792SOL    HW114708   2.622   2.464   5.278
 4792SOL    HW214709   2.618   2.412   5.123
 4793SOL     OW14710   3.256   2.331   5.398
 4793SOL    HW114711   3.236   2.374   5.486
 4793SOL    HW214712   3.334   2.269   5.407
 4794SOL     OW14713   2.853   2.272   4.966
 4794SOL    HW114714   2.776   2.306   5.020
 4794SOL    HW214715   2.819   2.221   4.887
 4795SOL     OW14716   2.903   2.563   4.153
 4795SOL    HW114717   2.929   2.559   4.249
 4795SOL    HW214718   2.818   2.512   4.139
 4796SOL     OW14719   1.938   2.673   4.513
 4796SOL    HW114720   2.037   2.661   4.522
 4796SOL    HW214721   1.914   2.768   4.534
 4797SOL     OW14722   1.992   3.683   5.295
 4797SOL    HW114723   1.982   3.668   5.394
 4797SOL    HW214724   1.906   3.719   5.259
 4798SOL     OW14725   2.727   2.210   3.919
 4798SOL    HW114726   2.786   2.273   3.870
 4798SOL    HW214727   2.746   2.116   3.890
 4799SOL     OW14728   3.581   2.447   5.555
 4799SOL    HW114729   3.555   2.536   5.519
 4799SOL    HW214730   3.579   2.379   5.482
 4800SOL     OW14731   3.224   3.006   4.269
 4800SOL    HW114732   3.307   2.977   4.221
 4800SOL    HW214733   3.175   3.073   4.213
 4801SOL     OW14734   2.870   3.318   4.201
 4801SOL    HW114735   2.824   3.390   4.149
 4801SOL    HW214736   2.866   3.338   4.299
 4802SOL     OW14737   2.213   3.663   4.577
 4802SOL    HW114738   2.263   3.577   4.583
 4802SOL    HW214739   2.278   3.740   4.574
 4803SOL     OW14740   3.657   2.928   4.597
 4803SOL    HW114741   3.595   2.913   4.521
 4803SOL    HW214742   3.605   2.939   4.682
 4804SOL     OW14743   3.089   3.412   5.230
 4804SOL    HW114744   3.095   3.335   5.294
 4804SOL    HW214745   3.037   3.386   5.150
 4805SOL     OW14746   2.183   2.805   3.966
 4805SOL    HW114747   2.265   2.844   3.924
 4805SOL    HW214748   2.156   2.723   3.917
 4806SOL     OW14749   3.320   2.597   4.452
 4806SOL    HW114750   3.315   2.532   4.527
 4806SOL    HW214751   3.400   2.656   4.465
 4807SOL     OW14752   2.323   3.128   5.451
 4807SOL    HW114753   2.273   3.129   5.365
 4807SOL    HW214754   2.260   3.110   5.527
 4808SOL     OW14755   2.973   3.638   3.961
 4808SOL    HW114756   2.913   3.576   4.011
 4808SOL    HW214757   3.004   3.594   3.876
 4809SOL     OW14758   3.494   3.239   3.805
 4809SOL    HW114759   3.462   3.333   3.795
 4809SOL    HW214760   3.418   3.176   3.793
 4810SOL     OW14761   2.326   3.605   4.047
 4810SOL    HW114762   2.359   3.644   4.133
 4810SOL    HW214763   2.402   3.598   3.982
 4811SOL     OW14764   3.262   1.969   4.150
 4811SOL    HW114765   3.238   1.932   4.060
 4811SOL    HW214766   3.361   1.985   4.154
 4812SOL     OW14767   2.111   3.647   4.965
 4812SOL    HW114768   2.168   3.582   5.015
 4812SOL    HW214769   2.095   3.614   4.872
 4813SOL     OW14770   2.802   3.560   4.628
 4813SOL    HW114771   2.882   3.503   4.649
 4813SOL    HW214772   2.753   3.520   4.551
 4814SOL     OW14773   3.409   2.084   5.453
 4814SOL    HW114774   3.404   2.121   5.545
 4814SOL    HW214775   3.337   2.015   5.441
 4815SOL     OW14776   2.476   1.984   3.841
 4815SOL    HW114777   2.574   1.962   3.848
 4815SOL    HW214778   2.445   1.967   3.748
 4816SOL     OW14779   2.750   3.376   4.919
 4816SOL    HW114780   2.727   3.351   4.825
 4816SOL    HW214781   2.811   3.307   4.958
 4817SOL     OW14782   3.213   2.452   5.157
 4817SOL    HW114783   3.241   2.409   5.242
 4817SOL    HW214784   3.238   2.548   5.158
 4818SOL     OW14785   2.665   3.264   4.648
 4818SOL    HW114786   2.755   3.278   4.606
 4818SOL    HW214787   2.594   3.266   4.577
 4819SOL     OW14788   2.784   2.365   4.623
 4819SOL    HW114789   2.759   2.356   4.527
 4819SOL    HW214790   2.832   2.283   4.654
 4820SOL     OW14791   2.401   1.926   4.236
 4820SOL    HW114792   2.320   1.927   4.294
 4820SOL    HW214793   2.404   2.009   4.181
 4821SOL     OW14794   3.296   3.050   3.765
 4821SOL    HW114795   3.328   2.974   3.822
 4821SOL    HW214796   3.204   3.077   3.795
 4822SOL     OW14797   2.159   1.897   3.895
 4822SOL    HW114798   2.208   1.981   3.874
 4822SOL    HW214799   2.221   1.832   3.940
 4823SOL     OW14800   2.797   2.098   4.204
 4823SOL    HW114801   2.749   2.139   4.126
 4823SOL    HW214802   2.896   2.096   4.185
 4824SOL     OW14803   3.089   3.432   4.517
 4824SOL    HW114804   3.110   3.506   4.452
 4824SOL    HW214805   3.157   3.432   4.590
 4825SOL     OW14806   2.321   3.014   4.465
 4825SOL    HW114807   2.250   2.987   4.530
 4825SOL    HW214808   2.295   2.986   4.372
 4826SOL     OW14809   3.133   3.659   4.315
 4826SOL    HW114810   3.177   3.723   4.251
 4826SOL    HW214811   3.083   3.711   4.385
 4827SOL     OW14812   2.894   2.411   3.740
 4827SOL    HW114813   2.853   2.493   3.701
 4827SOL    HW214814   2.958   2.437   3.813
 4828SOL     OW14815   2.423   2.084   4.871
 4828SOL    HW114816   2.461   2.000   4.908
 4828SOL    HW214817   2.335   2.103   4.915
 4829SOL     OW14818   2.728   2.316   4.366
 4829SOL    HW114819   2.696   2.388   4.304
 4829SOL    HW214820   2.752   2.235   4.313
 4830SOL     OW14821   2.879   1.901   4.477
 4830SOL    HW114822   2.807   1.906   4.408
 4830SOL    HW214823   2.855   1.832   4.546
 4831SOL     OW14824   3.291   3.035   4.591
 4831SOL    HW114825   3.236   2.951   4.584
 4831SOL    HW214826   3.317   3.064   4.499
 4832SOL     OW14827   3.328   2.452   4.716
 4832SOL    HW114828   3.298   2.357   4.723
 4832SOL    HW214829   3.401   2.468   4.782
 4833SOL     OW14830   3.719   2.695   4.101
 4833SOL    HW114831   3.761   2.631   4.165
 4833SOL    HW214832   3.681   2.644   4.023
 4834SOL     OW14833   2.350   3.247   3.898
 4834SOL    HW114834   2.263   3.232   3.945
 4834SOL    HW214835   2.333   3.273   3.803
 4835SOL     OW14836   3.526   3.142   4.381
 4835SOL    HW114837   3.625   3.150   4.395
 4835SOL    HW214838   3.481   3.226   4.412
 4836SOL     OW14839   3.252   2.437   3.802
 4836SOL    HW114840   3.198   2.416   3.883
 4836SOL    HW214841   3.343   2.396   3.811
 4837SOL     OW14842   3.616   3.085   5.312
 4837SOL    HW114843   3.707   3.046   5.299
 4837SOL    HW214844   3.624   3.181   5.336
 4838SOL     OW14845   2.926   3.209   5.064
 4838SOL    HW114846   2.846   3.186   5.119
 4838SOL    HW214847   3.009   3.183   5.113
 4839SOL     OW14848   3.454   3.491   5.349
 4839SOL    HW114849   3.481   3.525   5.259
 4839SOL    HW214850   3.533   3.453   5.395
 4840SOL     OW14851   2.973   3.057   4.824
 4840SOL    HW114852   2.933   3.101   4.905
 4840SOL    HW214853   2.932   3.094   4.741
 4841SOL     OW14854   3.500   2.961   4.803
 4841SOL    HW114855   3.505   3.042   4.862
 4841SOL    HW214856   3.414   2.963   4.752
 4842SOL     OW14857   2.567   2.912   4.092
 4842SOL    HW114858   2.553   2.919   4.191
 4842SOL    HW214859   2.651   2.861   4.074
 4843SOL     OW14860   2.272   2.675   4.975
 4843SOL    HW114861   2.358   2.687   5.025
 4843SOL    HW214862   2.230   2.588   5.002
 4844SOL     OW14863   3.136   2.248   4.986
 4844SOL    HW114864   3.157   2.322   5.050
 4844SOL    HW214865   3.047   2.265   4.943
 4845SOL     OW14866   1.926   3.426   5.055
 4845SOL    HW114867   1.880   3.508   5.021
 4845SOL    HW214868   2.024   3.445   5.064
 4846SOL     OW14869   2.229   2.962   4.225
 4846SOL    HW114870   2.222   3.045   4.169
 4846SOL    HW214871   2.233   2.882   4.165
 4847SOL     OW14872   3.114   3.210   4.112
 4847SOL    HW114873   3.164   3.287   4.152
 4847SOL    HW214874   3.019   3.212   4.144
 4848SOL     OW14875   3.134   3.307   4.866
 4848SOL    HW114876   3.181   3.320   4.953
 4848SOL    HW214877   3.068   3.233   4.875
 4849SOL     OW14878   3.444   2.501   4.196
 4849SOL    HW114879   3.413   2.562   4.269
 4849SOL    HW214880   3.494   2.553   4.127
 4850SOL     OW14881   2.216   3.372   5.053
 4850SOL    HW114882   2.195   3.328   4.966
 4850SOL    HW214883   2.313   3.398   5.056
 4851SOL     OW14884   3.449   2.641   5.394
 4851SOL    HW114885   3.357   2.679   5.389
 4851SOL    HW214886   3.509   2.688   5.329
 4852SOL     OW14887   2.435   2.732   4.753
 4852SOL    HW114888   2.479   2.821   4.744
 4852SOL    HW214889   2.372   2.732   4.830
 4853SOL     OW14890   3.222   2.724   4.769
 4853SOL    HW114891   3.147   2.724   4.703
 4853SOL    HW214892   3.259   2.632   4.778
 4854SOL     OW14893   3.071   2.387   3.999
 4854SOL    HW114894   3.084   2.303   4.053
 4854SOL    HW214895   3.042   2.461   4.059
 4855SOL     OW14896   2.169   2.075   4.955
 4855SOL    HW114897   2.146   2.112   5.045
 4855SOL    HW214898   2.139   1.980   4.949
 4856SOL     OW14899   1.899   3.172   5.006
 4856SOL    HW114900   1.952   3.123   5.074
 4856SOL    HW214901   1.921   3.270   5.011
 4857SOL     OW14902   2.594   2.496   4.788
 4857SOL    HW114903   2.653   2.470   4.712
 4857SOL    HW214904   2.566   2.592   4.777
 4858SOL     OW14905   3.590   2.797   5.578
 4858SOL    HW114906   3.544   2.790   5.489
 4858SOL    HW214907   3.528   2.841   5.644
 4859SOL     OW14908   2.169   1.925   4.342
 4859SOL    HW114909   2.158   2.019   4.375
 4859SOL    HW214910   2.164   1.862   4.419
 4860SOL     OW14911   3.484   2.229   4.098
 4860SOL    HW114912   3.486   2.153   4.162
 4860SOL    HW214913   3.436   2.306   4.138
 4861SOL     OW14914   2.885   2.628   4.690
 4861SOL    HW114915   2.900   2.649   4.786
 4861SOL    HW214916   2.855   2.533   4.681
 4862SOL     OW14917   2.842   3.435   5.424
 4862SOL    HW114918   2.822   3.479   5.336
 4862SOL    HW214919   2.881   3.344   5.408
 4863SOL     OW14920   3.721   3.380   5.329
 4863SOL    HW114921   3.735   3.407   5.234
 4863SOL    HW214922   3.804   3.402   5.382
 4864SOL     OW14923   3.402   2.136   3.849
 4864SOL    HW114924   3.341   2.061   3.872
 4864SOL    HW214925   3.424   2.188   3.932
 4865SOL     OW14926   3.165   2.700   3.766
 4865SOL    HW114927   3.199   2.607   3.781
 4865SOL    HW214928   3.183   2.727   3.671
 4866SOL     OW14929   2.930   3.195   4.573
 4866SOL    HW114930   2.937   3.111   4.518
 4866SOL    HW214931   2.992   3.264   4.537
 4867SOL     OW14932   2.181   2.672   4.673
 4867SOL    HW114933   2.274   2.708   4.678
 4867SOL    HW214934   2.175   2.587   4.725
 4868SOL     OW14935   1.870   3.188   3.924
 4868SOL    HW114936   1.777   3.209   3.893
 4868SOL    HW214937   1.880   3.089   3.937
 4869SOL     OW14938   1.950   3.663   4.651
 4869SOL    HW114939   1.908   3.577   4.624
 4869SOL    HW214940   2.044   3.666   4.617
 4870SOL     OW14941   2.366   3.430   4.634
 4870SOL    HW114942   2.432   3.504   4.643
 4870SOL    HW214943   2.410   3.351   4.592
 4871SOL     OW14944   1.902   2.406   4.838
 4871SOL    HW114945   1.987   2.373   4.797
 4871SOL    HW214946   1.915   2.421   4.936
 4872SOL     OW14947   3.231   2.812   5.384
 4872SOL    HW114948   3.270   2.901   5.404
 4872SOL    HW214949   3.241   2.792   5.287
 4873SOL     OW14950   2.677   2.434   4.049
 4873SOL    HW114951   2.684   2.345   4.003
 4873SOL    HW214952   2.583   2.468   4.041
 4874SOL     OW14953   3.519   2.466   4.930
 4874SOL    HW114954   3.481   2.397   4.992
 4874SOL    HW214955   3.601   2.430   4.886
 4875SOL     OW14956   2.114   3.426   5.468
 4875SOL    HW114957   2.084   3.483   5.544
 4875SOL    HW214958   2.107   3.329   5.494
 4876SOL     OW14959   2.792   3.540   5.189
 4876SOL    HW114960   2.768   3.522   5.094
 4876SOL    HW214961   2.822   3.634   5.199
 4877SOL     OW14962   3.209   2.921   4.958
 4877SOL    HW114963   3.233   2.858   4.884
 4877SOL    HW214964   3.119   2.961   4.940
 4878SOL     OW14965   3.164   2.717   4.033
 4878SOL    HW114966   3.078   2.686   4.075
 4878SOL    HW214967   3.160   2.703   3.934
 4879SOL     OW14968   3.621   3.609   4.878
 4879SOL    HW114969   3.682   3.639   4.805
 4879SOL    HW214970   3.583   3.520   4.856
 4880SOL     OW14971   3.114   3.593   4.852
 4880SOL    HW114972   3.198   3.598   4.798
 4880SOL    HW214973   3.091   3.497   4.870
 4881SOL     OW14974   1.945   3.120   4.746
 4881SOL    HW114975   1.940   3.119   4.846
 4881SOL    HW214976   1.862   3.079   4.708
 4882SOL     OW14977   2.550   3.524   5.440
 4882SOL    HW114978   2.494   3.605   5.449
 4882SOL    HW214979   2.602   3.528   5.354
 4883SOL     OW14980   3.588   1.997   4.247
 4883SOL    HW114981   3.661   1.980   4.180
 4883SOL    HW214982   3.557   1.910   4.285
 4884SOL     OW14983   3.250   3.435   4.201
 4884SOL    HW114984   3.317   3.447   4.127
 4884SOL    HW214985   3.210   3.524   4.224
 4885SOL     OW14986   1.992   3.656   5.575
 4885SOL    HW114987   1.951   3.582   5.628
 4885SOL    HW214988   2.056   3.707   5.633
 4886SOL     OW14989   3.142   2.789   4.396
 4886SOL    HW114990   3.202   2.708   4.398
 4886SOL    HW214991   3.182   2.858   4.336
 4887SOL     OW14992   2.692   3.135   5.146
 4887SOL    HW114993   2.687   3.168   5.241
 4887SOL    HW214994   2.606   3.154   5.100
 4888SOL     OW14995   2.534   3.478   3.878
 4888SOL    HW114996   2.543   3.488   3.779
 4888SOL    HW214997   2.494   3.389   3.899
 4889SOL     OW14998   3.512   3.582   5.118
 4889SOL    HW114999   3.565   3.592   5.034
 4889SOL    HW215000   3.485   3.672   5.152
 4890SOL     OW15001   3.703   2.037   4.687
 4890SOL    HW115002   3.742   1.952   4.651
 4890SOL    HW215003   3.605   2.039   4.668
 4891SOL     OW15004   2.125   2.188   4.444
 4891SOL    HW115005   2.046   2.239   4.410
 4891SOL    HW215006   2.116   2.173   4.542
 4892SOL     OW15007   3.056   3.474   3.755
 4892SOL    HW115008   3.062   3.381   3.792
 4892SOL    HW215009   2.997   3.474   3.675
 4893SOL     OW15010   2.778   2.772   4.015
 4893SOL    HW115011   2.841   2.810   3.947
 4893SOL    HW215012   2.818   2.689   4.054
 4894SOL     OW15013   3.366   3.469   3.768
 4894SOL    HW115014   3.274   3.506   3.775
 4894SOL    HW215015   3.404   3.489   3.678
 4895SOL     OW15016   2.234   3.150   5.214
 4895SOL    HW115017   2.221   3.243   5.180
 4895SOL    HW215018   2.150   3.098   5.201
 4896SOL     OW15019   3.476   3.154   5.013
 4896SOL    HW115020   3.536   3.157   5.093
 4896SOL    HW215021   3.401   3.218   5.026
 4897SOL     OW15022   2.901   2.960   4.420
 4897SOL    HW115023   2.831   2.913   4.474
 4897SOL    HW215024   2.960   2.892   4.377
 4898SOL     OW15025   2.876   2.098   4.695
 4898SOL    HW115026   2.868   2.062   4.602
 4898SOL    HW215027   2.874   2.022   4.760
 4899SOL     OW15028   2.452   3.349   4.215
 4899SOL    HW115029   2.494   3.291   4.145
 4899SOL    HW215030   2.408   3.428   4.171
 4900SOL     OW15031   3.571   2.247   5.105
 4900SOL    HW115032   3.644   2.316   5.109
 4900SOL    HW215033   3.599   2.172   5.046
 4901SOL     OW15034   2.117   3.210   4.014
 4901SOL    HW115035   2.021   3.211   3.987
 4901SOL    HW215036   2.129   3.263   4.098
 4902SOL     OW15037   1.937   2.207   3.757
 4902SOL    HW115038   1.845   2.179   3.728
 4902SOL    HW215039   1.968   2.284   3.701
 4903SOL     OW15040   3.302   2.718   5.122
 4903SOL    HW115041   3.245   2.770   5.059
 4903SOL    HW215042   3.398   2.730   5.098
 4904SOL     OW15043   1.934   2.028   4.042
 4904SOL    HW115044   1.917   2.111   3.988
 4904SOL    HW215045   2.024   1.991   4.020
 4905SOL     OW15046   3.045   3.197   3.843
 4905SOL    HW115047   2.946   3.186   3.845
 4905SOL    HW215048   3.079   3.212   3.936
 4906SOL     OW15049   3.355   3.629   4.683
 4906SOL    HW115050   3.388   3.693   4.614
 4906SOL    HW215051   3.421   3.623   4.758
 4907SOL     OW15052   3.312   3.082   5.357
 4907SOL    HW115053   3.303   3.072   5.456
 4907SOL    HW215054   3.408   3.075   5.331
 4908SOL     OW15055   2.252   3.603   5.284
 4908SOL    HW115056   2.161   3.644   5.282
 4908SOL    HW215057   2.245   3.509   5.316
 4909SOL     OW15058   3.536   2.745   4.978
 4909SOL    HW115059   3.509   2.656   4.941
 4909SOL    HW215060   3.537   2.813   4.905
 4910SOL     OW15061   3.087   2.187   4.173
 4910SOL    HW115062   3.152   2.113   4.162
 4910SOL    HW215063   3.107   2.237   4.257
 4911SOL     OW15064   3.639   2.204   5.366
 4911SOL    HW115065   3.622   2.235   5.272
 4911SOL    HW215066   3.555   2.167   5.404
 4912SOL     OW15067   3.592   2.796   5.241
 4912SOL    HW115068   3.630   2.887   5.256
 4912SOL    HW215069   3.584   2.779   5.142
 4913SOL     OW15070   2.721   3.236   3.740
 4913SOL    HW115071   2.675   3.251   3.828
 4913SOL    HW215072   2.765   3.321   3.710
 4914SOL     OW15073   2.523   3.652   4.677
 4914SOL    HW115074   2.477   3.740   4.664
 4914SOL    HW215075   2.622   3.664   4.670
 4915SOL     OW15076   2.721   2.818   4.585
 4915SOL    HW115077   2.775   2.749   4.633
 4915SOL    HW215078   2.689   2.887   4.651
 4916SOL     OW15079   2.945   2.846   3.811
 4916SOL    HW115080   2.922   2.899   3.729
 4916SOL    HW215081   3.026   2.790   3.792
 4917SOL     OW15082   3.723   3.431   4.575
 4917SOL    HW115083   3.652   3.419   4.505
 4917SOL    HW215084   3.724   3.352   4.635
 4918SOL     OW15085   2.083   3.176   5.568
 4918SOL    HW115086   2.018   3.103   5.547
 4918SOL    HW215087   2.087   3.190   5.666
 4919SOL     OW15088   1.941   3.102   4.377
 4919SOL    HW115089   1.940   3.055   4.465
 4919SOL    HW215090   2.023   3.074   4.326
 4920SOL     OW15091   2.534   3.253   5.348
 4920SOL    HW115092   2.456   3.203   5.386
 4920SOL    HW215093   2.531   3.348   5.379
 4921SOL     OW15094   3.686   2.054   4.951
 4921SOL    HW115095   3.682   1.964   4.995
 4921SOL    HW215096   3.689   2.043   4.852
 4922SOL     OW15097   3.567   3.349   4.828
 4922SOL    HW115098   3.474   3.324   4.801
 4922SOL    HW215099   3.593   3.299   4.910
 4923SOL     OW15100   2.674   3.448   4.411
 4923SOL    HW115101   2.706   3.458   4.317
 4923SOL    HW215102   2.595   3.386   4.413
 4924SOL     OW15103   3.286   2.076   4.836
 4924SOL    HW115104   3.338   2.011   4.891
 4924SOL    HW215105   3.237   2.139   4.897
 4925SOL     OW15106   2.863   1.896   4.878
 4925SOL    HW115107   2.800   1.824   4.847
 4925SOL    HW215108   2.956   1.860   4.878
 4926SOL     OW15109   2.632   3.192   4.025
 4926SOL    HW115110   2.586   3.105   4.042
 4926SOL    HW215111   2.723   3.189   4.066
 4927SOL     OW15112   2.480   3.429   5.008
 4927SOL    HW115113   2.475   3.511   5.065
 4927SOL    HW215114   2.569   3.426   4.963
 4928SOL     OW15115   3.214   1.914   3.892
 4928SOL    HW115116   3.249   1.873   3.808
 4928SOL    HW215117   3.124   1.876   3.912
 4929SOL     OW15118   3.162   2.315   4.415
 4929SOL    HW115119   3.103   2.395   4.419
 4929SOL    HW215120   3.177   2.280   4.508
 4930SOL     OW15121   3.455   2.083   4.606
 4930SOL    HW115122   3.371   2.082   4.660
 4930SOL    HW215123   3.457   2.166   4.550
 4931SOL     OW15124   1.901   2.939   4.024
 4931SOL    HW115125   2.000   2.928   4.015
 4931SOL    HW215126   1.861   2.853   4.056
 4932SOL     OW15127   2.737   3.508   4.061
 4932SOL    HW115128   2.660   3.473   4.007
 4932SOL    HW215129   2.705   3.579   4.123
 4933SOL     OW15130   2.087   2.137   6.582
 4933SOL    HW115131   2.122   2.120   6.674
 4933SOL    HW215132   1.999   2.092   6.570
 4934SOL     OW15133   1.881   2.230   6.233
 4934SOL    HW115134   1.799   2.273   6.272
 4934SOL    HW215135   1.853   2.157   6.170
 4935SOL     OW15136   2.431   3.137   6.751
 4935SOL    HW115137   2.338   3.130   6.714
 4935SOL    HW215138   2.442   3.226   6.795
 4936SOL     OW15139   3.417   3.373   6.289
 4936SOL    HW115140   3.360   3.357   6.370
 4936SOL    HW215141   3.358   3.383   6.209
 4937SOL     OW15142   2.997   2.565   6.303
 4937SOL    HW115143   3.054   2.643   6.278
 4937SOL    HW215144   2.937   2.591   6.379
 4938SOL     OW15145   3.617   2.469   5.817
 4938SOL    HW115146   3.605   2.456   5.718
 4938SOL    HW215147   3.587   2.388   5.866
 4939SOL     OW15148   2.630   3.006   6.609
 4939SOL    HW115149   2.552   3.023   6.669
 4939SOL    HW215150   2.664   3.093   6.573
 4940SOL     OW15151   2.712   2.660   7.409
 4940SOL    HW115152   2.708   2.736   7.474
 4940SOL    HW215153   2.734   2.696   7.318
 4941SOL     OW15154   2.547   2.874   6.251
 4941SOL    HW115155   2.616   2.858   6.321
 4941SOL    HW215156   2.474   2.931   6.289
 4942SOL     OW15157   2.548   3.023   7.389
 4942SOL    HW115158   2.608   3.102   7.403
 4942SOL    HW215159   2.462   3.054   7.348
 4943SOL     OW15160   2.197   3.297   6.647
 4943SOL    HW115161   2.119   3.266   6.594
 4943SOL    HW215162   2.255   3.355   6.590
 4944SOL     OW15163   3.322   3.367   6.925
 4944SOL    HW115164   3.346   3.461   6.951
 4944SOL    HW215165   3.306   3.313   7.007
 4945SOL     OW15166   3.465   2.309   6.323
 4945SOL    HW115167   3.391   2.355   6.273
 4945SOL    HW215168   3.516   2.377   6.376
 4946SOL     OW15169   2.093   3.575   6.069
 4946SOL    HW115170   2.127   3.652   6.123
 4946SOL    HW215171   2.137   3.575   5.979
 4947SOL     OW15172   2.989   3.203   7.276
 4947SOL    HW115173   3.036   3.203   7.364
 4947SOL    HW215174   2.941   3.116   7.265
 4948SOL     OW15175   2.092   3.296   6.124
 4948SOL    HW115176   2.066   3.392   6.124
 4948SOL    HW215177   2.021   3.242   6.169
 4949SOL     OW15178   2.102   2.953   6.472
 4949SOL    HW115179   2.116   2.869   6.524
 4949SOL    HW215180   2.047   3.017   6.527
 4950SOL     OW15181   2.482   3.648   7.025
 4950SOL    HW115182   2.390   3.631   7.060
 4950SOL    HW215183   2.510   3.740   7.051
 4951SOL     OW15184   3.456   1.976   7.066
 4951SOL    HW115185   3.438   2.043   6.994
 4951SOL    HW215186   3.453   2.022   7.155
 4952SOL     OW15187   1.984   2.505   6.149
 4952SOL    HW115188   1.939   2.417   6.166
 4952SOL    HW215189   1.983   2.559   6.233
 4953SOL     OW15190   3.704   3.629   5.945
 4953SOL    HW115191   3.758   3.600   6.025
 4953SOL    HW215192   3.734   3.719   5.916
 4954SOL     OW15193   1.889   3.458   5.703
 4954SOL    HW115194   1.870   3.362   5.724
 4954SOL    HW215195   1.856   3.516   5.778
 4955SOL     OW15196   3.551   2.784   6.198
 4955SOL    HW115197   3.646   2.755   6.206
 4955SOL    HW215198   3.543   2.849   6.123
 4956SOL     OW15199   3.503   2.970   6.018
 4956SOL    HW115200   3.589   2.972   5.966
 4956SOL    HW215201   3.517   3.017   6.106
 4957SOL     OW15202   1.975   2.599   7.183
 4957SOL    HW115203   2.063   2.586   7.228
 4957SOL    HW215204   1.962   2.696   7.161
 4958SOL     OW15205   2.475   3.227   6.312
 4958SOL    HW115206   2.426   3.140   6.321
 4958SOL    HW215207   2.452   3.270   6.225
 4959SOL     OW15208   3.155   3.090   7.009
 4959SOL    HW115209   3.192   3.017   6.951
 4959SOL    HW215210   3.207   3.095   7.094
 4960SOL     OW15211   2.671   1.866   6.088
 4960SOL    HW115212   2.711   1.957   6.079
 4960SOL    HW215213   2.571   1.874   6.094
 4961SOL     OW15214   2.059   2.838   6.850
 4961SOL    HW115215   2.148   2.793   6.836
 4961SOL    HW215216   1.986   2.773   6.831
 4962SOL     OW15217   3.387   2.861   5.776
 4962SOL    HW115218   3.324   2.785   5.789
 4962SOL    HW215219   3.435   2.879   5.862
 4963SOL     OW15220   3.049   3.654   7.202
 4963SOL    HW115221   3.073   3.714   7.126
 4963SOL    HW215222   3.056   3.559   7.172
 4964SOL     OW15223   2.179   2.113   7.387
 4964SOL    HW115224   2.250   2.184   7.393
 4964SOL    HW215225   2.091   2.152   7.415
 4965SOL     OW15226   3.328   3.279   6.539
 4965SOL    HW115227   3.269   3.285   6.619
 4965SOL    HW215228   3.313   3.191   6.493
 4966SOL     OW15229   3.529   3.576   6.158
 4966SOL    HW115230   3.488   3.553   6.070
 4966SOL    HW215231   3.511   3.502   6.223
 4967SOL     OW15232   3.143   2.207   6.530
 4967SOL    HW115233   3.057   2.157   6.517
 4967SOL    HW215234   3.205   2.153   6.586
 4968SOL     OW15235   3.438   3.524   5.893
 4968SOL    HW115236   3.527   3.570   5.896
 4968SOL    HW215237   3.417   3.500   5.798
 4969SOL     OW15238   2.669   2.467   7.051
 4969SOL    HW115239   2.622   2.464   7.140
 4969SOL    HW215240   2.618   2.412   6.985
 4970SOL     OW15241   3.256   2.331   7.260
 4970SOL    HW115242   3.236   2.374   7.348
 4970SOL    HW215243   3.334   2.269   7.269
 4971SOL     OW15244   2.835   2.752   7.158
 4971SOL    HW115245   2.881   2.668   7.129
 4971SOL    HW215246   2.779   2.786   7.083
 4972SOL     OW15247   2.853   2.272   6.828
 4972SOL    HW115248   2.776   2.306   6.882
 4972SOL    HW215249   2.819   2.221   6.749
 4973SOL     OW15250   2.903   2.563   6.015
 4973SOL    HW115251   2.929   2.559   6.111
 4973SOL    HW215252   2.818   2.512   6.001
 4974SOL     OW15253   1.938   2.673   6.375
 4974SOL    HW115254   2.037   2.661   6.384
 4974SOL    HW215255   1.914   2.768   6.396
 4975SOL     OW15256   1.992   3.683   7.157
 4975SOL    HW115257   1.982   3.668   7.256
 4975SOL    HW215258   1.906   3.719   7.121
 4976SOL     OW15259   3.581   2.447   7.417
 4976SOL    HW115260   3.555   2.536   7.381
 4976SOL    HW215261   3.579   2.379   7.344
 4977SOL     OW15262   3.224   3.006   6.131
 4977SOL    HW115263   3.307   2.977   6.083
 4977SOL    HW215264   3.175   3.073   6.075
 4978SOL     OW15265   2.412   2.058   6.471
 4978SOL    HW115266   2.407   2.053   6.571
 4978SOL    HW215267   2.414   2.154   6.442
 4979SOL     OW15268   2.870   3.318   6.063
 4979SOL    HW115269   2.824   3.390   6.011
 4979SOL    HW215270   2.866   3.338   6.161
 4980SOL     OW15271   2.213   3.663   6.439
 4980SOL    HW115272   2.263   3.577   6.445
 4980SOL    HW215273   2.278   3.740   6.436
 4981SOL     OW15274   3.657   2.928   6.459
 4981SOL    HW115275   3.595   2.913   6.383
 4981SOL    HW215276   3.605   2.939   6.544
 4982SOL     OW15277   3.089   3.412   7.092
 4982SOL    HW115278   3.095   3.335   7.156
 4982SOL    HW215279   3.037   3.386   7.012
 4983SOL     OW15280   3.320   2.597   6.314
 4983SOL    HW115281   3.315   2.532   6.389
 4983SOL    HW215282   3.400   2.656   6.327
 4984SOL     OW15283   2.323   3.128   7.313
 4984SOL    HW115284   2.273   3.129   7.227
 4984SOL    HW215285   2.260   3.110   7.389
 4985SOL     OW15286   2.973   3.638   5.823
 4985SOL    HW115287   2.913   3.576   5.873
 4985SOL    HW215288   3.004   3.594   5.738
 4986SOL     OW15289   2.064   2.147   7.084
 4986SOL    HW115290   1.984   2.207   7.071
 4986SOL    HW215291   2.054   2.098   7.170
 4987SOL     OW15292   3.494   3.239   5.667
 4987SOL    HW115293   3.462   3.333   5.657
 4987SOL    HW215294   3.418   3.176   5.655
 4988SOL     OW15295   2.326   3.605   5.909
 4988SOL    HW115296   2.359   3.644   5.995
 4988SOL    HW215297   2.402   3.598   5.844
 4989SOL     OW15298   3.262   1.969   6.012
 4989SOL    HW115299   3.238   1.932   5.922
 4989SOL    HW215300   3.361   1.985   6.016
 4990SOL     OW15301   2.111   3.647   6.827
 4990SOL    HW115302   2.168   3.582   6.877
 4990SOL    HW215303   2.095   3.614   6.734
 4991SOL     OW15304   2.802   3.560   6.490
 4991SOL    HW115305   2.882   3.503   6.511
 4991SOL    HW215306   2.753   3.520   6.413
 4992SOL     OW15307   3.409   2.084   7.315
 4992SOL    HW115308   3.404   2.121   7.407
 4992SOL    HW215309   3.337   2.015   7.303
 4993SOL     OW15310   2.643   2.126   7.335
 4993SOL    HW115311   2.710   2.065   7.378
 4993SOL    HW215312   2.570   2.145   7.400
 4994SOL     OW15313   2.750   3.376   6.781
 4994SOL    HW115314   2.727   3.351   6.687
 4994SOL    HW215315   2.811   3.307   6.820
 4995SOL     OW15316   3.213   2.452   7.019
 4995SOL    HW115317   3.241   2.409   7.104
 4995SOL    HW215318   3.238   2.548   7.020
 4996SOL     OW15319   2.665   3.264   6.510
 4996SOL    HW115320   2.755   3.278   6.468
 4996SOL    HW215321   2.594   3.266   6.439
 4997SOL     OW15322   2.784   2.365   6.485
 4997SOL    HW115323   2.759   2.356   6.389
 4997SOL    HW215324   2.832   2.283   6.516
 4998SOL     OW15325   2.401   1.926   6.098
 4998SOL    HW115326   2.320   1.927   6.156
 4998SOL    HW215327   2.404   2.009   6.043
 4999SOL     OW15328   3.296   3.050   5.627
 4999SOL    HW115329   3.328   2.974   5.684
 4999SOL    HW215330   3.204   3.077   5.657
 5000SOL     OW15331   2.797   2.098   6.066
 5000SOL    HW115332   2.749   2.139   5.988
 5000SOL    HW215333   2.896   2.096   6.047
 5001SOL     OW15334   2.938   2.545   7.050
 5001SOL    HW115335   2.858   2.484   7.053
 5001SOL    HW215336   3.019   2.492   7.026
 5002SOL     OW15337   3.089   3.432   6.379
 5002SOL    HW115338   3.110   3.506   6.314
 5002SOL    HW215339   3.157   3.432   6.452
 5003SOL     OW15340   2.321   3.014   6.327
 5003SOL    HW115341   2.250   2.987   6.392
 5003SOL    HW215342   2.295   2.986   6.234
 5004SOL     OW15343   3.133   3.659   6.177
 5004SOL    HW115344   3.177   3.723   6.113
 5004SOL    HW215345   3.083   3.711   6.247
 5005SOL     OW15346   1.940   2.418   6.972
 5005SOL    HW115347   2.032   2.417   6.931
 5005SOL    HW215348   1.934   2.492   7.039
 5006SOL     OW15349   2.728   2.316   6.228
 5006SOL    HW115350   2.696   2.388   6.166
 5006SOL    HW215351   2.752   2.235   6.175
 5007SOL     OW15352   2.879   1.901   6.339
 5007SOL    HW115353   2.807   1.906   6.270
 5007SOL    HW215354   2.855   1.832   6.408
 5008SOL     OW15355   3.291   3.035   6.453
 5008SOL    HW115356   3.236   2.951   6.446
 5008SOL    HW215357   3.317   3.064   6.361
 5009SOL     OW15358   3.328   2.452   6.578
 5009SOL    HW115359   3.298   2.357   6.585
 5009SOL    HW215360   3.401   2.468   6.644
 5010SOL     OW15361   3.719   2.695   5.963
 5010SOL    HW115362   3.761   2.631   6.027
 5010SOL    HW215363   3.681   2.644   5.885
 5011SOL     OW15364   2.350   3.247   5.760
 5011SOL    HW115365   2.263   3.232   5.807
 5011SOL    HW215366   2.333   3.273   5.665
 5012SOL     OW15367   3.526   3.142   6.243
 5012SOL    HW115368   3.625   3.150   6.257
 5012SOL    HW215369   3.481   3.226   6.274
 5013SOL     OW15370   3.252   2.437   5.664
 5013SOL    HW115371   3.198   2.416   5.745
 5013SOL    HW215372   3.343   2.396   5.673
 5014SOL     OW15373   3.616   3.085   7.174
 5014SOL    HW115374   3.707   3.046   7.161
 5014SOL    HW215375   3.624   3.181   7.198
 5015SOL     OW15376   2.926   3.209   6.926
 5015SOL    HW115377   2.846   3.186   6.981
 5015SOL    HW215378   3.009   3.183   6.975
 5016SOL     OW15379   3.454   3.491   7.211
 5016SOL    HW115380   3.481   3.525   7.121
 5016SOL    HW215381   3.533   3.453   7.257
 5017SOL     OW15382   2.973   3.057   6.686
 5017SOL    HW115383   2.933   3.101   6.767
 5017SOL    HW215384   2.932   3.094   6.603
 5018SOL     OW15385   3.500   2.961   6.665
 5018SOL    HW115386   3.505   3.042   6.724
 5018SOL    HW215387   3.414   2.963   6.614
 5019SOL     OW15388   2.777   1.951   6.988
 5019SOL    HW115389   2.802   1.931   6.893
 5019SOL    HW215390   2.849   2.007   7.030
 5020SOL     OW15391   2.842   2.978   7.305
 5020SOL    HW115392   2.743   2.984   7.315
 5020SOL    HW215393   2.865   2.898   7.249
 5021SOL     OW15394   2.567   2.912   5.954
 5021SOL    HW115395   2.553   2.919   6.053
 5021SOL    HW215396   2.651   2.861   5.936
 5022SOL     OW15397   2.272   2.675   6.837
 5022SOL    HW115398   2.358   2.687   6.887
 5022SOL    HW215399   2.230   2.588   6.864
 5023SOL     OW15400   3.136   2.248   6.848
 5023SOL    HW115401   3.157   2.322   6.912
 5023SOL    HW215402   3.047   2.265   6.805
 5024SOL     OW15403   1.926   3.426   6.917
 5024SOL    HW115404   1.880   3.508   6.883
 5024SOL    HW215405   2.024   3.445   6.926
 5025SOL     OW15406   2.229   2.962   6.087
 5025SOL    HW115407   2.222   3.045   6.031
 5025SOL    HW215408   2.233   2.882   6.027
 5026SOL     OW15409   3.114   3.210   5.974
 5026SOL    HW115410   3.164   3.287   6.014
 5026SOL    HW215411   3.019   3.212   6.006
 5027SOL     OW15412   3.134   3.307   6.728
 5027SOL    HW115413   3.181   3.320   6.815
 5027SOL    HW215414   3.068   3.233   6.737
 5028SOL     OW15415   3.444   2.501   6.058
 5028SOL    HW115416   3.413   2.562   6.131
 5028SOL    HW215417   3.494   2.553   5.989
 5029SOL     OW15418   2.216   3.372   6.915
 5029SOL    HW115419   2.195   3.328   6.828
 5029SOL    HW215420   2.313   3.398   6.918
 5030SOL     OW15421   3.449   2.641   7.256
 5030SOL    HW115422   3.357   2.679   7.251
 5030SOL    HW215423   3.509   2.688   7.191
 5031SOL     OW15424   2.875   1.967   7.356
 5031SOL    HW115425   2.881   2.052   7.304
 5031SOL    HW215426   2.907   1.891   7.299
 5032SOL     OW15427   2.366   1.912   7.326
 5032SOL    HW115428   2.324   1.855   7.256
 5032SOL    HW215429   2.300   1.981   7.358
 5033SOL     OW15430   2.435   2.732   6.615
 5033SOL    HW115431   2.479   2.821   6.606
 5033SOL    HW215432   2.372   2.732   6.692
 5034SOL     OW15433   3.222   2.724   6.631
 5034SOL    HW115434   3.147   2.724   6.565
 5034SOL    HW215435   3.259   2.632   6.640
 5035SOL     OW15436   3.071   2.387   5.861
 5035SOL    HW115437   3.084   2.303   5.915
 5035SOL    HW215438   3.042   2.461   5.921
 5036SOL     OW15439   2.169   2.075   6.817
 5036SOL    HW115440   2.146   2.112   6.907
 5036SOL    HW215441   2.139   1.980   6.811
 5037SOL     OW15442   1.899   3.172   6.868
 5037SOL    HW115443   1.952   3.123   6.936
 5037SOL    HW215444   1.921   3.270   6.873
 5038SOL     OW15445   3.590   2.797   7.440
 5038SOL    HW115446   3.544   2.790   7.351
 5038SOL    HW215447   3.528   2.841   7.506
 5039SOL     OW15448   2.169   1.925   6.204
 5039SOL    HW115449   2.158   2.019   6.237
 5039SOL    HW215450   2.164   1.862   6.281
 5040SOL     OW15451   3.484   2.229   5.960
 5040SOL    HW115452   3.486   2.153   6.024
 5040SOL    HW215453   3.436   2.306   6.000
 5041SOL     OW15454   2.885   2.628   6.552
 5041SOL    HW115455   2.900   2.649   6.648
 5041SOL    HW215456   2.855   2.533   6.543
 5042SOL     OW15457   2.842   3.435   7.286
 5042SOL    HW115458   2.822   3.479   7.198
 5042SOL    HW215459   2.881   3.344   7.270
 5043SOL     OW15460   3.721   3.380   7.191
 5043SOL    HW115461   3.735   3.407   7.096
 5043SOL    HW215462   3.804   3.402   7.244
 5044SOL     OW15463   2.212   2.760   7.390
 5044SOL    HW115464   2.288   2.804   7.438
 5044SOL    HW215465   2.247   2.713   7.308
 5045SOL     OW15466   3.402   2.136   5.711
 5045SOL    HW115467   3.341   2.061   5.734
 5045SOL    HW215468   3.424   2.188   5.794
 5046SOL     OW15469   3.165   2.700   5.628
 5046SOL    HW115470   3.199   2.607   5.643
 5046SOL    HW215471   3.183   2.727   5.533
 5047SOL     OW15472   2.930   3.195   6.435
 5047SOL    HW115473   2.937   3.111   6.380
 5047SOL    HW215474   2.992   3.264   6.399
 5048SOL     OW15475   2.181   2.672   6.535
 5048SOL    HW115476   2.274   2.708   6.540
 5048SOL    HW215477   2.175   2.587   6.587
 5049SOL     OW15478   3.000   2.242   7.264
 5049SOL    HW115479   2.955   2.305   7.328
 5049SOL    HW215480   3.093   2.273   7.247
 5050SOL     OW15481   3.022   2.069   7.063
 5050SOL    HW115482   3.022   2.133   7.140
 5050SOL    HW215483   3.050   2.117   6.980
 5051SOL     OW15484   1.870   3.188   5.786
 5051SOL    HW115485   1.777   3.209   5.755
 5051SOL    HW215486   1.880   3.089   5.799
 5052SOL     OW15487   1.950   3.663   6.513
 5052SOL    HW115488   1.908   3.577   6.486
 5052SOL    HW215489   2.044   3.666   6.479
 5053SOL     OW15490   2.366   3.430   6.496
 5053SOL    HW115491   2.432   3.504   6.505
 5053SOL    HW215492   2.410   3.351   6.454
 5054SOL     OW15493   2.864   2.658   6.824
 5054SOL    HW115494   2.905   2.626   6.910
 5054SOL    HW215495   2.768   2.631   6.821
 5055SOL     OW15496   1.902   2.406   6.700
 5055SOL    HW115497   1.987   2.373   6.659
 5055SOL    HW215498   1.915   2.421   6.798
 5056SOL     OW15499   2.051   2.382   7.308
 5056SOL    HW115500   2.110   2.342   7.238
 5056SOL    HW215501   1.993   2.453   7.267
 5057SOL     OW15502   3.231   2.812   7.246
 5057SOL    HW115503   3.270   2.901   7.266
 5057SOL    HW215504   3.241   2.792   7.149
 5058SOL     OW15505   3.519   2.466   6.792
 5058SOL    HW115506   3.481   2.397   6.854
 5058SOL    HW215507   3.601   2.430   6.748
 5059SOL     OW15508   2.114   3.426   7.330
 5059SOL    HW115509   2.084   3.483   7.406
 5059SOL    HW215510   2.107   3.329   7.356
 5060SOL     OW15511   2.792   3.540   7.051
 5060SOL    HW115512   2.768   3.522   6.956
 5060SOL    HW215513   2.822   3.634   7.061
 5061SOL     OW15514   2.021   2.999   7.052
 5061SOL    HW115515   2.043   2.938   7.128
 5061SOL    HW215516   2.031   2.950   6.966
 5062SOL     OW15517   3.209   2.921   6.820
 5062SOL    HW115518   3.233   2.858   6.746
 5062SOL    HW215519   3.119   2.961   6.802
 5063SOL     OW15520   3.164   2.717   5.895
 5063SOL    HW115521   3.078   2.686   5.937
 5063SOL    HW215522   3.160   2.703   5.796
 5064SOL     OW15523   3.621   3.609   6.740
 5064SOL    HW115524   3.682   3.639   6.667
 5064SOL    HW215525   3.583   3.520   6.718
 5065SOL     OW15526   3.114   3.593   6.714
 5065SOL    HW115527   3.198   3.598   6.660
 5065SOL    HW215528   3.091   3.497   6.732
 5066SOL     OW15529   1.945   3.120   6.608
 5066SOL    HW115530   1.940   3.119   6.708
 5066SOL    HW215531   1.862   3.079   6.570
 5067SOL     OW15532   2.550   3.524   7.302
 5067SOL    HW115533   2.494   3.605   7.311
 5067SOL    HW215534   2.602   3.528   7.216
 5068SOL     OW15535   3.588   1.997   6.109
 5068SOL    HW115536   3.661   1.980   6.042
 5068SOL    HW215537   3.557   1.910   6.147
 5069SOL     OW15538   3.250   3.435   6.063
 5069SOL    HW115539   3.317   3.447   5.989
 5069SOL    HW215540   3.210   3.524   6.086
 5070SOL     OW15541   1.992   3.656   7.437
 5070SOL    HW115542   1.951   3.582   7.490
 5070SOL    HW215543   2.056   3.707   7.495
 5071SOL     OW15544   3.142   2.789   6.258
 5071SOL    HW115545   3.202   2.708   6.260
 5071SOL    HW215546   3.182   2.858   6.198
 5072SOL     OW15547   2.692   3.135   7.008
 5072SOL    HW115548   2.687   3.168   7.103
 5072SOL    HW215549   2.606   3.154   6.962
 5073SOL     OW15550   2.534   3.478   5.740
 5073SOL    HW115551   2.543   3.488   5.641
 5073SOL    HW215552   2.494   3.389   5.761
 5074SOL     OW15553   3.512   3.582   6.980
 5074SOL    HW115554   3.565   3.592   6.896
 5074SOL    HW215555   3.485   3.672   7.014
 5075SOL     OW15556   3.703   2.037   6.549
 5075SOL    HW115557   3.742   1.952   6.513
 5075SOL    HW215558   3.605   2.039   6.530
 5076SOL     OW15559   2.125   2.188   6.306
 5076SOL    HW115560   2.046   2.239   6.272
 5076SOL    HW215561   2.116   2.173   6.404
 5077SOL     OW15562   3.056   3.474   5.617
 5077SOL    HW115563   3.062   3.381   5.654
 5077SOL    HW215564   2.997   3.474   5.537
 5078SOL     OW15565   2.684   2.864   6.958
 5078SOL    HW115566   2.724   2.863   6.866
 5078SOL    HW215567   2.694   2.956   6.998
 5079SOL     OW15568   2.778   2.772   5.877
 5079SOL    HW115569   2.841   2.810   5.809
 5079SOL    HW215570   2.818   2.689   5.916
 5080SOL     OW15571   3.366   3.469   5.630
 5080SOL    HW115572   3.274   3.506   5.637
 5080SOL    HW215573   3.404   3.489   5.540
 5081SOL     OW15574   2.234   3.150   7.076
 5081SOL    HW115575   2.221   3.243   7.042
 5081SOL    HW215576   2.150   3.098   7.063
 5082SOL     OW15577   3.476   3.154   6.875
 5082SOL    HW115578   3.536   3.157   6.955
 5082SOL    HW215579   3.401   3.218   6.888
 5083SOL     OW15580   2.901   2.960   6.282
 5083SOL    HW115581   2.831   2.913   6.336
 5083SOL    HW215582   2.960   2.892   6.239
 5084SOL     OW15583   2.876   2.098   6.557
 5084SOL    HW115584   2.868   2.062   6.464
 5084SOL    HW215585   2.874   2.022   6.622
 5085SOL     OW15586   2.452   3.349   6.077
 5085SOL    HW115587   2.494   3.291   6.007
 5085SOL    HW215588   2.408   3.428   6.033
 5086SOL     OW15589   3.571   2.247   6.967
 5086SOL    HW115590   3.644   2.316   6.971
 5086SOL    HW215591   3.599   2.172   6.908
 5087SOL     OW15592   2.117   3.210   5.876
 5087SOL    HW115593   2.021   3.211   5.849
 5087SOL    HW215594   2.129   3.263   5.960
 5088SOL     OW15595   1.967   2.875   7.312
 5088SOL    HW115596   1.890   2.842   7.366
 5088SOL    HW215597   2.052   2.845   7.354
 5089SOL     OW15598   2.534   2.065   7.075
 5089SOL    HW115599   2.624   2.049   7.035
 5089SOL    HW215600   2.542   2.070   7.174
 5090SOL     OW15601   3.302   2.718   6.984
 5090SOL    HW115602   3.245   2.770   6.921
 5090SOL    HW215603   3.398   2.730   6.960
 5091SOL     OW15604   3.045   3.197   5.705
 5091SOL    HW115605   2.946   3.186   5.707
 5091SOL    HW215606   3.079   3.212   5.798
 5092SOL     OW15607   2.475   2.704   7.017
 5092SOL    HW115608   2.531   2.785   7.000
 5092SOL    HW215609   2.534   2.624   7.020
 5093SOL     OW15610   3.355   3.629   6.545
 5093SOL    HW115611   3.388   3.693   6.476
 5093SOL    HW215612   3.421   3.623   6.620
 5094SOL     OW15613   3.312   3.082   7.219
 5094SOL    HW115614   3.303   3.072   7.318
 5094SOL    HW215615   3.408   3.075   7.193
 5095SOL     OW15616   2.252   3.603   7.146
 5095SOL    HW115617   2.161   3.644   7.144
 5095SOL    HW215618   2.245   3.509   7.178
 5096SOL     OW15619   3.536   2.745   6.840
 5096SOL    HW115620   3.509   2.656   6.803
 5096SOL    HW215621   3.537   2.813   6.767
 5097SOL     OW15622   3.087   2.187   6.035
 5097SOL    HW115623   3.152   2.113   6.024
 5097SOL    HW215624   3.107   2.237   6.119
 5098SOL     OW15625   2.456   2.607   6.238
 5098SOL    HW115626   2.506   2.692   6.219
 5098SOL    HW215627   2.368   2.609   6.190
 5099SOL     OW15628   3.639   2.204   7.228
 5099SOL    HW115629   3.622   2.235   7.134
 5099SOL    HW215630   3.555   2.167   7.266
 5100SOL     OW15631   3.592   2.796   7.103
 5100SOL    HW115632   3.630   2.887   7.118
 5100SOL    HW215633   3.584   2.779   7.004
 5101SOL     OW15634   2.721   3.236   5.602
 5101SOL    HW115635   2.675   3.251   5.690
 5101SOL    HW215636   2.765   3.321   5.572
 5102SOL     OW15637   2.523   3.652   6.539
 5102SOL    HW115638   2.477   3.740   6.526
 5102SOL    HW215639   2.622   3.664   6.532
 5103SOL     OW15640   2.721   2.818   6.447
 5103SOL    HW115641   2.775   2.749   6.495
 5103SOL    HW215642   2.689   2.887   6.513
 5104SOL     OW15643   2.945   2.846   5.673
 5104SOL    HW115644   2.922   2.899   5.591
 5104SOL    HW215645   3.026   2.790   5.654
 5105SOL     OW15646   3.723   3.431   6.437
 5105SOL    HW115647   3.652   3.419   6.367
 5105SOL    HW215648   3.724   3.352   6.497
 5106SOL     OW15649   2.083   3.176   7.430
 5106SOL    HW115650   2.018   3.103   7.409
 5106SOL    HW215651   2.087   3.190   7.528
 5107SOL     OW15652   1.941   3.102   6.239
 5107SOL    HW115653   1.940   3.055   6.327
 5107SOL    HW215654   2.023   3.074   6.188
 5108SOL     OW15655   2.534   3.253   7.210
 5108SOL    HW115656   2.456   3.203   7.248
 5108SOL    HW215657   2.531   3.348   7.241
 5109SOL     OW15658   3.686   2.054   6.813
 5109SOL    HW115659   3.682   1.964   6.857
 5109SOL    HW215660   3.689   2.043   6.714
 5110SOL     OW15661   3.567   3.349   6.690
 5110SOL    HW115662   3.474   3.324   6.663
 5110SOL    HW215663   3.593   3.299   6.772
 5111SOL     OW15664   2.674   3.448   6.273
 5111SOL    HW115665   2.706   3.458   6.179
 5111SOL    HW215666   2.595   3.386   6.275
 5112SOL     OW15667   3.286   2.076   6.698
 5112SOL    HW115668   3.338   2.011   6.753
 5112SOL    HW215669   3.237   2.139   6.759
 5113SOL     OW15670   2.863   1.896   6.740
 5113SOL    HW115671   2.800   1.824   6.709
 5113SOL    HW215672   2.956   1.860   6.740
 5114SOL     OW15673   2.632   3.192   5.887
 5114SOL    HW115674   2.586   3.105   5.904
 5114SOL    HW215675   2.723   3.189   5.928
 5115SOL     OW15676   2.480   3.429   6.870
 5115SOL    HW115677   2.475   3.511   6.927
 5115SOL    HW215678   2.569   3.426   6.825
 5116SOL     OW15679   3.214   1.914   5.754
 5116SOL    HW115680   3.249   1.873   5.670
 5116SOL    HW215681   3.124   1.876   5.774
 5117SOL     OW15682   3.162   2.315   6.277
 5117SOL    HW115683   3.103   2.395   6.281
 5117SOL    HW215684   3.177   2.280   6.370
 5118SOL     OW15685   3.455   2.083   6.468
 5118SOL    HW115686   3.371   2.082   6.522
 5118SOL    HW215687   3.457   2.166   6.412
 5119SOL     OW15688   1.901   2.939   5.886
 5119SOL    HW115689   2.000   2.928   5.877
 5119SOL    HW215690   1.861   2.853   5.918
 5120SOL     OW15691   2.737   3.508   5.923
 5120SOL    HW115692   2.660   3.473   5.869
 5120SOL    HW215693   2.705   3.579   5.985
 5121SOL     OW15694   2.092   2.490   7.561
 5121SOL    HW115695   1.999   2.488   7.598
 5121SOL    HW215696   2.093   2.451   7.469
 5122SOL     OW15697   2.087   2.137   8.444
 5122SOL    HW115698   2.122   2.120   8.536
 5122SOL    HW215699   1.999   2.092   8.432
 5123SOL     OW15700   1.881   2.230   8.095
 5123SOL    HW115701   1.799   2.273   8.134
 5123SOL    HW215702   1.853   2.157   8.032
 5124SOL     OW15703   2.431   3.137   8.613
 5124SOL    HW115704   2.338   3.130   8.576
 5124SOL    HW215705   2.442   3.226   8.657
 5125SOL     OW15706   3.417   3.373   8.151
 5125SOL    HW115707   3.360   3.357   8.232
 5125SOL    HW215708   3.358   3.383   8.071
 5126SOL     OW15709   2.997   2.565   8.165
 5126SOL    HW115710   3.054   2.643   8.140
 5126SOL    HW215711   2.937   2.591   8.241
 5127SOL     OW15712   3.617   2.469   7.679
 5127SOL    HW115713   3.605   2.456   7.580
 5127SOL    HW215714   3.587   2.388   7.728
 5128SOL     OW15715   2.630   3.006   8.471
 5128SOL    HW115716   2.552   3.023   8.531
 5128SOL    HW215717   2.664   3.093   8.435
 5129SOL     OW15718   2.712   2.660   9.271
 5129SOL    HW115719   2.708   2.736   9.336
 5129SOL    HW215720   2.734   2.696   9.180
 5130SOL     OW15721   2.547   2.874   8.113
 5130SOL    HW115722   2.616   2.858   8.183
 5130SOL    HW215723   2.474   2.931   8.151
 5131SOL     OW15724   2.548   3.023   9.251
 5131SOL    HW115725   2.608   3.102   9.265
 5131SOL    HW215726   2.462   3.054   9.210
 5132SOL     OW15727   2.197   3.297   8.509
 5132SOL    HW115728   2.119   3.266   8.456
 5132SOL    HW215729   2.255   3.355   8.452
 5133SOL     OW15730   3.322   3.367   8.787
 5133SOL    HW115731   3.346   3.461   8.813
 5133SOL    HW215732   3.306   3.313   8.869
 5134SOL     OW15733   3.465   2.309   8.185
 5134SOL    HW115734   3.391   2.355   8.135
 5134SOL    HW215735   3.516   2.377   8.238
 5135SOL     OW15736   2.093   3.575   7.931
 5135SOL    HW115737   2.127   3.652   7.985
 5135SOL    HW215738   2.137   3.575   7.841
 5136SOL     OW15739   2.989   3.203   9.138
 5136SOL    HW115740   3.036   3.203   9.226
 5136SOL    HW215741   2.941   3.116   9.127
 5137SOL     OW15742   2.092   3.296   7.986
 5137SOL    HW115743   2.066   3.392   7.986
 5137SOL    HW215744   2.021   3.242   8.031
 5138SOL     OW15745   2.102   2.953   8.334
 5138SOL    HW115746   2.116   2.869   8.386
 5138SOL    HW215747   2.047   3.017   8.389
 5139SOL     OW15748   2.482   3.648   8.887
 5139SOL    HW115749   2.390   3.631   8.922
 5139SOL    HW215750   2.510   3.740   8.913
 5140SOL     OW15751   2.468   2.826   7.571
 5140SOL    HW115752   2.475   2.910   7.517
 5140SOL    HW215753   2.514   2.839   7.659
 5141SOL     OW15754   3.456   1.976   8.928
 5141SOL    HW115755   3.438   2.043   8.856
 5141SOL    HW215756   3.453   2.022   9.017
 5142SOL     OW15757   1.984   2.505   8.011
 5142SOL    HW115758   1.939   2.417   8.028
 5142SOL    HW215759   1.983   2.559   8.095
 5143SOL     OW15760   3.704   3.629   7.807
 5143SOL    HW115761   3.758   3.600   7.887
 5143SOL    HW215762   3.734   3.719   7.778
 5144SOL     OW15763   1.889   3.458   7.565
 5144SOL    HW115764   1.870   3.362   7.586
 5144SOL    HW215765   1.856   3.516   7.640
 5145SOL     OW15766   3.551   2.784   8.060
 5145SOL    HW115767   3.646   2.755   8.068
 5145SOL    HW215768   3.543   2.849   7.985
 5146SOL     OW15769   3.503   2.970   7.880
 5146SOL    HW115770   3.589   2.972   7.828
 5146SOL    HW215771   3.517   3.017   7.968
 5147SOL     OW15772   1.975   2.599   9.045
 5147SOL    HW115773   2.063   2.586   9.090
 5147SOL    HW215774   1.962   2.696   9.023
 5148SOL     OW15775   2.475   3.227   8.174
 5148SOL    HW115776   2.426   3.140   8.183
 5148SOL    HW215777   2.452   3.270   8.087
 5149SOL     OW15778   3.155   3.090   8.871
 5149SOL    HW115779   3.192   3.017   8.813
 5149SOL    HW215780   3.207   3.095   8.956
 5150SOL     OW15781   2.671   1.866   7.950
 5150SOL    HW115782   2.711   1.957   7.941
 5150SOL    HW215783   2.571   1.874   7.956
 5151SOL     OW15784   2.059   2.838   8.712
 5151SOL    HW115785   2.148   2.793   8.698
 5151SOL    HW215786   1.986   2.773   8.693
 5152SOL     OW15787   3.387   2.861   7.638
 5152SOL    HW115788   3.324   2.785   7.651
 5152SOL    HW215789   3.435   2.879   7.724
 5153SOL     OW15790   3.049   3.654   9.064
 5153SOL    HW115791   3.073   3.714   8.988
 5153SOL    HW215792   3.056   3.559   9.034
 5154SOL     OW15793   3.328   3.279   8.401
 5154SOL    HW115794   3.269   3.285   8.481
 5154SOL    HW215795   3.313   3.191   8.355
 5155SOL     OW15796   3.529   3.576   8.020
 5155SOL    HW115797   3.488   3.553   7.932
 5155SOL    HW215798   3.511   3.502   8.085
 5156SOL     OW15799   2.460   2.591   7.718
 5156SOL    HW115800   2.484   2.660   7.650
 5156SOL    HW215801   2.382   2.624   7.772
 5157SOL     OW15802   3.143   2.207   8.392
 5157SOL    HW115803   3.057   2.157   8.379
 5157SOL    HW215804   3.205   2.153   8.448
 5158SOL     OW15805   3.438   3.524   7.755
 5158SOL    HW115806   3.527   3.570   7.758
 5158SOL    HW215807   3.417   3.500   7.660
 5159SOL     OW15808   3.256   2.331   9.122
 5159SOL    HW115809   3.236   2.374   9.210
 5159SOL    HW215810   3.334   2.269   9.131
 5160SOL     OW15811   2.835   2.752   9.020
 5160SOL    HW115812   2.881   2.668   8.991
 5160SOL    HW215813   2.779   2.786   8.945
 5161SOL     OW15814   2.853   2.272   8.690
 5161SOL    HW115815   2.776   2.306   8.744
 5161SOL    HW215816   2.819   2.221   8.611
 5162SOL     OW15817   2.903   2.563   7.877
 5162SOL    HW115818   2.929   2.559   7.973
 5162SOL    HW215819   2.818   2.512   7.863
 5163SOL     OW15820   1.938   2.673   8.237
 5163SOL    HW115821   2.037   2.661   8.246
 5163SOL    HW215822   1.914   2.768   8.258
 5164SOL     OW15823   1.992   3.683   9.019
 5164SOL    HW115824   1.982   3.668   9.118
 5164SOL    HW215825   1.906   3.719   8.983
 5165SOL     OW15826   2.727   2.210   7.643
 5165SOL    HW115827   2.786   2.273   7.594
 5165SOL    HW215828   2.746   2.116   7.614
 5166SOL     OW15829   3.581   2.447   9.279
 5166SOL    HW115830   3.555   2.536   9.243
 5166SOL    HW215831   3.579   2.379   9.206
 5167SOL     OW15832   3.224   3.006   7.993
 5167SOL    HW115833   3.307   2.977   7.945
 5167SOL    HW215834   3.175   3.073   7.937
 5168SOL     OW15835   2.870   3.318   7.925
 5168SOL    HW115836   2.824   3.390   7.873
 5168SOL    HW215837   2.866   3.338   8.023
 5169SOL     OW15838   2.213   3.663   8.301
 5169SOL    HW115839   2.263   3.577   8.307
 5169SOL    HW215840   2.278   3.740   8.298
 5170SOL     OW15841   3.657   2.928   8.321
 5170SOL    HW115842   3.595   2.913   8.245
 5170SOL    HW215843   3.605   2.939   8.406
 5171SOL     OW15844   3.089   3.412   8.954
 5171SOL    HW115845   3.095   3.335   9.018
 5171SOL    HW215846   3.037   3.386   8.874
 5172SOL     OW15847   2.183   2.805   7.690
 5172SOL    HW115848   2.265   2.844   7.648
 5172SOL    HW215849   2.156   2.723   7.641
 5173SOL     OW15850   3.320   2.597   8.176
 5173SOL    HW115851   3.315   2.532   8.251
 5173SOL    HW215852   3.400   2.656   8.189
 5174SOL     OW15853   2.323   3.128   9.175
 5174SOL    HW115854   2.273   3.129   9.089
 5174SOL    HW215855   2.260   3.110   9.251
 5175SOL     OW15856   2.973   3.638   7.685
 5175SOL    HW115857   2.913   3.576   7.735
 5175SOL    HW215858   3.004   3.594   7.600
 5176SOL     OW15859   2.064   2.147   8.946
 5176SOL    HW115860   1.984   2.207   8.933
 5176SOL    HW215861   2.054   2.098   9.032
 5177SOL     OW15862   3.494   3.239   7.529
 5177SOL    HW115863   3.462   3.333   7.519
 5177SOL    HW215864   3.418   3.176   7.517
 5178SOL     OW15865   2.326   3.605   7.771
 5178SOL    HW115866   2.359   3.644   7.857
 5178SOL    HW215867   2.402   3.598   7.706
 5179SOL     OW15868   3.262   1.969   7.874
 5179SOL    HW115869   3.238   1.932   7.784
 5179SOL    HW215870   3.361   1.985   7.878
 5180SOL     OW15871   2.111   3.647   8.689
 5180SOL    HW115872   2.168   3.582   8.739
 5180SOL    HW215873   2.095   3.614   8.596
 5181SOL     OW15874   2.802   3.560   8.352
 5181SOL    HW115875   2.882   3.503   8.373
 5181SOL    HW215876   2.753   3.520   8.275
 5182SOL     OW15877   3.409   2.084   9.177
 5182SOL    HW115878   3.404   2.121   9.269
 5182SOL    HW215879   3.337   2.015   9.165
 5183SOL     OW15880   2.476   1.984   7.565
 5183SOL    HW115881   2.574   1.962   7.572
 5183SOL    HW215882   2.445   1.967   7.472
 5184SOL     OW15883   2.643   2.126   9.197
 5184SOL    HW115884   2.710   2.065   9.240
 5184SOL    HW215885   2.570   2.145   9.262
 5185SOL     OW15886   2.750   3.376   8.643
 5185SOL    HW115887   2.727   3.351   8.549
 5185SOL    HW215888   2.811   3.307   8.682
 5186SOL     OW15889   3.213   2.452   8.881
 5186SOL    HW115890   3.241   2.409   8.966
 5186SOL    HW215891   3.238   2.548   8.882
 5187SOL     OW15892   2.665   3.264   8.372
 5187SOL    HW115893   2.755   3.278   8.330
 5187SOL    HW215894   2.594   3.266   8.301
 5188SOL     OW15895   2.784   2.365   8.347
 5188SOL    HW115896   2.759   2.356   8.251
 5188SOL    HW215897   2.832   2.283   8.378
 5189SOL     OW15898   2.401   1.926   7.960
 5189SOL    HW115899   2.320   1.927   8.018
 5189SOL    HW215900   2.404   2.009   7.905
 5190SOL     OW15901   3.296   3.050   7.489
 5190SOL    HW115902   3.328   2.974   7.546
 5190SOL    HW215903   3.204   3.077   7.519
 5191SOL     OW15904   2.159   1.897   7.619
 5191SOL    HW115905   2.208   1.981   7.598
 5191SOL    HW215906   2.221   1.832   7.664
 5192SOL     OW15907   2.797   2.098   7.928
 5192SOL    HW115908   2.749   2.139   7.850
 5192SOL    HW215909   2.896   2.096   7.909
 5193SOL     OW15910   2.938   2.545   8.912
 5193SOL    HW115911   2.858   2.484   8.915
 5193SOL    HW215912   3.019   2.492   8.888
 5194SOL     OW15913   3.089   3.432   8.241
 5194SOL    HW115914   3.110   3.506   8.176
 5194SOL    HW215915   3.157   3.432   8.314
 5195SOL     OW15916   2.321   3.014   8.189
 5195SOL    HW115917   2.250   2.987   8.254
 5195SOL    HW215918   2.295   2.986   8.096
 5196SOL     OW15919   3.133   3.659   8.039
 5196SOL    HW115920   3.177   3.723   7.975
 5196SOL    HW215921   3.083   3.711   8.109
 5197SOL     OW15922   2.894   2.411   7.464
 5197SOL    HW115923   2.853   2.493   7.425
 5197SOL    HW215924   2.958   2.437   7.537
 5198SOL     OW15925   1.940   2.418   8.834
 5198SOL    HW115926   2.032   2.417   8.793
 5198SOL    HW215927   1.934   2.492   8.901
 5199SOL     OW15928   2.423   2.084   8.595
 5199SOL    HW115929   2.461   2.000   8.632
 5199SOL    HW215930   2.335   2.103   8.639
 5200SOL     OW15931   2.728   2.316   8.090
 5200SOL    HW115932   2.696   2.388   8.028
 5200SOL    HW215933   2.752   2.235   8.037
 5201SOL     OW15934   2.879   1.901   8.201
 5201SOL    HW115935   2.807   1.906   8.132
 5201SOL    HW215936   2.855   1.832   8.270
 5202SOL     OW15937   3.291   3.035   8.315
 5202SOL    HW115938   3.236   2.951   8.308
 5202SOL    HW215939   3.317   3.064   8.223
 5203SOL     OW15940   3.328   2.452   8.440
 5203SOL    HW115941   3.298   2.357   8.447
 5203SOL    HW215942   3.401   2.468   8.506
 5204SOL     OW15943   3.719   2.695   7.825
 5204SOL    HW115944   3.761   2.631   7.889
 5204SOL    HW215945   3.681   2.644   7.747
 5205SOL     OW15946   2.350   3.247   7.622
 5205SOL    HW115947   2.263   3.232   7.669
 5205SOL    HW215948   2.333   3.273   7.527
 5206SOL     OW15949   3.526   3.142   8.105
 5206SOL    HW115950   3.625   3.150   8.119
 5206SOL    HW215951   3.481   3.226   8.136
 5207SOL     OW15952   3.252   2.437   7.526
 5207SOL    HW115953   3.198   2.416   7.607
 5207SOL    HW215954   3.343   2.396   7.535
 5208SOL     OW15955   3.616   3.085   9.036
 5208SOL    HW115956   3.707   3.046   9.023
 5208SOL    HW215957   3.624   3.181   9.060
 5209SOL     OW15958   2.926   3.209   8.788
 5209SOL    HW115959   2.846   3.186   8.843
 5209SOL    HW215960   3.009   3.183   8.837
 5210SOL     OW15961   3.454   3.491   9.073
 5210SOL    HW115962   3.481   3.525   8.983
 5210SOL    HW215963   3.533   3.453   9.119
 5211SOL     OW15964   2.973   3.057   8.548
 5211SOL    HW115965   2.933   3.101   8.629
 5211SOL    HW215966   2.932   3.094   8.465
 5212SOL     OW15967   3.500   2.961   8.527
 5212SOL    HW115968   3.505   3.042   8.586
 5212SOL    HW215969   3.414   2.963   8.476
 5213SOL     OW15970   2.777   1.951   8.850
 5213SOL    HW115971   2.802   1.931   8.755
 5213SOL    HW215972   2.849   2.007   8.892
 5214SOL     OW15973   2.842   2.978   9.167
 5214SOL    HW115974   2.743   2.984   9.177
 5214SOL    HW215975   2.865   2.898   9.111
 5215SOL     OW15976   2.567   2.912   7.816
 5215SOL    HW115977   2.553   2.919   7.915
 5215SOL    HW215978   2.651   2.861   7.798
 5216SOL     OW15979   2.272   2.675   8.699
 5216SOL    HW115980   2.358   2.687   8.749
 5216SOL    HW215981   2.230   2.588   8.726
 5217SOL     OW15982   3.136   2.248   8.710
 5217SOL    HW115983   3.157   2.322   8.774
 5217SOL    HW215984   3.047   2.265   8.667
 5218SOL     OW15985   1.926   3.426   8.779
 5218SOL    HW115986   1.880   3.508   8.745
 5218SOL    HW215987   2.024   3.445   8.788
 5219SOL     OW15988   2.229   2.962   7.949
 5219SOL    HW115989   2.222   3.045   7.893
 5219SOL    HW215990   2.233   2.882   7.889
 5220SOL     OW15991   3.114   3.210   7.836
 5220SOL    HW115992   3.164   3.287   7.876
 5220SOL    HW215993   3.019   3.212   7.868
 5221SOL     OW15994   3.134   3.307   8.590
 5221SOL    HW115995   3.181   3.320   8.677
 5221SOL    HW215996   3.068   3.233   8.599
 5222SOL     OW15997   3.444   2.501   7.920
 5222SOL    HW115998   3.413   2.562   7.993
 5222SOL    HW215999   3.494   2.553   7.851
 5223SOL     OW16000   2.216   3.372   8.777
 5223SOL    HW116001   2.195   3.328   8.690
 5223SOL    HW216002   2.313   3.398   8.780
 5224SOL     OW16003   2.264   2.613   9.046
 5224SOL    HW116004   2.332   2.668   8.999
 5224SOL    HW216005   2.304   2.525   9.073
 5225SOL     OW16006   3.449   2.641   9.118
 5225SOL    HW116007   3.357   2.679   9.113
 5225SOL    HW216008   3.509   2.688   9.053
 5226SOL     OW16009   2.875   1.967   9.218
 5226SOL    HW116010   2.881   2.052   9.166
 5226SOL    HW216011   2.907   1.891   9.161
 5227SOL     OW16012   2.366   1.912   9.188
 5227SOL    HW116013   2.324   1.855   9.118
 5227SOL    HW216014   2.300   1.981   9.220
 5228SOL     OW16015   2.435   2.732   8.477
 5228SOL    HW116016   2.479   2.821   8.468
 5228SOL    HW216017   2.372   2.732   8.554
 5229SOL     OW16018   3.222   2.724   8.493
 5229SOL    HW116019   3.147   2.724   8.427
 5229SOL    HW216020   3.259   2.632   8.502
 5230SOL     OW16021   3.071   2.387   7.723
 5230SOL    HW116022   3.084   2.303   7.777
 5230SOL    HW216023   3.042   2.461   7.783
 5231SOL     OW16024   2.169   2.075   8.679
 5231SOL    HW116025   2.146   2.112   8.769
 5231SOL    HW216026   2.139   1.980   8.673
 5232SOL     OW16027   1.899   3.172   8.730
 5232SOL    HW116028   1.952   3.123   8.798
 5232SOL    HW216029   1.921   3.270   8.735
 5233SOL     OW16030   2.594   2.496   8.512
 5233SOL    HW116031   2.653   2.470   8.436
 5233SOL    HW216032   2.566   2.592   8.501
 5234SOL     OW16033   3.590   2.797   9.302
 5234SOL    HW116034   3.544   2.790   9.213
 5234SOL    HW216035   3.528   2.841   9.368
 5235SOL     OW16036   2.169   1.925   8.066
 5235SOL    HW116037   2.158   2.019   8.099
 5235SOL    HW216038   2.164   1.862   8.143
 5236SOL     OW16039   3.484   2.229   7.822
 5236SOL    HW116040   3.486   2.153   7.886
 5236SOL    HW216041   3.436   2.306   7.862
 5237SOL     OW16042   2.885   2.628   8.414
 5237SOL    HW116043   2.900   2.649   8.510
 5237SOL    HW216044   2.855   2.533   8.405
 5238SOL     OW16045   2.842   3.435   9.148
 5238SOL    HW116046   2.822   3.479   9.060
 5238SOL    HW216047   2.881   3.344   9.132
 5239SOL     OW16048   3.721   3.380   9.053
 5239SOL    HW116049   3.735   3.407   8.958
 5239SOL    HW216050   3.804   3.402   9.106
 5240SOL     OW16051   2.212   2.760   9.252
 5240SOL    HW116052   2.288   2.804   9.300
 5240SOL    HW216053   2.247   2.713   9.170
 5241SOL     OW16054   3.402   2.136   7.573
 5241SOL    HW116055   3.341   2.061   7.596
 5241SOL    HW216056   3.424   2.188   7.656
 5242SOL     OW16057   3.165   2.700   7.490
 5242SOL    HW116058   3.199   2.607   7.505
 5242SOL    HW216059   3.183   2.727   7.395
 5243SOL     OW16060   2.930   3.195   8.297
 5243SOL    HW116061   2.937   3.111   8.242
 5243SOL    HW216062   2.992   3.264   8.261
 5244SOL     OW16063   2.181   2.672   8.397
 5244SOL    HW116064   2.274   2.708   8.402
 5244SOL    HW216065   2.175   2.587   8.449
 5245SOL     OW16066   3.000   2.242   9.126
 5245SOL    HW116067   2.955   2.305   9.190
 5245SOL    HW216068   3.093   2.273   9.109
 5246SOL     OW16069   3.022   2.069   8.925
 5246SOL    HW116070   3.022   2.133   9.002
 5246SOL    HW216071   3.050   2.117   8.842
 5247SOL     OW16072   1.870   3.188   7.648
 5247SOL    HW116073   1.777   3.209   7.617
 5247SOL    HW216074   1.880   3.089   7.661
 5248SOL     OW16075   1.950   3.663   8.375
 5248SOL    HW116076   1.908   3.577   8.348
 5248SOL    HW216077   2.044   3.666   8.341
 5249SOL     OW16078   2.366   3.430   8.358
 5249SOL    HW116079   2.432   3.504   8.367
 5249SOL    HW216080   2.410   3.351   8.316
 5250SOL     OW16081   2.864   2.658   8.686
 5250SOL    HW116082   2.905   2.626   8.772
 5250SOL    HW216083   2.768   2.631   8.683
 5251SOL     OW16084   1.902   2.406   8.562
 5251SOL    HW116085   1.987   2.373   8.521
 5251SOL    HW216086   1.915   2.421   8.660
 5252SOL     OW16087   2.051   2.382   9.170
 5252SOL    HW116088   2.110   2.342   9.100
 5252SOL    HW216089   1.993   2.453   9.129
 5253SOL     OW16090   3.231   2.812   9.108
 5253SOL    HW116091   3.270   2.901   9.128
 5253SOL    HW216092   3.241   2.792   9.011
 5254SOL     OW16093   2.677   2.434   7.773
 5254SOL    HW116094   2.684   2.345   7.727
 5254SOL    HW216095   2.583   2.468   7.765
 5255SOL     OW16096   3.519   2.466   8.654
 5255SOL    HW116097   3.481   2.397   8.716
 5255SOL    HW216098   3.601   2.430   8.610
 5256SOL     OW16099   2.114   3.426   9.192
 5256SOL    HW116100   2.084   3.483   9.268
 5256SOL    HW216101   2.107   3.329   9.218
 5257SOL     OW16102   2.792   3.540   8.913
 5257SOL    HW116103   2.768   3.522   8.818
 5257SOL    HW216104   2.822   3.634   8.923
 5258SOL     OW16105   2.021   2.999   8.914
 5258SOL    HW116106   2.043   2.938   8.990
 5258SOL    HW216107   2.031   2.950   8.828
 5259SOL     OW16108   3.209   2.921   8.682
 5259SOL    HW116109   3.233   2.858   8.608
 5259SOL    HW216110   3.119   2.961   8.664
 5260SOL     OW16111   3.164   2.717   7.757
 5260SOL    HW116112   3.078   2.686   7.799
 5260SOL    HW216113   3.160   2.703   7.658
 5261SOL     OW16114   3.621   3.609   8.602
 5261SOL    HW116115   3.682   3.639   8.529
 5261SOL    HW216116   3.583   3.520   8.580
 5262SOL     OW16117   3.114   3.593   8.576
 5262SOL    HW116118   3.198   3.598   8.522
 5262SOL    HW216119   3.091   3.497   8.594
 5263SOL     OW16120   1.945   3.120   8.470
 5263SOL    HW116121   1.940   3.119   8.570
 5263SOL    HW216122   1.862   3.079   8.432
 5264SOL     OW16123   2.550   3.524   9.164
 5264SOL    HW116124   2.494   3.605   9.173
 5264SOL    HW216125   2.602   3.528   9.078
 5265SOL     OW16126   3.588   1.997   7.971
 5265SOL    HW116127   3.661   1.980   7.904
 5265SOL    HW216128   3.557   1.910   8.009
 5266SOL     OW16129   3.250   3.435   7.925
 5266SOL    HW116130   3.317   3.447   7.851
 5266SOL    HW216131   3.210   3.524   7.948
 5267SOL     OW16132   1.992   3.656   9.299
 5267SOL    HW116133   1.951   3.582   9.352
 5267SOL    HW216134   2.056   3.707   9.357
 5268SOL     OW16135   3.142   2.789   8.120
 5268SOL    HW116136   3.202   2.708   8.122
 5268SOL    HW216137   3.182   2.858   8.060
 5269SOL     OW16138   2.692   3.135   8.870
 5269SOL    HW116139   2.687   3.168   8.965
 5269SOL    HW216140   2.606   3.154   8.824
 5270SOL     OW16141   2.534   3.478   7.602
 5270SOL    HW116142   2.543   3.488   7.503
 5270SOL    HW216143   2.494   3.389   7.623
 5271SOL     OW16144   3.512   3.582   8.842
 5271SOL    HW116145   3.565   3.592   8.758
 5271SOL    HW216146   3.485   3.672   8.876
 5272SOL     OW16147   3.703   2.037   8.411
 5272SOL    HW116148   3.742   1.952   8.375
 5272SOL    HW216149   3.605   2.039   8.392
 5273SOL     OW16150   2.125   2.188   8.168
 5273SOL    HW116151   2.046   2.239   8.134
 5273SOL    HW216152   2.116   2.173   8.266
 5274SOL     OW16153   3.056   3.474   7.479
 5274SOL    HW116154   3.062   3.381   7.516
 5274SOL    HW216155   2.997   3.474   7.399
 5275SOL     OW16156   2.684   2.864   8.820
 5275SOL    HW116157   2.724   2.863   8.728
 5275SOL    HW216158   2.694   2.956   8.860
 5276SOL     OW16159   2.778   2.772   7.739
 5276SOL    HW116160   2.841   2.810   7.671
 5276SOL    HW216161   2.818   2.689   7.778
 5277SOL     OW16162   3.366   3.469   7.492
 5277SOL    HW116163   3.274   3.506   7.499
 5277SOL    HW216164   3.404   3.489   7.402
 5278SOL     OW16165   2.234   3.150   8.938
 5278SOL    HW116166   2.221   3.243   8.904
 5278SOL    HW216167   2.150   3.098   8.925
 5279SOL     OW16168   3.476   3.154   8.737
 5279SOL    HW116169   3.536   3.157   8.817
 5279SOL    HW216170   3.401   3.218   8.750
 5280SOL     OW16171   2.901   2.960   8.144
 5280SOL    HW116172   2.831   2.913   8.198
 5280SOL    HW216173   2.960   2.892   8.101
 5281SOL     OW16174   2.876   2.098   8.419
 5281SOL    HW116175   2.868   2.062   8.326
 5281SOL    HW216176   2.874   2.022   8.484
 5282SOL     OW16177   2.452   3.349   7.939
 5282SOL    HW116178   2.494   3.291   7.869
 5282SOL    HW216179   2.408   3.428   7.895
 5283SOL     OW16180   3.571   2.247   8.829
 5283SOL    HW116181   3.644   2.316   8.833
 5283SOL    HW216182   3.599   2.172   8.770
 5284SOL     OW16183   2.117   3.210   7.738
 5284SOL    HW116184   2.021   3.211   7.711
 5284SOL    HW216185   2.129   3.263   7.822
 5285SOL     OW16186   1.967   2.875   9.174
 5285SOL    HW116187   1.890   2.842   9.228
 5285SOL    HW216188   2.052   2.845   9.216
 5286SOL     OW16189   2.534   2.065   8.937
 5286SOL    HW116190   2.624   2.049   8.897
 5286SOL    HW216191   2.542   2.070   9.036
 5287SOL     OW16192   1.937   2.207   7.481
 5287SOL    HW116193   1.845   2.179   7.452
 5287SOL    HW216194   1.968   2.284   7.425
 5288SOL     OW16195   3.302   2.718   8.846
 5288SOL    HW116196   3.245   2.770   8.783
 5288SOL    HW216197   3.398   2.730   8.822
 5289SOL     OW16198   1.934   2.028   7.766
 5289SOL    HW116199   1.917   2.111   7.712
 5289SOL    HW216200   2.024   1.991   7.744
 5290SOL     OW16201   3.045   3.197   7.567
 5290SOL    HW116202   2.946   3.186   7.569
 5290SOL    HW216203   3.079   3.212   7.660
 5291SOL     OW16204   2.475   2.704   8.879
 5291SOL    HW116205   2.531   2.785   8.862
 5291SOL    HW216206   2.534   2.624   8.882
 5292SOL     OW16207   3.355   3.629   8.407
 5292SOL    HW116208   3.388   3.693   8.338
 5292SOL    HW216209   3.421   3.623   8.482
 5293SOL     OW16210   2.578   2.427   9.156
 5293SOL    HW116211   2.597   2.492   9.230
 5293SOL    HW216212   2.638   2.347   9.165
 5294SOL     OW16213   3.312   3.082   9.081
 5294SOL    HW116214   3.303   3.072   9.180
 5294SOL    HW216215   3.408   3.075   9.055
 5295SOL     OW16216   2.252   3.603   9.008
 5295SOL    HW116217   2.161   3.644   9.006
 5295SOL    HW216218   2.245   3.509   9.040
 5296SOL     OW16219   3.536   2.745   8.702
 5296SOL    HW116220   3.509   2.656   8.665
 5296SOL    HW216221   3.537   2.813   8.629
 5297SOL     OW16222   3.087   2.187   7.897
 5297SOL    HW116223   3.152   2.113   7.886
 5297SOL    HW216224   3.107   2.237   7.981
 5298SOL     OW16225   3.639   2.204   9.090
 5298SOL    HW116226   3.622   2.235   8.996
 5298SOL    HW216227   3.555   2.167   9.128
 5299SOL     OW16228   3.592   2.796   8.965
 5299SOL    HW116229   3.630   2.887   8.980
 5299SOL    HW216230   3.584   2.779   8.866
 5300SOL     OW16231   2.721   3.236   7.464
 5300SOL    HW116232   2.675   3.251   7.552
 5300SOL    HW216233   2.765   3.321   7.434
 5301SOL     OW16234   2.523   3.652   8.401
 5301SOL    HW116235   2.477   3.740   8.388
 5301SOL    HW216236   2.622   3.664   8.394
 5302SOL     OW16237   2.721   2.818   8.309
 5302SOL    HW116238   2.775   2.749   8.357
 5302SOL    HW216239   2.689   2.887   8.375
 5303SOL     OW16240   2.945   2.846   7.535
 5303SOL    HW116241   2.922   2.899   7.453
 5303SOL    HW216242   3.026   2.790   7.516
 5304SOL     OW16243   3.723   3.431   8.299
 5304SOL    HW116244   3.652   3.419   8.229
 5304SOL    HW216245   3.724   3.352   8.359
 5305SOL     OW16246   2.083   3.176   9.292
 5305SOL    HW116247   2.018   3.103   9.271
 5305SOL    HW216248   2.087   3.190   9.390
 5306SOL     OW16249   1.941   3.102   8.101
 5306SOL    HW116250   1.940   3.055   8.189
 5306SOL    HW216251   2.023   3.074   8.050
 5307SOL     OW16252   2.534   3.253   9.072
 5307SOL    HW116253   2.456   3.203   9.110
 5307SOL    HW216254   2.531   3.348   9.103
 5308SOL     OW16255   3.686   2.054   8.675
 5308SOL    HW116256   3.682   1.964   8.719
 5308SOL    HW216257   3.689   2.043   8.576
 5309SOL     OW16258   3.567   3.349   8.552
 5309SOL    HW116259   3.474   3.324   8.525
 5309SOL    HW216260   3.593   3.299   8.634
 5310SOL     OW16261   2.674   3.448   8.135
 5310SOL    HW116262   2.706   3.458   8.041
 5310SOL    HW216263   2.595   3.386   8.137
 5311SOL     OW16264   3.286   2.076   8.560
 5311SOL    HW116265   3.338   2.011   8.615
 5311SOL    HW216266   3.237   2.139   8.621
 5312SOL     OW16267   2.863   1.896   8.602
 5312SOL    HW116268   2.800   1.824   8.571
 5312SOL    HW216269   2.956   1.860   8.602
 5313SOL     OW16270   2.632   3.192   7.749
 5313SOL    HW116271   2.586   3.105   7.766
 5313SOL    HW216272   2.723   3.189   7.790
 5314SOL     OW16273   2.480   3.429   8.732
 5314SOL    HW116274   2.475   3.511   8.789
 5314SOL    HW216275   2.569   3.426   8.687
 5315SOL     OW16276   3.214   1.914   7.616
 5315SOL    HW116277   3.249   1.873   7.532
 5315SOL    HW216278   3.124   1.876   7.636
 5316SOL     OW16279   3.162   2.315   8.139
 5316SOL    HW116280   3.103   2.395   8.143
 5316SOL    HW216281   3.177   2.280   8.232
 5317SOL     OW16282   3.455   2.083   8.330
 5317SOL    HW116283   3.371   2.082   8.384
 5317SOL    HW216284   3.457   2.166   8.274
 5318SOL     OW16285   1.901   2.939   7.748
 5318SOL    HW116286   2.000   2.928   7.739
 5318SOL    HW216287   1.861   2.853   7.780
 5319SOL     OW16288   2.737   3.508   7.785
 5319SOL    HW116289   2.660   3.473   7.731
 5319SOL    HW216290   2.705   3.579   7.847
 5320SOL     OW16291   2.092   2.490   9.423
 5320SOL    HW116292   1.999   2.488   9.460
 5320SOL    HW216293   2.093   2.451   9.331
 5321SOL     OW16294   2.087   2.137  10.306
 5321SOL    HW116295   2.122   2.120  10.398
 5321SOL    HW216296   1.999   2.092  10.294
 5322SOL     OW16297   1.881   2.230   9.957
 5322SOL    HW116298   1.799   2.273   9.996
 5322SOL    HW216299   1.853   2.157   9.894
 5323SOL     OW16300   2.431   3.137  10.475
 5323SOL    HW116301   2.338   3.130  10.438
 5323SOL    HW216302   2.442   3.226  10.519
 5324SOL     OW16303   3.417   3.373  10.013
 5324SOL    HW116304   3.360   3.357  10.094
 5324SOL    HW216305   3.358   3.383   9.933
 5325SOL     OW16306   2.997   2.565  10.027
 5325SOL    HW116307   3.054   2.643  10.002
 5325SOL    HW216308   2.937   2.591  10.103
 5326SOL     OW16309   3.617   2.469   9.541
 5326SOL    HW116310   3.605   2.456   9.442
 5326SOL    HW216311   3.587   2.388   9.590
 5327SOL     OW16312   2.630   3.006  10.333
 5327SOL    HW116313   2.552   3.023  10.393
 5327SOL    HW216314   2.664   3.093  10.297
 5328SOL     OW16315   2.547   2.874   9.975
 5328SOL    HW116316   2.616   2.858  10.045
 5328SOL    HW216317   2.474   2.931  10.013
 5329SOL     OW16318   2.197   3.297  10.371
 5329SOL    HW116319   2.119   3.266  10.318
 5329SOL    HW216320   2.255   3.355  10.314
 5330SOL     OW16321   3.322   3.367  10.649
 5330SOL    HW116322   3.346   3.461  10.675
 5330SOL    HW216323   3.306   3.313  10.731
 5331SOL     OW16324   3.465   2.309  10.047
 5331SOL    HW116325   3.391   2.355   9.997
 5331SOL    HW216326   3.516   2.377  10.100
 5332SOL     OW16327   2.093   3.575   9.793
 5332SOL    HW116328   2.127   3.652   9.847
 5332SOL    HW216329   2.137   3.575   9.703
 5333SOL     OW16330   2.092   3.296   9.848
 5333SOL    HW116331   2.066   3.392   9.848
 5333SOL    HW216332   2.021   3.242   9.893
 5334SOL     OW16333   2.102   2.953  10.196
 5334SOL    HW116334   2.116   2.869  10.248
 5334SOL    HW216335   2.047   3.017  10.251
 5335SOL     OW16336   2.482   3.648  10.749
 5335SOL    HW116337   2.390   3.631  10.784
 5335SOL    HW216338   2.510   3.740  10.775
 5336SOL     OW16339   2.468   2.826   9.433
 5336SOL    HW116340   2.475   2.910   9.379
 5336SOL    HW216341   2.514   2.839   9.521
 5337SOL     OW16342   3.456   1.976  10.790
 5337SOL    HW116343   3.438   2.043  10.718
 5337SOL    HW216344   3.453   2.022  10.879
 5338SOL     OW16345   1.984   2.505   9.873
 5338SOL    HW116346   1.939   2.417   9.890
 5338SOL    HW216347   1.983   2.559   9.957
 5339SOL     OW16348   3.704   3.629   9.669
 5339SOL    HW116349   3.758   3.600   9.749
 5339SOL    HW216350   3.734   3.719   9.640
 5340SOL     OW16351   1.889   3.458   9.427
 5340SOL    HW116352   1.870   3.362   9.448
 5340SOL    HW216353   1.856   3.516   9.502
 5341SOL     OW16354   3.551   2.784   9.922
 5341SOL    HW116355   3.646   2.755   9.930
 5341SOL    HW216356   3.543   2.849   9.847
 5342SOL     OW16357   3.503   2.970   9.742
 5342SOL    HW116358   3.589   2.972   9.690
 5342SOL    HW216359   3.517   3.017   9.830
 5343SOL     OW16360   2.475   3.227  10.036
 5343SOL    HW116361   2.426   3.140  10.045
 5343SOL    HW216362   2.452   3.270   9.949
 5344SOL     OW16363   2.671   1.866   9.812
 5344SOL    HW116364   2.711   1.957   9.803
 5344SOL    HW216365   2.571   1.874   9.818
 5345SOL     OW16366   2.059   2.838  10.574
 5345SOL    HW116367   2.148   2.793  10.560
 5345SOL    HW216368   1.986   2.773  10.555
 5346SOL     OW16369   3.387   2.861   9.500
 5346SOL    HW116370   3.324   2.785   9.513
 5346SOL    HW216371   3.435   2.879   9.586
 5347SOL     OW16372   3.328   3.279  10.263
 5347SOL    HW116373   3.269   3.285  10.343
 5347SOL    HW216374   3.313   3.191  10.217
 5348SOL     OW16375   3.529   3.576   9.882
 5348SOL    HW116376   3.488   3.553   9.794
 5348SOL    HW216377   3.511   3.502   9.947
 5349SOL     OW16378   3.143   2.207  10.254
 5349SOL    HW116379   3.057   2.157  10.241
 5349SOL    HW216380   3.205   2.153  10.310
 5350SOL     OW16381   3.438   3.524   9.617
 5350SOL    HW116382   3.527   3.570   9.620
 5350SOL    HW216383   3.417   3.500   9.522
 5351SOL     OW16384   2.669   2.467  10.775
 5351SOL    HW116385   2.622   2.464  10.864
 5351SOL    HW216386   2.618   2.412  10.709
 5352SOL     OW16387   2.853   2.272  10.552
 5352SOL    HW116388   2.776   2.306  10.606
 5352SOL    HW216389   2.819   2.221  10.473
 5353SOL     OW16390   2.903   2.563   9.739
 5353SOL    HW116391   2.929   2.559   9.835
 5353SOL    HW216392   2.818   2.512   9.725
 5354SOL     OW16393   1.938   2.673  10.099
 5354SOL    HW116394   2.037   2.661  10.108
 5354SOL    HW216395   1.914   2.768  10.120
 5355SOL     OW16396   1.992   3.683  10.881
 5355SOL    HW116397   1.982   3.668  10.980
 5355SOL    HW216398   1.906   3.719  10.845
 5356SOL     OW16399   2.727   2.210   9.505
 5356SOL    HW116400   2.786   2.273   9.456
 5356SOL    HW216401   2.746   2.116   9.476
 5357SOL     OW16402   3.224   3.006   9.855
 5357SOL    HW116403   3.307   2.977   9.807
 5357SOL    HW216404   3.175   3.073   9.799
 5358SOL     OW16405   2.412   2.058  10.195
 5358SOL    HW116406   2.407   2.053  10.295
 5358SOL    HW216407   2.414   2.154  10.166
 5359SOL     OW16408   2.870   3.318   9.787
 5359SOL    HW116409   2.824   3.390   9.735
 5359SOL    HW216410   2.866   3.338   9.885
 5360SOL     OW16411   2.213   3.663  10.163
 5360SOL    HW116412   2.263   3.577  10.169
 5360SOL    HW216413   2.278   3.740  10.160
 5361SOL     OW16414   3.657   2.928  10.183
 5361SOL    HW116415   3.595   2.913  10.107
 5361SOL    HW216416   3.605   2.939  10.268
 5362SOL     OW16417   2.183   2.805   9.552
 5362SOL    HW116418   2.265   2.844   9.510
 5362SOL    HW216419   2.156   2.723   9.503
 5363SOL     OW16420   3.320   2.597  10.038
 5363SOL    HW116421   3.315   2.532  10.113
 5363SOL    HW216422   3.400   2.656  10.051
 5364SOL     OW16423   2.973   3.638   9.547
 5364SOL    HW116424   2.913   3.576   9.597
 5364SOL    HW216425   3.004   3.594   9.462
 5365SOL     OW16426   3.494   3.239   9.391
 5365SOL    HW116427   3.462   3.333   9.381
 5365SOL    HW216428   3.418   3.176   9.379
 5366SOL     OW16429   2.326   3.605   9.633
 5366SOL    HW116430   2.359   3.644   9.719
 5366SOL    HW216431   2.402   3.598   9.568
 5367SOL     OW16432   3.262   1.969   9.736
 5367SOL    HW116433   3.238   1.932   9.646
 5367SOL    HW216434   3.361   1.985   9.740
 5368SOL     OW16435   2.111   3.647  10.551
 5368SOL    HW116436   2.168   3.582  10.601
 5368SOL    HW216437   2.095   3.614  10.458
 5369SOL     OW16438   2.802   3.560  10.214
 5369SOL    HW116439   2.882   3.503  10.235
 5369SOL    HW216440   2.753   3.520  10.137
 5370SOL     OW16441   2.476   1.984   9.427
 5370SOL    HW116442   2.574   1.962   9.434
 5370SOL    HW216443   2.445   1.967   9.334
 5371SOL     OW16444   2.750   3.376  10.505
 5371SOL    HW116445   2.727   3.351  10.411
 5371SOL    HW216446   2.811   3.307  10.544
 5372SOL     OW16447   2.665   3.264  10.234
 5372SOL    HW116448   2.755   3.278  10.192
 5372SOL    HW216449   2.594   3.266  10.163
 5373SOL     OW16450   2.784   2.365  10.209
 5373SOL    HW116451   2.759   2.356  10.113
 5373SOL    HW216452   2.832   2.283  10.240
 5374SOL     OW16453   2.401   1.926   9.822
 5374SOL    HW116454   2.320   1.927   9.880
 5374SOL    HW216455   2.404   2.009   9.767
 5375SOL     OW16456   3.296   3.050   9.351
 5375SOL    HW116457   3.328   2.974   9.408
 5375SOL    HW216458   3.204   3.077   9.381
 5376SOL     OW16459   2.159   1.897   9.481
 5376SOL    HW116460   2.208   1.981   9.460
 5376SOL    HW216461   2.221   1.832   9.526
 5377SOL     OW16462   2.797   2.098   9.790
 5377SOL    HW116463   2.749   2.139   9.712
 5377SOL    HW216464   2.896   2.096   9.771
 5378SOL     OW16465   3.089   3.432  10.103
 5378SOL    HW116466   3.110   3.506  10.038
 5378SOL    HW216467   3.157   3.432  10.176
 5379SOL     OW16468   2.321   3.014  10.051
 5379SOL    HW116469   2.250   2.987  10.116
 5379SOL    HW216470   2.295   2.986   9.958
 5380SOL     OW16471   3.133   3.659   9.901
 5380SOL    HW116472   3.177   3.723   9.837
 5380SOL    HW216473   3.083   3.711   9.971
 5381SOL     OW16474   2.894   2.411   9.326
 5381SOL    HW116475   2.853   2.493   9.287
 5381SOL    HW216476   2.958   2.437   9.399
 5382SOL     OW16477   1.940   2.418  10.696
 5382SOL    HW116478   2.032   2.417  10.655
 5382SOL    HW216479   1.934   2.492  10.763
 5383SOL     OW16480   2.423   2.084  10.457
 5383SOL    HW116481   2.461   2.000  10.494
 5383SOL    HW216482   2.335   2.103  10.501
 5384SOL     OW16483   2.728   2.316   9.952
 5384SOL    HW116484   2.696   2.388   9.890
 5384SOL    HW216485   2.752   2.235   9.899
 5385SOL     OW16486   2.879   1.901  10.063
 5385SOL    HW116487   2.807   1.906   9.994
 5385SOL    HW216488   2.855   1.832  10.132
 5386SOL     OW16489   3.291   3.035  10.177
 5386SOL    HW116490   3.236   2.951  10.170
 5386SOL    HW216491   3.317   3.064  10.085
 5387SOL     OW16492   3.328   2.452  10.302
 5387SOL    HW116493   3.298   2.357  10.309
 5387SOL    HW216494   3.401   2.468  10.368
 5388SOL     OW16495   3.719   2.695   9.687
 5388SOL    HW116496   3.761   2.631   9.751
 5388SOL    HW216497   3.681   2.644   9.609
 5389SOL     OW16498   2.350   3.247   9.484
 5389SOL    HW116499   2.263   3.232   9.531
 5389SOL    HW216500   2.333   3.273   9.389
 5390SOL     OW16501   3.526   3.142   9.967
 5390SOL    HW116502   3.625   3.150   9.981
 5390SOL    HW216503   3.481   3.226   9.998
 5391SOL     OW16504   3.252   2.437   9.388
 5391SOL    HW116505   3.198   2.416   9.469
 5391SOL    HW216506   3.343   2.396   9.397
 5392SOL     OW16507   2.926   3.209  10.650
 5392SOL    HW116508   2.846   3.186  10.705
 5392SOL    HW216509   3.009   3.183  10.699
 5393SOL     OW16510   2.973   3.057  10.410
 5393SOL    HW116511   2.933   3.101  10.491
 5393SOL    HW216512   2.932   3.094  10.327
 5394SOL     OW16513   3.500   2.961  10.389
 5394SOL    HW116514   3.505   3.042  10.448
 5394SOL    HW216515   3.414   2.963  10.338
 5395SOL     OW16516   2.777   1.951  10.712
 5395SOL    HW116517   2.802   1.931  10.617
 5395SOL    HW216518   2.849   2.007  10.754
 5396SOL     OW16519   2.567   2.912   9.678
 5396SOL    HW116520   2.553   2.919   9.777
 5396SOL    HW216521   2.651   2.861   9.660
 5397SOL     OW16522   2.272   2.675  10.561
 5397SOL    HW116523   2.358   2.687  10.611
 5397SOL    HW216524   2.230   2.588  10.588
 5398SOL     OW16525   3.136   2.248  10.572
 5398SOL    HW116526   3.157   2.322  10.636
 5398SOL    HW216527   3.047   2.265  10.529
 5399SOL     OW16528   1.926   3.426  10.641
 5399SOL    HW116529   1.880   3.508  10.607
 5399SOL    HW216530   2.024   3.445  10.650
 5400SOL     OW16531   2.229   2.962   9.811
 5400SOL    HW116532   2.222   3.045   9.755
 5400SOL    HW216533   2.233   2.882   9.751
 5401SOL     OW16534   3.114   3.210   9.698
 5401SOL    HW116535   3.164   3.287   9.738
 5401SOL    HW216536   3.019   3.212   9.730
 5402SOL     OW16537   3.134   3.307  10.452
 5402SOL    HW116538   3.181   3.320  10.539
 5402SOL    HW216539   3.068   3.233  10.461
 5403SOL     OW16540   3.444   2.501   9.782
 5403SOL    HW116541   3.413   2.562   9.855
 5403SOL    HW216542   3.494   2.553   9.713
 5404SOL     OW16543   2.216   3.372  10.639
 5404SOL    HW116544   2.195   3.328  10.552
 5404SOL    HW216545   2.313   3.398  10.642
 5405SOL     OW16546   3.449   2.641  10.980
 5405SOL    HW116547   3.357   2.679  10.975
 5405SOL    HW216548   3.509   2.688  10.915
 5406SOL     OW16549   2.435   2.732  10.339
 5406SOL    HW116550   2.479   2.821  10.330
 5406SOL    HW216551   2.372   2.732  10.416
 5407SOL     OW16552   3.222   2.724  10.355
 5407SOL    HW116553   3.147   2.724  10.289
 5407SOL    HW216554   3.259   2.632  10.364
 5408SOL     OW16555   3.071   2.387   9.585
 5408SOL    HW116556   3.084   2.303   9.639
 5408SOL    HW216557   3.042   2.461   9.645
 5409SOL     OW16558   2.169   2.075  10.541
 5409SOL    HW116559   2.146   2.112  10.631
 5409SOL    HW216560   2.139   1.980  10.535
 5410SOL     OW16561   1.899   3.172  10.592
 5410SOL    HW116562   1.952   3.123  10.660
 5410SOL    HW216563   1.921   3.270  10.597
 5411SOL     OW16564   2.594   2.496  10.374
 5411SOL    HW116565   2.653   2.470  10.298
 5411SOL    HW216566   2.566   2.592  10.363
 5412SOL     OW16567   2.169   1.925   9.928
 5412SOL    HW116568   2.158   2.019   9.961
 5412SOL    HW216569   2.164   1.862  10.005
 5413SOL     OW16570   3.484   2.229   9.684
 5413SOL    HW116571   3.486   2.153   9.748
 5413SOL    HW216572   3.436   2.306   9.724
 5414SOL     OW16573   2.885   2.628  10.276
 5414SOL    HW116574   2.900   2.649  10.372
 5414SOL    HW216575   2.855   2.533  10.267
 5415SOL     OW16576   2.842   3.435  11.010
 5415SOL    HW116577   2.822   3.479  10.922
 5415SOL    HW216578   2.881   3.344  10.994
 5416SOL     OW16579   3.402   2.136   9.435
 5416SOL    HW116580   3.341   2.061   9.458
 5416SOL    HW216581   3.424   2.188   9.518
 5417SOL     OW16582   3.165   2.700   9.352
 5417SOL    HW116583   3.199   2.607   9.367
 5417SOL    HW216584   3.183   2.727   9.257
 5418SOL     OW16585   2.930   3.195  10.159
 5418SOL    HW116586   2.937   3.111  10.104
 5418SOL    HW216587   2.992   3.264  10.123
 5419SOL     OW16588   2.181   2.672  10.259
 5419SOL    HW116589   2.274   2.708  10.264
 5419SOL    HW216590   2.175   2.587  10.311
 5420SOL     OW16591   3.000   2.242  10.988
 5420SOL    HW116592   2.955   2.305  11.052
 5420SOL    HW216593   3.093   2.273  10.971
 5421SOL     OW16594   3.022   2.069  10.787
 5421SOL    HW116595   3.022   2.133  10.864
 5421SOL    HW216596   3.050   2.117  10.704
 5422SOL     OW16597   1.870   3.188   9.510
 5422SOL    HW116598   1.777   3.209   9.479
 5422SOL    HW216599   1.880   3.089   9.523
 5423SOL     OW16600   1.950   3.663  10.237
 5423SOL    HW116601   1.908   3.577  10.210
 5423SOL    HW216602   2.044   3.666  10.203
 5424SOL     OW16603   2.366   3.430  10.220
 5424SOL    HW116604   2.432   3.504  10.229
 5424SOL    HW216605   2.410   3.351  10.178
 5425SOL     OW16606   2.864   2.658  10.548
 5425SOL    HW116607   2.905   2.626  10.634
 5425SOL    HW216608   2.768   2.631  10.545
 5426SOL     OW16609   1.902   2.406  10.424
 5426SOL    HW116610   1.987   2.373  10.383
 5426SOL    HW216611   1.915   2.421  10.522
 5427SOL     OW16612   3.519   2.466  10.516
 5427SOL    HW116613   3.481   2.397  10.578
 5427SOL    HW216614   3.601   2.430  10.472
 5428SOL     OW16615   2.792   3.540  10.775
 5428SOL    HW116616   2.768   3.522  10.680
 5428SOL    HW216617   2.822   3.634  10.785
 5429SOL     OW16618   2.021   2.999  10.776
 5429SOL    HW116619   2.043   2.938  10.852
 5429SOL    HW216620   2.031   2.950  10.690
 5430SOL     OW16621   3.209   2.921  10.544
 5430SOL    HW116622   3.233   2.858  10.470
 5430SOL    HW216623   3.119   2.961  10.526
 5431SOL     OW16624   3.164   2.717   9.619
 5431SOL    HW116625   3.078   2.686   9.661
 5431SOL    HW216626   3.160   2.703   9.520
 5432SOL     OW16627   3.621   3.609  10.464
 5432SOL    HW116628   3.682   3.639  10.391
 5432SOL    HW216629   3.583   3.520  10.442
 5433SOL     OW16630   3.114   3.593  10.438
 5433SOL    HW116631   3.198   3.598  10.384
 5433SOL    HW216632   3.091   3.497  10.456
 5434SOL     OW16633   1.945   3.120  10.332
 5434SOL    HW116634   1.940   3.119  10.432
 5434SOL    HW216635   1.862   3.079  10.294
 5435SOL     OW16636   3.588   1.997   9.833
 5435SOL    HW116637   3.661   1.980   9.766
 5435SOL    HW216638   3.557   1.910   9.871
 5436SOL     OW16639   3.250   3.435   9.787
 5436SOL    HW116640   3.317   3.447   9.713
 5436SOL    HW216641   3.210   3.524   9.810
 5437SOL     OW16642   3.142   2.789   9.982
 5437SOL    HW116643   3.202   2.708   9.984
 5437SOL    HW216644   3.182   2.858   9.922
 5438SOL     OW16645   2.534   3.478   9.464
 5438SOL    HW116646   2.543   3.488   9.365
 5438SOL    HW216647   2.494   3.389   9.485
 5439SOL     OW16648   3.512   3.582  10.704
 5439SOL    HW116649   3.565   3.592  10.620
 5439SOL    HW216650   3.485   3.672  10.738
 5440SOL     OW16651   3.703   2.037  10.273
 5440SOL    HW116652   3.742   1.952  10.237
 5440SOL    HW216653   3.605   2.039  10.254
 5441SOL     OW16654   2.125   2.188  10.030
 5441SOL    HW116655   2.046   2.239   9.996
 5441SOL    HW216656   2.116   2.173  10.128
 5442SOL     OW16657   3.056   3.474   9.341
 5442SOL    HW116658   3.062   3.381   9.378
 5442SOL    HW216659   2.997   3.474   9.261
 5443SOL     OW16660   2.684   2.864  10.682
 5443SOL    HW116661   2.724   2.863  10.590
 5443SOL    HW216662   2.694   2.956  10.722
 5444SOL     OW16663   2.778   2.772   9.601
 5444SOL    HW116664   2.841   2.810   9.533
 5444SOL    HW216665   2.818   2.689   9.640
 5445SOL     OW16666   3.366   3.469   9.354
 5445SOL    HW116667   3.274   3.506   9.361
 5445SOL    HW216668   3.404   3.489   9.264
 5446SOL     OW16669   2.234   3.150  10.800
 5446SOL    HW116670   2.221   3.243  10.766
 5446SOL    HW216671   2.150   3.098  10.787
 5447SOL     OW16672   3.476   3.154  10.599
 5447SOL    HW116673   3.536   3.157  10.679
 5447SOL    HW216674   3.401   3.218  10.612
 5448SOL     OW16675   2.901   2.960  10.006
 5448SOL    HW116676   2.831   2.913  10.060
 5448SOL    HW216677   2.960   2.892   9.963
 5449SOL     OW16678   2.876   2.098  10.281
 5449SOL    HW116679   2.868   2.062  10.188
 5449SOL    HW216680   2.874   2.022  10.346
 5450SOL     OW16681   2.452   3.349   9.801
 5450SOL    HW116682   2.494   3.291   9.731
 5450SOL    HW216683   2.408   3.428   9.757
 5451SOL     OW16684   3.571   2.247  10.691
 5451SOL    HW116685   3.644   2.316  10.695
 5451SOL    HW216686   3.599   2.172  10.632
 5452SOL     OW16687   2.117   3.210   9.600
 5452SOL    HW116688   2.021   3.211   9.573
 5452SOL    HW216689   2.129   3.263   9.684
 5453SOL     OW16690   1.937   2.207   9.343
 5453SOL    HW116691   1.845   2.179   9.314
 5453SOL    HW216692   1.968   2.284   9.287
 5454SOL     OW16693   3.302   2.718  10.708
 5454SOL    HW116694   3.245   2.770  10.645
 5454SOL    HW216695   3.398   2.730  10.684
 5455SOL     OW16696   1.934   2.028   9.628
 5455SOL    HW116697   1.917   2.111   9.574
 5455SOL    HW216698   2.024   1.991   9.606
 5456SOL     OW16699   3.045   3.197   9.429
 5456SOL    HW116700   2.946   3.186   9.431
 5456SOL    HW216701   3.079   3.212   9.522
 5457SOL     OW16702   2.475   2.704  10.741
 5457SOL    HW116703   2.531   2.785  10.724
 5457SOL    HW216704   2.534   2.624  10.744
 5458SOL     OW16705   3.355   3.629  10.269
 5458SOL    HW116706   3.388   3.693  10.200
 5458SOL    HW216707   3.421   3.623  10.344
 5459SOL     OW16708   2.252   3.603  10.870
 5459SOL    HW116709   2.161   3.644  10.868
 5459SOL    HW216710   2.245   3.509  10.902
 5460SOL     OW16711   3.536   2.745  10.564
 5460SOL    HW116712   3.509   2.656  10.527
 5460SOL    HW216713   3.537   2.813  10.491
 5461SOL     OW16714   3.087   2.187   9.759
 5461SOL    HW116715   3.152   2.113   9.748
 5461SOL    HW216716   3.107   2.237   9.843
 5462SOL     OW16717   2.456   2.607   9.962
 5462SOL    HW116718   2.506   2.692   9.943
 5462SOL    HW216719   2.368   2.609   9.914
 5463SOL     OW16720   3.592   2.796  10.827
 5463SOL    HW116721   3.630   2.887  10.842
 5463SOL    HW216722   3.584   2.779  10.728
 5464SOL     OW16723   2.721   3.236   9.326
 5464SOL    HW116724   2.675   3.251   9.414
 5464SOL    HW216725   2.765   3.321   9.296
 5465SOL     OW16726   2.523   3.652  10.263
 5465SOL    HW116727   2.477   3.740  10.250
 5465SOL    HW216728   2.622   3.664  10.256
 5466SOL     OW16729   2.721   2.818  10.171
 5466SOL    HW116730   2.775   2.749  10.219
 5466SOL    HW216731   2.689   2.887  10.237
 5467SOL     OW16732   2.945   2.846   9.397
 5467SOL    HW116733   2.922   2.899   9.315
 5467SOL    HW216734   3.026   2.790   9.378
 5468SOL     OW16735   3.723   3.431  10.161
 5468SOL    HW116736   3.652   3.419  10.091
 5468SOL    HW216737   3.724   3.352  10.221
 5469SOL     OW16738   1.941   3.102   9.963
 5469SOL    HW116739   1.940   3.055  10.051
 5469SOL    HW216740   2.023   3.074   9.912
 5470SOL     OW16741   3.686   2.054  10.537
 5470SOL    HW116742   3.682   1.964  10.581
 5470SOL    HW216743   3.689   2.043  10.438
 5471SOL     OW16744   3.567   3.349  10.414
 5471SOL    HW116745   3.474   3.324  10.387
 5471SOL    HW216746   3.593   3.299  10.496
 5472SOL     OW16747   2.674   3.448   9.997
 5472SOL    HW116748   2.706   3.458   9.903
 5472SOL    HW216749   2.595   3.386   9.999
 5473SOL     OW16750   3.286   2.076  10.422
 5473SOL    HW116751   3.338   2.011  10.477
 5473SOL    HW216752   3.237   2.139  10.483
 5474SOL     OW16753   2.863   1.896  10.464
 5474SOL    HW116754   2.800   1.824  10.433
 5474SOL    HW216755   2.956   1.860  10.464
 5475SOL     OW16756   2.632   3.192   9.611
 5475SOL    HW116757   2.586   3.105   9.628
 5475SOL    HW216758   2.723   3.189   9.652
 5476SOL     OW16759   2.480   3.429  10.594
 5476SOL    HW116760   2.475   3.511  10.651
 5476SOL    HW216761   2.569   3.426  10.549
 5477SOL     OW16762   3.214   1.914   9.478
 5477SOL    HW116763   3.249   1.873   9.394
 5477SOL    HW216764   3.124   1.876   9.498
 5478SOL     OW16765   3.162   2.315  10.001
 5478SOL    HW116766   3.103   2.395  10.005
 5478SOL    HW216767   3.177   2.280  10.094
 5479SOL     OW16768   3.455   2.083  10.192
 5479SOL    HW116769   3.371   2.082  10.246
 5479SOL    HW216770   3.457   2.166  10.136
 5480SOL     OW16771   1.901   2.939   9.610
 5480SOL    HW116772   2.000   2.928   9.601
 5480SOL    HW216773   1.861   2.853   9.642
 5481SOL     OW16774   2.737   3.508   9.647
 5481SOL    HW116775   2.660   3.473   9.593
 5481SOL    HW216776   2.705   3.579   9.709
 5482SOL     OW16777   2.092   4.352   0.113
 5482SOL    HW116778   1.999   4.350   0.150
 5482SOL    HW216779   2.093   4.313   0.021
 5483SOL     OW16780   2.087   3.999   0.996
 5483SOL    HW116781   2.122   3.982   1.088
 5483SOL    HW216782   1.999   3.954   0.984
 5484SOL     OW16783   1.881   4.092   0.647
 5484SOL    HW116784   1.799   4.135   0.686
 5484SOL    HW216785   1.853   4.019   0.584
 5485SOL     OW16786   2.997   4.427   0.717
 5485SOL    HW116787   3.054   4.505   0.692
 5485SOL    HW216788   2.937   4.453   0.793
 5486SOL     OW16789   3.617   4.331   0.231
 5486SOL    HW116790   3.605   4.318   0.132
 5486SOL    HW216791   3.587   4.250   0.280
 5487SOL     OW16792   2.712   4.522   1.823
 5487SOL    HW116793   2.708   4.598   1.888
 5487SOL    HW216794   2.734   4.558   1.732
 5488SOL     OW16795   2.547   4.736   0.665
 5488SOL    HW116796   2.616   4.720   0.735
 5488SOL    HW216797   2.474   4.793   0.703
 5489SOL     OW16798   2.300   4.116   1.499
 5489SOL    HW116799   2.382   4.060   1.508
 5489SOL    HW216800   2.219   4.058   1.503
 5490SOL     OW16801   3.465   4.171   0.737
 5490SOL    HW116802   3.391   4.217   0.687
 5490SOL    HW216803   3.516   4.239   0.790
 5491SOL     OW16804   3.456   3.838   1.480
 5491SOL    HW116805   3.438   3.905   1.408
 5491SOL    HW216806   3.453   3.884   1.569
 5492SOL     OW16807   1.984   4.367   0.563
 5492SOL    HW116808   1.939   4.279   0.580
 5492SOL    HW216809   1.983   4.421   0.647
 5493SOL     OW16810   1.975   4.461   1.597
 5493SOL    HW116811   2.063   4.448   1.642
 5493SOL    HW216812   1.962   4.558   1.575
 5494SOL     OW16813   2.671   3.728   0.502
 5494SOL    HW116814   2.711   3.819   0.493
 5494SOL    HW216815   2.571   3.736   0.508
 5495SOL     OW16816   2.059   4.700   1.264
 5495SOL    HW116817   2.148   4.655   1.250
 5495SOL    HW216818   1.986   4.635   1.245
 5496SOL     OW16819   3.387   4.723   0.190
 5496SOL    HW116820   3.324   4.647   0.203
 5496SOL    HW216821   3.435   4.741   0.276
 5497SOL     OW16822   2.179   3.975   1.801
 5497SOL    HW116823   2.250   4.046   1.807
 5497SOL    HW216824   2.091   4.014   1.829
 5498SOL     OW16825   2.460   4.453   0.270
 5498SOL    HW116826   2.484   4.522   0.202
 5498SOL    HW216827   2.382   4.486   0.324
 5499SOL     OW16828   3.143   4.069   0.944
 5499SOL    HW116829   3.057   4.019   0.931
 5499SOL    HW216830   3.205   4.015   1.000
 5500SOL     OW16831   2.669   4.329   1.465
 5500SOL    HW116832   2.622   4.326   1.554
 5500SOL    HW216833   2.618   4.274   1.399
 5501SOL     OW16834   3.256   4.193   1.674
 5501SOL    HW116835   3.236   4.236   1.762
 5501SOL    HW216836   3.334   4.131   1.683
 5502SOL     OW16837   2.835   4.614   1.572
 5502SOL    HW116838   2.881   4.530   1.543
 5502SOL    HW216839   2.779   4.648   1.497
 5503SOL     OW16840   2.853   4.134   1.242
 5503SOL    HW116841   2.776   4.168   1.296
 5503SOL    HW216842   2.819   4.083   1.163
 5504SOL     OW16843   2.903   4.425   0.429
 5504SOL    HW116844   2.929   4.421   0.525
 5504SOL    HW216845   2.818   4.374   0.415
 5505SOL     OW16846   1.938   4.535   0.789
 5505SOL    HW116847   2.037   4.523   0.798
 5505SOL    HW216848   1.914   4.630   0.810
 5506SOL     OW16849   2.727   4.072   0.195
 5506SOL    HW116850   2.786   4.135   0.146
 5506SOL    HW216851   2.746   3.978   0.166
 5507SOL     OW16852   3.581   4.309   1.831
 5507SOL    HW116853   3.555   4.398   1.795
 5507SOL    HW216854   3.579   4.241   1.758
 5508SOL     OW16855   2.412   3.920   0.885
 5508SOL    HW116856   2.407   3.915   0.985
 5508SOL    HW216857   2.414   4.016   0.856
 5509SOL     OW16858   3.320   4.459   0.728
 5509SOL    HW116859   3.315   4.394   0.803
 5509SOL    HW216860   3.400   4.518   0.741
 5510SOL     OW16861   2.064   4.009   1.498
 5510SOL    HW116862   1.984   4.069   1.485
 5510SOL    HW216863   2.054   3.960   1.584
 5511SOL     OW16864   3.262   3.831   0.426
 5511SOL    HW116865   3.238   3.794   0.336
 5511SOL    HW216866   3.361   3.847   0.430
 5512SOL     OW16867   2.244   4.424   0.480
 5512SOL    HW116868   2.289   4.334   0.477
 5512SOL    HW216869   2.150   4.413   0.513
 5513SOL     OW16870   3.409   3.946   1.729
 5513SOL    HW116871   3.404   3.983   1.821
 5513SOL    HW216872   3.337   3.877   1.717
 5514SOL     OW16873   2.476   3.846   0.117
 5514SOL    HW116874   2.574   3.824   0.124
 5514SOL    HW216875   2.445   3.829   0.024
 5515SOL     OW16876   2.643   3.988   1.749
 5515SOL    HW116877   2.710   3.927   1.792
 5515SOL    HW216878   2.570   4.007   1.814
 5516SOL     OW16879   3.213   4.314   1.433
 5516SOL    HW116880   3.241   4.271   1.518
 5516SOL    HW216881   3.238   4.410   1.434
 5517SOL     OW16882   2.784   4.227   0.899
 5517SOL    HW116883   2.759   4.218   0.803
 5517SOL    HW216884   2.832   4.145   0.930
 5518SOL     OW16885   2.401   3.788   0.512
 5518SOL    HW116886   2.320   3.789   0.570
 5518SOL    HW216887   2.404   3.871   0.457
 5519SOL     OW16888   2.159   3.759   0.171
 5519SOL    HW116889   2.208   3.843   0.150
 5519SOL    HW216890   2.221   3.694   0.216
 5520SOL     OW16891   2.797   3.960   0.480
 5520SOL    HW116892   2.749   4.001   0.402
 5520SOL    HW216893   2.896   3.958   0.461
 5521SOL     OW16894   2.938   4.407   1.464
 5521SOL    HW116895   2.858   4.346   1.467
 5521SOL    HW216896   3.019   4.354   1.440
 5522SOL     OW16897   2.894   4.273   0.016
 5522SOL    HW116898   2.853   4.355  -0.023
 5522SOL    HW216899   2.958   4.299   0.089
 5523SOL     OW16900   1.940   4.280   1.386
 5523SOL    HW116901   2.032   4.279   1.345
 5523SOL    HW216902   1.934   4.354   1.453
 5524SOL     OW16903   2.423   3.946   1.147
 5524SOL    HW116904   2.461   3.862   1.184
 5524SOL    HW216905   2.335   3.965   1.191
 5525SOL     OW16906   2.728   4.178   0.642
 5525SOL    HW116907   2.696   4.250   0.580
 5525SOL    HW216908   2.752   4.097   0.589
 5526SOL     OW16909   2.879   3.763   0.753
 5526SOL    HW116910   2.807   3.768   0.684
 5526SOL    HW216911   2.855   3.694   0.822
 5527SOL     OW16912   3.328   4.314   0.992
 5527SOL    HW116913   3.298   4.219   0.999
 5527SOL    HW216914   3.401   4.330   1.058
 5528SOL     OW16915   3.719   4.557   0.377
 5528SOL    HW116916   3.761   4.493   0.441
 5528SOL    HW216917   3.681   4.506   0.299
 5529SOL     OW16918   3.252   4.299   0.078
 5529SOL    HW116919   3.198   4.278   0.159
 5529SOL    HW216920   3.343   4.258   0.087
 5530SOL     OW16921   2.389   3.980   0.328
 5530SOL    HW116922   2.416   3.921   0.253
 5530SOL    HW216923   2.389   4.075   0.297
 5531SOL     OW16924   3.500   4.823   1.079
 5531SOL    HW116925   3.505   4.904   1.138
 5531SOL    HW216926   3.414   4.825   1.028
 5532SOL     OW16927   2.777   3.813   1.402
 5532SOL    HW116928   2.802   3.793   1.307
 5532SOL    HW216929   2.849   3.869   1.444
 5533SOL     OW16930   2.272   4.537   1.251
 5533SOL    HW116931   2.358   4.549   1.301
 5533SOL    HW216932   2.230   4.450   1.278
 5534SOL     OW16933   3.136   4.110   1.262
 5534SOL    HW116934   3.157   4.184   1.326
 5534SOL    HW216935   3.047   4.127   1.219
 5535SOL     OW16936   2.428   4.261   0.865
 5535SOL    HW116937   2.440   4.327   0.791
 5535SOL    HW216938   2.474   4.295   0.948
 5536SOL     OW16939   3.444   4.363   0.472
 5536SOL    HW116940   3.413   4.424   0.545
 5536SOL    HW216941   3.494   4.415   0.403
 5537SOL     OW16942   2.264   4.475   1.598
 5537SOL    HW116943   2.332   4.530   1.551
 5537SOL    HW216944   2.304   4.387   1.625
 5538SOL     OW16945   3.449   4.503   1.670
 5538SOL    HW116946   3.357   4.541   1.665
 5538SOL    HW216947   3.509   4.550   1.605
 5539SOL     OW16948   2.875   3.829   1.770
 5539SOL    HW116949   2.881   3.914   1.718
 5539SOL    HW216950   2.907   3.753   1.713
 5540SOL     OW16951   2.366   3.774   1.740
 5540SOL    HW116952   2.324   3.717   1.670
 5540SOL    HW216953   2.300   3.843   1.772
 5541SOL     OW16954   2.435   4.594   1.029
 5541SOL    HW116955   2.479   4.683   1.020
 5541SOL    HW216956   2.372   4.594   1.106
 5542SOL     OW16957   3.222   4.586   1.045
 5542SOL    HW116958   3.147   4.586   0.979
 5542SOL    HW216959   3.259   4.494   1.054
 5543SOL     OW16960   3.071   4.249   0.275
 5543SOL    HW116961   3.084   4.165   0.329
 5543SOL    HW216962   3.042   4.323   0.335
 5544SOL     OW16963   2.169   3.937   1.231
 5544SOL    HW116964   2.146   3.974   1.321
 5544SOL    HW216965   2.139   3.842   1.225
 5545SOL     OW16966   2.594   4.358   1.064
 5545SOL    HW116967   2.653   4.332   0.988
 5545SOL    HW216968   2.566   4.454   1.053
 5546SOL     OW16969   3.590   4.659   1.854
 5546SOL    HW116970   3.544   4.652   1.765
 5546SOL    HW216971   3.528   4.703   1.920
 5547SOL     OW16972   2.169   3.787   0.618
 5547SOL    HW116973   2.158   3.881   0.651
 5547SOL    HW216974   2.164   3.724   0.695
 5548SOL     OW16975   3.484   4.091   0.374
 5548SOL    HW116976   3.486   4.015   0.438
 5548SOL    HW216977   3.436   4.168   0.414
 5549SOL     OW16978   2.885   4.490   0.966
 5549SOL    HW116979   2.900   4.511   1.062
 5549SOL    HW216980   2.855   4.395   0.957
 5550SOL     OW16981   2.212   4.622   1.804
 5550SOL    HW116982   2.288   4.666   1.852
 5550SOL    HW216983   2.247   4.575   1.722
 5551SOL     OW16984   3.402   3.998   0.125
 5551SOL    HW116985   3.341   3.923   0.148
 5551SOL    HW216986   3.424   4.050   0.208
 5552SOL     OW16987   3.165   4.562   0.042
 5552SOL    HW116988   3.199   4.469   0.057
 5552SOL    HW216989   3.183   4.589  -0.053
 5553SOL     OW16990   2.181   4.534   0.949
 5553SOL    HW116991   2.274   4.570   0.954
 5553SOL    HW216992   2.175   4.449   1.001
 5554SOL     OW16993   2.201   4.233   1.006
 5554SOL    HW116994   2.149   4.150   0.989
 5554SOL    HW216995   2.278   4.238   0.942
 5555SOL     OW16996   3.000   4.104   1.678
 5555SOL    HW116997   2.955   4.167   1.742
 5555SOL    HW216998   3.093   4.135   1.661
 5556SOL     OW16999   3.022   3.931   1.477
 5556SOL    HW117000   3.022   3.995   1.554
 5556SOL    HW217001   3.050   3.979   1.394
 5557SOL     OW17002   2.864   4.520   1.238
 5557SOL    HW117003   2.905   4.488   1.324
 5557SOL    HW217004   2.768   4.493   1.235
 5558SOL     OW17005   1.902   4.268   1.114
 5558SOL    HW117006   1.987   4.235   1.073
 5558SOL    HW217007   1.915   4.283   1.212
 5559SOL     OW17008   2.051   4.244   1.722
 5559SOL    HW117009   2.110   4.204   1.652
 5559SOL    HW217010   1.993   4.315   1.681
 5560SOL     OW17011   3.231   4.674   1.660
 5560SOL    HW117012   3.270   4.763   1.680
 5560SOL    HW217013   3.241   4.654   1.563
 5561SOL     OW17014   2.677   4.296   0.325
 5561SOL    HW117015   2.684   4.207   0.279
 5561SOL    HW217016   2.583   4.330   0.317
 5562SOL     OW17017   3.519   4.328   1.206
 5562SOL    HW117018   3.481   4.259   1.268
 5562SOL    HW217019   3.601   4.292   1.162
 5563SOL     OW17020   2.533   4.188   1.269
 5563SOL    HW117021   2.499   4.099   1.239
 5563SOL    HW217022   2.559   4.242   1.189
 5564SOL     OW17023   2.335   4.224   0.191
 5564SOL    HW117024   2.396   4.304   0.195
 5564SOL    HW217025   2.240   4.255   0.198
 5565SOL     OW17026   3.209   4.783   1.234
 5565SOL    HW117027   3.233   4.720   1.160
 5565SOL    HW217028   3.119   4.823   1.216
 5566SOL     OW17029   3.164   4.579   0.309
 5566SOL    HW117030   3.078   4.548   0.351
 5566SOL    HW217031   3.160   4.565   0.210
 5567SOL     OW17032   2.765   3.810   0.133
 5567SOL    HW117033   2.816   3.811   0.047
 5567SOL    HW217034   2.821   3.768   0.204
 5568SOL     OW17035   3.588   3.859   0.523
 5568SOL    HW117036   3.661   3.842   0.456
 5568SOL    HW217037   3.557   3.772   0.561
 5569SOL     OW17038   3.142   4.651   0.672
 5569SOL    HW117039   3.202   4.570   0.674
 5569SOL    HW217040   3.182   4.720   0.612
 5570SOL     OW17041   3.703   3.899   0.963
 5570SOL    HW117042   3.742   3.814   0.927
 5570SOL    HW217043   3.605   3.901   0.944
 5571SOL     OW17044   2.125   4.050   0.720
 5571SOL    HW117045   2.046   4.101   0.686
 5571SOL    HW217046   2.116   4.035   0.818
 5572SOL     OW17047   2.876   3.960   0.971
 5572SOL    HW117048   2.868   3.924   0.878
 5572SOL    HW217049   2.874   3.884   1.036
 5573SOL     OW17050   3.571   4.109   1.381
 5573SOL    HW117051   3.644   4.178   1.385
 5573SOL    HW217052   3.599   4.034   1.322
 5574SOL     OW17053   1.967   4.737   1.726
 5574SOL    HW117054   1.890   4.704   1.780
 5574SOL    HW217055   2.052   4.707   1.768
 5575SOL     OW17056   2.534   3.927   1.489
 5575SOL    HW117057   2.624   3.911   1.449
 5575SOL    HW217058   2.542   3.932   1.588
 5576SOL     OW17059   1.937   4.069   0.033
 5576SOL    HW117060   1.845   4.041   0.004
 5576SOL    HW217061   1.968   4.146  -0.023
 5577SOL     OW17062   3.302   4.580   1.398
 5577SOL    HW117063   3.245   4.632   1.335
 5577SOL    HW217064   3.398   4.592   1.374
 5578SOL     OW17065   1.934   3.890   0.318
 5578SOL    HW117066   1.917   3.973   0.264
 5578SOL    HW217067   2.024   3.853   0.296
 5579SOL     OW17068   2.475   4.566   1.431
 5579SOL    HW117069   2.531   4.647   1.414
 5579SOL    HW217070   2.534   4.486   1.434
 5580SOL     OW17071   2.578   4.289   1.708
 5580SOL    HW117072   2.597   4.354   1.782
 5580SOL    HW217073   2.638   4.209   1.717
 5581SOL     OW17074   3.536   4.607   1.254
 5581SOL    HW117075   3.509   4.518   1.217
 5581SOL    HW217076   3.537   4.675   1.181
 5582SOL     OW17077   3.087   4.049   0.449
 5582SOL    HW117078   3.152   3.975   0.438
 5582SOL    HW217079   3.107   4.099   0.533
 5583SOL     OW17080   2.456   4.469   0.652
 5583SOL    HW117081   2.506   4.554   0.633
 5583SOL    HW217082   2.368   4.471   0.604
 5584SOL     OW17083   3.639   4.066   1.642
 5584SOL    HW117084   3.622   4.097   1.548
 5584SOL    HW217085   3.555   4.029   1.680
 5585SOL     OW17086   3.592   4.658   1.517
 5585SOL    HW117087   3.630   4.749   1.532
 5585SOL    HW217088   3.584   4.641   1.418
 5586SOL     OW17089   3.686   3.916   1.227
 5586SOL    HW117090   3.682   3.826   1.271
 5586SOL    HW217091   3.689   3.905   1.128
 5587SOL     OW17092   2.290   4.148   0.520
 5587SOL    HW117093   2.320   4.076   0.458
 5587SOL    HW217094   2.251   4.108   0.603
 5588SOL     OW17095   2.179   4.271   1.280
 5588SOL    HW117096   2.217   4.212   1.352
 5588SOL    HW217097   2.219   4.245   1.192
 5589SOL     OW17098   3.286   3.938   1.112
 5589SOL    HW117099   3.338   3.873   1.167
 5589SOL    HW217100   3.237   4.001   1.173
 5590SOL     OW17101   2.863   3.758   1.154
 5590SOL    HW117102   2.800   3.686   1.123
 5590SOL    HW217103   2.956   3.722   1.154
 5591SOL     OW17104   3.214   3.776   0.168
 5591SOL    HW117105   3.249   3.735   0.084
 5591SOL    HW217106   3.124   3.738   0.188
 5592SOL     OW17107   3.162   4.177   0.691
 5592SOL    HW117108   3.103   4.257   0.695
 5592SOL    HW217109   3.177   4.142   0.784
 5593SOL     OW17110   3.455   3.945   0.882
 5593SOL    HW117111   3.371   3.944   0.936
 5593SOL    HW217112   3.457   4.028   0.826
 5594SOL     OW17113   2.092   4.352   1.975
 5594SOL    HW117114   1.999   4.350   2.012
 5594SOL    HW217115   2.093   4.313   1.883
 5595SOL     OW17116   2.087   3.999   2.858
 5595SOL    HW117117   2.122   3.982   2.950
 5595SOL    HW217118   1.999   3.954   2.846
 5596SOL     OW17119   1.881   4.092   2.509
 5596SOL    HW117120   1.799   4.135   2.548
 5596SOL    HW217121   1.853   4.019   2.446
 5597SOL     OW17122   2.997   4.427   2.579
 5597SOL    HW117123   3.054   4.505   2.554
 5597SOL    HW217124   2.937   4.453   2.655
 5598SOL     OW17125   3.617   4.331   2.093
 5598SOL    HW117126   3.605   4.318   1.994
 5598SOL    HW217127   3.587   4.250   2.142
 5599SOL     OW17128   2.712   4.522   3.685
 5599SOL    HW117129   2.708   4.598   3.750
 5599SOL    HW217130   2.734   4.558   3.594
 5600SOL     OW17131   2.547   4.736   2.527
 5600SOL    HW117132   2.616   4.720   2.597
 5600SOL    HW217133   2.474   4.793   2.565
 5601SOL     OW17134   2.300   4.116   3.361
 5601SOL    HW117135   2.382   4.060   3.370
 5601SOL    HW217136   2.219   4.058   3.365
 5602SOL     OW17137   3.465   4.171   2.599
 5602SOL    HW117138   3.391   4.217   2.549
 5602SOL    HW217139   3.516   4.239   2.652
 5603SOL     OW17140   3.456   3.838   3.342
 5603SOL    HW117141   3.438   3.905   3.270
 5603SOL    HW217142   3.453   3.884   3.431
 5604SOL     OW17143   1.984   4.367   2.425
 5604SOL    HW117144   1.939   4.279   2.442
 5604SOL    HW217145   1.983   4.421   2.509
 5605SOL     OW17146   1.975   4.461   3.459
 5605SOL    HW117147   2.063   4.448   3.504
 5605SOL    HW217148   1.962   4.558   3.437
 5606SOL     OW17149   2.671   3.728   2.364
 5606SOL    HW117150   2.711   3.819   2.355
 5606SOL    HW217151   2.571   3.736   2.370
 5607SOL     OW17152   2.059   4.700   3.126
 5607SOL    HW117153   2.148   4.655   3.112
 5607SOL    HW217154   1.986   4.635   3.107
 5608SOL     OW17155   3.387   4.723   2.052
 5608SOL    HW117156   3.324   4.647   2.065
 5608SOL    HW217157   3.435   4.741   2.138
 5609SOL     OW17158   2.179   3.975   3.663
 5609SOL    HW117159   2.250   4.046   3.669
 5609SOL    HW217160   2.091   4.014   3.691
 5610SOL     OW17161   2.460   4.453   2.132
 5610SOL    HW117162   2.484   4.522   2.064
 5610SOL    HW217163   2.382   4.486   2.186
 5611SOL     OW17164   3.143   4.069   2.806
 5611SOL    HW117165   3.057   4.019   2.793
 5611SOL    HW217166   3.205   4.015   2.862
 5612SOL     OW17167   2.669   4.329   3.327
 5612SOL    HW117168   2.622   4.326   3.416
 5612SOL    HW217169   2.618   4.274   3.261
 5613SOL     OW17170   3.256   4.193   3.536
 5613SOL    HW117171   3.236   4.236   3.624
 5613SOL    HW217172   3.334   4.131   3.545
 5614SOL     OW17173   2.835   4.614   3.434
 5614SOL    HW117174   2.881   4.530   3.405
 5614SOL    HW217175   2.779   4.648   3.359
 5615SOL     OW17176   2.853   4.134   3.104
 5615SOL    HW117177   2.776   4.168   3.158
 5615SOL    HW217178   2.819   4.083   3.025
 5616SOL     OW17179   2.903   4.425   2.291
 5616SOL    HW117180   2.929   4.421   2.387
 5616SOL    HW217181   2.818   4.374   2.277
 5617SOL     OW17182   1.938   4.535   2.651
 5617SOL    HW117183   2.037   4.523   2.660
 5617SOL    HW217184   1.914   4.630   2.672
 5618SOL     OW17185   2.727   4.072   2.057
 5618SOL    HW117186   2.786   4.135   2.008
 5618SOL    HW217187   2.746   3.978   2.028
 5619SOL     OW17188   3.581   4.309   3.693
 5619SOL    HW117189   3.555   4.398   3.657
 5619SOL    HW217190   3.579   4.241   3.620
 5620SOL     OW17191   2.412   3.920   2.747
 5620SOL    HW117192   2.407   3.915   2.847
 5620SOL    HW217193   2.414   4.016   2.718
 5621SOL     OW17194   3.320   4.459   2.590
 5621SOL    HW117195   3.315   4.394   2.665
 5621SOL    HW217196   3.400   4.518   2.603
 5622SOL     OW17197   2.064   4.009   3.360
 5622SOL    HW117198   1.984   4.069   3.347
 5622SOL    HW217199   2.054   3.960   3.446
 5623SOL     OW17200   3.262   3.831   2.288
 5623SOL    HW117201   3.238   3.794   2.198
 5623SOL    HW217202   3.361   3.847   2.292
 5624SOL     OW17203   2.244   4.424   2.342
 5624SOL    HW117204   2.289   4.334   2.339
 5624SOL    HW217205   2.150   4.413   2.375
 5625SOL     OW17206   3.409   3.946   3.591
 5625SOL    HW117207   3.404   3.983   3.683
 5625SOL    HW217208   3.337   3.877   3.579
 5626SOL     OW17209   2.476   3.846   1.979
 5626SOL    HW117210   2.574   3.824   1.986
 5626SOL    HW217211   2.445   3.829   1.886
 5627SOL     OW17212   2.643   3.988   3.611
 5627SOL    HW117213   2.710   3.927   3.654
 5627SOL    HW217214   2.570   4.007   3.676
 5628SOL     OW17215   3.213   4.314   3.295
 5628SOL    HW117216   3.241   4.271   3.380
 5628SOL    HW217217   3.238   4.410   3.296
 5629SOL     OW17218   2.784   4.227   2.761
 5629SOL    HW117219   2.759   4.218   2.665
 5629SOL    HW217220   2.832   4.145   2.792
 5630SOL     OW17221   2.401   3.788   2.374
 5630SOL    HW117222   2.320   3.789   2.432
 5630SOL    HW217223   2.404   3.871   2.319
 5631SOL     OW17224   2.159   3.759   2.033
 5631SOL    HW117225   2.208   3.843   2.012
 5631SOL    HW217226   2.221   3.694   2.078
 5632SOL     OW17227   2.797   3.960   2.342
 5632SOL    HW117228   2.749   4.001   2.264
 5632SOL    HW217229   2.896   3.958   2.323
 5633SOL     OW17230   2.938   4.407   3.326
 5633SOL    HW117231   2.858   4.346   3.329
 5633SOL    HW217232   3.019   4.354   3.302
 5634SOL     OW17233   2.894   4.273   1.878
 5634SOL    HW117234   2.853   4.355   1.839
 5634SOL    HW217235   2.958   4.299   1.951
 5635SOL     OW17236   1.940   4.280   3.248
 5635SOL    HW117237   2.032   4.279   3.207
 5635SOL    HW217238   1.934   4.354   3.315
 5636SOL     OW17239   2.423   3.946   3.009
 5636SOL    HW117240   2.461   3.862   3.046
 5636SOL    HW217241   2.335   3.965   3.053
 5637SOL     OW17242   2.728   4.178   2.504
 5637SOL    HW117243   2.696   4.250   2.442
 5637SOL    HW217244   2.752   4.097   2.451
 5638SOL     OW17245   2.879   3.763   2.615
 5638SOL    HW117246   2.807   3.768   2.546
 5638SOL    HW217247   2.855   3.694   2.684
 5639SOL     OW17248   3.328   4.314   2.854
 5639SOL    HW117249   3.298   4.219   2.861
 5639SOL    HW217250   3.401   4.330   2.920
 5640SOL     OW17251   3.719   4.557   2.239
 5640SOL    HW117252   3.761   4.493   2.303
 5640SOL    HW217253   3.681   4.506   2.161
 5641SOL     OW17254   3.252   4.299   1.940
 5641SOL    HW117255   3.198   4.278   2.021
 5641SOL    HW217256   3.343   4.258   1.949
 5642SOL     OW17257   2.389   3.980   2.190
 5642SOL    HW117258   2.416   3.921   2.115
 5642SOL    HW217259   2.389   4.075   2.159
 5643SOL     OW17260   3.500   4.823   2.941
 5643SOL    HW117261   3.505   4.904   3.000
 5643SOL    HW217262   3.414   4.825   2.890
 5644SOL     OW17263   2.777   3.813   3.264
 5644SOL    HW117264   2.802   3.793   3.169
 5644SOL    HW217265   2.849   3.869   3.306
 5645SOL     OW17266   2.272   4.537   3.113
 5645SOL    HW117267   2.358   4.549   3.163
 5645SOL    HW217268   2.230   4.450   3.140
 5646SOL     OW17269   3.136   4.110   3.124
 5646SOL    HW117270   3.157   4.184   3.188
 5646SOL    HW217271   3.047   4.127   3.081
 5647SOL     OW17272   2.428   4.261   2.727
 5647SOL    HW117273   2.440   4.327   2.653
 5647SOL    HW217274   2.474   4.295   2.810
 5648SOL     OW17275   3.444   4.363   2.334
 5648SOL    HW117276   3.413   4.424   2.407
 5648SOL    HW217277   3.494   4.415   2.265
 5649SOL     OW17278   2.264   4.475   3.460
 5649SOL    HW117279   2.332   4.530   3.413
 5649SOL    HW217280   2.304   4.387   3.487
 5650SOL     OW17281   3.449   4.503   3.532
 5650SOL    HW117282   3.357   4.541   3.527
 5650SOL    HW217283   3.509   4.550   3.467
 5651SOL     OW17284   2.875   3.829   3.632
 5651SOL    HW117285   2.881   3.914   3.580
 5651SOL    HW217286   2.907   3.753   3.575
 5652SOL     OW17287   2.366   3.774   3.602
 5652SOL    HW117288   2.324   3.717   3.532
 5652SOL    HW217289   2.300   3.843   3.634
 5653SOL     OW17290   2.435   4.594   2.891
 5653SOL    HW117291   2.479   4.683   2.882
 5653SOL    HW217292   2.372   4.594   2.968
 5654SOL     OW17293   3.222   4.586   2.907
 5654SOL    HW117294   3.147   4.586   2.841
 5654SOL    HW217295   3.259   4.494   2.916
 5655SOL     OW17296   3.071   4.249   2.137
 5655SOL    HW117297   3.084   4.165   2.191
 5655SOL    HW217298   3.042   4.323   2.197
 5656SOL     OW17299   2.169   3.937   3.093
 5656SOL    HW117300   2.146   3.974   3.183
 5656SOL    HW217301   2.139   3.842   3.087
 5657SOL     OW17302   2.594   4.358   2.926
 5657SOL    HW117303   2.653   4.332   2.850
 5657SOL    HW217304   2.566   4.454   2.915
 5658SOL     OW17305   3.590   4.659   3.716
 5658SOL    HW117306   3.544   4.652   3.627
 5658SOL    HW217307   3.528   4.703   3.782
 5659SOL     OW17308   2.169   3.787   2.480
 5659SOL    HW117309   2.158   3.881   2.513
 5659SOL    HW217310   2.164   3.724   2.557
 5660SOL     OW17311   3.484   4.091   2.236
 5660SOL    HW117312   3.486   4.015   2.300
 5660SOL    HW217313   3.436   4.168   2.276
 5661SOL     OW17314   2.885   4.490   2.828
 5661SOL    HW117315   2.900   4.511   2.924
 5661SOL    HW217316   2.855   4.395   2.819
 5662SOL     OW17317   2.212   4.622   3.666
 5662SOL    HW117318   2.288   4.666   3.714
 5662SOL    HW217319   2.247   4.575   3.584
 5663SOL     OW17320   3.402   3.998   1.987
 5663SOL    HW117321   3.341   3.923   2.010
 5663SOL    HW217322   3.424   4.050   2.070
 5664SOL     OW17323   3.165   4.562   1.904
 5664SOL    HW117324   3.199   4.469   1.919
 5664SOL    HW217325   3.183   4.589   1.809
 5665SOL     OW17326   2.181   4.534   2.811
 5665SOL    HW117327   2.274   4.570   2.816
 5665SOL    HW217328   2.175   4.449   2.863
 5666SOL     OW17329   2.201   4.233   2.868
 5666SOL    HW117330   2.149   4.150   2.851
 5666SOL    HW217331   2.278   4.238   2.804
 5667SOL     OW17332   3.000   4.104   3.540
 5667SOL    HW117333   2.955   4.167   3.604
 5667SOL    HW217334   3.093   4.135   3.523
 5668SOL     OW17335   3.022   3.931   3.339
 5668SOL    HW117336   3.022   3.995   3.416
 5668SOL    HW217337   3.050   3.979   3.256
 5669SOL     OW17338   2.864   4.520   3.100
 5669SOL    HW117339   2.905   4.488   3.186
 5669SOL    HW217340   2.768   4.493   3.097
 5670SOL     OW17341   1.902   4.268   2.976
 5670SOL    HW117342   1.987   4.235   2.935
 5670SOL    HW217343   1.915   4.283   3.074
 5671SOL     OW17344   2.051   4.244   3.584
 5671SOL    HW117345   2.110   4.204   3.514
 5671SOL    HW217346   1.993   4.315   3.543
 5672SOL     OW17347   3.231   4.674   3.522
 5672SOL    HW117348   3.270   4.763   3.542
 5672SOL    HW217349   3.241   4.654   3.425
 5673SOL     OW17350   2.677   4.296   2.187
 5673SOL    HW117351   2.684   4.207   2.141
 5673SOL    HW217352   2.583   4.330   2.179
 5674SOL     OW17353   3.519   4.328   3.068
 5674SOL    HW117354   3.481   4.259   3.130
 5674SOL    HW217355   3.601   4.292   3.024
 5675SOL     OW17356   2.533   4.188   3.131
 5675SOL    HW117357   2.499   4.099   3.101
 5675SOL    HW217358   2.559   4.242   3.051
 5676SOL     OW17359   2.335   4.224   2.053
 5676SOL    HW117360   2.396   4.304   2.057
 5676SOL    HW217361   2.240   4.255   2.060
 5677SOL     OW17362   3.209   4.783   3.096
 5677SOL    HW117363   3.233   4.720   3.022
 5677SOL    HW217364   3.119   4.823   3.078
 5678SOL     OW17365   3.164   4.579   2.171
 5678SOL    HW117366   3.078   4.548   2.213
 5678SOL    HW217367   3.160   4.565   2.072
 5679SOL     OW17368   3.588   3.859   2.385
 5679SOL    HW117369   3.661   3.842   2.318
 5679SOL    HW217370   3.557   3.772   2.423
 5680SOL     OW17371   3.142   4.651   2.534
 5680SOL    HW117372   3.202   4.570   2.536
 5680SOL    HW217373   3.182   4.720   2.474
 5681SOL     OW17374   3.703   3.899   2.825
 5681SOL    HW117375   3.742   3.814   2.789
 5681SOL    HW217376   3.605   3.901   2.806
 5682SOL     OW17377   2.125   4.050   2.582
 5682SOL    HW117378   2.046   4.101   2.548
 5682SOL    HW217379   2.116   4.035   2.680
 5683SOL     OW17380   2.778   4.634   2.153
 5683SOL    HW117381   2.841   4.672   2.085
 5683SOL    HW217382   2.818   4.551   2.192
 5684SOL     OW17383   2.876   3.960   2.833
 5684SOL    HW117384   2.868   3.924   2.740
 5684SOL    HW217385   2.874   3.884   2.898
 5685SOL     OW17386   3.571   4.109   3.243
 5685SOL    HW117387   3.644   4.178   3.247
 5685SOL    HW217388   3.599   4.034   3.184
 5686SOL     OW17389   1.967   4.737   3.588
 5686SOL    HW117390   1.890   4.704   3.642
 5686SOL    HW217391   2.052   4.707   3.630
 5687SOL     OW17392   2.534   3.927   3.351
 5687SOL    HW117393   2.624   3.911   3.311
 5687SOL    HW217394   2.542   3.932   3.450
 5688SOL     OW17395   1.937   4.069   1.895
 5688SOL    HW117396   1.845   4.041   1.866
 5688SOL    HW217397   1.968   4.146   1.839
 5689SOL     OW17398   3.302   4.580   3.260
 5689SOL    HW117399   3.245   4.632   3.197
 5689SOL    HW217400   3.398   4.592   3.236
 5690SOL     OW17401   1.934   3.890   2.180
 5690SOL    HW117402   1.917   3.973   2.126
 5690SOL    HW217403   2.024   3.853   2.158
 5691SOL     OW17404   2.475   4.566   3.293
 5691SOL    HW117405   2.531   4.647   3.276
 5691SOL    HW217406   2.534   4.486   3.296
 5692SOL     OW17407   2.578   4.289   3.570
 5692SOL    HW117408   2.597   4.354   3.644
 5692SOL    HW217409   2.638   4.209   3.579
 5693SOL     OW17410   3.536   4.607   3.116
 5693SOL    HW117411   3.509   4.518   3.079
 5693SOL    HW217412   3.537   4.675   3.043
 5694SOL     OW17413   3.087   4.049   2.311
 5694SOL    HW117414   3.152   3.975   2.300
 5694SOL    HW217415   3.107   4.099   2.395
 5695SOL     OW17416   2.456   4.469   2.514
 5695SOL    HW117417   2.506   4.554   2.495
 5695SOL    HW217418   2.368   4.471   2.466
 5696SOL     OW17419   3.639   4.066   3.504
 5696SOL    HW117420   3.622   4.097   3.410
 5696SOL    HW217421   3.555   4.029   3.542
 5697SOL     OW17422   3.592   4.658   3.379
 5697SOL    HW117423   3.630   4.749   3.394
 5697SOL    HW217424   3.584   4.641   3.280
 5698SOL     OW17425   3.686   3.916   3.089
 5698SOL    HW117426   3.682   3.826   3.133
 5698SOL    HW217427   3.689   3.905   2.990
 5699SOL     OW17428   2.290   4.148   2.382
 5699SOL    HW117429   2.320   4.076   2.320
 5699SOL    HW217430   2.251   4.108   2.465
 5700SOL     OW17431   2.179   4.271   3.142
 5700SOL    HW117432   2.217   4.212   3.214
 5700SOL    HW217433   2.219   4.245   3.054
 5701SOL     OW17434   3.286   3.938   2.974
 5701SOL    HW117435   3.338   3.873   3.029
 5701SOL    HW217436   3.237   4.001   3.035
 5702SOL     OW17437   2.863   3.758   3.016
 5702SOL    HW117438   2.800   3.686   2.985
 5702SOL    HW217439   2.956   3.722   3.016
 5703SOL     OW17440   3.214   3.776   2.030
 5703SOL    HW117441   3.249   3.735   1.946
 5703SOL    HW217442   3.124   3.738   2.050
 5704SOL     OW17443   3.162   4.177   2.553
 5704SOL    HW117444   3.103   4.257   2.557
 5704SOL    HW217445   3.177   4.142   2.646
 5705SOL     OW17446   3.455   3.945   2.744
 5705SOL    HW117447   3.371   3.944   2.798
 5705SOL    HW217448   3.457   4.028   2.688
 5706SOL     OW17449   2.092   4.352   3.837
 5706SOL    HW117450   1.999   4.350   3.874
 5706SOL    HW217451   2.093   4.313   3.745
 5707SOL     OW17452   2.087   3.999   4.720
 5707SOL    HW117453   2.122   3.982   4.812
 5707SOL    HW217454   1.999   3.954   4.708
 5708SOL     OW17455   1.881   4.092   4.371
 5708SOL    HW117456   1.799   4.135   4.410
 5708SOL    HW217457   1.853   4.019   4.308
 5709SOL     OW17458   2.997   4.427   4.441
 5709SOL    HW117459   3.054   4.505   4.416
 5709SOL    HW217460   2.937   4.453   4.517
 5710SOL     OW17461   3.617   4.331   3.955
 5710SOL    HW117462   3.605   4.318   3.856
 5710SOL    HW217463   3.587   4.250   4.004
 5711SOL     OW17464   2.712   4.522   5.547
 5711SOL    HW117465   2.708   4.598   5.612
 5711SOL    HW217466   2.734   4.558   5.456
 5712SOL     OW17467   2.547   4.736   4.389
 5712SOL    HW117468   2.616   4.720   4.459
 5712SOL    HW217469   2.474   4.793   4.427
 5713SOL     OW17470   2.300   4.116   5.223
 5713SOL    HW117471   2.382   4.060   5.232
 5713SOL    HW217472   2.219   4.058   5.227
 5714SOL     OW17473   3.465   4.171   4.461
 5714SOL    HW117474   3.391   4.217   4.411
 5714SOL    HW217475   3.516   4.239   4.514
 5715SOL     OW17476   3.456   3.838   5.204
 5715SOL    HW117477   3.438   3.905   5.132
 5715SOL    HW217478   3.453   3.884   5.293
 5716SOL     OW17479   1.984   4.367   4.287
 5716SOL    HW117480   1.939   4.279   4.304
 5716SOL    HW217481   1.983   4.421   4.371
 5717SOL     OW17482   1.975   4.461   5.321
 5717SOL    HW117483   2.063   4.448   5.366
 5717SOL    HW217484   1.962   4.558   5.299
 5718SOL     OW17485   2.671   3.728   4.226
 5718SOL    HW117486   2.711   3.819   4.217
 5718SOL    HW217487   2.571   3.736   4.232
 5719SOL     OW17488   2.059   4.700   4.988
 5719SOL    HW117489   2.148   4.655   4.974
 5719SOL    HW217490   1.986   4.635   4.969
 5720SOL     OW17491   3.387   4.723   3.914
 5720SOL    HW117492   3.324   4.647   3.927
 5720SOL    HW217493   3.435   4.741   4.000
 5721SOL     OW17494   2.179   3.975   5.525
 5721SOL    HW117495   2.250   4.046   5.531
 5721SOL    HW217496   2.091   4.014   5.553
 5722SOL     OW17497   2.460   4.453   3.994
 5722SOL    HW117498   2.484   4.522   3.926
 5722SOL    HW217499   2.382   4.486   4.048
 5723SOL     OW17500   3.143   4.069   4.668
 5723SOL    HW117501   3.057   4.019   4.655
 5723SOL    HW217502   3.205   4.015   4.724
 5724SOL     OW17503   2.669   4.329   5.189
 5724SOL    HW117504   2.622   4.326   5.278
 5724SOL    HW217505   2.618   4.274   5.123
 5725SOL     OW17506   3.256   4.193   5.398
 5725SOL    HW117507   3.236   4.236   5.486
 5725SOL    HW217508   3.334   4.131   5.407
 5726SOL     OW17509   2.835   4.614   5.296
 5726SOL    HW117510   2.881   4.530   5.267
 5726SOL    HW217511   2.779   4.648   5.221
 5727SOL     OW17512   2.853   4.134   4.966
 5727SOL    HW117513   2.776   4.168   5.020
 5727SOL    HW217514   2.819   4.083   4.887
 5728SOL     OW17515   2.903   4.425   4.153
 5728SOL    HW117516   2.929   4.421   4.249
 5728SOL    HW217517   2.818   4.374   4.139
 5729SOL     OW17518   1.938   4.535   4.513
 5729SOL    HW117519   2.037   4.523   4.522
 5729SOL    HW217520   1.914   4.630   4.534
 5730SOL     OW17521   2.727   4.072   3.919
 5730SOL    HW117522   2.786   4.135   3.870
 5730SOL    HW217523   2.746   3.978   3.890
 5731SOL     OW17524   3.581   4.309   5.555
 5731SOL    HW117525   3.555   4.398   5.519
 5731SOL    HW217526   3.579   4.241   5.482
 5732SOL     OW17527   2.412   3.920   4.609
 5732SOL    HW117528   2.407   3.915   4.709
 5732SOL    HW217529   2.414   4.016   4.580
 5733SOL     OW17530   3.320   4.459   4.452
 5733SOL    HW117531   3.315   4.394   4.527
 5733SOL    HW217532   3.400   4.518   4.465
 5734SOL     OW17533   2.064   4.009   5.222
 5734SOL    HW117534   1.984   4.069   5.209
 5734SOL    HW217535   2.054   3.960   5.308
 5735SOL     OW17536   3.262   3.831   4.150
 5735SOL    HW117537   3.238   3.794   4.060
 5735SOL    HW217538   3.361   3.847   4.154
 5736SOL     OW17539   2.244   4.424   4.204
 5736SOL    HW117540   2.289   4.334   4.201
 5736SOL    HW217541   2.150   4.413   4.237
 5737SOL     OW17542   3.409   3.946   5.453
 5737SOL    HW117543   3.404   3.983   5.545
 5737SOL    HW217544   3.337   3.877   5.441
 5738SOL     OW17545   2.476   3.846   3.841
 5738SOL    HW117546   2.574   3.824   3.848
 5738SOL    HW217547   2.445   3.829   3.748
 5739SOL     OW17548   2.643   3.988   5.473
 5739SOL    HW117549   2.710   3.927   5.516
 5739SOL    HW217550   2.570   4.007   5.538
 5740SOL     OW17551   3.213   4.314   5.157
 5740SOL    HW117552   3.241   4.271   5.242
 5740SOL    HW217553   3.238   4.410   5.158
 5741SOL     OW17554   2.784   4.227   4.623
 5741SOL    HW117555   2.759   4.218   4.527
 5741SOL    HW217556   2.832   4.145   4.654
 5742SOL     OW17557   2.401   3.788   4.236
 5742SOL    HW117558   2.320   3.789   4.294
 5742SOL    HW217559   2.404   3.871   4.181
 5743SOL     OW17560   2.159   3.759   3.895
 5743SOL    HW117561   2.208   3.843   3.874
 5743SOL    HW217562   2.221   3.694   3.940
 5744SOL     OW17563   2.797   3.960   4.204
 5744SOL    HW117564   2.749   4.001   4.126
 5744SOL    HW217565   2.896   3.958   4.185
 5745SOL     OW17566   2.938   4.407   5.188
 5745SOL    HW117567   2.858   4.346   5.191
 5745SOL    HW217568   3.019   4.354   5.164
 5746SOL     OW17569   2.894   4.273   3.740
 5746SOL    HW117570   2.853   4.355   3.701
 5746SOL    HW217571   2.958   4.299   3.813
 5747SOL     OW17572   1.940   4.280   5.110
 5747SOL    HW117573   2.032   4.279   5.069
 5747SOL    HW217574   1.934   4.354   5.177
 5748SOL     OW17575   2.423   3.946   4.871
 5748SOL    HW117576   2.461   3.862   4.908
 5748SOL    HW217577   2.335   3.965   4.915
 5749SOL     OW17578   2.728   4.178   4.366
 5749SOL    HW117579   2.696   4.250   4.304
 5749SOL    HW217580   2.752   4.097   4.313
 5750SOL     OW17581   2.879   3.763   4.477
 5750SOL    HW117582   2.807   3.768   4.408
 5750SOL    HW217583   2.855   3.694   4.546
 5751SOL     OW17584   3.328   4.314   4.716
 5751SOL    HW117585   3.298   4.219   4.723
 5751SOL    HW217586   3.401   4.330   4.782
 5752SOL     OW17587   3.719   4.557   4.101
 5752SOL    HW117588   3.761   4.493   4.165
 5752SOL    HW217589   3.681   4.506   4.023
 5753SOL     OW17590   3.252   4.299   3.802
 5753SOL    HW117591   3.198   4.278   3.883
 5753SOL    HW217592   3.343   4.258   3.811
 5754SOL     OW17593   2.389   3.980   4.052
 5754SOL    HW117594   2.416   3.921   3.977
 5754SOL    HW217595   2.389   4.075   4.021
 5755SOL     OW17596   3.500   4.823   4.803
 5755SOL    HW117597   3.505   4.904   4.862
 5755SOL    HW217598   3.414   4.825   4.752
 5756SOL     OW17599   2.777   3.813   5.126
 5756SOL    HW117600   2.802   3.793   5.031
 5756SOL    HW217601   2.849   3.869   5.168
 5757SOL     OW17602   2.272   4.537   4.975
 5757SOL    HW117603   2.358   4.549   5.025
 5757SOL    HW217604   2.230   4.450   5.002
 5758SOL     OW17605   3.136   4.110   4.986
 5758SOL    HW117606   3.157   4.184   5.050
 5758SOL    HW217607   3.047   4.127   4.943
 5759SOL     OW17608   2.428   4.261   4.589
 5759SOL    HW117609   2.440   4.327   4.515
 5759SOL    HW217610   2.474   4.295   4.672
 5760SOL     OW17611   3.444   4.363   4.196
 5760SOL    HW117612   3.413   4.424   4.269
 5760SOL    HW217613   3.494   4.415   4.127
 5761SOL     OW17614   2.264   4.475   5.322
 5761SOL    HW117615   2.332   4.530   5.275
 5761SOL    HW217616   2.304   4.387   5.349
 5762SOL     OW17617   3.449   4.503   5.394
 5762SOL    HW117618   3.357   4.541   5.389
 5762SOL    HW217619   3.509   4.550   5.329
 5763SOL     OW17620   2.875   3.829   5.494
 5763SOL    HW117621   2.881   3.914   5.442
 5763SOL    HW217622   2.907   3.753   5.437
 5764SOL     OW17623   2.366   3.774   5.464
 5764SOL    HW117624   2.324   3.717   5.394
 5764SOL    HW217625   2.300   3.843   5.496
 5765SOL     OW17626   2.435   4.594   4.753
 5765SOL    HW117627   2.479   4.683   4.744
 5765SOL    HW217628   2.372   4.594   4.830
 5766SOL     OW17629   3.222   4.586   4.769
 5766SOL    HW117630   3.147   4.586   4.703
 5766SOL    HW217631   3.259   4.494   4.778
 5767SOL     OW17632   3.071   4.249   3.999
 5767SOL    HW117633   3.084   4.165   4.053
 5767SOL    HW217634   3.042   4.323   4.059
 5768SOL     OW17635   2.169   3.937   4.955
 5768SOL    HW117636   2.146   3.974   5.045
 5768SOL    HW217637   2.139   3.842   4.949
 5769SOL     OW17638   2.594   4.358   4.788
 5769SOL    HW117639   2.653   4.332   4.712
 5769SOL    HW217640   2.566   4.454   4.777
 5770SOL     OW17641   3.590   4.659   5.578
 5770SOL    HW117642   3.544   4.652   5.489
 5770SOL    HW217643   3.528   4.703   5.644
 5771SOL     OW17644   2.169   3.787   4.342
 5771SOL    HW117645   2.158   3.881   4.375
 5771SOL    HW217646   2.164   3.724   4.419
 5772SOL     OW17647   3.484   4.091   4.098
 5772SOL    HW117648   3.486   4.015   4.162
 5772SOL    HW217649   3.436   4.168   4.138
 5773SOL     OW17650   2.885   4.490   4.690
 5773SOL    HW117651   2.900   4.511   4.786
 5773SOL    HW217652   2.855   4.395   4.681
 5774SOL     OW17653   2.212   4.622   5.528
 5774SOL    HW117654   2.288   4.666   5.576
 5774SOL    HW217655   2.247   4.575   5.446
 5775SOL     OW17656   3.402   3.998   3.849
 5775SOL    HW117657   3.341   3.923   3.872
 5775SOL    HW217658   3.424   4.050   3.932
 5776SOL     OW17659   3.165   4.562   3.766
 5776SOL    HW117660   3.199   4.469   3.781
 5776SOL    HW217661   3.183   4.589   3.671
 5777SOL     OW17662   2.181   4.534   4.673
 5777SOL    HW117663   2.274   4.570   4.678
 5777SOL    HW217664   2.175   4.449   4.725
 5778SOL     OW17665   2.201   4.233   4.730
 5778SOL    HW117666   2.149   4.150   4.713
 5778SOL    HW217667   2.278   4.238   4.666
 5779SOL     OW17668   3.000   4.104   5.402
 5779SOL    HW117669   2.955   4.167   5.466
 5779SOL    HW217670   3.093   4.135   5.385
 5780SOL     OW17671   3.022   3.931   5.201
 5780SOL    HW117672   3.022   3.995   5.278
 5780SOL    HW217673   3.050   3.979   5.118
 5781SOL     OW17674   2.864   4.520   4.962
 5781SOL    HW117675   2.905   4.488   5.048
 5781SOL    HW217676   2.768   4.493   4.959
 5782SOL     OW17677   1.902   4.268   4.838
 5782SOL    HW117678   1.987   4.235   4.797
 5782SOL    HW217679   1.915   4.283   4.936
 5783SOL     OW17680   2.051   4.244   5.446
 5783SOL    HW117681   2.110   4.204   5.376
 5783SOL    HW217682   1.993   4.315   5.405
 5784SOL     OW17683   3.231   4.674   5.384
 5784SOL    HW117684   3.270   4.763   5.404
 5784SOL    HW217685   3.241   4.654   5.287
 5785SOL     OW17686   2.677   4.296   4.049
 5785SOL    HW117687   2.684   4.207   4.003
 5785SOL    HW217688   2.583   4.330   4.041
 5786SOL     OW17689   3.519   4.328   4.930
 5786SOL    HW117690   3.481   4.259   4.992
 5786SOL    HW217691   3.601   4.292   4.886
 5787SOL     OW17692   2.533   4.188   4.993
 5787SOL    HW117693   2.499   4.099   4.963
 5787SOL    HW217694   2.559   4.242   4.913
 5788SOL     OW17695   2.335   4.224   3.915
 5788SOL    HW117696   2.396   4.304   3.919
 5788SOL    HW217697   2.240   4.255   3.922
 5789SOL     OW17698   3.209   4.783   4.958
 5789SOL    HW117699   3.233   4.720   4.884
 5789SOL    HW217700   3.119   4.823   4.940
 5790SOL     OW17701   3.164   4.579   4.033
 5790SOL    HW117702   3.078   4.548   4.075
 5790SOL    HW217703   3.160   4.565   3.934
 5791SOL     OW17704   3.588   3.859   4.247
 5791SOL    HW117705   3.661   3.842   4.180
 5791SOL    HW217706   3.557   3.772   4.285
 5792SOL     OW17707   3.142   4.651   4.396
 5792SOL    HW117708   3.202   4.570   4.398
 5792SOL    HW217709   3.182   4.720   4.336
 5793SOL     OW17710   3.703   3.899   4.687
 5793SOL    HW117711   3.742   3.814   4.651
 5793SOL    HW217712   3.605   3.901   4.668
 5794SOL     OW17713   2.125   4.050   4.444
 5794SOL    HW117714   2.046   4.101   4.410
 5794SOL    HW217715   2.116   4.035   4.542
 5795SOL     OW17716   2.778   4.634   4.015
 5795SOL    HW117717   2.841   4.672   3.947
 5795SOL    HW217718   2.818   4.551   4.054
 5796SOL     OW17719   2.876   3.960   4.695
 5796SOL    HW117720   2.868   3.924   4.602
 5796SOL    HW217721   2.874   3.884   4.760
 5797SOL     OW17722   3.571   4.109   5.105
 5797SOL    HW117723   3.644   4.178   5.109
 5797SOL    HW217724   3.599   4.034   5.046
 5798SOL     OW17725   1.967   4.737   5.450
 5798SOL    HW117726   1.890   4.704   5.504
 5798SOL    HW217727   2.052   4.707   5.492
 5799SOL     OW17728   2.534   3.927   5.213
 5799SOL    HW117729   2.624   3.911   5.173
 5799SOL    HW217730   2.542   3.932   5.312
 5800SOL     OW17731   1.937   4.069   3.757
 5800SOL    HW117732   1.845   4.041   3.728
 5800SOL    HW217733   1.968   4.146   3.701
 5801SOL     OW17734   3.302   4.580   5.122
 5801SOL    HW117735   3.245   4.632   5.059
 5801SOL    HW217736   3.398   4.592   5.098
 5802SOL     OW17737   1.934   3.890   4.042
 5802SOL    HW117738   1.917   3.973   3.988
 5802SOL    HW217739   2.024   3.853   4.020
 5803SOL     OW17740   2.475   4.566   5.155
 5803SOL    HW117741   2.531   4.647   5.138
 5803SOL    HW217742   2.534   4.486   5.158
 5804SOL     OW17743   2.578   4.289   5.432
 5804SOL    HW117744   2.597   4.354   5.506
 5804SOL    HW217745   2.638   4.209   5.441
 5805SOL     OW17746   3.536   4.607   4.978
 5805SOL    HW117747   3.509   4.518   4.941
 5805SOL    HW217748   3.537   4.675   4.905
 5806SOL     OW17749   3.087   4.049   4.173
 5806SOL    HW117750   3.152   3.975   4.162
 5806SOL    HW217751   3.107   4.099   4.257
 5807SOL     OW17752   2.456   4.469   4.376
 5807SOL    HW117753   2.506   4.554   4.357
 5807SOL    HW217754   2.368   4.471   4.328
 5808SOL     OW17755   3.639   4.066   5.366
 5808SOL    HW117756   3.622   4.097   5.272
 5808SOL    HW217757   3.555   4.029   5.404
 5809SOL     OW17758   3.592   4.658   5.241
 5809SOL    HW117759   3.630   4.749   5.256
 5809SOL    HW217760   3.584   4.641   5.142
 5810SOL     OW17761   3.686   3.916   4.951
 5810SOL    HW117762   3.682   3.826   4.995
 5810SOL    HW217763   3.689   3.905   4.852
 5811SOL     OW17764   2.290   4.148   4.244
 5811SOL    HW117765   2.320   4.076   4.182
 5811SOL    HW217766   2.251   4.108   4.327
 5812SOL     OW17767   2.179   4.271   5.004
 5812SOL    HW117768   2.217   4.212   5.076
 5812SOL    HW217769   2.219   4.245   4.916
 5813SOL     OW17770   3.286   3.938   4.836
 5813SOL    HW117771   3.338   3.873   4.891
 5813SOL    HW217772   3.237   4.001   4.897
 5814SOL     OW17773   2.863   3.758   4.878
 5814SOL    HW117774   2.800   3.686   4.847
 5814SOL    HW217775   2.956   3.722   4.878
 5815SOL     OW17776   3.214   3.776   3.892
 5815SOL    HW117777   3.249   3.735   3.808
 5815SOL    HW217778   3.124   3.738   3.912
 5816SOL     OW17779   3.162   4.177   4.415
 5816SOL    HW117780   3.103   4.257   4.419
 5816SOL    HW217781   3.177   4.142   4.508
 5817SOL     OW17782   3.455   3.945   4.606
 5817SOL    HW117783   3.371   3.944   4.660
 5817SOL    HW217784   3.457   4.028   4.550
 5818SOL     OW17785   2.092   4.352   5.699
 5818SOL    HW117786   1.999   4.350   5.736
 5818SOL    HW217787   2.093   4.313   5.607
 5819SOL     OW17788   2.087   3.999   6.582
 5819SOL    HW117789   2.122   3.982   6.674
 5819SOL    HW217790   1.999   3.954   6.570
 5820SOL     OW17791   1.881   4.092   6.233
 5820SOL    HW117792   1.799   4.135   6.272
 5820SOL    HW217793   1.853   4.019   6.170
 5821SOL     OW17794   2.997   4.427   6.303
 5821SOL    HW117795   3.054   4.505   6.278
 5821SOL    HW217796   2.937   4.453   6.379
 5822SOL     OW17797   3.617   4.331   5.817
 5822SOL    HW117798   3.605   4.318   5.718
 5822SOL    HW217799   3.587   4.250   5.866
 5823SOL     OW17800   2.712   4.522   7.409
 5823SOL    HW117801   2.708   4.598   7.474
 5823SOL    HW217802   2.734   4.558   7.318
 5824SOL     OW17803   2.547   4.736   6.251
 5824SOL    HW117804   2.616   4.720   6.321
 5824SOL    HW217805   2.474   4.793   6.289
 5825SOL     OW17806   2.300   4.116   7.085
 5825SOL    HW117807   2.382   4.060   7.094
 5825SOL    HW217808   2.219   4.058   7.089
 5826SOL     OW17809   3.465   4.171   6.323
 5826SOL    HW117810   3.391   4.217   6.273
 5826SOL    HW217811   3.516   4.239   6.376
 5827SOL     OW17812   3.456   3.838   7.066
 5827SOL    HW117813   3.438   3.905   6.994
 5827SOL    HW217814   3.453   3.884   7.155
 5828SOL     OW17815   1.984   4.367   6.149
 5828SOL    HW117816   1.939   4.279   6.166
 5828SOL    HW217817   1.983   4.421   6.233
 5829SOL     OW17818   1.975   4.461   7.183
 5829SOL    HW117819   2.063   4.448   7.228
 5829SOL    HW217820   1.962   4.558   7.161
 5830SOL     OW17821   2.671   3.728   6.088
 5830SOL    HW117822   2.711   3.819   6.079
 5830SOL    HW217823   2.571   3.736   6.094
 5831SOL     OW17824   2.059   4.700   6.850
 5831SOL    HW117825   2.148   4.655   6.836
 5831SOL    HW217826   1.986   4.635   6.831
 5832SOL     OW17827   3.387   4.723   5.776
 5832SOL    HW117828   3.324   4.647   5.789
 5832SOL    HW217829   3.435   4.741   5.862
 5833SOL     OW17830   2.179   3.975   7.387
 5833SOL    HW117831   2.250   4.046   7.393
 5833SOL    HW217832   2.091   4.014   7.415
 5834SOL     OW17833   2.460   4.453   5.856
 5834SOL    HW117834   2.484   4.522   5.788
 5834SOL    HW217835   2.382   4.486   5.910
 5835SOL     OW17836   3.143   4.069   6.530
 5835SOL    HW117837   3.057   4.019   6.517
 5835SOL    HW217838   3.205   4.015   6.586
 5836SOL     OW17839   2.669   4.329   7.051
 5836SOL    HW117840   2.622   4.326   7.140
 5836SOL    HW217841   2.618   4.274   6.985
 5837SOL     OW17842   3.256   4.193   7.260
 5837SOL    HW117843   3.236   4.236   7.348
 5837SOL    HW217844   3.334   4.131   7.269
 5838SOL     OW17845   2.835   4.614   7.158
 5838SOL    HW117846   2.881   4.530   7.129
 5838SOL    HW217847   2.779   4.648   7.083
 5839SOL     OW17848   2.853   4.134   6.828
 5839SOL    HW117849   2.776   4.168   6.882
 5839SOL    HW217850   2.819   4.083   6.749
 5840SOL     OW17851   2.903   4.425   6.015
 5840SOL    HW117852   2.929   4.421   6.111
 5840SOL    HW217853   2.818   4.374   6.001
 5841SOL     OW17854   1.938   4.535   6.375
 5841SOL    HW117855   2.037   4.523   6.384
 5841SOL    HW217856   1.914   4.630   6.396
 5842SOL     OW17857   2.727   4.072   5.781
 5842SOL    HW117858   2.786   4.135   5.732
 5842SOL    HW217859   2.746   3.978   5.752
 5843SOL     OW17860   3.581   4.309   7.417
 5843SOL    HW117861   3.555   4.398   7.381
 5843SOL    HW217862   3.579   4.241   7.344
 5844SOL     OW17863   2.412   3.920   6.471
 5844SOL    HW117864   2.407   3.915   6.571
 5844SOL    HW217865   2.414   4.016   6.442
 5845SOL     OW17866   3.320   4.459   6.314
 5845SOL    HW117867   3.315   4.394   6.389
 5845SOL    HW217868   3.400   4.518   6.327
 5846SOL     OW17869   2.064   4.009   7.084
 5846SOL    HW117870   1.984   4.069   7.071
 5846SOL    HW217871   2.054   3.960   7.170
 5847SOL     OW17872   3.262   3.831   6.012
 5847SOL    HW117873   3.238   3.794   5.922
 5847SOL    HW217874   3.361   3.847   6.016
 5848SOL     OW17875   2.244   4.424   6.066
 5848SOL    HW117876   2.289   4.334   6.063
 5848SOL    HW217877   2.150   4.413   6.099
 5849SOL     OW17878   3.409   3.946   7.315
 5849SOL    HW117879   3.404   3.983   7.407
 5849SOL    HW217880   3.337   3.877   7.303
 5850SOL     OW17881   2.476   3.846   5.703
 5850SOL    HW117882   2.574   3.824   5.710
 5850SOL    HW217883   2.445   3.829   5.610
 5851SOL     OW17884   2.643   3.988   7.335
 5851SOL    HW117885   2.710   3.927   7.378
 5851SOL    HW217886   2.570   4.007   7.400
 5852SOL     OW17887   3.213   4.314   7.019
 5852SOL    HW117888   3.241   4.271   7.104
 5852SOL    HW217889   3.238   4.410   7.020
 5853SOL     OW17890   2.784   4.227   6.485
 5853SOL    HW117891   2.759   4.218   6.389
 5853SOL    HW217892   2.832   4.145   6.516
 5854SOL     OW17893   2.401   3.788   6.098
 5854SOL    HW117894   2.320   3.789   6.156
 5854SOL    HW217895   2.404   3.871   6.043
 5855SOL     OW17896   2.159   3.759   5.757
 5855SOL    HW117897   2.208   3.843   5.736
 5855SOL    HW217898   2.221   3.694   5.802
 5856SOL     OW17899   2.797   3.960   6.066
 5856SOL    HW117900   2.749   4.001   5.988
 5856SOL    HW217901   2.896   3.958   6.047
 5857SOL     OW17902   2.938   4.407   7.050
 5857SOL    HW117903   2.858   4.346   7.053
 5857SOL    HW217904   3.019   4.354   7.026
 5858SOL     OW17905   2.894   4.273   5.602
 5858SOL    HW117906   2.853   4.355   5.563
 5858SOL    HW217907   2.958   4.299   5.675
 5859SOL     OW17908   1.940   4.280   6.972
 5859SOL    HW117909   2.032   4.279   6.931
 5859SOL    HW217910   1.934   4.354   7.039
 5860SOL     OW17911   2.423   3.946   6.733
 5860SOL    HW117912   2.461   3.862   6.770
 5860SOL    HW217913   2.335   3.965   6.777
 5861SOL     OW17914   2.728   4.178   6.228
 5861SOL    HW117915   2.696   4.250   6.166
 5861SOL    HW217916   2.752   4.097   6.175
 5862SOL     OW17917   2.879   3.763   6.339
 5862SOL    HW117918   2.807   3.768   6.270
 5862SOL    HW217919   2.855   3.694   6.408
 5863SOL     OW17920   3.328   4.314   6.578
 5863SOL    HW117921   3.298   4.219   6.585
 5863SOL    HW217922   3.401   4.330   6.644
 5864SOL     OW17923   3.719   4.557   5.963
 5864SOL    HW117924   3.761   4.493   6.027
 5864SOL    HW217925   3.681   4.506   5.885
 5865SOL     OW17926   3.252   4.299   5.664
 5865SOL    HW117927   3.198   4.278   5.745
 5865SOL    HW217928   3.343   4.258   5.673
 5866SOL     OW17929   2.389   3.980   5.914
 5866SOL    HW117930   2.416   3.921   5.839
 5866SOL    HW217931   2.389   4.075   5.883
 5867SOL     OW17932   3.500   4.823   6.665
 5867SOL    HW117933   3.505   4.904   6.724
 5867SOL    HW217934   3.414   4.825   6.614
 5868SOL     OW17935   2.777   3.813   6.988
 5868SOL    HW117936   2.802   3.793   6.893
 5868SOL    HW217937   2.849   3.869   7.030
 5869SOL     OW17938   2.272   4.537   6.837
 5869SOL    HW117939   2.358   4.549   6.887
 5869SOL    HW217940   2.230   4.450   6.864
 5870SOL     OW17941   3.136   4.110   6.848
 5870SOL    HW117942   3.157   4.184   6.912
 5870SOL    HW217943   3.047   4.127   6.805
 5871SOL     OW17944   2.428   4.261   6.451
 5871SOL    HW117945   2.440   4.327   6.377
 5871SOL    HW217946   2.474   4.295   6.534
 5872SOL     OW17947   3.444   4.363   6.058
 5872SOL    HW117948   3.413   4.424   6.131
 5872SOL    HW217949   3.494   4.415   5.989
 5873SOL     OW17950   2.264   4.475   7.184
 5873SOL    HW117951   2.332   4.530   7.137
 5873SOL    HW217952   2.304   4.387   7.211
 5874SOL     OW17953   3.449   4.503   7.256
 5874SOL    HW117954   3.357   4.541   7.251
 5874SOL    HW217955   3.509   4.550   7.191
 5875SOL     OW17956   2.875   3.829   7.356
 5875SOL    HW117957   2.881   3.914   7.304
 5875SOL    HW217958   2.907   3.753   7.299
 5876SOL     OW17959   2.366   3.774   7.326
 5876SOL    HW117960   2.324   3.717   7.256
 5876SOL    HW217961   2.300   3.843   7.358
 5877SOL     OW17962   2.435   4.594   6.615
 5877SOL    HW117963   2.479   4.683   6.606
 5877SOL    HW217964   2.372   4.594   6.692
 5878SOL     OW17965   3.222   4.586   6.631
 5878SOL    HW117966   3.147   4.586   6.565
 5878SOL    HW217967   3.259   4.494   6.640
 5879SOL     OW17968   3.071   4.249   5.861
 5879SOL    HW117969   3.084   4.165   5.915
 5879SOL    HW217970   3.042   4.323   5.921
 5880SOL     OW17971   2.169   3.937   6.817
 5880SOL    HW117972   2.146   3.974   6.907
 5880SOL    HW217973   2.139   3.842   6.811
 5881SOL     OW17974   2.594   4.358   6.650
 5881SOL    HW117975   2.653   4.332   6.574
 5881SOL    HW217976   2.566   4.454   6.639
 5882SOL     OW17977   3.590   4.659   7.440
 5882SOL    HW117978   3.544   4.652   7.351
 5882SOL    HW217979   3.528   4.703   7.506
 5883SOL     OW17980   2.169   3.787   6.204
 5883SOL    HW117981   2.158   3.881   6.237
 5883SOL    HW217982   2.164   3.724   6.281
 5884SOL     OW17983   3.484   4.091   5.960
 5884SOL    HW117984   3.486   4.015   6.024
 5884SOL    HW217985   3.436   4.168   6.000
 5885SOL     OW17986   2.885   4.490   6.552
 5885SOL    HW117987   2.900   4.511   6.648
 5885SOL    HW217988   2.855   4.395   6.543
 5886SOL     OW17989   2.212   4.622   7.390
 5886SOL    HW117990   2.288   4.666   7.438
 5886SOL    HW217991   2.247   4.575   7.308
 5887SOL     OW17992   3.402   3.998   5.711
 5887SOL    HW117993   3.341   3.923   5.734
 5887SOL    HW217994   3.424   4.050   5.794
 5888SOL     OW17995   3.165   4.562   5.628
 5888SOL    HW117996   3.199   4.469   5.643
 5888SOL    HW217997   3.183   4.589   5.533
 5889SOL     OW17998   2.181   4.534   6.535
 5889SOL    HW117999   2.274   4.570   6.540
 5889SOL    HW218000   2.175   4.449   6.587
 5890SOL     OW18001   2.201   4.233   6.592
 5890SOL    HW118002   2.149   4.150   6.575
 5890SOL    HW218003   2.278   4.238   6.528
 5891SOL     OW18004   3.000   4.104   7.264
 5891SOL    HW118005   2.955   4.167   7.328
 5891SOL    HW218006   3.093   4.135   7.247
 5892SOL     OW18007   3.022   3.931   7.063
 5892SOL    HW118008   3.022   3.995   7.140
 5892SOL    HW218009   3.050   3.979   6.980
 5893SOL     OW18010   2.864   4.520   6.824
 5893SOL    HW118011   2.905   4.488   6.910
 5893SOL    HW218012   2.768   4.493   6.821
 5894SOL     OW18013   1.902   4.268   6.700
 5894SOL    HW118014   1.987   4.235   6.659
 5894SOL    HW218015   1.915   4.283   6.798
 5895SOL     OW18016   2.051   4.244   7.308
 5895SOL    HW118017   2.110   4.204   7.238
 5895SOL    HW218018   1.993   4.315   7.267
 5896SOL     OW18019   3.231   4.674   7.246
 5896SOL    HW118020   3.270   4.763   7.266
 5896SOL    HW218021   3.241   4.654   7.149
 5897SOL     OW18022   2.677   4.296   5.911
 5897SOL    HW118023   2.684   4.207   5.865
 5897SOL    HW218024   2.583   4.330   5.903
 5898SOL     OW18025   3.519   4.328   6.792
 5898SOL    HW118026   3.481   4.259   6.854
 5898SOL    HW218027   3.601   4.292   6.748
 5899SOL     OW18028   2.533   4.188   6.855
 5899SOL    HW118029   2.499   4.099   6.825
 5899SOL    HW218030   2.559   4.242   6.775
 5900SOL     OW18031   2.335   4.224   5.777
 5900SOL    HW118032   2.396   4.304   5.781
 5900SOL    HW218033   2.240   4.255   5.784
 5901SOL     OW18034   3.209   4.783   6.820
 5901SOL    HW118035   3.233   4.720   6.746
 5901SOL    HW218036   3.119   4.823   6.802
 5902SOL     OW18037   3.164   4.579   5.895
 5902SOL    HW118038   3.078   4.548   5.937
 5902SOL    HW218039   3.160   4.565   5.796
 5903SOL     OW18040   3.588   3.859   6.109
 5903SOL    HW118041   3.661   3.842   6.042
 5903SOL    HW218042   3.557   3.772   6.147
 5904SOL     OW18043   3.142   4.651   6.258
 5904SOL    HW118044   3.202   4.570   6.260
 5904SOL    HW218045   3.182   4.720   6.198
 5905SOL     OW18046   3.703   3.899   6.549
 5905SOL    HW118047   3.742   3.814   6.513
 5905SOL    HW218048   3.605   3.901   6.530
 5906SOL     OW18049   2.125   4.050   6.306
 5906SOL    HW118050   2.046   4.101   6.272
 5906SOL    HW218051   2.116   4.035   6.404
 5907SOL     OW18052   2.778   4.634   5.877
 5907SOL    HW118053   2.841   4.672   5.809
 5907SOL    HW218054   2.818   4.551   5.916
 5908SOL     OW18055   2.876   3.960   6.557
 5908SOL    HW118056   2.868   3.924   6.464
 5908SOL    HW218057   2.874   3.884   6.622
 5909SOL     OW18058   3.571   4.109   6.967
 5909SOL    HW118059   3.644   4.178   6.971
 5909SOL    HW218060   3.599   4.034   6.908
 5910SOL     OW18061   1.967   4.737   7.312
 5910SOL    HW118062   1.890   4.704   7.366
 5910SOL    HW218063   2.052   4.707   7.354
 5911SOL     OW18064   2.534   3.927   7.075
 5911SOL    HW118065   2.624   3.911   7.035
 5911SOL    HW218066   2.542   3.932   7.174
 5912SOL     OW18067   1.937   4.069   5.619
 5912SOL    HW118068   1.845   4.041   5.590
 5912SOL    HW218069   1.968   4.146   5.563
 5913SOL     OW18070   3.302   4.580   6.984
 5913SOL    HW118071   3.245   4.632   6.921
 5913SOL    HW218072   3.398   4.592   6.960
 5914SOL     OW18073   1.934   3.890   5.904
 5914SOL    HW118074   1.917   3.973   5.850
 5914SOL    HW218075   2.024   3.853   5.882
 5915SOL     OW18076   2.475   4.566   7.017
 5915SOL    HW118077   2.531   4.647   7.000
 5915SOL    HW218078   2.534   4.486   7.020
 5916SOL     OW18079   2.578   4.289   7.294
 5916SOL    HW118080   2.597   4.354   7.368
 5916SOL    HW218081   2.638   4.209   7.303
 5917SOL     OW18082   3.536   4.607   6.840
 5917SOL    HW118083   3.509   4.518   6.803
 5917SOL    HW218084   3.537   4.675   6.767
 5918SOL     OW18085   3.087   4.049   6.035
 5918SOL    HW118086   3.152   3.975   6.024
 5918SOL    HW218087   3.107   4.099   6.119
 5919SOL     OW18088   2.456   4.469   6.238
 5919SOL    HW118089   2.506   4.554   6.219
 5919SOL    HW218090   2.368   4.471   6.190
 5920SOL     OW18091   3.639   4.066   7.228
 5920SOL    HW118092   3.622   4.097   7.134
 5920SOL    HW218093   3.555   4.029   7.266
 5921SOL     OW18094   3.592   4.658   7.103
 5921SOL    HW118095   3.630   4.749   7.118
 5921SOL    HW218096   3.584   4.641   7.004
 5922SOL     OW18097   3.686   3.916   6.813
 5922SOL    HW118098   3.682   3.826   6.857
 5922SOL    HW218099   3.689   3.905   6.714
 5923SOL     OW18100   2.290   4.148   6.106
 5923SOL    HW118101   2.320   4.076   6.044
 5923SOL    HW218102   2.251   4.108   6.189
 5924SOL     OW18103   2.179   4.271   6.866
 5924SOL    HW118104   2.217   4.212   6.938
 5924SOL    HW218105   2.219   4.245   6.778
 5925SOL     OW18106   3.286   3.938   6.698
 5925SOL    HW118107   3.338   3.873   6.753
 5925SOL    HW218108   3.237   4.001   6.759
 5926SOL     OW18109   2.863   3.758   6.740
 5926SOL    HW118110   2.800   3.686   6.709
 5926SOL    HW218111   2.956   3.722   6.740
 5927SOL     OW18112   3.214   3.776   5.754
 5927SOL    HW118113   3.249   3.735   5.670
 5927SOL    HW218114   3.124   3.738   5.774
 5928SOL     OW18115   3.162   4.177   6.277
 5928SOL    HW118116   3.103   4.257   6.281
 5928SOL    HW218117   3.177   4.142   6.370
 5929SOL     OW18118   3.455   3.945   6.468
 5929SOL    HW118119   3.371   3.944   6.522
 5929SOL    HW218120   3.457   4.028   6.412
 5930SOL     OW18121   2.092   4.352   7.561
 5930SOL    HW118122   1.999   4.350   7.598
 5930SOL    HW218123   2.093   4.313   7.469
 5931SOL     OW18124   2.087   3.999   8.444
 5931SOL    HW118125   2.122   3.982   8.536
 5931SOL    HW218126   1.999   3.954   8.432
 5932SOL     OW18127   1.881   4.092   8.095
 5932SOL    HW118128   1.799   4.135   8.134
 5932SOL    HW218129   1.853   4.019   8.032
 5933SOL     OW18130   2.997   4.427   8.165
 5933SOL    HW118131   3.054   4.505   8.140
 5933SOL    HW218132   2.937   4.453   8.241
 5934SOL     OW18133   3.617   4.331   7.679
 5934SOL    HW118134   3.605   4.318   7.580
 5934SOL    HW218135   3.587   4.250   7.728
 5935SOL     OW18136   2.712   4.522   9.271
 5935SOL    HW118137   2.708   4.598   9.336
 5935SOL    HW218138   2.734   4.558   9.180
 5936SOL     OW18139   2.547   4.736   8.113
 5936SOL    HW118140   2.616   4.720   8.183
 5936SOL    HW218141   2.474   4.793   8.151
 5937SOL     OW18142   2.300   4.116   8.947
 5937SOL    HW118143   2.382   4.060   8.956
 5937SOL    HW218144   2.219   4.058   8.951
 5938SOL     OW18145   3.465   4.171   8.185
 5938SOL    HW118146   3.391   4.217   8.135
 5938SOL    HW218147   3.516   4.239   8.238
 5939SOL     OW18148   3.456   3.838   8.928
 5939SOL    HW118149   3.438   3.905   8.856
 5939SOL    HW218150   3.453   3.884   9.017
 5940SOL     OW18151   1.984   4.367   8.011
 5940SOL    HW118152   1.939   4.279   8.028
 5940SOL    HW218153   1.983   4.421   8.095
 5941SOL     OW18154   1.975   4.461   9.045
 5941SOL    HW118155   2.063   4.448   9.090
 5941SOL    HW218156   1.962   4.558   9.023
 5942SOL     OW18157   2.671   3.728   7.950
 5942SOL    HW118158   2.711   3.819   7.941
 5942SOL    HW218159   2.571   3.736   7.956
 5943SOL     OW18160   2.059   4.700   8.712
 5943SOL    HW118161   2.148   4.655   8.698
 5943SOL    HW218162   1.986   4.635   8.693
 5944SOL     OW18163   3.387   4.723   7.638
 5944SOL    HW118164   3.324   4.647   7.651
 5944SOL    HW218165   3.435   4.741   7.724
 5945SOL     OW18166   2.179   3.975   9.249
 5945SOL    HW118167   2.250   4.046   9.255
 5945SOL    HW218168   2.091   4.014   9.277
 5946SOL     OW18169   2.460   4.453   7.718
 5946SOL    HW118170   2.484   4.522   7.650
 5946SOL    HW218171   2.382   4.486   7.772
 5947SOL     OW18172   3.143   4.069   8.392
 5947SOL    HW118173   3.057   4.019   8.379
 5947SOL    HW218174   3.205   4.015   8.448
 5948SOL     OW18175   2.669   4.329   8.913
 5948SOL    HW118176   2.622   4.326   9.002
 5948SOL    HW218177   2.618   4.274   8.847
 5949SOL     OW18178   3.256   4.193   9.122
 5949SOL    HW118179   3.236   4.236   9.210
 5949SOL    HW218180   3.334   4.131   9.131
 5950SOL     OW18181   2.835   4.614   9.020
 5950SOL    HW118182   2.881   4.530   8.991
 5950SOL    HW218183   2.779   4.648   8.945
 5951SOL     OW18184   2.853   4.134   8.690
 5951SOL    HW118185   2.776   4.168   8.744
 5951SOL    HW218186   2.819   4.083   8.611
 5952SOL     OW18187   2.903   4.425   7.877
 5952SOL    HW118188   2.929   4.421   7.973
 5952SOL    HW218189   2.818   4.374   7.863
 5953SOL     OW18190   1.938   4.535   8.237
 5953SOL    HW118191   2.037   4.523   8.246
 5953SOL    HW218192   1.914   4.630   8.258
 5954SOL     OW18193   2.727   4.072   7.643
 5954SOL    HW118194   2.786   4.135   7.594
 5954SOL    HW218195   2.746   3.978   7.614
 5955SOL     OW18196   3.581   4.309   9.279
 5955SOL    HW118197   3.555   4.398   9.243
 5955SOL    HW218198   3.579   4.241   9.206
 5956SOL     OW18199   2.412   3.920   8.333
 5956SOL    HW118200   2.407   3.915   8.433
 5956SOL    HW218201   2.414   4.016   8.304
 5957SOL     OW18202   3.320   4.459   8.176
 5957SOL    HW118203   3.315   4.394   8.251
 5957SOL    HW218204   3.400   4.518   8.189
 5958SOL     OW18205   2.064   4.009   8.946
 5958SOL    HW118206   1.984   4.069   8.933
 5958SOL    HW218207   2.054   3.960   9.032
 5959SOL     OW18208   3.262   3.831   7.874
 5959SOL    HW118209   3.238   3.794   7.784
 5959SOL    HW218210   3.361   3.847   7.878
 5960SOL     OW18211   2.244   4.424   7.928
 5960SOL    HW118212   2.289   4.334   7.925
 5960SOL    HW218213   2.150   4.413   7.961
 5961SOL     OW18214   3.409   3.946   9.177
 5961SOL    HW118215   3.404   3.983   9.269
 5961SOL    HW218216   3.337   3.877   9.165
 5962SOL     OW18217   2.476   3.846   7.565
 5962SOL    HW118218   2.574   3.824   7.572
 5962SOL    HW218219   2.445   3.829   7.472
 5963SOL     OW18220   2.643   3.988   9.197
 5963SOL    HW118221   2.710   3.927   9.240
 5963SOL    HW218222   2.570   4.007   9.262
 5964SOL     OW18223   3.213   4.314   8.881
 5964SOL    HW118224   3.241   4.271   8.966
 5964SOL    HW218225   3.238   4.410   8.882
 5965SOL     OW18226   2.784   4.227   8.347
 5965SOL    HW118227   2.759   4.218   8.251
 5965SOL    HW218228   2.832   4.145   8.378
 5966SOL     OW18229   2.401   3.788   7.960
 5966SOL    HW118230   2.320   3.789   8.018
 5966SOL    HW218231   2.404   3.871   7.905
 5967SOL     OW18232   2.159   3.759   7.619
 5967SOL    HW118233   2.208   3.843   7.598
 5967SOL    HW218234   2.221   3.694   7.664
 5968SOL     OW18235   2.797   3.960   7.928
 5968SOL    HW118236   2.749   4.001   7.850
 5968SOL    HW218237   2.896   3.958   7.909
 5969SOL     OW18238   2.938   4.407   8.912
 5969SOL    HW118239   2.858   4.346   8.915
 5969SOL    HW218240   3.019   4.354   8.888
 5970SOL     OW18241   2.894   4.273   7.464
 5970SOL    HW118242   2.853   4.355   7.425
 5970SOL    HW218243   2.958   4.299   7.537
 5971SOL     OW18244   1.940   4.280   8.834
 5971SOL    HW118245   2.032   4.279   8.793
 5971SOL    HW218246   1.934   4.354   8.901
 5972SOL     OW18247   2.423   3.946   8.595
 5972SOL    HW118248   2.461   3.862   8.632
 5972SOL    HW218249   2.335   3.965   8.639
 5973SOL     OW18250   2.728   4.178   8.090
 5973SOL    HW118251   2.696   4.250   8.028
 5973SOL    HW218252   2.752   4.097   8.037
 5974SOL     OW18253   2.879   3.763   8.201
 5974SOL    HW118254   2.807   3.768   8.132
 5974SOL    HW218255   2.855   3.694   8.270
 5975SOL     OW18256   3.328   4.314   8.440
 5975SOL    HW118257   3.298   4.219   8.447
 5975SOL    HW218258   3.401   4.330   8.506
 5976SOL     OW18259   3.719   4.557   7.825
 5976SOL    HW118260   3.761   4.493   7.889
 5976SOL    HW218261   3.681   4.506   7.747
 5977SOL     OW18262   3.252   4.299   7.526
 5977SOL    HW118263   3.198   4.278   7.607
 5977SOL    HW218264   3.343   4.258   7.535
 5978SOL     OW18265   2.389   3.980   7.776
 5978SOL    HW118266   2.416   3.921   7.701
 5978SOL    HW218267   2.389   4.075   7.745
 5979SOL     OW18268   3.500   4.823   8.527
 5979SOL    HW118269   3.505   4.904   8.586
 5979SOL    HW218270   3.414   4.825   8.476
 5980SOL     OW18271   2.777   3.813   8.850
 5980SOL    HW118272   2.802   3.793   8.755
 5980SOL    HW218273   2.849   3.869   8.892
 5981SOL     OW18274   2.272   4.537   8.699
 5981SOL    HW118275   2.358   4.549   8.749
 5981SOL    HW218276   2.230   4.450   8.726
 5982SOL     OW18277   3.136   4.110   8.710
 5982SOL    HW118278   3.157   4.184   8.774
 5982SOL    HW218279   3.047   4.127   8.667
 5983SOL     OW18280   2.428   4.261   8.313
 5983SOL    HW118281   2.440   4.327   8.239
 5983SOL    HW218282   2.474   4.295   8.396
 5984SOL     OW18283   3.444   4.363   7.920
 5984SOL    HW118284   3.413   4.424   7.993
 5984SOL    HW218285   3.494   4.415   7.851
 5985SOL     OW18286   2.264   4.475   9.046
 5985SOL    HW118287   2.332   4.530   8.999
 5985SOL    HW218288   2.304   4.387   9.073
 5986SOL     OW18289   3.449   4.503   9.118
 5986SOL    HW118290   3.357   4.541   9.113
 5986SOL    HW218291   3.509   4.550   9.053
 5987SOL     OW18292   2.875   3.829   9.218
 5987SOL    HW118293   2.881   3.914   9.166
 5987SOL    HW218294   2.907   3.753   9.161
 5988SOL     OW18295   2.366   3.774   9.188
 5988SOL    HW118296   2.324   3.717   9.118
 5988SOL    HW218297   2.300   3.843   9.220
 5989SOL     OW18298   2.435   4.594   8.477
 5989SOL    HW118299   2.479   4.683   8.468
 5989SOL    HW218300   2.372   4.594   8.554
 5990SOL     OW18301   3.222   4.586   8.493
 5990SOL    HW118302   3.147   4.586   8.427
 5990SOL    HW218303   3.259   4.494   8.502
 5991SOL     OW18304   3.071   4.249   7.723
 5991SOL    HW118305   3.084   4.165   7.777
 5991SOL    HW218306   3.042   4.323   7.783
 5992SOL     OW18307   2.169   3.937   8.679
 5992SOL    HW118308   2.146   3.974   8.769
 5992SOL    HW218309   2.139   3.842   8.673
 5993SOL     OW18310   2.594   4.358   8.512
 5993SOL    HW118311   2.653   4.332   8.436
 5993SOL    HW218312   2.566   4.454   8.501
 5994SOL     OW18313   3.590   4.659   9.302
 5994SOL    HW118314   3.544   4.652   9.213
 5994SOL    HW218315   3.528   4.703   9.368
 5995SOL     OW18316   2.169   3.787   8.066
 5995SOL    HW118317   2.158   3.881   8.099
 5995SOL    HW218318   2.164   3.724   8.143
 5996SOL     OW18319   3.484   4.091   7.822
 5996SOL    HW118320   3.486   4.015   7.886
 5996SOL    HW218321   3.436   4.168   7.862
 5997SOL     OW18322   2.885   4.490   8.414
 5997SOL    HW118323   2.900   4.511   8.510
 5997SOL    HW218324   2.855   4.395   8.405
 5998SOL     OW18325   2.212   4.622   9.252
 5998SOL    HW118326   2.288   4.666   9.300
 5998SOL    HW218327   2.247   4.575   9.170
 5999SOL     OW18328   3.402   3.998   7.573
 5999SOL    HW118329   3.341   3.923   7.596
 5999SOL    HW218330   3.424   4.050   7.656
 6000SOL     OW18331   3.165   4.562   7.490
 6000SOL    HW118332   3.199   4.469   7.505
 6000SOL    HW218333   3.183   4.589   7.395
 6001SOL     OW18334   2.181   4.534   8.397
 6001SOL    HW118335   2.274   4.570   8.402
 6001SOL    HW218336   2.175   4.449   8.449
 6002SOL     OW18337   2.201   4.233   8.454
 6002SOL    HW118338   2.149   4.150   8.437
 6002SOL    HW218339   2.278   4.238   8.390
 6003SOL     OW18340   3.000   4.104   9.126
 6003SOL    HW118341   2.955   4.167   9.190
 6003SOL    HW218342   3.093   4.135   9.109
 6004SOL     OW18343   3.022   3.931   8.925
 6004SOL    HW118344   3.022   3.995   9.002
 6004SOL    HW218345   3.050   3.979   8.842
 6005SOL     OW18346   2.864   4.520   8.686
 6005SOL    HW118347   2.905   4.488   8.772
 6005SOL    HW218348   2.768   4.493   8.683
 6006SOL     OW18349   1.902   4.268   8.562
 6006SOL    HW118350   1.987   4.235   8.521
 6006SOL    HW218351   1.915   4.283   8.660
 6007SOL     OW18352   2.051   4.244   9.170
 6007SOL    HW118353   2.110   4.204   9.100
 6007SOL    HW218354   1.993   4.315   9.129
 6008SOL     OW18355   3.231   4.674   9.108
 6008SOL    HW118356   3.270   4.763   9.128
 6008SOL    HW218357   3.241   4.654   9.011
 6009SOL     OW18358   2.677   4.296   7.773
 6009SOL    HW118359   2.684   4.207   7.727
 6009SOL    HW218360   2.583   4.330   7.765
 6010SOL     OW18361   3.519   4.328   8.654
 6010SOL    HW118362   3.481   4.259   8.716
 6010SOL    HW218363   3.601   4.292   8.610
 6011SOL     OW18364   2.533   4.188   8.717
 6011SOL    HW118365   2.499   4.099   8.687
 6011SOL    HW218366   2.559   4.242   8.637
 6012SOL     OW18367   2.335   4.224   7.639
 6012SOL    HW118368   2.396   4.304   7.643
 6012SOL    HW218369   2.240   4.255   7.646
 6013SOL     OW18370   3.209   4.783   8.682
 6013SOL    HW118371   3.233   4.720   8.608
 6013SOL    HW218372   3.119   4.823   8.664
 6014SOL     OW18373   3.164   4.579   7.757
 6014SOL    HW118374   3.078   4.548   7.799
 6014SOL    HW218375   3.160   4.565   7.658
 6015SOL     OW18376   3.588   3.859   7.971
 6015SOL    HW118377   3.661   3.842   7.904
 6015SOL    HW218378   3.557   3.772   8.009
 6016SOL     OW18379   3.142   4.651   8.120
 6016SOL    HW118380   3.202   4.570   8.122
 6016SOL    HW218381   3.182   4.720   8.060
 6017SOL     OW18382   3.703   3.899   8.411
 6017SOL    HW118383   3.742   3.814   8.375
 6017SOL    HW218384   3.605   3.901   8.392
 6018SOL     OW18385   2.125   4.050   8.168
 6018SOL    HW118386   2.046   4.101   8.134
 6018SOL    HW218387   2.116   4.035   8.266
 6019SOL     OW18388   2.778   4.634   7.739
 6019SOL    HW118389   2.841   4.672   7.671
 6019SOL    HW218390   2.818   4.551   7.778
 6020SOL     OW18391   2.876   3.960   8.419
 6020SOL    HW118392   2.868   3.924   8.326
 6020SOL    HW218393   2.874   3.884   8.484
 6021SOL     OW18394   3.571   4.109   8.829
 6021SOL    HW118395   3.644   4.178   8.833
 6021SOL    HW218396   3.599   4.034   8.770
 6022SOL     OW18397   1.967   4.737   9.174
 6022SOL    HW118398   1.890   4.704   9.228
 6022SOL    HW218399   2.052   4.707   9.216
 6023SOL     OW18400   2.534   3.927   8.937
 6023SOL    HW118401   2.624   3.911   8.897
 6023SOL    HW218402   2.542   3.932   9.036
 6024SOL     OW18403   1.937   4.069   7.481
 6024SOL    HW118404   1.845   4.041   7.452
 6024SOL    HW218405   1.968   4.146   7.425
 6025SOL     OW18406   3.302   4.580   8.846
 6025SOL    HW118407   3.245   4.632   8.783
 6025SOL    HW218408   3.398   4.592   8.822
 6026SOL     OW18409   1.934   3.890   7.766
 6026SOL    HW118410   1.917   3.973   7.712
 6026SOL    HW218411   2.024   3.853   7.744
 6027SOL     OW18412   2.475   4.566   8.879
 6027SOL    HW118413   2.531   4.647   8.862
 6027SOL    HW218414   2.534   4.486   8.882
 6028SOL     OW18415   2.578   4.289   9.156
 6028SOL    HW118416   2.597   4.354   9.230
 6028SOL    HW218417   2.638   4.209   9.165
 6029SOL     OW18418   3.536   4.607   8.702
 6029SOL    HW118419   3.509   4.518   8.665
 6029SOL    HW218420   3.537   4.675   8.629
 6030SOL     OW18421   3.087   4.049   7.897
 6030SOL    HW118422   3.152   3.975   7.886
 6030SOL    HW218423   3.107   4.099   7.981
 6031SOL     OW18424   2.456   4.469   8.100
 6031SOL    HW118425   2.506   4.554   8.081
 6031SOL    HW218426   2.368   4.471   8.052
 6032SOL     OW18427   3.639   4.066   9.090
 6032SOL    HW118428   3.622   4.097   8.996
 6032SOL    HW218429   3.555   4.029   9.128
 6033SOL     OW18430   3.592   4.658   8.965
 6033SOL    HW118431   3.630   4.749   8.980
 6033SOL    HW218432   3.584   4.641   8.866
 6034SOL     OW18433   3.686   3.916   8.675
 6034SOL    HW118434   3.682   3.826   8.719
 6034SOL    HW218435   3.689   3.905   8.576
 6035SOL     OW18436   2.290   4.148   7.968
 6035SOL    HW118437   2.320   4.076   7.906
 6035SOL    HW218438   2.251   4.108   8.051
 6036SOL     OW18439   2.179   4.271   8.728
 6036SOL    HW118440   2.217   4.212   8.800
 6036SOL    HW218441   2.219   4.245   8.640
 6037SOL     OW18442   3.286   3.938   8.560
 6037SOL    HW118443   3.338   3.873   8.615
 6037SOL    HW218444   3.237   4.001   8.621
 6038SOL     OW18445   2.863   3.758   8.602
 6038SOL    HW118446   2.800   3.686   8.571
 6038SOL    HW218447   2.956   3.722   8.602
 6039SOL     OW18448   3.214   3.776   7.616
 6039SOL    HW118449   3.249   3.735   7.532
 6039SOL    HW218450   3.124   3.738   7.636
 6040SOL     OW18451   3.162   4.177   8.139
 6040SOL    HW118452   3.103   4.257   8.143
 6040SOL    HW218453   3.177   4.142   8.232
 6041SOL     OW18454   3.455   3.945   8.330
 6041SOL    HW118455   3.371   3.944   8.384
 6041SOL    HW218456   3.457   4.028   8.274
 6042SOL     OW18457   2.092   4.352   9.423
 6042SOL    HW118458   1.999   4.350   9.460
 6042SOL    HW218459   2.093   4.313   9.331
 6043SOL     OW18460   2.087   3.999  10.306
 6043SOL    HW118461   2.122   3.982  10.398
 6043SOL    HW218462   1.999   3.954  10.294
 6044SOL     OW18463   1.881   4.092   9.957
 6044SOL    HW118464   1.799   4.135   9.996
 6044SOL    HW218465   1.853   4.019   9.894
 6045SOL     OW18466   2.997   4.427  10.027
 6045SOL    HW118467   3.054   4.505  10.002
 6045SOL    HW218468   2.937   4.453  10.103
 6046SOL     OW18469   3.617   4.331   9.541
 6046SOL    HW118470   3.605   4.318   9.442
 6046SOL    HW218471   3.587   4.250   9.590
 6047SOL     OW18472   2.712   4.522  11.133
 6047SOL    HW118473   2.708   4.598  11.198
 6047SOL    HW218474   2.734   4.558  11.042
 6048SOL     OW18475   2.547   4.736   9.975
 6048SOL    HW118476   2.616   4.720  10.045
 6048SOL    HW218477   2.474   4.793  10.013
 6049SOL     OW18478   2.300   4.116  10.809
 6049SOL    HW118479   2.382   4.060  10.818
 6049SOL    HW218480   2.219   4.058  10.813
 6050SOL     OW18481   3.465   4.171  10.047
 6050SOL    HW118482   3.391   4.217   9.997
 6050SOL    HW218483   3.516   4.239  10.100
 6051SOL     OW18484   3.456   3.838  10.790
 6051SOL    HW118485   3.438   3.905  10.718
 6051SOL    HW218486   3.453   3.884  10.879
 6052SOL     OW18487   1.984   4.367   9.873
 6052SOL    HW118488   1.939   4.279   9.890
 6052SOL    HW218489   1.983   4.421   9.957
 6053SOL     OW18490   2.671   3.728   9.812
 6053SOL    HW118491   2.711   3.819   9.803
 6053SOL    HW218492   2.571   3.736   9.818
 6054SOL     OW18493   2.059   4.700  10.574
 6054SOL    HW118494   2.148   4.655  10.560
 6054SOL    HW218495   1.986   4.635  10.555
 6055SOL     OW18496   3.387   4.723   9.500
 6055SOL    HW118497   3.324   4.647   9.513
 6055SOL    HW218498   3.435   4.741   9.586
 6056SOL     OW18499   2.460   4.453   9.580
 6056SOL    HW118500   2.484   4.522   9.512
 6056SOL    HW218501   2.382   4.486   9.634
 6057SOL     OW18502   3.143   4.069  10.254
 6057SOL    HW118503   3.057   4.019  10.241
 6057SOL    HW218504   3.205   4.015  10.310
 6058SOL     OW18505   2.669   4.329  10.775
 6058SOL    HW118506   2.622   4.326  10.864
 6058SOL    HW218507   2.618   4.274  10.709
 6059SOL     OW18508   2.835   4.614  10.882
 6059SOL    HW118509   2.881   4.530  10.853
 6059SOL    HW218510   2.779   4.648  10.807
 6060SOL     OW18511   2.853   4.134  10.552
 6060SOL    HW118512   2.776   4.168  10.606
 6060SOL    HW218513   2.819   4.083  10.473
 6061SOL     OW18514   2.903   4.425   9.739
 6061SOL    HW118515   2.929   4.421   9.835
 6061SOL    HW218516   2.818   4.374   9.725
 6062SOL     OW18517   1.938   4.535  10.099
 6062SOL    HW118518   2.037   4.523  10.108
 6062SOL    HW218519   1.914   4.630  10.120
 6063SOL     OW18520   2.727   4.072   9.505
 6063SOL    HW118521   2.786   4.135   9.456
 6063SOL    HW218522   2.746   3.978   9.476
 6064SOL     OW18523   2.412   3.920  10.195
 6064SOL    HW118524   2.407   3.915  10.295
 6064SOL    HW218525   2.414   4.016  10.166
 6065SOL     OW18526   3.320   4.459  10.038
 6065SOL    HW118527   3.315   4.394  10.113
 6065SOL    HW218528   3.400   4.518  10.051
 6066SOL     OW18529   3.262   3.831   9.736
 6066SOL    HW118530   3.238   3.794   9.646
 6066SOL    HW218531   3.361   3.847   9.740
 6067SOL     OW18532   2.244   4.424   9.790
 6067SOL    HW118533   2.289   4.334   9.787
 6067SOL    HW218534   2.150   4.413   9.823
 6068SOL     OW18535   2.476   3.846   9.427
 6068SOL    HW118536   2.574   3.824   9.434
 6068SOL    HW218537   2.445   3.829   9.334
 6069SOL     OW18538   2.784   4.227  10.209
 6069SOL    HW118539   2.759   4.218  10.113
 6069SOL    HW218540   2.832   4.145  10.240
 6070SOL     OW18541   2.401   3.788   9.822
 6070SOL    HW118542   2.320   3.789   9.880
 6070SOL    HW218543   2.404   3.871   9.767
 6071SOL     OW18544   2.159   3.759   9.481
 6071SOL    HW118545   2.208   3.843   9.460
 6071SOL    HW218546   2.221   3.694   9.526
 6072SOL     OW18547   2.797   3.960   9.790
 6072SOL    HW118548   2.749   4.001   9.712
 6072SOL    HW218549   2.896   3.958   9.771
 6073SOL     OW18550   2.894   4.273   9.326
 6073SOL    HW118551   2.853   4.355   9.287
 6073SOL    HW218552   2.958   4.299   9.399
 6074SOL     OW18553   1.940   4.280  10.696
 6074SOL    HW118554   2.032   4.279  10.655
 6074SOL    HW218555   1.934   4.354  10.763
 6075SOL     OW18556   2.423   3.946  10.457
 6075SOL    HW118557   2.461   3.862  10.494
 6075SOL    HW218558   2.335   3.965  10.501
 6076SOL     OW18559   2.728   4.178   9.952
 6076SOL    HW118560   2.696   4.250   9.890
 6076SOL    HW218561   2.752   4.097   9.899
 6077SOL     OW18562   2.879   3.763  10.063
 6077SOL    HW118563   2.807   3.768   9.994
 6077SOL    HW218564   2.855   3.694  10.132
 6078SOL     OW18565   3.328   4.314  10.302
 6078SOL    HW118566   3.298   4.219  10.309
 6078SOL    HW218567   3.401   4.330  10.368
 6079SOL     OW18568   3.719   4.557   9.687
 6079SOL    HW118569   3.761   4.493   9.751
 6079SOL    HW218570   3.681   4.506   9.609
 6080SOL     OW18571   3.252   4.299   9.388
 6080SOL    HW118572   3.198   4.278   9.469
 6080SOL    HW218573   3.343   4.258   9.397
 6081SOL     OW18574   2.389   3.980   9.638
 6081SOL    HW118575   2.416   3.921   9.563
 6081SOL    HW218576   2.389   4.075   9.607
 6082SOL     OW18577   3.500   4.823  10.389
 6082SOL    HW118578   3.505   4.904  10.448
 6082SOL    HW218579   3.414   4.825  10.338
 6083SOL     OW18580   2.777   3.813  10.712
 6083SOL    HW118581   2.802   3.793  10.617
 6083SOL    HW218582   2.849   3.869  10.754
 6084SOL     OW18583   2.272   4.537  10.561
 6084SOL    HW118584   2.358   4.549  10.611
 6084SOL    HW218585   2.230   4.450  10.588
 6085SOL     OW18586   3.136   4.110  10.572
 6085SOL    HW118587   3.157   4.184  10.636
 6085SOL    HW218588   3.047   4.127  10.529
 6086SOL     OW18589   2.428   4.261  10.175
 6086SOL    HW118590   2.440   4.327  10.101
 6086SOL    HW218591   2.474   4.295  10.258
 6087SOL     OW18592   3.444   4.363   9.782
 6087SOL    HW118593   3.413   4.424   9.855
 6087SOL    HW218594   3.494   4.415   9.713
 6088SOL     OW18595   2.264   4.475  10.908
 6088SOL    HW118596   2.332   4.530  10.861
 6088SOL    HW218597   2.304   4.387  10.935
 6089SOL     OW18598   3.449   4.503  10.980
 6089SOL    HW118599   3.357   4.541  10.975
 6089SOL    HW218600   3.509   4.550  10.915
 6090SOL     OW18601   2.435   4.594  10.339
 6090SOL    HW118602   2.479   4.683  10.330
 6090SOL    HW218603   2.372   4.594  10.416
 6091SOL     OW18604   3.222   4.586  10.355
 6091SOL    HW118605   3.147   4.586  10.289
 6091SOL    HW218606   3.259   4.494  10.364
 6092SOL     OW18607   3.071   4.249   9.585
 6092SOL    HW118608   3.084   4.165   9.639
 6092SOL    HW218609   3.042   4.323   9.645
 6093SOL     OW18610   2.169   3.937  10.541
 6093SOL    HW118611   2.146   3.974  10.631
 6093SOL    HW218612   2.139   3.842  10.535
 6094SOL     OW18613   2.594   4.358  10.374
 6094SOL    HW118614   2.653   4.332  10.298
 6094SOL    HW218615   2.566   4.454  10.363
 6095SOL     OW18616   2.169   3.787   9.928
 6095SOL    HW118617   2.158   3.881   9.961
 6095SOL    HW218618   2.164   3.724  10.005
 6096SOL     OW18619   3.484   4.091   9.684
 6096SOL    HW118620   3.486   4.015   9.748
 6096SOL    HW218621   3.436   4.168   9.724
 6097SOL     OW18622   2.885   4.490  10.276
 6097SOL    HW118623   2.900   4.511  10.372
 6097SOL    HW218624   2.855   4.395  10.267
 6098SOL     OW18625   3.402   3.998   9.435
 6098SOL    HW118626   3.341   3.923   9.458
 6098SOL    HW218627   3.424   4.050   9.518
 6099SOL     OW18628   3.165   4.562   9.352
 6099SOL    HW118629   3.199   4.469   9.367
 6099SOL    HW218630   3.183   4.589   9.257
 6100SOL     OW18631   2.181   4.534  10.259
 6100SOL    HW118632   2.274   4.570  10.264
 6100SOL    HW218633   2.175   4.449  10.311
 6101SOL     OW18634   2.201   4.233  10.316
 6101SOL    HW118635   2.149   4.150  10.299
 6101SOL    HW218636   2.278   4.238  10.252
 6102SOL     OW18637   3.000   4.104  10.988
 6102SOL    HW118638   2.955   4.167  11.052
 6102SOL    HW218639   3.093   4.135  10.971
 6103SOL     OW18640   3.022   3.931  10.787
 6103SOL    HW118641   3.022   3.995  10.864
 6103SOL    HW218642   3.050   3.979  10.704
 6104SOL     OW18643   2.864   4.520  10.548
 6104SOL    HW118644   2.905   4.488  10.634
 6104SOL    HW218645   2.768   4.493  10.545
 6105SOL     OW18646   1.902   4.268  10.424
 6105SOL    HW118647   1.987   4.235  10.383
 6105SOL    HW218648   1.915   4.283  10.522
 6106SOL     OW18649   2.677   4.296   9.635
 6106SOL    HW118650   2.684   4.207   9.589
 6106SOL    HW218651   2.583   4.330   9.627
 6107SOL     OW18652   3.519   4.328  10.516
 6107SOL    HW118653   3.481   4.259  10.578
 6107SOL    HW218654   3.601   4.292  10.472
 6108SOL     OW18655   2.533   4.188  10.579
 6108SOL    HW118656   2.499   4.099  10.549
 6108SOL    HW218657   2.559   4.242  10.499
 6109SOL     OW18658   2.335   4.224   9.501
 6109SOL    HW118659   2.396   4.304   9.505
 6109SOL    HW218660   2.240   4.255   9.508
 6110SOL     OW18661   2.021   4.861  10.776
 6110SOL    HW118662   2.043   4.800  10.852
 6110SOL    HW218663   2.031   4.812  10.690
 6111SOL     OW18664   3.209   4.783  10.544
 6111SOL    HW118665   3.233   4.720  10.470
 6111SOL    HW218666   3.119   4.823  10.526
 6112SOL     OW18667   3.164   4.579   9.619
 6112SOL    HW118668   3.078   4.548   9.661
 6112SOL    HW218669   3.160   4.565   9.520
 6113SOL     OW18670   3.588   3.859   9.833
 6113SOL    HW118671   3.661   3.842   9.766
 6113SOL    HW218672   3.557   3.772   9.871
 6114SOL     OW18673   3.142   4.651   9.982
 6114SOL    HW118674   3.202   4.570   9.984
 6114SOL    HW218675   3.182   4.720   9.922
 6115SOL     OW18676   2.692   4.997  10.732
 6115SOL    HW118677   2.687   5.030  10.827
 6115SOL    HW218678   2.606   5.016  10.686
 6116SOL     OW18679   3.703   3.899  10.273
 6116SOL    HW118680   3.742   3.814  10.237
 6116SOL    HW218681   3.605   3.901  10.254
 6117SOL     OW18682   2.125   4.050  10.030
 6117SOL    HW118683   2.046   4.101   9.996
 6117SOL    HW218684   2.116   4.035  10.128
 6118SOL     OW18685   2.778   4.634   9.601
 6118SOL    HW118686   2.841   4.672   9.533
 6118SOL    HW218687   2.818   4.551   9.640
 6119SOL     OW18688   2.876   3.960  10.281
 6119SOL    HW118689   2.868   3.924  10.188
 6119SOL    HW218690   2.874   3.884  10.346
 6120SOL     OW18691   3.571   4.109  10.691
 6120SOL    HW118692   3.644   4.178  10.695
 6120SOL    HW218693   3.599   4.034  10.632
 6121SOL     OW18694   1.937   4.069   9.343
 6121SOL    HW118695   1.845   4.041   9.314
 6121SOL    HW218696   1.968   4.146   9.287
 6122SOL     OW18697   3.302   4.580  10.708
 6122SOL    HW118698   3.245   4.632  10.645
 6122SOL    HW218699   3.398   4.592  10.684
 6123SOL     OW18700   1.934   3.890   9.628
 6123SOL    HW118701   1.917   3.973   9.574
 6123SOL    HW218702   2.024   3.853   9.606
 6124SOL     OW18703   2.475   4.566  10.741
 6124SOL    HW118704   2.531   4.647  10.724
 6124SOL    HW218705   2.534   4.486  10.744
 6125SOL     OW18706   3.536   4.607  10.564
 6125SOL    HW118707   3.509   4.518  10.527
 6125SOL    HW218708   3.537   4.675  10.491
 6126SOL     OW18709   3.087   4.049   9.759
 6126SOL    HW118710   3.152   3.975   9.748
 6126SOL    HW218711   3.107   4.099   9.843
 6127SOL     OW18712   2.456   4.469   9.962
 6127SOL    HW118713   2.506   4.554   9.943
 6127SOL    HW218714   2.368   4.471   9.914
 6128SOL     OW18715   3.592   4.658  10.827
 6128SOL    HW118716   3.630   4.749  10.842
 6128SOL    HW218717   3.584   4.641  10.728
 6129SOL     OW18718   3.686   3.916  10.537
 6129SOL    HW118719   3.682   3.826  10.581
 6129SOL    HW218720   3.689   3.905  10.438
 6130SOL     OW18721   2.290   4.148   9.830
 6130SOL    HW118722   2.320   4.076   9.768
 6130SOL    HW218723   2.251   4.108   9.913
 6131SOL     OW18724   2.179   4.271  10.590
 6131SOL    HW118725   2.217   4.212  10.662
 6131SOL    HW218726   2.219   4.245  10.502
 6132SOL     OW18727   3.286   3.938  10.422
 6132SOL    HW118728   3.338   3.873  10.477
 6132SOL    HW218729   3.237   4.001  10.483
 6133SOL     OW18730   2.863   3.758  10.464
 6133SOL    HW118731   2.800   3.686  10.433
 6133SOL    HW218732   2.956   3.722  10.464
 6134SOL     OW18733   3.214   3.776   9.478
 6134SOL    HW118734   3.249   3.735   9.394
 6134SOL    HW218735   3.124   3.738   9.498
 6135SOL     OW18736   3.162   4.177  10.001
 6135SOL    HW118737   3.103   4.257  10.005
 6135SOL    HW218738   3.177   4.142  10.094
 6136SOL     OW18739   3.455   3.945  10.192
 6136SOL    HW118740   3.371   3.944  10.246
 6136SOL    HW218741   3.457   4.028  10.136
 6137SOL     OW18742   3.954   0.628   0.113
 6137SOL    HW118743   3.861   0.626   0.150
 6137SOL    HW218744   3.955   0.589   0.021
 6138SOL     OW18745   3.949   0.275   0.996
 6138SOL    HW118746   3.984   0.258   1.088
 6138SOL    HW218747   3.861   0.230   0.984
 6139SOL     OW18748   3.743   0.368   0.647
 6139SOL    HW118749   3.661   0.411   0.686
 6139SOL    HW218750   3.715   0.295   0.584
 6140SOL     OW18751   4.293   1.275   1.165
 6140SOL    HW118752   4.200   1.268   1.128
 6140SOL    HW218753   4.304   1.364   1.209
 6141SOL     OW18754   4.492   1.144   1.023
 6141SOL    HW118755   4.414   1.161   1.083
 6141SOL    HW218756   4.526   1.231   0.987
 6142SOL     OW18757   4.574   0.798   1.823
 6142SOL    HW118758   4.570   0.874   1.888
 6142SOL    HW218759   4.596   0.834   1.732
 6143SOL     OW18760   4.409   1.012   0.665
 6143SOL    HW118761   4.478   0.996   0.735
 6143SOL    HW218762   4.336   1.069   0.703
 6144SOL     OW18763   4.410   1.161   1.803
 6144SOL    HW118764   4.470   1.240   1.817
 6144SOL    HW218765   4.324   1.192   1.762
 6145SOL     OW18766   4.059   1.435   1.061
 6145SOL    HW118767   3.981   1.404   1.008
 6145SOL    HW218768   4.117   1.493   1.004
 6146SOL     OW18769   4.162   0.392   1.499
 6146SOL    HW118770   4.244   0.336   1.508
 6146SOL    HW218771   4.081   0.334   1.503
 6147SOL     OW18772   3.955   1.713   0.483
 6147SOL    HW118773   3.989   1.790   0.537
 6147SOL    HW218774   3.999   1.713   0.393
 6148SOL     OW18775   3.954   1.434   0.538
 6148SOL    HW118776   3.928   1.530   0.538
 6148SOL    HW218777   3.883   1.380   0.583
 6149SOL     OW18778   3.964   1.091   0.886
 6149SOL    HW118779   3.978   1.007   0.938
 6149SOL    HW218780   3.909   1.155   0.941
 6150SOL     OW18781   4.344   1.786   1.439
 6150SOL    HW118782   4.252   1.769   1.474
 6150SOL    HW218783   4.372   1.878   1.465
 6151SOL     OW18784   4.330   0.964   0.123
 6151SOL    HW118785   4.337   1.048   0.069
 6151SOL    HW218786   4.376   0.977   0.211
 6152SOL     OW18787   3.846   0.643   0.563
 6152SOL    HW118788   3.801   0.555   0.580
 6152SOL    HW218789   3.845   0.697   0.647
 6153SOL     OW18790   3.751   1.596   0.117
 6153SOL    HW118791   3.732   1.500   0.138
 6153SOL    HW218792   3.718   1.654   0.192
 6154SOL     OW18793   3.837   0.737   1.597
 6154SOL    HW118794   3.925   0.724   1.642
 6154SOL    HW218795   3.824   0.834   1.575
 6155SOL     OW18796   4.337   1.365   0.726
 6155SOL    HW118797   4.288   1.278   0.735
 6155SOL    HW218798   4.314   1.408   0.639
 6156SOL     OW18799   4.533   0.004   0.502
 6156SOL    HW118800   4.573   0.095   0.493
 6156SOL    HW218801   4.433   0.012   0.508
 6157SOL     OW18802   3.921   0.976   1.264
 6157SOL    HW118803   4.010   0.931   1.250
 6157SOL    HW218804   3.848   0.911   1.245
 6158SOL     OW18805   4.041   0.251   1.801
 6158SOL    HW118806   4.112   0.322   1.807
 6158SOL    HW218807   3.953   0.290   1.829
 6159SOL     OW18808   4.322   0.729   0.270
 6159SOL    HW118809   4.346   0.798   0.202
 6159SOL    HW218810   4.244   0.762   0.324
 6160SOL     OW18811   4.531   0.605   1.465
 6160SOL    HW118812   4.484   0.602   1.554
 6160SOL    HW218813   4.480   0.550   1.399
 6161SOL     OW18814   3.800   0.811   0.789
 6161SOL    HW118815   3.899   0.799   0.798
 6161SOL    HW218816   3.776   0.906   0.810
 6162SOL     OW18817   3.854   1.821   1.571
 6162SOL    HW118818   3.844   1.806   1.670
 6162SOL    HW218819   3.768   1.857   1.535
 6163SOL     OW18820   4.589   0.348   0.195
 6163SOL    HW118821   4.648   0.411   0.146
 6163SOL    HW218822   4.608   0.254   0.166
 6164SOL     OW18823   4.274   0.196   0.885
 6164SOL    HW118824   4.269   0.191   0.985
 6164SOL    HW218825   4.276   0.292   0.856
 6165SOL     OW18826   4.732   1.456   0.477
 6165SOL    HW118827   4.686   1.528   0.425
 6165SOL    HW218828   4.728   1.476   0.575
 6166SOL     OW18829   4.075   1.801   0.853
 6166SOL    HW118830   4.125   1.715   0.859
 6166SOL    HW218831   4.140   1.878   0.850
 6167SOL     OW18832   4.045   0.943   0.242
 6167SOL    HW118833   4.127   0.982   0.200
 6167SOL    HW218834   4.018   0.861   0.193
 6168SOL     OW18835   4.185   1.266   1.727
 6168SOL    HW118836   4.135   1.267   1.641
 6168SOL    HW218837   4.122   1.248   1.803
 6169SOL     OW18838   3.926   0.285   1.498
 6169SOL    HW118839   3.846   0.345   1.485
 6169SOL    HW218840   3.916   0.236   1.584
 6170SOL     OW18841   4.188   1.743   0.323
 6170SOL    HW118842   4.221   1.782   0.409
 6170SOL    HW218843   4.264   1.736   0.258
 6171SOL     OW18844   3.973   1.785   1.241
 6171SOL    HW118845   4.030   1.720   1.291
 6171SOL    HW218846   3.957   1.752   1.148
 6172SOL     OW18847   4.106   0.700   0.480
 6172SOL    HW118848   4.151   0.610   0.477
 6172SOL    HW218849   4.012   0.689   0.513
 6173SOL     OW18850   4.338   0.122   0.117
 6173SOL    HW118851   4.436   0.100   0.124
 6173SOL    HW218852   4.307   0.105   0.024
 6174SOL     OW18853   4.505   0.264   1.749
 6174SOL    HW118854   4.572   0.203   1.792
 6174SOL    HW218855   4.432   0.283   1.814
 6175SOL     OW18856   4.612   1.514   1.195
 6175SOL    HW118857   4.589   1.489   1.101
 6175SOL    HW218858   4.673   1.445   1.234
 6176SOL     OW18859   4.527   1.402   0.924
 6176SOL    HW118860   4.617   1.416   0.882
 6176SOL    HW218861   4.456   1.404   0.853
 6177SOL     OW18862   4.646   0.503   0.899
 6177SOL    HW118863   4.621   0.494   0.803
 6177SOL    HW218864   4.694   0.421   0.930
 6178SOL     OW18865   4.263   0.064   0.512
 6178SOL    HW118866   4.182   0.065   0.570
 6178SOL    HW218867   4.266   0.147   0.457
 6179SOL     OW18868   4.021   0.035   0.171
 6179SOL    HW118869   4.070   0.119   0.150
 6179SOL    HW218870   4.083  -0.030   0.216
 6180SOL     OW18871   4.951   1.570   0.793
 6180SOL    HW118872   4.972   1.644   0.728
 6180SOL    HW218873   5.019   1.570   0.866
 6181SOL     OW18874   4.183   1.152   0.741
 6181SOL    HW118875   4.112   1.125   0.806
 6181SOL    HW218876   4.157   1.124   0.648
 6182SOL     OW18877   3.802   0.556   1.386
 6182SOL    HW118878   3.894   0.555   1.345
 6182SOL    HW218879   3.796   0.630   1.453
 6183SOL     OW18880   4.285   0.222   1.147
 6183SOL    HW118881   4.323   0.138   1.184
 6183SOL    HW218882   4.197   0.241   1.191
 6184SOL     OW18883   4.212   1.385   0.174
 6184SOL    HW118884   4.125   1.370   0.221
 6184SOL    HW218885   4.195   1.411   0.079
 6185SOL     OW18886   4.251   0.256   0.328
 6185SOL    HW118887   4.278   0.197   0.253
 6185SOL    HW218888   4.251   0.351   0.297
 6186SOL     OW18889   4.639   0.089   1.402
 6186SOL    HW118890   4.664   0.069   1.307
 6186SOL    HW218891   4.711   0.145   1.444
 6187SOL     OW18892   4.429   1.050   0.368
 6187SOL    HW118893   4.415   1.057   0.467
 6187SOL    HW218894   4.513   0.999   0.350
 6188SOL     OW18895   4.134   0.813   1.251
 6188SOL    HW118896   4.220   0.825   1.301
 6188SOL    HW218897   4.092   0.726   1.278
 6189SOL     OW18898   3.788   1.564   1.331
 6189SOL    HW118899   3.742   1.646   1.297
 6189SOL    HW218900   3.886   1.583   1.340
 6190SOL     OW18901   4.091   1.100   0.501
 6190SOL    HW118902   4.084   1.183   0.445
 6190SOL    HW218903   4.095   1.020   0.441
 6191SOL     OW18904   4.290   0.537   0.865
 6191SOL    HW118905   4.302   0.603   0.791
 6191SOL    HW218906   4.336   0.571   0.948
 6192SOL     OW18907   4.078   1.510   1.329
 6192SOL    HW118908   4.057   1.466   1.242
 6192SOL    HW218909   4.175   1.536   1.332
 6193SOL     OW18910   4.126   0.751   1.598
 6193SOL    HW118911   4.194   0.806   1.551
 6193SOL    HW218912   4.166   0.663   1.625
 6194SOL     OW18913   4.228   0.050   1.740
 6194SOL    HW118914   4.186  -0.007   1.670
 6194SOL    HW218915   4.162   0.119   1.772
 6195SOL     OW18916   4.297   0.870   1.029
 6195SOL    HW118917   4.341   0.959   1.020
 6195SOL    HW218918   4.234   0.870   1.106
 6196SOL     OW18919   4.933   0.525   0.275
 6196SOL    HW118920   4.946   0.441   0.329
 6196SOL    HW218921   4.904   0.599   0.335
 6197SOL     OW18922   4.031   0.213   1.231
 6197SOL    HW118923   4.008   0.250   1.321
 6197SOL    HW218924   4.001   0.118   1.225
 6198SOL     OW18925   3.761   1.310   1.282
 6198SOL    HW118926   3.814   1.261   1.350
 6198SOL    HW218927   3.783   1.408   1.287
 6199SOL     OW18928   4.456   0.634   1.064
 6199SOL    HW118929   4.515   0.608   0.988
 6199SOL    HW218930   4.428   0.730   1.053
 6200SOL     OW18931   4.031   0.063   0.618
 6200SOL    HW118932   4.020   0.157   0.651
 6200SOL    HW218933   4.026   0.000   0.695
 6201SOL     OW18934   4.747   0.766   0.966
 6201SOL    HW118935   4.762   0.787   1.062
 6201SOL    HW218936   4.717   0.671   0.957
 6202SOL     OW18937   4.704   1.573   1.700
 6202SOL    HW118938   4.684   1.617   1.612
 6202SOL    HW218939   4.743   1.482   1.684
 6203SOL     OW18940   4.074   0.898   1.804
 6203SOL    HW118941   4.150   0.942   1.852
 6203SOL    HW218942   4.109   0.851   1.722
 6204SOL     OW18943   4.043   0.810   0.949
 6204SOL    HW118944   4.136   0.846   0.954
 6204SOL    HW218945   4.037   0.725   1.001
 6205SOL     OW18946   4.063   0.509   1.006
 6205SOL    HW118947   4.011   0.426   0.989
 6205SOL    HW218948   4.140   0.514   0.942
 6206SOL     OW18949   3.732   1.326   0.200
 6206SOL    HW118950   3.639   1.347   0.169
 6206SOL    HW218951   3.742   1.227   0.213
 6207SOL     OW18952   3.812   1.801   0.927
 6207SOL    HW118953   3.770   1.715   0.900
 6207SOL    HW218954   3.906   1.804   0.893
 6208SOL     OW18955   4.228   1.568   0.910
 6208SOL    HW118956   4.294   1.642   0.919
 6208SOL    HW218957   4.272   1.489   0.868
 6209SOL     OW18958   4.726   0.796   1.238
 6209SOL    HW118959   4.767   0.764   1.324
 6209SOL    HW218960   4.630   0.769   1.235
 6210SOL     OW18961   3.764   0.544   1.114
 6210SOL    HW118962   3.849   0.511   1.073
 6210SOL    HW218963   3.777   0.559   1.212
 6211SOL     OW18964   3.913   0.520   1.722
 6211SOL    HW118965   3.972   0.480   1.652
 6211SOL    HW218966   3.855   0.591   1.681
 6212SOL     OW18967   4.539   0.572   0.325
 6212SOL    HW118968   4.546   0.483   0.279
 6212SOL    HW218969   4.445   0.606   0.317
 6213SOL     OW18970   3.976   1.564   1.744
 6213SOL    HW118971   3.946   1.621   1.820
 6213SOL    HW218972   3.969   1.467   1.770
 6214SOL     OW18973   4.395   0.464   1.269
 6214SOL    HW118974   4.361   0.375   1.239
 6214SOL    HW218975   4.421   0.518   1.189
 6215SOL     OW18976   4.654   1.678   1.465
 6215SOL    HW118977   4.630   1.660   1.370
 6215SOL    HW218978   4.684   1.772   1.475
 6216SOL     OW18979   4.197   0.500   0.191
 6216SOL    HW118980   4.258   0.580   0.195
 6216SOL    HW218981   4.102   0.531   0.198
 6217SOL     OW18982   3.883   1.137   1.466
 6217SOL    HW118983   3.905   1.076   1.542
 6217SOL    HW218984   3.893   1.088   1.380
 6218SOL     OW18985   3.807   1.258   1.022
 6218SOL    HW118986   3.802   1.257   1.122
 6218SOL    HW218987   3.724   1.217   0.984
 6219SOL     OW18988   4.412   1.662   1.716
 6219SOL    HW118989   4.356   1.743   1.725
 6219SOL    HW218990   4.464   1.666   1.630
 6220SOL     OW18991   4.627   0.086   0.133
 6220SOL    HW118992   4.678   0.087   0.047
 6220SOL    HW218993   4.683   0.044   0.204
 6221SOL     OW18994   3.854   1.794   1.851
 6221SOL    HW118995   3.813   1.720   1.904
 6221SOL    HW218996   3.918   1.845   1.909
 6222SOL     OW18997   4.554   1.273   1.422
 6222SOL    HW118998   4.549   1.306   1.517
 6222SOL    HW218999   4.468   1.292   1.376
 6223SOL     OW19000   4.396   1.616   0.154
 6223SOL    HW119001   4.405   1.626   0.055
 6223SOL    HW219002   4.356   1.527   0.175
 6224SOL     OW19003   3.987   0.326   0.720
 6224SOL    HW119004   3.908   0.377   0.686
 6224SOL    HW219005   3.978   0.311   0.818
 6225SOL     OW19006   4.918   1.612   0.031
 6225SOL    HW119007   4.924   1.519   0.068
 6225SOL    HW219008   4.859   1.612  -0.049
 6226SOL     OW19009   4.546   1.002   1.372
 6226SOL    HW119010   4.586   1.001   1.280
 6226SOL    HW219011   4.556   1.094   1.412
 6227SOL     OW19012   4.096   1.288   1.490
 6227SOL    HW119013   4.083   1.381   1.456
 6227SOL    HW219014   4.012   1.236   1.477
 6228SOL     OW19015   4.314   1.487   0.491
 6228SOL    HW119016   4.356   1.429   0.421
 6228SOL    HW219017   4.270   1.566   0.447
 6229SOL     OW19018   3.979   1.348   0.290
 6229SOL    HW119019   3.883   1.349   0.263
 6229SOL    HW219020   3.991   1.401   0.374
 6230SOL     OW19021   3.829   1.013   1.726
 6230SOL    HW119022   3.752   0.980   1.780
 6230SOL    HW219023   3.914   0.983   1.768
 6231SOL     OW19024   4.396   0.203   1.489
 6231SOL    HW119025   4.486   0.187   1.449
 6231SOL    HW219026   4.404   0.208   1.588
 6232SOL     OW19027   3.799   0.345   0.033
 6232SOL    HW119028   3.707   0.317   0.004
 6232SOL    HW219029   3.830   0.422  -0.023
 6233SOL     OW19030   3.796   0.166   0.318
 6233SOL    HW119031   3.779   0.249   0.264
 6233SOL    HW219032   3.886   0.129   0.296
 6234SOL     OW19033   4.337   0.842   1.431
 6234SOL    HW119034   4.393   0.923   1.414
 6234SOL    HW219035   4.396   0.762   1.434
 6235SOL     OW19036   4.440   0.565   1.708
 6235SOL    HW119037   4.459   0.630   1.782
 6235SOL    HW219038   4.500   0.485   1.717
 6236SOL     OW19039   4.114   1.741   1.560
 6236SOL    HW119040   4.023   1.782   1.558
 6236SOL    HW219041   4.107   1.647   1.592
 6237SOL     OW19042   4.949   0.325   0.449
 6237SOL    HW119043   5.014   0.251   0.438
 6237SOL    HW219044   4.969   0.375   0.533
 6238SOL     OW19045   4.318   0.745   0.652
 6238SOL    HW119046   4.368   0.830   0.633
 6238SOL    HW219047   4.230   0.747   0.604
 6239SOL     OW19048   4.583   1.374   0.016
 6239SOL    HW119049   4.537   1.389   0.104
 6239SOL    HW219050   4.627   1.459  -0.014
 6240SOL     OW19051   4.385   1.790   0.953
 6240SOL    HW119052   4.339   1.878   0.940
 6240SOL    HW219053   4.484   1.802   0.946
 6241SOL     OW19054   4.583   0.956   0.861
 6241SOL    HW119055   4.637   0.887   0.909
 6241SOL    HW219056   4.551   1.025   0.927
 6242SOL     OW19057   4.807   0.984   0.087
 6242SOL    HW119058   4.784   1.037   0.005
 6242SOL    HW219059   4.888   0.928   0.068
 6243SOL     OW19060   3.945   1.314   1.844
 6243SOL    HW119061   3.880   1.241   1.823
 6243SOL    HW219062   3.949   1.328   1.942
 6244SOL     OW19063   3.803   1.240   0.653
 6244SOL    HW119064   3.802   1.193   0.741
 6244SOL    HW219065   3.885   1.212   0.602
 6245SOL     OW19066   4.396   1.391   1.624
 6245SOL    HW119067   4.318   1.341   1.662
 6245SOL    HW219068   4.393   1.486   1.655
 6246SOL     OW19069   4.152   0.424   0.520
 6246SOL    HW119070   4.182   0.352   0.458
 6246SOL    HW219071   4.113   0.384   0.603
 6247SOL     OW19072   4.041   0.547   1.280
 6247SOL    HW119073   4.079   0.488   1.352
 6247SOL    HW219074   4.081   0.521   1.192
 6248SOL     OW19075   4.536   1.586   0.687
 6248SOL    HW119076   4.568   1.596   0.593
 6248SOL    HW219077   4.457   1.524   0.689
 6249SOL     OW19078   4.725   0.034   1.154
 6249SOL    HW119079   4.662  -0.038   1.123
 6249SOL    HW219080   4.818  -0.002   1.154
 6250SOL     OW19081   4.494   1.330   0.301
 6250SOL    HW119082   4.448   1.243   0.318
 6250SOL    HW219083   4.585   1.327   0.342
 6251SOL     OW19084   4.342   1.567   1.284
 6251SOL    HW119085   4.337   1.649   1.341
 6251SOL    HW219086   4.431   1.564   1.239
 6252SOL     OW19087   3.763   1.077   0.300
 6252SOL    HW119088   3.862   1.066   0.291
 6252SOL    HW219089   3.723   0.991   0.332
 6253SOL     OW19090   4.599   1.646   0.337
 6253SOL    HW119091   4.522   1.611   0.283
 6253SOL    HW219092   4.567   1.717   0.399
 6254SOL     OW19093   3.954   0.628   1.975
 6254SOL    HW119094   3.861   0.626   2.012
 6254SOL    HW219095   3.955   0.589   1.883
 6255SOL     OW19096   3.949   0.275   2.858
 6255SOL    HW119097   3.984   0.258   2.950
 6255SOL    HW219098   3.861   0.230   2.846
 6256SOL     OW19099   3.743   0.368   2.509
 6256SOL    HW119100   3.661   0.411   2.548
 6256SOL    HW219101   3.715   0.295   2.446
 6257SOL     OW19102   4.293   1.275   3.027
 6257SOL    HW119103   4.200   1.268   2.990
 6257SOL    HW219104   4.304   1.364   3.071
 6258SOL     OW19105   4.492   1.144   2.885
 6258SOL    HW119106   4.414   1.161   2.945
 6258SOL    HW219107   4.526   1.231   2.849
 6259SOL     OW19108   4.574   0.798   3.685
 6259SOL    HW119109   4.570   0.874   3.750
 6259SOL    HW219110   4.596   0.834   3.594
 6260SOL     OW19111   4.409   1.012   2.527
 6260SOL    HW119112   4.478   0.996   2.597
 6260SOL    HW219113   4.336   1.069   2.565
 6261SOL     OW19114   4.410   1.161   3.665
 6261SOL    HW119115   4.470   1.240   3.679
 6261SOL    HW219116   4.324   1.192   3.624
 6262SOL     OW19117   4.059   1.435   2.923
 6262SOL    HW119118   3.981   1.404   2.870
 6262SOL    HW219119   4.117   1.493   2.866
 6263SOL     OW19120   4.162   0.392   3.361
 6263SOL    HW119121   4.244   0.336   3.370
 6263SOL    HW219122   4.081   0.334   3.365
 6264SOL     OW19123   3.955   1.713   2.345
 6264SOL    HW119124   3.989   1.790   2.399
 6264SOL    HW219125   3.999   1.713   2.255
 6265SOL     OW19126   3.954   1.434   2.400
 6265SOL    HW119127   3.928   1.530   2.400
 6265SOL    HW219128   3.883   1.380   2.445
 6266SOL     OW19129   3.964   1.091   2.748
 6266SOL    HW119130   3.978   1.007   2.800
 6266SOL    HW219131   3.909   1.155   2.803
 6267SOL     OW19132   4.344   1.786   3.301
 6267SOL    HW119133   4.252   1.769   3.336
 6267SOL    HW219134   4.372   1.878   3.327
 6268SOL     OW19135   4.330   0.964   1.985
 6268SOL    HW119136   4.337   1.048   1.931
 6268SOL    HW219137   4.376   0.977   2.073
 6269SOL     OW19138   3.846   0.643   2.425
 6269SOL    HW119139   3.801   0.555   2.442
 6269SOL    HW219140   3.845   0.697   2.509
 6270SOL     OW19141   3.751   1.596   1.979
 6270SOL    HW119142   3.732   1.500   2.000
 6270SOL    HW219143   3.718   1.654   2.054
 6271SOL     OW19144   3.837   0.737   3.459
 6271SOL    HW119145   3.925   0.724   3.504
 6271SOL    HW219146   3.824   0.834   3.437
 6272SOL     OW19147   4.337   1.365   2.588
 6272SOL    HW119148   4.288   1.278   2.597
 6272SOL    HW219149   4.314   1.408   2.501
 6273SOL     OW19150   4.533   0.004   2.364
 6273SOL    HW119151   4.573   0.095   2.355
 6273SOL    HW219152   4.433   0.012   2.370
 6274SOL     OW19153   3.921   0.976   3.126
 6274SOL    HW119154   4.010   0.931   3.112
 6274SOL    HW219155   3.848   0.911   3.107
 6275SOL     OW19156   4.041   0.251   3.663
 6275SOL    HW119157   4.112   0.322   3.669
 6275SOL    HW219158   3.953   0.290   3.691
 6276SOL     OW19159   4.322   0.729   2.132
 6276SOL    HW119160   4.346   0.798   2.064
 6276SOL    HW219161   4.244   0.762   2.186
 6277SOL     OW19162   4.531   0.605   3.327
 6277SOL    HW119163   4.484   0.602   3.416
 6277SOL    HW219164   4.480   0.550   3.261
 6278SOL     OW19165   3.800   0.811   2.651
 6278SOL    HW119166   3.899   0.799   2.660
 6278SOL    HW219167   3.776   0.906   2.672
 6279SOL     OW19168   3.854   1.821   3.433
 6279SOL    HW119169   3.844   1.806   3.532
 6279SOL    HW219170   3.768   1.857   3.397
 6280SOL     OW19171   4.589   0.348   2.057
 6280SOL    HW119172   4.648   0.411   2.008
 6280SOL    HW219173   4.608   0.254   2.028
 6281SOL     OW19174   4.274   0.196   2.747
 6281SOL    HW119175   4.269   0.191   2.847
 6281SOL    HW219176   4.276   0.292   2.718
 6282SOL     OW19177   4.732   1.456   2.339
 6282SOL    HW119178   4.686   1.528   2.287
 6282SOL    HW219179   4.728   1.476   2.437
 6283SOL     OW19180   4.075   1.801   2.715
 6283SOL    HW119181   4.125   1.715   2.721
 6283SOL    HW219182   4.140   1.878   2.712
 6284SOL     OW19183   4.045   0.943   2.104
 6284SOL    HW119184   4.127   0.982   2.062
 6284SOL    HW219185   4.018   0.861   2.055
 6285SOL     OW19186   4.185   1.266   3.589
 6285SOL    HW119187   4.135   1.267   3.503
 6285SOL    HW219188   4.122   1.248   3.665
 6286SOL     OW19189   3.926   0.285   3.360
 6286SOL    HW119190   3.846   0.345   3.347
 6286SOL    HW219191   3.916   0.236   3.446
 6287SOL     OW19192   4.188   1.743   2.185
 6287SOL    HW119193   4.221   1.782   2.271
 6287SOL    HW219194   4.264   1.736   2.120
 6288SOL     OW19195   3.973   1.785   3.103
 6288SOL    HW119196   4.030   1.720   3.153
 6288SOL    HW219197   3.957   1.752   3.010
 6289SOL     OW19198   4.106   0.700   2.342
 6289SOL    HW119199   4.151   0.610   2.339
 6289SOL    HW219200   4.012   0.689   2.375
 6290SOL     OW19201   4.338   0.122   1.979
 6290SOL    HW119202   4.436   0.100   1.986
 6290SOL    HW219203   4.307   0.105   1.886
 6291SOL     OW19204   4.505   0.264   3.611
 6291SOL    HW119205   4.572   0.203   3.654
 6291SOL    HW219206   4.432   0.283   3.676
 6292SOL     OW19207   4.612   1.514   3.057
 6292SOL    HW119208   4.589   1.489   2.963
 6292SOL    HW219209   4.673   1.445   3.096
 6293SOL     OW19210   4.527   1.402   2.786
 6293SOL    HW119211   4.617   1.416   2.744
 6293SOL    HW219212   4.456   1.404   2.715
 6294SOL     OW19213   4.646   0.503   2.761
 6294SOL    HW119214   4.621   0.494   2.665
 6294SOL    HW219215   4.694   0.421   2.792
 6295SOL     OW19216   4.263   0.064   2.374
 6295SOL    HW119217   4.182   0.065   2.432
 6295SOL    HW219218   4.266   0.147   2.319
 6296SOL     OW19219   4.021   0.035   2.033
 6296SOL    HW119220   4.070   0.119   2.012
 6296SOL    HW219221   4.083  -0.030   2.078
 6297SOL     OW19222   4.951   1.570   2.655
 6297SOL    HW119223   4.972   1.644   2.590
 6297SOL    HW219224   5.019   1.570   2.728
 6298SOL     OW19225   4.183   1.152   2.603
 6298SOL    HW119226   4.112   1.125   2.668
 6298SOL    HW219227   4.157   1.124   2.510
 6299SOL     OW19228   3.802   0.556   3.248
 6299SOL    HW119229   3.894   0.555   3.207
 6299SOL    HW219230   3.796   0.630   3.315
 6300SOL     OW19231   4.285   0.222   3.009
 6300SOL    HW119232   4.323   0.138   3.046
 6300SOL    HW219233   4.197   0.241   3.053
 6301SOL     OW19234   4.212   1.385   2.036
 6301SOL    HW119235   4.125   1.370   2.083
 6301SOL    HW219236   4.195   1.411   1.941
 6302SOL     OW19237   4.251   0.256   2.190
 6302SOL    HW119238   4.278   0.197   2.115
 6302SOL    HW219239   4.251   0.351   2.159
 6303SOL     OW19240   4.639   0.089   3.264
 6303SOL    HW119241   4.664   0.069   3.169
 6303SOL    HW219242   4.711   0.145   3.306
 6304SOL     OW19243   4.429   1.050   2.230
 6304SOL    HW119244   4.415   1.057   2.329
 6304SOL    HW219245   4.513   0.999   2.212
 6305SOL     OW19246   4.134   0.813   3.113
 6305SOL    HW119247   4.220   0.825   3.163
 6305SOL    HW219248   4.092   0.726   3.140
 6306SOL     OW19249   3.788   1.564   3.193
 6306SOL    HW119250   3.742   1.646   3.159
 6306SOL    HW219251   3.886   1.583   3.202
 6307SOL     OW19252   4.091   1.100   2.363
 6307SOL    HW119253   4.084   1.183   2.307
 6307SOL    HW219254   4.095   1.020   2.303
 6308SOL     OW19255   4.290   0.537   2.727
 6308SOL    HW119256   4.302   0.603   2.653
 6308SOL    HW219257   4.336   0.571   2.810
 6309SOL     OW19258   4.078   1.510   3.191
 6309SOL    HW119259   4.057   1.466   3.104
 6309SOL    HW219260   4.175   1.536   3.194
 6310SOL     OW19261   4.126   0.751   3.460
 6310SOL    HW119262   4.194   0.806   3.413
 6310SOL    HW219263   4.166   0.663   3.487
 6311SOL     OW19264   4.228   0.050   3.602
 6311SOL    HW119265   4.186  -0.007   3.532
 6311SOL    HW219266   4.162   0.119   3.634
 6312SOL     OW19267   4.297   0.870   2.891
 6312SOL    HW119268   4.341   0.959   2.882
 6312SOL    HW219269   4.234   0.870   2.968
 6313SOL     OW19270   4.933   0.525   2.137
 6313SOL    HW119271   4.946   0.441   2.191
 6313SOL    HW219272   4.904   0.599   2.197
 6314SOL     OW19273   4.031   0.213   3.093
 6314SOL    HW119274   4.008   0.250   3.183
 6314SOL    HW219275   4.001   0.118   3.087
 6315SOL     OW19276   3.761   1.310   3.144
 6315SOL    HW119277   3.814   1.261   3.212
 6315SOL    HW219278   3.783   1.408   3.149
 6316SOL     OW19279   4.456   0.634   2.926
 6316SOL    HW119280   4.515   0.608   2.850
 6316SOL    HW219281   4.428   0.730   2.915
 6317SOL     OW19282   4.031   0.063   2.480
 6317SOL    HW119283   4.020   0.157   2.513
 6317SOL    HW219284   4.026   0.000   2.557
 6318SOL     OW19285   4.747   0.766   2.828
 6318SOL    HW119286   4.762   0.787   2.924
 6318SOL    HW219287   4.717   0.671   2.819
 6319SOL     OW19288   4.704   1.573   3.562
 6319SOL    HW119289   4.684   1.617   3.474
 6319SOL    HW219290   4.743   1.482   3.546
 6320SOL     OW19291   4.074   0.898   3.666
 6320SOL    HW119292   4.150   0.942   3.714
 6320SOL    HW219293   4.109   0.851   3.584
 6321SOL     OW19294   4.043   0.810   2.811
 6321SOL    HW119295   4.136   0.846   2.816
 6321SOL    HW219296   4.037   0.725   2.863
 6322SOL     OW19297   4.063   0.509   2.868
 6322SOL    HW119298   4.011   0.426   2.851
 6322SOL    HW219299   4.140   0.514   2.804
 6323SOL     OW19300   3.732   1.326   2.062
 6323SOL    HW119301   3.639   1.347   2.031
 6323SOL    HW219302   3.742   1.227   2.075
 6324SOL     OW19303   3.812   1.801   2.789
 6324SOL    HW119304   3.770   1.715   2.762
 6324SOL    HW219305   3.906   1.804   2.755
 6325SOL     OW19306   4.228   1.568   2.772
 6325SOL    HW119307   4.294   1.642   2.781
 6325SOL    HW219308   4.272   1.489   2.730
 6326SOL     OW19309   4.726   0.796   3.100
 6326SOL    HW119310   4.767   0.764   3.186
 6326SOL    HW219311   4.630   0.769   3.097
 6327SOL     OW19312   3.764   0.544   2.976
 6327SOL    HW119313   3.849   0.511   2.935
 6327SOL    HW219314   3.777   0.559   3.074
 6328SOL     OW19315   3.913   0.520   3.584
 6328SOL    HW119316   3.972   0.480   3.514
 6328SOL    HW219317   3.855   0.591   3.543
 6329SOL     OW19318   4.539   0.572   2.187
 6329SOL    HW119319   4.546   0.483   2.141
 6329SOL    HW219320   4.445   0.606   2.179
 6330SOL     OW19321   3.976   1.564   3.606
 6330SOL    HW119322   3.946   1.621   3.682
 6330SOL    HW219323   3.969   1.467   3.632
 6331SOL     OW19324   4.395   0.464   3.131
 6331SOL    HW119325   4.361   0.375   3.101
 6331SOL    HW219326   4.421   0.518   3.051
 6332SOL     OW19327   4.654   1.678   3.327
 6332SOL    HW119328   4.630   1.660   3.232
 6332SOL    HW219329   4.684   1.772   3.337
 6333SOL     OW19330   4.197   0.500   2.053
 6333SOL    HW119331   4.258   0.580   2.057
 6333SOL    HW219332   4.102   0.531   2.060
 6334SOL     OW19333   3.883   1.137   3.328
 6334SOL    HW119334   3.905   1.076   3.404
 6334SOL    HW219335   3.893   1.088   3.242
 6335SOL     OW19336   3.807   1.258   2.884
 6335SOL    HW119337   3.802   1.257   2.984
 6335SOL    HW219338   3.724   1.217   2.846
 6336SOL     OW19339   4.412   1.662   3.578
 6336SOL    HW119340   4.356   1.743   3.587
 6336SOL    HW219341   4.464   1.666   3.492
 6337SOL     OW19342   4.627   0.086   1.995
 6337SOL    HW119343   4.678   0.087   1.909
 6337SOL    HW219344   4.683   0.044   2.066
 6338SOL     OW19345   3.854   1.794   3.713
 6338SOL    HW119346   3.813   1.720   3.766
 6338SOL    HW219347   3.918   1.845   3.771
 6339SOL     OW19348   4.554   1.273   3.284
 6339SOL    HW119349   4.549   1.306   3.379
 6339SOL    HW219350   4.468   1.292   3.238
 6340SOL     OW19351   4.396   1.616   2.016
 6340SOL    HW119352   4.405   1.626   1.917
 6340SOL    HW219353   4.356   1.527   2.037
 6341SOL     OW19354   3.987   0.326   2.582
 6341SOL    HW119355   3.908   0.377   2.548
 6341SOL    HW219356   3.978   0.311   2.680
 6342SOL     OW19357   4.546   1.002   3.234
 6342SOL    HW119358   4.586   1.001   3.142
 6342SOL    HW219359   4.556   1.094   3.274
 6343SOL     OW19360   4.096   1.288   3.352
 6343SOL    HW119361   4.083   1.381   3.318
 6343SOL    HW219362   4.012   1.236   3.339
 6344SOL     OW19363   4.314   1.487   2.353
 6344SOL    HW119364   4.356   1.429   2.283
 6344SOL    HW219365   4.270   1.566   2.309
 6345SOL     OW19366   3.979   1.348   2.152
 6345SOL    HW119367   3.883   1.349   2.125
 6345SOL    HW219368   3.991   1.401   2.236
 6346SOL     OW19369   3.829   1.013   3.588
 6346SOL    HW119370   3.752   0.980   3.642
 6346SOL    HW219371   3.914   0.983   3.630
 6347SOL     OW19372   4.396   0.203   3.351
 6347SOL    HW119373   4.486   0.187   3.311
 6347SOL    HW219374   4.404   0.208   3.450
 6348SOL     OW19375   3.799   0.345   1.895
 6348SOL    HW119376   3.707   0.317   1.866
 6348SOL    HW219377   3.830   0.422   1.839
 6349SOL     OW19378   3.796   0.166   2.180
 6349SOL    HW119379   3.779   0.249   2.126
 6349SOL    HW219380   3.886   0.129   2.158
 6350SOL     OW19381   4.337   0.842   3.293
 6350SOL    HW119382   4.393   0.923   3.276
 6350SOL    HW219383   4.396   0.762   3.296
 6351SOL     OW19384   4.440   0.565   3.570
 6351SOL    HW119385   4.459   0.630   3.644
 6351SOL    HW219386   4.500   0.485   3.579
 6352SOL     OW19387   4.114   1.741   3.422
 6352SOL    HW119388   4.023   1.782   3.420
 6352SOL    HW219389   4.107   1.647   3.454
 6353SOL     OW19390   4.949   0.325   2.311
 6353SOL    HW119391   5.014   0.251   2.300
 6353SOL    HW219392   4.969   0.375   2.395
 6354SOL     OW19393   4.318   0.745   2.514
 6354SOL    HW119394   4.368   0.830   2.495
 6354SOL    HW219395   4.230   0.747   2.466
 6355SOL     OW19396   4.583   1.374   1.878
 6355SOL    HW119397   4.537   1.389   1.966
 6355SOL    HW219398   4.627   1.459   1.848
 6356SOL     OW19399   4.385   1.790   2.815
 6356SOL    HW119400   4.339   1.878   2.802
 6356SOL    HW219401   4.484   1.802   2.808
 6357SOL     OW19402   4.583   0.956   2.723
 6357SOL    HW119403   4.637   0.887   2.771
 6357SOL    HW219404   4.551   1.025   2.789
 6358SOL     OW19405   3.945   1.314   3.706
 6358SOL    HW119406   3.880   1.241   3.685
 6358SOL    HW219407   3.949   1.328   3.804
 6359SOL     OW19408   3.803   1.240   2.515
 6359SOL    HW119409   3.802   1.193   2.603
 6359SOL    HW219410   3.885   1.212   2.464
 6360SOL     OW19411   4.396   1.391   3.486
 6360SOL    HW119412   4.318   1.341   3.524
 6360SOL    HW219413   4.393   1.486   3.517
 6361SOL     OW19414   4.152   0.424   2.382
 6361SOL    HW119415   4.182   0.352   2.320
 6361SOL    HW219416   4.113   0.384   2.465
 6362SOL     OW19417   4.041   0.547   3.142
 6362SOL    HW119418   4.079   0.488   3.214
 6362SOL    HW219419   4.081   0.521   3.054
 6363SOL     OW19420   4.536   1.586   2.549
 6363SOL    HW119421   4.568   1.596   2.455
 6363SOL    HW219422   4.457   1.524   2.551
 6364SOL     OW19423   4.725   0.034   3.016
 6364SOL    HW119424   4.662  -0.038   2.985
 6364SOL    HW219425   4.818  -0.002   3.016
 6365SOL     OW19426   4.494   1.330   2.163
 6365SOL    HW119427   4.448   1.243   2.180
 6365SOL    HW219428   4.585   1.327   2.204
 6366SOL     OW19429   4.342   1.567   3.146
 6366SOL    HW119430   4.337   1.649   3.203
 6366SOL    HW219431   4.431   1.564   3.101
 6367SOL     OW19432   3.763   1.077   2.162
 6367SOL    HW119433   3.862   1.066   2.153
 6367SOL    HW219434   3.723   0.991   2.194
 6368SOL     OW19435   4.599   1.646   2.199
 6368SOL    HW119436   4.522   1.611   2.145
 6368SOL    HW219437   4.567   1.717   2.261
 6369SOL     OW19438   3.954   0.628   3.837
 6369SOL    HW119439   3.861   0.626   3.874
 6369SOL    HW219440   3.955   0.589   3.745
 6370SOL     OW19441   3.949   0.275   4.720
 6370SOL    HW119442   3.984   0.258   4.812
 6370SOL    HW219443   3.861   0.230   4.708
 6371SOL     OW19444   3.743   0.368   4.371
 6371SOL    HW119445   3.661   0.411   4.410
 6371SOL    HW219446   3.715   0.295   4.308
 6372SOL     OW19447   4.293   1.275   4.889
 6372SOL    HW119448   4.200   1.268   4.852
 6372SOL    HW219449   4.304   1.364   4.933
 6373SOL     OW19450   4.492   1.144   4.747
 6373SOL    HW119451   4.414   1.161   4.807
 6373SOL    HW219452   4.526   1.231   4.711
 6374SOL     OW19453   4.574   0.798   5.547
 6374SOL    HW119454   4.570   0.874   5.612
 6374SOL    HW219455   4.596   0.834   5.456
 6375SOL     OW19456   4.409   1.012   4.389
 6375SOL    HW119457   4.478   0.996   4.459
 6375SOL    HW219458   4.336   1.069   4.427
 6376SOL     OW19459   4.410   1.161   5.527
 6376SOL    HW119460   4.470   1.240   5.541
 6376SOL    HW219461   4.324   1.192   5.486
 6377SOL     OW19462   4.059   1.435   4.785
 6377SOL    HW119463   3.981   1.404   4.732
 6377SOL    HW219464   4.117   1.493   4.728
 6378SOL     OW19465   4.162   0.392   5.223
 6378SOL    HW119466   4.244   0.336   5.232
 6378SOL    HW219467   4.081   0.334   5.227
 6379SOL     OW19468   3.955   1.713   4.207
 6379SOL    HW119469   3.989   1.790   4.261
 6379SOL    HW219470   3.999   1.713   4.117
 6380SOL     OW19471   3.954   1.434   4.262
 6380SOL    HW119472   3.928   1.530   4.262
 6380SOL    HW219473   3.883   1.380   4.307
 6381SOL     OW19474   3.964   1.091   4.610
 6381SOL    HW119475   3.978   1.007   4.662
 6381SOL    HW219476   3.909   1.155   4.665
 6382SOL     OW19477   4.344   1.786   5.163
 6382SOL    HW119478   4.252   1.769   5.198
 6382SOL    HW219479   4.372   1.878   5.189
 6383SOL     OW19480   4.330   0.964   3.847
 6383SOL    HW119481   4.337   1.048   3.793
 6383SOL    HW219482   4.376   0.977   3.935
 6384SOL     OW19483   3.846   0.643   4.287
 6384SOL    HW119484   3.801   0.555   4.304
 6384SOL    HW219485   3.845   0.697   4.371
 6385SOL     OW19486   3.751   1.596   3.841
 6385SOL    HW119487   3.732   1.500   3.862
 6385SOL    HW219488   3.718   1.654   3.916
 6386SOL     OW19489   3.837   0.737   5.321
 6386SOL    HW119490   3.925   0.724   5.366
 6386SOL    HW219491   3.824   0.834   5.299
 6387SOL     OW19492   4.337   1.365   4.450
 6387SOL    HW119493   4.288   1.278   4.459
 6387SOL    HW219494   4.314   1.408   4.363
 6388SOL     OW19495   4.533   0.004   4.226
 6388SOL    HW119496   4.573   0.095   4.217
 6388SOL    HW219497   4.433   0.012   4.232
 6389SOL     OW19498   3.921   0.976   4.988
 6389SOL    HW119499   4.010   0.931   4.974
 6389SOL    HW219500   3.848   0.911   4.969
 6390SOL     OW19501   4.041   0.251   5.525
 6390SOL    HW119502   4.112   0.322   5.531
 6390SOL    HW219503   3.953   0.290   5.553
 6391SOL     OW19504   4.322   0.729   3.994
 6391SOL    HW119505   4.346   0.798   3.926
 6391SOL    HW219506   4.244   0.762   4.048
 6392SOL     OW19507   4.531   0.605   5.189
 6392SOL    HW119508   4.484   0.602   5.278
 6392SOL    HW219509   4.480   0.550   5.123
 6393SOL     OW19510   3.800   0.811   4.513
 6393SOL    HW119511   3.899   0.799   4.522
 6393SOL    HW219512   3.776   0.906   4.534
 6394SOL     OW19513   3.854   1.821   5.295
 6394SOL    HW119514   3.844   1.806   5.394
 6394SOL    HW219515   3.768   1.857   5.259
 6395SOL     OW19516   4.589   0.348   3.919
 6395SOL    HW119517   4.648   0.411   3.870
 6395SOL    HW219518   4.608   0.254   3.890
 6396SOL     OW19519   4.274   0.196   4.609
 6396SOL    HW119520   4.269   0.191   4.709
 6396SOL    HW219521   4.276   0.292   4.580
 6397SOL     OW19522   4.732   1.456   4.201
 6397SOL    HW119523   4.686   1.528   4.149
 6397SOL    HW219524   4.728   1.476   4.299
 6398SOL     OW19525   4.075   1.801   4.577
 6398SOL    HW119526   4.125   1.715   4.583
 6398SOL    HW219527   4.140   1.878   4.574
 6399SOL     OW19528   4.045   0.943   3.966
 6399SOL    HW119529   4.127   0.982   3.924
 6399SOL    HW219530   4.018   0.861   3.917
 6400SOL     OW19531   4.185   1.266   5.451
 6400SOL    HW119532   4.135   1.267   5.365
 6400SOL    HW219533   4.122   1.248   5.527
 6401SOL     OW19534   3.926   0.285   5.222
 6401SOL    HW119535   3.846   0.345   5.209
 6401SOL    HW219536   3.916   0.236   5.308
 6402SOL     OW19537   4.188   1.743   4.047
 6402SOL    HW119538   4.221   1.782   4.133
 6402SOL    HW219539   4.264   1.736   3.982
 6403SOL     OW19540   3.973   1.785   4.965
 6403SOL    HW119541   4.030   1.720   5.015
 6403SOL    HW219542   3.957   1.752   4.872
 6404SOL     OW19543   4.106   0.700   4.204
 6404SOL    HW119544   4.151   0.610   4.201
 6404SOL    HW219545   4.012   0.689   4.237
 6405SOL     OW19546   4.338   0.122   3.841
 6405SOL    HW119547   4.436   0.100   3.848
 6405SOL    HW219548   4.307   0.105   3.748
 6406SOL     OW19549   4.505   0.264   5.473
 6406SOL    HW119550   4.572   0.203   5.516
 6406SOL    HW219551   4.432   0.283   5.538
 6407SOL     OW19552   4.612   1.514   4.919
 6407SOL    HW119553   4.589   1.489   4.825
 6407SOL    HW219554   4.673   1.445   4.958
 6408SOL     OW19555   4.527   1.402   4.648
 6408SOL    HW119556   4.617   1.416   4.606
 6408SOL    HW219557   4.456   1.404   4.577
 6409SOL     OW19558   4.646   0.503   4.623
 6409SOL    HW119559   4.621   0.494   4.527
 6409SOL    HW219560   4.694   0.421   4.654
 6410SOL     OW19561   4.263   0.064   4.236
 6410SOL    HW119562   4.182   0.065   4.294
 6410SOL    HW219563   4.266   0.147   4.181
 6411SOL     OW19564   4.021   0.035   3.895
 6411SOL    HW119565   4.070   0.119   3.874
 6411SOL    HW219566   4.083  -0.030   3.940
 6412SOL     OW19567   4.951   1.570   4.517
 6412SOL    HW119568   4.972   1.644   4.452
 6412SOL    HW219569   5.019   1.570   4.590
 6413SOL     OW19570   4.183   1.152   4.465
 6413SOL    HW119571   4.112   1.125   4.530
 6413SOL    HW219572   4.157   1.124   4.372
 6414SOL     OW19573   3.802   0.556   5.110
 6414SOL    HW119574   3.894   0.555   5.069
 6414SOL    HW219575   3.796   0.630   5.177
 6415SOL     OW19576   4.285   0.222   4.871
 6415SOL    HW119577   4.323   0.138   4.908
 6415SOL    HW219578   4.197   0.241   4.915
 6416SOL     OW19579   4.212   1.385   3.898
 6416SOL    HW119580   4.125   1.370   3.945
 6416SOL    HW219581   4.195   1.411   3.803
 6417SOL     OW19582   4.251   0.256   4.052
 6417SOL    HW119583   4.278   0.197   3.977
 6417SOL    HW219584   4.251   0.351   4.021
 6418SOL     OW19585   4.639   0.089   5.126
 6418SOL    HW119586   4.664   0.069   5.031
 6418SOL    HW219587   4.711   0.145   5.168
 6419SOL     OW19588   4.429   1.050   4.092
 6419SOL    HW119589   4.415   1.057   4.191
 6419SOL    HW219590   4.513   0.999   4.074
 6420SOL     OW19591   4.134   0.813   4.975
 6420SOL    HW119592   4.220   0.825   5.025
 6420SOL    HW219593   4.092   0.726   5.002
 6421SOL     OW19594   3.788   1.564   5.055
 6421SOL    HW119595   3.742   1.646   5.021
 6421SOL    HW219596   3.886   1.583   5.064
 6422SOL     OW19597   4.091   1.100   4.225
 6422SOL    HW119598   4.084   1.183   4.169
 6422SOL    HW219599   4.095   1.020   4.165
 6423SOL     OW19600   4.290   0.537   4.589
 6423SOL    HW119601   4.302   0.603   4.515
 6423SOL    HW219602   4.336   0.571   4.672
 6424SOL     OW19603   4.078   1.510   5.053
 6424SOL    HW119604   4.057   1.466   4.966
 6424SOL    HW219605   4.175   1.536   5.056
 6425SOL     OW19606   4.126   0.751   5.322
 6425SOL    HW119607   4.194   0.806   5.275
 6425SOL    HW219608   4.166   0.663   5.349
 6426SOL     OW19609   4.228   0.050   5.464
 6426SOL    HW119610   4.186  -0.007   5.394
 6426SOL    HW219611   4.162   0.119   5.496
 6427SOL     OW19612   4.297   0.870   4.753
 6427SOL    HW119613   4.341   0.959   4.744
 6427SOL    HW219614   4.234   0.870   4.830
 6428SOL     OW19615   4.933   0.525   3.999
 6428SOL    HW119616   4.946   0.441   4.053
 6428SOL    HW219617   4.904   0.599   4.059
 6429SOL     OW19618   4.031   0.213   4.955
 6429SOL    HW119619   4.008   0.250   5.045
 6429SOL    HW219620   4.001   0.118   4.949
 6430SOL     OW19621   3.761   1.310   5.006
 6430SOL    HW119622   3.814   1.261   5.074
 6430SOL    HW219623   3.783   1.408   5.011
 6431SOL     OW19624   4.456   0.634   4.788
 6431SOL    HW119625   4.515   0.608   4.712
 6431SOL    HW219626   4.428   0.730   4.777
 6432SOL     OW19627   4.031   0.063   4.342
 6432SOL    HW119628   4.020   0.157   4.375
 6432SOL    HW219629   4.026   0.000   4.419
 6433SOL     OW19630   4.747   0.766   4.690
 6433SOL    HW119631   4.762   0.787   4.786
 6433SOL    HW219632   4.717   0.671   4.681
 6434SOL     OW19633   4.704   1.573   5.424
 6434SOL    HW119634   4.684   1.617   5.336
 6434SOL    HW219635   4.743   1.482   5.408
 6435SOL     OW19636   4.074   0.898   5.528
 6435SOL    HW119637   4.150   0.942   5.576
 6435SOL    HW219638   4.109   0.851   5.446
 6436SOL     OW19639   4.043   0.810   4.673
 6436SOL    HW119640   4.136   0.846   4.678
 6436SOL    HW219641   4.037   0.725   4.725
 6437SOL     OW19642   4.063   0.509   4.730
 6437SOL    HW119643   4.011   0.426   4.713
 6437SOL    HW219644   4.140   0.514   4.666
 6438SOL     OW19645   3.732   1.326   3.924
 6438SOL    HW119646   3.639   1.347   3.893
 6438SOL    HW219647   3.742   1.227   3.937
 6439SOL     OW19648   3.812   1.801   4.651
 6439SOL    HW119649   3.770   1.715   4.624
 6439SOL    HW219650   3.906   1.804   4.617
 6440SOL     OW19651   4.228   1.568   4.634
 6440SOL    HW119652   4.294   1.642   4.643
 6440SOL    HW219653   4.272   1.489   4.592
 6441SOL     OW19654   4.726   0.796   4.962
 6441SOL    HW119655   4.767   0.764   5.048
 6441SOL    HW219656   4.630   0.769   4.959
 6442SOL     OW19657   3.764   0.544   4.838
 6442SOL    HW119658   3.849   0.511   4.797
 6442SOL    HW219659   3.777   0.559   4.936
 6443SOL     OW19660   3.913   0.520   5.446
 6443SOL    HW119661   3.972   0.480   5.376
 6443SOL    HW219662   3.855   0.591   5.405
 6444SOL     OW19663   4.539   0.572   4.049
 6444SOL    HW119664   4.546   0.483   4.003
 6444SOL    HW219665   4.445   0.606   4.041
 6445SOL     OW19666   3.976   1.564   5.468
 6445SOL    HW119667   3.946   1.621   5.544
 6445SOL    HW219668   3.969   1.467   5.494
 6446SOL     OW19669   4.395   0.464   4.993
 6446SOL    HW119670   4.361   0.375   4.963
 6446SOL    HW219671   4.421   0.518   4.913
 6447SOL     OW19672   4.654   1.678   5.189
 6447SOL    HW119673   4.630   1.660   5.094
 6447SOL    HW219674   4.684   1.772   5.199
 6448SOL     OW19675   4.197   0.500   3.915
 6448SOL    HW119676   4.258   0.580   3.919
 6448SOL    HW219677   4.102   0.531   3.922
 6449SOL     OW19678   3.883   1.137   5.190
 6449SOL    HW119679   3.905   1.076   5.266
 6449SOL    HW219680   3.893   1.088   5.104
 6450SOL     OW19681   3.807   1.258   4.746
 6450SOL    HW119682   3.802   1.257   4.846
 6450SOL    HW219683   3.724   1.217   4.708
 6451SOL     OW19684   4.412   1.662   5.440
 6451SOL    HW119685   4.356   1.743   5.449
 6451SOL    HW219686   4.464   1.666   5.354
 6452SOL     OW19687   4.627   0.086   3.857
 6452SOL    HW119688   4.678   0.087   3.771
 6452SOL    HW219689   4.683   0.044   3.928
 6453SOL     OW19690   3.854   1.794   5.575
 6453SOL    HW119691   3.813   1.720   5.628
 6453SOL    HW219692   3.918   1.845   5.633
 6454SOL     OW19693   4.554   1.273   5.146
 6454SOL    HW119694   4.549   1.306   5.241
 6454SOL    HW219695   4.468   1.292   5.100
 6455SOL     OW19696   4.396   1.616   3.878
 6455SOL    HW119697   4.405   1.626   3.779
 6455SOL    HW219698   4.356   1.527   3.899
 6456SOL     OW19699   3.987   0.326   4.444
 6456SOL    HW119700   3.908   0.377   4.410
 6456SOL    HW219701   3.978   0.311   4.542
 6457SOL     OW19702   4.546   1.002   5.096
 6457SOL    HW119703   4.586   1.001   5.004
 6457SOL    HW219704   4.556   1.094   5.136
 6458SOL     OW19705   4.096   1.288   5.214
 6458SOL    HW119706   4.083   1.381   5.180
 6458SOL    HW219707   4.012   1.236   5.201
 6459SOL     OW19708   4.314   1.487   4.215
 6459SOL    HW119709   4.356   1.429   4.145
 6459SOL    HW219710   4.270   1.566   4.171
 6460SOL     OW19711   3.979   1.348   4.014
 6460SOL    HW119712   3.883   1.349   3.987
 6460SOL    HW219713   3.991   1.401   4.098
 6461SOL     OW19714   3.829   1.013   5.450
 6461SOL    HW119715   3.752   0.980   5.504
 6461SOL    HW219716   3.914   0.983   5.492
 6462SOL     OW19717   4.396   0.203   5.213
 6462SOL    HW119718   4.486   0.187   5.173
 6462SOL    HW219719   4.404   0.208   5.312
 6463SOL     OW19720   3.799   0.345   3.757
 6463SOL    HW119721   3.707   0.317   3.728
 6463SOL    HW219722   3.830   0.422   3.701
 6464SOL     OW19723   3.796   0.166   4.042
 6464SOL    HW119724   3.779   0.249   3.988
 6464SOL    HW219725   3.886   0.129   4.020
 6465SOL     OW19726   4.337   0.842   5.155
 6465SOL    HW119727   4.393   0.923   5.138
 6465SOL    HW219728   4.396   0.762   5.158
 6466SOL     OW19729   4.440   0.565   5.432
 6466SOL    HW119730   4.459   0.630   5.506
 6466SOL    HW219731   4.500   0.485   5.441
 6467SOL     OW19732   4.114   1.741   5.284
 6467SOL    HW119733   4.023   1.782   5.282
 6467SOL    HW219734   4.107   1.647   5.316
 6468SOL     OW19735   4.949   0.325   4.173
 6468SOL    HW119736   5.014   0.251   4.162
 6468SOL    HW219737   4.969   0.375   4.257
 6469SOL     OW19738   4.318   0.745   4.376
 6469SOL    HW119739   4.368   0.830   4.357
 6469SOL    HW219740   4.230   0.747   4.328
 6470SOL     OW19741   4.583   1.374   3.740
 6470SOL    HW119742   4.537   1.389   3.828
 6470SOL    HW219743   4.627   1.459   3.710
 6471SOL     OW19744   4.385   1.790   4.677
 6471SOL    HW119745   4.339   1.878   4.664
 6471SOL    HW219746   4.484   1.802   4.670
 6472SOL     OW19747   4.583   0.956   4.585
 6472SOL    HW119748   4.637   0.887   4.633
 6472SOL    HW219749   4.551   1.025   4.651
 6473SOL     OW19750   3.945   1.314   5.568
 6473SOL    HW119751   3.880   1.241   5.547
 6473SOL    HW219752   3.949   1.328   5.666
 6474SOL     OW19753   3.803   1.240   4.377
 6474SOL    HW119754   3.802   1.193   4.465
 6474SOL    HW219755   3.885   1.212   4.326
 6475SOL     OW19756   4.396   1.391   5.348
 6475SOL    HW119757   4.318   1.341   5.386
 6475SOL    HW219758   4.393   1.486   5.379
 6476SOL     OW19759   4.152   0.424   4.244
 6476SOL    HW119760   4.182   0.352   4.182
 6476SOL    HW219761   4.113   0.384   4.327
 6477SOL     OW19762   4.041   0.547   5.004
 6477SOL    HW119763   4.079   0.488   5.076
 6477SOL    HW219764   4.081   0.521   4.916
 6478SOL     OW19765   4.536   1.586   4.411
 6478SOL    HW119766   4.568   1.596   4.317
 6478SOL    HW219767   4.457   1.524   4.413
 6479SOL     OW19768   4.725   0.034   4.878
 6479SOL    HW119769   4.662  -0.038   4.847
 6479SOL    HW219770   4.818  -0.002   4.878
 6480SOL     OW19771   4.494   1.330   4.025
 6480SOL    HW119772   4.448   1.243   4.042
 6480SOL    HW219773   4.585   1.327   4.066
 6481SOL     OW19774   4.342   1.567   5.008
 6481SOL    HW119775   4.337   1.649   5.065
 6481SOL    HW219776   4.431   1.564   4.963
 6482SOL     OW19777   3.763   1.077   4.024
 6482SOL    HW119778   3.862   1.066   4.015
 6482SOL    HW219779   3.723   0.991   4.056
 6483SOL     OW19780   4.599   1.646   4.061
 6483SOL    HW119781   4.522   1.611   4.007
 6483SOL    HW219782   4.567   1.717   4.123
 6484SOL     OW19783   3.954   0.628   5.699
 6484SOL    HW119784   3.861   0.626   5.736
 6484SOL    HW219785   3.955   0.589   5.607
 6485SOL     OW19786   3.949   0.275   6.582
 6485SOL    HW119787   3.984   0.258   6.674
 6485SOL    HW219788   3.861   0.230   6.570
 6486SOL     OW19789   3.743   0.368   6.233
 6486SOL    HW119790   3.661   0.411   6.272
 6486SOL    HW219791   3.715   0.295   6.170
 6487SOL     OW19792   4.293   1.275   6.751
 6487SOL    HW119793   4.200   1.268   6.714
 6487SOL    HW219794   4.304   1.364   6.795
 6488SOL     OW19795   4.492   1.144   6.609
 6488SOL    HW119796   4.414   1.161   6.669
 6488SOL    HW219797   4.526   1.231   6.573
 6489SOL     OW19798   4.574   0.798   7.409
 6489SOL    HW119799   4.570   0.874   7.474
 6489SOL    HW219800   4.596   0.834   7.318
 6490SOL     OW19801   4.409   1.012   6.251
 6490SOL    HW119802   4.478   0.996   6.321
 6490SOL    HW219803   4.336   1.069   6.289
 6491SOL     OW19804   4.410   1.161   7.389
 6491SOL    HW119805   4.470   1.240   7.403
 6491SOL    HW219806   4.324   1.192   7.348
 6492SOL     OW19807   4.059   1.435   6.647
 6492SOL    HW119808   3.981   1.404   6.594
 6492SOL    HW219809   4.117   1.493   6.590
 6493SOL     OW19810   4.162   0.392   7.085
 6493SOL    HW119811   4.244   0.336   7.094
 6493SOL    HW219812   4.081   0.334   7.089
 6494SOL     OW19813   3.955   1.713   6.069
 6494SOL    HW119814   3.989   1.790   6.123
 6494SOL    HW219815   3.999   1.713   5.979
 6495SOL     OW19816   3.954   1.434   6.124
 6495SOL    HW119817   3.928   1.530   6.124
 6495SOL    HW219818   3.883   1.380   6.169
 6496SOL     OW19819   3.964   1.091   6.472
 6496SOL    HW119820   3.978   1.007   6.524
 6496SOL    HW219821   3.909   1.155   6.527
 6497SOL     OW19822   4.344   1.786   7.025
 6497SOL    HW119823   4.252   1.769   7.060
 6497SOL    HW219824   4.372   1.878   7.051
 6498SOL     OW19825   4.330   0.964   5.709
 6498SOL    HW119826   4.337   1.048   5.655
 6498SOL    HW219827   4.376   0.977   5.797
 6499SOL     OW19828   3.846   0.643   6.149
 6499SOL    HW119829   3.801   0.555   6.166
 6499SOL    HW219830   3.845   0.697   6.233
 6500SOL     OW19831   3.751   1.596   5.703
 6500SOL    HW119832   3.732   1.500   5.724
 6500SOL    HW219833   3.718   1.654   5.778
 6501SOL     OW19834   3.837   0.737   7.183
 6501SOL    HW119835   3.925   0.724   7.228
 6501SOL    HW219836   3.824   0.834   7.161
 6502SOL     OW19837   4.337   1.365   6.312
 6502SOL    HW119838   4.288   1.278   6.321
 6502SOL    HW219839   4.314   1.408   6.225
 6503SOL     OW19840   4.533   0.004   6.088
 6503SOL    HW119841   4.573   0.095   6.079
 6503SOL    HW219842   4.433   0.012   6.094
 6504SOL     OW19843   3.921   0.976   6.850
 6504SOL    HW119844   4.010   0.931   6.836
 6504SOL    HW219845   3.848   0.911   6.831
 6505SOL     OW19846   4.041   0.251   7.387
 6505SOL    HW119847   4.112   0.322   7.393
 6505SOL    HW219848   3.953   0.290   7.415
 6506SOL     OW19849   4.322   0.729   5.856
 6506SOL    HW119850   4.346   0.798   5.788
 6506SOL    HW219851   4.244   0.762   5.910
 6507SOL     OW19852   4.531   0.605   7.051
 6507SOL    HW119853   4.484   0.602   7.140
 6507SOL    HW219854   4.480   0.550   6.985
 6508SOL     OW19855   3.800   0.811   6.375
 6508SOL    HW119856   3.899   0.799   6.384
 6508SOL    HW219857   3.776   0.906   6.396
 6509SOL     OW19858   3.854   1.821   7.157
 6509SOL    HW119859   3.844   1.806   7.256
 6509SOL    HW219860   3.768   1.857   7.121
 6510SOL     OW19861   4.589   0.348   5.781
 6510SOL    HW119862   4.648   0.411   5.732
 6510SOL    HW219863   4.608   0.254   5.752
 6511SOL     OW19864   4.274   0.196   6.471
 6511SOL    HW119865   4.269   0.191   6.571
 6511SOL    HW219866   4.276   0.292   6.442
 6512SOL     OW19867   4.732   1.456   6.063
 6512SOL    HW119868   4.686   1.528   6.011
 6512SOL    HW219869   4.728   1.476   6.161
 6513SOL     OW19870   4.075   1.801   6.439
 6513SOL    HW119871   4.125   1.715   6.445
 6513SOL    HW219872   4.140   1.878   6.436
 6514SOL     OW19873   4.045   0.943   5.828
 6514SOL    HW119874   4.127   0.982   5.786
 6514SOL    HW219875   4.018   0.861   5.779
 6515SOL     OW19876   4.185   1.266   7.313
 6515SOL    HW119877   4.135   1.267   7.227
 6515SOL    HW219878   4.122   1.248   7.389
 6516SOL     OW19879   3.926   0.285   7.084
 6516SOL    HW119880   3.846   0.345   7.071
 6516SOL    HW219881   3.916   0.236   7.170
 6517SOL     OW19882   4.188   1.743   5.909
 6517SOL    HW119883   4.221   1.782   5.995
 6517SOL    HW219884   4.264   1.736   5.844
 6518SOL     OW19885   3.973   1.785   6.827
 6518SOL    HW119886   4.030   1.720   6.877
 6518SOL    HW219887   3.957   1.752   6.734
 6519SOL     OW19888   4.106   0.700   6.066
 6519SOL    HW119889   4.151   0.610   6.063
 6519SOL    HW219890   4.012   0.689   6.099
 6520SOL     OW19891   4.338   0.122   5.703
 6520SOL    HW119892   4.436   0.100   5.710
 6520SOL    HW219893   4.307   0.105   5.610
 6521SOL     OW19894   4.505   0.264   7.335
 6521SOL    HW119895   4.572   0.203   7.378
 6521SOL    HW219896   4.432   0.283   7.400
 6522SOL     OW19897   4.612   1.514   6.781
 6522SOL    HW119898   4.589   1.489   6.687
 6522SOL    HW219899   4.673   1.445   6.820
 6523SOL     OW19900   4.527   1.402   6.510
 6523SOL    HW119901   4.617   1.416   6.468
 6523SOL    HW219902   4.456   1.404   6.439
 6524SOL     OW19903   4.646   0.503   6.485
 6524SOL    HW119904   4.621   0.494   6.389
 6524SOL    HW219905   4.694   0.421   6.516
 6525SOL     OW19906   4.263   0.064   6.098
 6525SOL    HW119907   4.182   0.065   6.156
 6525SOL    HW219908   4.266   0.147   6.043
 6526SOL     OW19909   4.021   0.035   5.757
 6526SOL    HW119910   4.070   0.119   5.736
 6526SOL    HW219911   4.083  -0.030   5.802
 6527SOL     OW19912   4.951   1.570   6.379
 6527SOL    HW119913   4.972   1.644   6.314
 6527SOL    HW219914   5.019   1.570   6.452
 6528SOL     OW19915   4.183   1.152   6.327
 6528SOL    HW119916   4.112   1.125   6.392
 6528SOL    HW219917   4.157   1.124   6.234
 6529SOL     OW19918   3.802   0.556   6.972
 6529SOL    HW119919   3.894   0.555   6.931
 6529SOL    HW219920   3.796   0.630   7.039
 6530SOL     OW19921   4.285   0.222   6.733
 6530SOL    HW119922   4.323   0.138   6.770
 6530SOL    HW219923   4.197   0.241   6.777
 6531SOL     OW19924   4.212   1.385   5.760
 6531SOL    HW119925   4.125   1.370   5.807
 6531SOL    HW219926   4.195   1.411   5.665
 6532SOL     OW19927   4.251   0.256   5.914
 6532SOL    HW119928   4.278   0.197   5.839
 6532SOL    HW219929   4.251   0.351   5.883
 6533SOL     OW19930   4.639   0.089   6.988
 6533SOL    HW119931   4.664   0.069   6.893
 6533SOL    HW219932   4.711   0.145   7.030
 6534SOL     OW19933   4.429   1.050   5.954
 6534SOL    HW119934   4.415   1.057   6.053
 6534SOL    HW219935   4.513   0.999   5.936
 6535SOL     OW19936   4.134   0.813   6.837
 6535SOL    HW119937   4.220   0.825   6.887
 6535SOL    HW219938   4.092   0.726   6.864
 6536SOL     OW19939   3.788   1.564   6.917
 6536SOL    HW119940   3.742   1.646   6.883
 6536SOL    HW219941   3.886   1.583   6.926
 6537SOL     OW19942   4.091   1.100   6.087
 6537SOL    HW119943   4.084   1.183   6.031
 6537SOL    HW219944   4.095   1.020   6.027
 6538SOL     OW19945   4.290   0.537   6.451
 6538SOL    HW119946   4.302   0.603   6.377
 6538SOL    HW219947   4.336   0.571   6.534
 6539SOL     OW19948   4.078   1.510   6.915
 6539SOL    HW119949   4.057   1.466   6.828
 6539SOL    HW219950   4.175   1.536   6.918
 6540SOL     OW19951   4.126   0.751   7.184
 6540SOL    HW119952   4.194   0.806   7.137
 6540SOL    HW219953   4.166   0.663   7.211
 6541SOL     OW19954   4.228   0.050   7.326
 6541SOL    HW119955   4.186  -0.007   7.256
 6541SOL    HW219956   4.162   0.119   7.358
 6542SOL     OW19957   4.297   0.870   6.615
 6542SOL    HW119958   4.341   0.959   6.606
 6542SOL    HW219959   4.234   0.870   6.692
 6543SOL     OW19960   4.933   0.525   5.861
 6543SOL    HW119961   4.946   0.441   5.915
 6543SOL    HW219962   4.904   0.599   5.921
 6544SOL     OW19963   4.031   0.213   6.817
 6544SOL    HW119964   4.008   0.250   6.907
 6544SOL    HW219965   4.001   0.118   6.811
 6545SOL     OW19966   3.761   1.310   6.868
 6545SOL    HW119967   3.814   1.261   6.936
 6545SOL    HW219968   3.783   1.408   6.873
 6546SOL     OW19969   4.456   0.634   6.650
 6546SOL    HW119970   4.515   0.608   6.574
 6546SOL    HW219971   4.428   0.730   6.639
 6547SOL     OW19972   4.031   0.063   6.204
 6547SOL    HW119973   4.020   0.157   6.237
 6547SOL    HW219974   4.026   0.000   6.281
 6548SOL     OW19975   4.747   0.766   6.552
 6548SOL    HW119976   4.762   0.787   6.648
 6548SOL    HW219977   4.717   0.671   6.543
 6549SOL     OW19978   4.704   1.573   7.286
 6549SOL    HW119979   4.684   1.617   7.198
 6549SOL    HW219980   4.743   1.482   7.270
 6550SOL     OW19981   4.074   0.898   7.390
 6550SOL    HW119982   4.150   0.942   7.438
 6550SOL    HW219983   4.109   0.851   7.308
 6551SOL     OW19984   4.043   0.810   6.535
 6551SOL    HW119985   4.136   0.846   6.540
 6551SOL    HW219986   4.037   0.725   6.587
 6552SOL     OW19987   4.063   0.509   6.592
 6552SOL    HW119988   4.011   0.426   6.575
 6552SOL    HW219989   4.140   0.514   6.528
 6553SOL     OW19990   3.732   1.326   5.786
 6553SOL    HW119991   3.639   1.347   5.755
 6553SOL    HW219992   3.742   1.227   5.799
 6554SOL     OW19993   3.812   1.801   6.513
 6554SOL    HW119994   3.770   1.715   6.486
 6554SOL    HW219995   3.906   1.804   6.479
 6555SOL     OW19996   4.228   1.568   6.496
 6555SOL    HW119997   4.294   1.642   6.505
 6555SOL    HW219998   4.272   1.489   6.454
 6556SOL     OW19999   4.726   0.796   6.824
 6556SOL    HW120000   4.767   0.764   6.910
 6556SOL    HW220001   4.630   0.769   6.821
 6557SOL     OW20002   3.764   0.544   6.700
 6557SOL    HW120003   3.849   0.511   6.659
 6557SOL    HW220004   3.777   0.559   6.798
 6558SOL     OW20005   3.913   0.520   7.308
 6558SOL    HW120006   3.972   0.480   7.238
 6558SOL    HW220007   3.855   0.591   7.267
 6559SOL     OW20008   4.539   0.572   5.911
 6559SOL    HW120009   4.546   0.483   5.865
 6559SOL    HW220010   4.445   0.606   5.903
 6560SOL     OW20011   3.976   1.564   7.330
 6560SOL    HW120012   3.946   1.621   7.406
 6560SOL    HW220013   3.969   1.467   7.356
 6561SOL     OW20014   4.395   0.464   6.855
 6561SOL    HW120015   4.361   0.375   6.825
 6561SOL    HW220016   4.421   0.518   6.775
 6562SOL     OW20017   4.654   1.678   7.051
 6562SOL    HW120018   4.630   1.660   6.956
 6562SOL    HW220019   4.684   1.772   7.061
 6563SOL     OW20020   4.197   0.500   5.777
 6563SOL    HW120021   4.258   0.580   5.781
 6563SOL    HW220022   4.102   0.531   5.784
 6564SOL     OW20023   3.883   1.137   7.052
 6564SOL    HW120024   3.905   1.076   7.128
 6564SOL    HW220025   3.893   1.088   6.966
 6565SOL     OW20026   3.807   1.258   6.608
 6565SOL    HW120027   3.802   1.257   6.708
 6565SOL    HW220028   3.724   1.217   6.570
 6566SOL     OW20029   4.412   1.662   7.302
 6566SOL    HW120030   4.356   1.743   7.311
 6566SOL    HW220031   4.464   1.666   7.216
 6567SOL     OW20032   4.627   0.086   5.719
 6567SOL    HW120033   4.678   0.087   5.633
 6567SOL    HW220034   4.683   0.044   5.790
 6568SOL     OW20035   3.854   1.794   7.437
 6568SOL    HW120036   3.813   1.720   7.490
 6568SOL    HW220037   3.918   1.845   7.495
 6569SOL     OW20038   4.554   1.273   7.008
 6569SOL    HW120039   4.549   1.306   7.103
 6569SOL    HW220040   4.468   1.292   6.962
 6570SOL     OW20041   4.396   1.616   5.740
 6570SOL    HW120042   4.405   1.626   5.641
 6570SOL    HW220043   4.356   1.527   5.761
 6571SOL     OW20044   3.987   0.326   6.306
 6571SOL    HW120045   3.908   0.377   6.272
 6571SOL    HW220046   3.978   0.311   6.404
 6572SOL     OW20047   4.546   1.002   6.958
 6572SOL    HW120048   4.586   1.001   6.866
 6572SOL    HW220049   4.556   1.094   6.998
 6573SOL     OW20050   4.096   1.288   7.076
 6573SOL    HW120051   4.083   1.381   7.042
 6573SOL    HW220052   4.012   1.236   7.063
 6574SOL     OW20053   4.314   1.487   6.077
 6574SOL    HW120054   4.356   1.429   6.007
 6574SOL    HW220055   4.270   1.566   6.033
 6575SOL     OW20056   3.979   1.348   5.876
 6575SOL    HW120057   3.883   1.349   5.849
 6575SOL    HW220058   3.991   1.401   5.960
 6576SOL     OW20059   3.829   1.013   7.312
 6576SOL    HW120060   3.752   0.980   7.366
 6576SOL    HW220061   3.914   0.983   7.354
 6577SOL     OW20062   4.396   0.203   7.075
 6577SOL    HW120063   4.486   0.187   7.035
 6577SOL    HW220064   4.404   0.208   7.174
 6578SOL     OW20065   3.799   0.345   5.619
 6578SOL    HW120066   3.707   0.317   5.590
 6578SOL    HW220067   3.830   0.422   5.563
 6579SOL     OW20068   3.796   0.166   5.904
 6579SOL    HW120069   3.779   0.249   5.850
 6579SOL    HW220070   3.886   0.129   5.882
 6580SOL     OW20071   4.337   0.842   7.017
 6580SOL    HW120072   4.393   0.923   7.000
 6580SOL    HW220073   4.396   0.762   7.020
 6581SOL     OW20074   4.440   0.565   7.294
 6581SOL    HW120075   4.459   0.630   7.368
 6581SOL    HW220076   4.500   0.485   7.303
 6582SOL     OW20077   4.114   1.741   7.146
 6582SOL    HW120078   4.023   1.782   7.144
 6582SOL    HW220079   4.107   1.647   7.178
 6583SOL     OW20080   4.949   0.325   6.035
 6583SOL    HW120081   5.014   0.251   6.024
 6583SOL    HW220082   4.969   0.375   6.119
 6584SOL     OW20083   4.318   0.745   6.238
 6584SOL    HW120084   4.368   0.830   6.219
 6584SOL    HW220085   4.230   0.747   6.190
 6585SOL     OW20086   4.583   1.374   5.602
 6585SOL    HW120087   4.537   1.389   5.690
 6585SOL    HW220088   4.627   1.459   5.572
 6586SOL     OW20089   4.385   1.790   6.539
 6586SOL    HW120090   4.339   1.878   6.526
 6586SOL    HW220091   4.484   1.802   6.532
 6587SOL     OW20092   4.583   0.956   6.447
 6587SOL    HW120093   4.637   0.887   6.495
 6587SOL    HW220094   4.551   1.025   6.513
 6588SOL     OW20095   3.945   1.314   7.430
 6588SOL    HW120096   3.880   1.241   7.409
 6588SOL    HW220097   3.949   1.328   7.528
 6589SOL     OW20098   3.803   1.240   6.239
 6589SOL    HW120099   3.802   1.193   6.327
 6589SOL    HW220100   3.885   1.212   6.188
 6590SOL     OW20101   4.396   1.391   7.210
 6590SOL    HW120102   4.318   1.341   7.248
 6590SOL    HW220103   4.393   1.486   7.241
 6591SOL     OW20104   4.152   0.424   6.106
 6591SOL    HW120105   4.182   0.352   6.044
 6591SOL    HW220106   4.113   0.384   6.189
 6592SOL     OW20107   4.041   0.547   6.866
 6592SOL    HW120108   4.079   0.488   6.938
 6592SOL    HW220109   4.081   0.521   6.778
 6593SOL     OW20110   4.536   1.586   6.273
 6593SOL    HW120111   4.568   1.596   6.179
 6593SOL    HW220112   4.457   1.524   6.275
 6594SOL     OW20113   4.725   0.034   6.740
 6594SOL    HW120114   4.662  -0.038   6.709
 6594SOL    HW220115   4.818  -0.002   6.740
 6595SOL     OW20116   4.494   1.330   5.887
 6595SOL    HW120117   4.448   1.243   5.904
 6595SOL    HW220118   4.585   1.327   5.928
 6596SOL     OW20119   4.342   1.567   6.870
 6596SOL    HW120120   4.337   1.649   6.927
 6596SOL    HW220121   4.431   1.564   6.825
 6597SOL     OW20122   3.763   1.077   5.886
 6597SOL    HW120123   3.862   1.066   5.877
 6597SOL    HW220124   3.723   0.991   5.918
 6598SOL     OW20125   4.599   1.646   5.923
 6598SOL    HW120126   4.522   1.611   5.869
 6598SOL    HW220127   4.567   1.717   5.985
 6599SOL     OW20128   3.954   0.628   7.561
 6599SOL    HW120129   3.861   0.626   7.598
 6599SOL    HW220130   3.955   0.589   7.469
 6600SOL     OW20131   3.949   0.275   8.444
 6600SOL    HW120132   3.984   0.258   8.536
 6600SOL    HW220133   3.861   0.230   8.432
 6601SOL     OW20134   3.743   0.368   8.095
 6601SOL    HW120135   3.661   0.411   8.134
 6601SOL    HW220136   3.715   0.295   8.032
 6602SOL     OW20137   4.293   1.275   8.613
 6602SOL    HW120138   4.200   1.268   8.576
 6602SOL    HW220139   4.304   1.364   8.657
 6603SOL     OW20140   4.492   1.144   8.471
 6603SOL    HW120141   4.414   1.161   8.531
 6603SOL    HW220142   4.526   1.231   8.435
 6604SOL     OW20143   4.574   0.798   9.271
 6604SOL    HW120144   4.570   0.874   9.336
 6604SOL    HW220145   4.596   0.834   9.180
 6605SOL     OW20146   4.409   1.012   8.113
 6605SOL    HW120147   4.478   0.996   8.183
 6605SOL    HW220148   4.336   1.069   8.151
 6606SOL     OW20149   4.410   1.161   9.251
 6606SOL    HW120150   4.470   1.240   9.265
 6606SOL    HW220151   4.324   1.192   9.210
 6607SOL     OW20152   4.059   1.435   8.509
 6607SOL    HW120153   3.981   1.404   8.456
 6607SOL    HW220154   4.117   1.493   8.452
 6608SOL     OW20155   4.162   0.392   8.947
 6608SOL    HW120156   4.244   0.336   8.956
 6608SOL    HW220157   4.081   0.334   8.951
 6609SOL     OW20158   3.955   1.713   7.931
 6609SOL    HW120159   3.989   1.790   7.985
 6609SOL    HW220160   3.999   1.713   7.841
 6610SOL     OW20161   3.954   1.434   7.986
 6610SOL    HW120162   3.928   1.530   7.986
 6610SOL    HW220163   3.883   1.380   8.031
 6611SOL     OW20164   3.964   1.091   8.334
 6611SOL    HW120165   3.978   1.007   8.386
 6611SOL    HW220166   3.909   1.155   8.389
 6612SOL     OW20167   4.344   1.786   8.887
 6612SOL    HW120168   4.252   1.769   8.922
 6612SOL    HW220169   4.372   1.878   8.913
 6613SOL     OW20170   4.330   0.964   7.571
 6613SOL    HW120171   4.337   1.048   7.517
 6613SOL    HW220172   4.376   0.977   7.659
 6614SOL     OW20173   3.846   0.643   8.011
 6614SOL    HW120174   3.801   0.555   8.028
 6614SOL    HW220175   3.845   0.697   8.095
 6615SOL     OW20176   3.751   1.596   7.565
 6615SOL    HW120177   3.732   1.500   7.586
 6615SOL    HW220178   3.718   1.654   7.640
 6616SOL     OW20179   3.837   0.737   9.045
 6616SOL    HW120180   3.925   0.724   9.090
 6616SOL    HW220181   3.824   0.834   9.023
 6617SOL     OW20182   4.337   1.365   8.174
 6617SOL    HW120183   4.288   1.278   8.183
 6617SOL    HW220184   4.314   1.408   8.087
 6618SOL     OW20185   4.533   0.004   7.950
 6618SOL    HW120186   4.573   0.095   7.941
 6618SOL    HW220187   4.433   0.012   7.956
 6619SOL     OW20188   3.921   0.976   8.712
 6619SOL    HW120189   4.010   0.931   8.698
 6619SOL    HW220190   3.848   0.911   8.693
 6620SOL     OW20191   4.041   0.251   9.249
 6620SOL    HW120192   4.112   0.322   9.255
 6620SOL    HW220193   3.953   0.290   9.277
 6621SOL     OW20194   4.322   0.729   7.718
 6621SOL    HW120195   4.346   0.798   7.650
 6621SOL    HW220196   4.244   0.762   7.772
 6622SOL     OW20197   4.531   0.605   8.913
 6622SOL    HW120198   4.484   0.602   9.002
 6622SOL    HW220199   4.480   0.550   8.847
 6623SOL     OW20200   3.800   0.811   8.237
 6623SOL    HW120201   3.899   0.799   8.246
 6623SOL    HW220202   3.776   0.906   8.258
 6624SOL     OW20203   3.854   1.821   9.019
 6624SOL    HW120204   3.844   1.806   9.118
 6624SOL    HW220205   3.768   1.857   8.983
 6625SOL     OW20206   4.589   0.348   7.643
 6625SOL    HW120207   4.648   0.411   7.594
 6625SOL    HW220208   4.608   0.254   7.614
 6626SOL     OW20209   4.274   0.196   8.333
 6626SOL    HW120210   4.269   0.191   8.433
 6626SOL    HW220211   4.276   0.292   8.304
 6627SOL     OW20212   4.732   1.456   7.925
 6627SOL    HW120213   4.686   1.528   7.873
 6627SOL    HW220214   4.728   1.476   8.023
 6628SOL     OW20215   4.075   1.801   8.301
 6628SOL    HW120216   4.125   1.715   8.307
 6628SOL    HW220217   4.140   1.878   8.298
 6629SOL     OW20218   4.045   0.943   7.690
 6629SOL    HW120219   4.127   0.982   7.648
 6629SOL    HW220220   4.018   0.861   7.641
 6630SOL     OW20221   4.185   1.266   9.175
 6630SOL    HW120222   4.135   1.267   9.089
 6630SOL    HW220223   4.122   1.248   9.251
 6631SOL     OW20224   3.926   0.285   8.946
 6631SOL    HW120225   3.846   0.345   8.933
 6631SOL    HW220226   3.916   0.236   9.032
 6632SOL     OW20227   4.188   1.743   7.771
 6632SOL    HW120228   4.221   1.782   7.857
 6632SOL    HW220229   4.264   1.736   7.706
 6633SOL     OW20230   3.973   1.785   8.689
 6633SOL    HW120231   4.030   1.720   8.739
 6633SOL    HW220232   3.957   1.752   8.596
 6634SOL     OW20233   4.106   0.700   7.928
 6634SOL    HW120234   4.151   0.610   7.925
 6634SOL    HW220235   4.012   0.689   7.961
 6635SOL     OW20236   4.338   0.122   7.565
 6635SOL    HW120237   4.436   0.100   7.572
 6635SOL    HW220238   4.307   0.105   7.472
 6636SOL     OW20239   4.505   0.264   9.197
 6636SOL    HW120240   4.572   0.203   9.240
 6636SOL    HW220241   4.432   0.283   9.262
 6637SOL     OW20242   4.612   1.514   8.643
 6637SOL    HW120243   4.589   1.489   8.549
 6637SOL    HW220244   4.673   1.445   8.682
 6638SOL     OW20245   4.527   1.402   8.372
 6638SOL    HW120246   4.617   1.416   8.330
 6638SOL    HW220247   4.456   1.404   8.301
 6639SOL     OW20248   4.646   0.503   8.347
 6639SOL    HW120249   4.621   0.494   8.251
 6639SOL    HW220250   4.694   0.421   8.378
 6640SOL     OW20251   4.263   0.064   7.960
 6640SOL    HW120252   4.182   0.065   8.018
 6640SOL    HW220253   4.266   0.147   7.905
 6641SOL     OW20254   4.021   0.035   7.619
 6641SOL    HW120255   4.070   0.119   7.598
 6641SOL    HW220256   4.083  -0.030   7.664
 6642SOL     OW20257   4.951   1.570   8.241
 6642SOL    HW120258   4.972   1.644   8.176
 6642SOL    HW220259   5.019   1.570   8.314
 6643SOL     OW20260   4.183   1.152   8.189
 6643SOL    HW120261   4.112   1.125   8.254
 6643SOL    HW220262   4.157   1.124   8.096
 6644SOL     OW20263   3.802   0.556   8.834
 6644SOL    HW120264   3.894   0.555   8.793
 6644SOL    HW220265   3.796   0.630   8.901
 6645SOL     OW20266   4.285   0.222   8.595
 6645SOL    HW120267   4.323   0.138   8.632
 6645SOL    HW220268   4.197   0.241   8.639
 6646SOL     OW20269   4.212   1.385   7.622
 6646SOL    HW120270   4.125   1.370   7.669
 6646SOL    HW220271   4.195   1.411   7.527
 6647SOL     OW20272   4.251   0.256   7.776
 6647SOL    HW120273   4.278   0.197   7.701
 6647SOL    HW220274   4.251   0.351   7.745
 6648SOL     OW20275   4.639   0.089   8.850
 6648SOL    HW120276   4.664   0.069   8.755
 6648SOL    HW220277   4.711   0.145   8.892
 6649SOL     OW20278   4.429   1.050   7.816
 6649SOL    HW120279   4.415   1.057   7.915
 6649SOL    HW220280   4.513   0.999   7.798
 6650SOL     OW20281   4.134   0.813   8.699
 6650SOL    HW120282   4.220   0.825   8.749
 6650SOL    HW220283   4.092   0.726   8.726
 6651SOL     OW20284   3.788   1.564   8.779
 6651SOL    HW120285   3.742   1.646   8.745
 6651SOL    HW220286   3.886   1.583   8.788
 6652SOL     OW20287   4.091   1.100   7.949
 6652SOL    HW120288   4.084   1.183   7.893
 6652SOL    HW220289   4.095   1.020   7.889
 6653SOL     OW20290   4.290   0.537   8.313
 6653SOL    HW120291   4.302   0.603   8.239
 6653SOL    HW220292   4.336   0.571   8.396
 6654SOL     OW20293   4.078   1.510   8.777
 6654SOL    HW120294   4.057   1.466   8.690
 6654SOL    HW220295   4.175   1.536   8.780
 6655SOL     OW20296   4.126   0.751   9.046
 6655SOL    HW120297   4.194   0.806   8.999
 6655SOL    HW220298   4.166   0.663   9.073
 6656SOL     OW20299   4.228   0.050   9.188
 6656SOL    HW120300   4.186  -0.007   9.118
 6656SOL    HW220301   4.162   0.119   9.220
 6657SOL     OW20302   4.297   0.870   8.477
 6657SOL    HW120303   4.341   0.959   8.468
 6657SOL    HW220304   4.234   0.870   8.554
 6658SOL     OW20305   4.933   0.525   7.723
 6658SOL    HW120306   4.946   0.441   7.777
 6658SOL    HW220307   4.904   0.599   7.783
 6659SOL     OW20308   4.031   0.213   8.679
 6659SOL    HW120309   4.008   0.250   8.769
 6659SOL    HW220310   4.001   0.118   8.673
 6660SOL     OW20311   3.761   1.310   8.730
 6660SOL    HW120312   3.814   1.261   8.798
 6660SOL    HW220313   3.783   1.408   8.735
 6661SOL     OW20314   4.456   0.634   8.512
 6661SOL    HW120315   4.515   0.608   8.436
 6661SOL    HW220316   4.428   0.730   8.501
 6662SOL     OW20317   4.031   0.063   8.066
 6662SOL    HW120318   4.020   0.157   8.099
 6662SOL    HW220319   4.026   0.000   8.143
 6663SOL     OW20320   4.747   0.766   8.414
 6663SOL    HW120321   4.762   0.787   8.510
 6663SOL    HW220322   4.717   0.671   8.405
 6664SOL     OW20323   4.704   1.573   9.148
 6664SOL    HW120324   4.684   1.617   9.060
 6664SOL    HW220325   4.743   1.482   9.132
 6665SOL     OW20326   4.074   0.898   9.252
 6665SOL    HW120327   4.150   0.942   9.300
 6665SOL    HW220328   4.109   0.851   9.170
 6666SOL     OW20329   4.043   0.810   8.397
 6666SOL    HW120330   4.136   0.846   8.402
 6666SOL    HW220331   4.037   0.725   8.449
 6667SOL     OW20332   4.063   0.509   8.454
 6667SOL    HW120333   4.011   0.426   8.437
 6667SOL    HW220334   4.140   0.514   8.390
 6668SOL     OW20335   3.732   1.326   7.648
 6668SOL    HW120336   3.639   1.347   7.617
 6668SOL    HW220337   3.742   1.227   7.661
 6669SOL     OW20338   3.812   1.801   8.375
 6669SOL    HW120339   3.770   1.715   8.348
 6669SOL    HW220340   3.906   1.804   8.341
 6670SOL     OW20341   4.228   1.568   8.358
 6670SOL    HW120342   4.294   1.642   8.367
 6670SOL    HW220343   4.272   1.489   8.316
 6671SOL     OW20344   4.726   0.796   8.686
 6671SOL    HW120345   4.767   0.764   8.772
 6671SOL    HW220346   4.630   0.769   8.683
 6672SOL     OW20347   3.764   0.544   8.562
 6672SOL    HW120348   3.849   0.511   8.521
 6672SOL    HW220349   3.777   0.559   8.660
 6673SOL     OW20350   3.913   0.520   9.170
 6673SOL    HW120351   3.972   0.480   9.100
 6673SOL    HW220352   3.855   0.591   9.129
 6674SOL     OW20353   4.539   0.572   7.773
 6674SOL    HW120354   4.546   0.483   7.727
 6674SOL    HW220355   4.445   0.606   7.765
 6675SOL     OW20356   3.976   1.564   9.192
 6675SOL    HW120357   3.946   1.621   9.268
 6675SOL    HW220358   3.969   1.467   9.218
 6676SOL     OW20359   4.395   0.464   8.717
 6676SOL    HW120360   4.361   0.375   8.687
 6676SOL    HW220361   4.421   0.518   8.637
 6677SOL     OW20362   4.654   1.678   8.913
 6677SOL    HW120363   4.630   1.660   8.818
 6677SOL    HW220364   4.684   1.772   8.923
 6678SOL     OW20365   4.197   0.500   7.639
 6678SOL    HW120366   4.258   0.580   7.643
 6678SOL    HW220367   4.102   0.531   7.646
 6679SOL     OW20368   3.883   1.137   8.914
 6679SOL    HW120369   3.905   1.076   8.990
 6679SOL    HW220370   3.893   1.088   8.828
 6680SOL     OW20371   3.807   1.258   8.470
 6680SOL    HW120372   3.802   1.257   8.570
 6680SOL    HW220373   3.724   1.217   8.432
 6681SOL     OW20374   4.412   1.662   9.164
 6681SOL    HW120375   4.356   1.743   9.173
 6681SOL    HW220376   4.464   1.666   9.078
 6682SOL     OW20377   4.627   0.086   7.581
 6682SOL    HW120378   4.678   0.087   7.495
 6682SOL    HW220379   4.683   0.044   7.652
 6683SOL     OW20380   3.854   1.794   9.299
 6683SOL    HW120381   3.813   1.720   9.352
 6683SOL    HW220382   3.918   1.845   9.357
 6684SOL     OW20383   4.554   1.273   8.870
 6684SOL    HW120384   4.549   1.306   8.965
 6684SOL    HW220385   4.468   1.292   8.824
 6685SOL     OW20386   4.396   1.616   7.602
 6685SOL    HW120387   4.405   1.626   7.503
 6685SOL    HW220388   4.356   1.527   7.623
 6686SOL     OW20389   3.987   0.326   8.168
 6686SOL    HW120390   3.908   0.377   8.134
 6686SOL    HW220391   3.978   0.311   8.266
 6687SOL     OW20392   4.546   1.002   8.820
 6687SOL    HW120393   4.586   1.001   8.728
 6687SOL    HW220394   4.556   1.094   8.860
 6688SOL     OW20395   4.096   1.288   8.938
 6688SOL    HW120396   4.083   1.381   8.904
 6688SOL    HW220397   4.012   1.236   8.925
 6689SOL     OW20398   4.314   1.487   7.939
 6689SOL    HW120399   4.356   1.429   7.869
 6689SOL    HW220400   4.270   1.566   7.895
 6690SOL     OW20401   3.979   1.348   7.738
 6690SOL    HW120402   3.883   1.349   7.711
 6690SOL    HW220403   3.991   1.401   7.822
 6691SOL     OW20404   3.829   1.013   9.174
 6691SOL    HW120405   3.752   0.980   9.228
 6691SOL    HW220406   3.914   0.983   9.216
 6692SOL     OW20407   4.396   0.203   8.937
 6692SOL    HW120408   4.486   0.187   8.897
 6692SOL    HW220409   4.404   0.208   9.036
 6693SOL     OW20410   3.799   0.345   7.481
 6693SOL    HW120411   3.707   0.317   7.452
 6693SOL    HW220412   3.830   0.422   7.425
 6694SOL     OW20413   3.796   0.166   7.766
 6694SOL    HW120414   3.779   0.249   7.712
 6694SOL    HW220415   3.886   0.129   7.744
 6695SOL     OW20416   4.337   0.842   8.879
 6695SOL    HW120417   4.393   0.923   8.862
 6695SOL    HW220418   4.396   0.762   8.882
 6696SOL     OW20419   4.440   0.565   9.156
 6696SOL    HW120420   4.459   0.630   9.230
 6696SOL    HW220421   4.500   0.485   9.165
 6697SOL     OW20422   4.114   1.741   9.008
 6697SOL    HW120423   4.023   1.782   9.006
 6697SOL    HW220424   4.107   1.647   9.040
 6698SOL     OW20425   4.949   0.325   7.897
 6698SOL    HW120426   5.014   0.251   7.886
 6698SOL    HW220427   4.969   0.375   7.981
 6699SOL     OW20428   4.318   0.745   8.100
 6699SOL    HW120429   4.368   0.830   8.081
 6699SOL    HW220430   4.230   0.747   8.052
 6700SOL     OW20431   4.583   1.374   7.464
 6700SOL    HW120432   4.537   1.389   7.552
 6700SOL    HW220433   4.627   1.459   7.434
 6701SOL     OW20434   4.385   1.790   8.401
 6701SOL    HW120435   4.339   1.878   8.388
 6701SOL    HW220436   4.484   1.802   8.394
 6702SOL     OW20437   4.583   0.956   8.309
 6702SOL    HW120438   4.637   0.887   8.357
 6702SOL    HW220439   4.551   1.025   8.375
 6703SOL     OW20440   3.945   1.314   9.292
 6703SOL    HW120441   3.880   1.241   9.271
 6703SOL    HW220442   3.949   1.328   9.390
 6704SOL     OW20443   3.803   1.240   8.101
 6704SOL    HW120444   3.802   1.193   8.189
 6704SOL    HW220445   3.885   1.212   8.050
 6705SOL     OW20446   4.396   1.391   9.072
 6705SOL    HW120447   4.318   1.341   9.110
 6705SOL    HW220448   4.393   1.486   9.103
 6706SOL     OW20449   4.152   0.424   7.968
 6706SOL    HW120450   4.182   0.352   7.906
 6706SOL    HW220451   4.113   0.384   8.051
 6707SOL     OW20452   4.041   0.547   8.728
 6707SOL    HW120453   4.079   0.488   8.800
 6707SOL    HW220454   4.081   0.521   8.640
 6708SOL     OW20455   4.536   1.586   8.135
 6708SOL    HW120456   4.568   1.596   8.041
 6708SOL    HW220457   4.457   1.524   8.137
 6709SOL     OW20458   4.725   0.034   8.602
 6709SOL    HW120459   4.662  -0.038   8.571
 6709SOL    HW220460   4.818  -0.002   8.602
 6710SOL     OW20461   4.494   1.330   7.749
 6710SOL    HW120462   4.448   1.243   7.766
 6710SOL    HW220463   4.585   1.327   7.790
 6711SOL     OW20464   4.342   1.567   8.732
 6711SOL    HW120465   4.337   1.649   8.789
 6711SOL    HW220466   4.431   1.564   8.687
 6712SOL     OW20467   3.763   1.077   7.748
 6712SOL    HW120468   3.862   1.066   7.739
 6712SOL    HW220469   3.723   0.991   7.780
 6713SOL     OW20470   4.599   1.646   7.785
 6713SOL    HW120471   4.522   1.611   7.731
 6713SOL    HW220472   4.567   1.717   7.847
 6714SOL     OW20473   3.954   0.628   9.423
 6714SOL    HW120474   3.861   0.626   9.460
 6714SOL    HW220475   3.955   0.589   9.331
 6715SOL     OW20476   3.949   0.275  10.306
 6715SOL    HW120477   3.984   0.258  10.398
 6715SOL    HW220478   3.861   0.230  10.294
 6716SOL     OW20479   3.743   0.368   9.957
 6716SOL    HW120480   3.661   0.411   9.996
 6716SOL    HW220481   3.715   0.295   9.894
 6717SOL     OW20482   4.293   1.275  10.475
 6717SOL    HW120483   4.200   1.268  10.438
 6717SOL    HW220484   4.304   1.364  10.519
 6718SOL     OW20485   4.492   1.144  10.333
 6718SOL    HW120486   4.414   1.161  10.393
 6718SOL    HW220487   4.526   1.231  10.297
 6719SOL     OW20488   4.574   0.798  11.133
 6719SOL    HW120489   4.570   0.874  11.198
 6719SOL    HW220490   4.596   0.834  11.042
 6720SOL     OW20491   4.409   1.012   9.975
 6720SOL    HW120492   4.478   0.996  10.045
 6720SOL    HW220493   4.336   1.069  10.013
 6721SOL     OW20494   4.059   1.435  10.371
 6721SOL    HW120495   3.981   1.404  10.318
 6721SOL    HW220496   4.117   1.493  10.314
 6722SOL     OW20497   4.162   0.392  10.809
 6722SOL    HW120498   4.244   0.336  10.818
 6722SOL    HW220499   4.081   0.334  10.813
 6723SOL     OW20500   3.955   1.713   9.793
 6723SOL    HW120501   3.989   1.790   9.847
 6723SOL    HW220502   3.999   1.713   9.703
 6724SOL     OW20503   3.954   1.434   9.848
 6724SOL    HW120504   3.928   1.530   9.848
 6724SOL    HW220505   3.883   1.380   9.893
 6725SOL     OW20506   3.964   1.091  10.196
 6725SOL    HW120507   3.978   1.007  10.248
 6725SOL    HW220508   3.909   1.155  10.251
 6726SOL     OW20509   4.344   1.786  10.749
 6726SOL    HW120510   4.252   1.769  10.784
 6726SOL    HW220511   4.372   1.878  10.775
 6727SOL     OW20512   4.330   0.964   9.433
 6727SOL    HW120513   4.337   1.048   9.379
 6727SOL    HW220514   4.376   0.977   9.521
 6728SOL     OW20515   3.846   0.643   9.873
 6728SOL    HW120516   3.801   0.555   9.890
 6728SOL    HW220517   3.845   0.697   9.957
 6729SOL     OW20518   3.751   1.596   9.427
 6729SOL    HW120519   3.732   1.500   9.448
 6729SOL    HW220520   3.718   1.654   9.502
 6730SOL     OW20521   4.337   1.365  10.036
 6730SOL    HW120522   4.288   1.278  10.045
 6730SOL    HW220523   4.314   1.408   9.949
 6731SOL     OW20524   4.533   0.004   9.812
 6731SOL    HW120525   4.573   0.095   9.803
 6731SOL    HW220526   4.433   0.012   9.818
 6732SOL     OW20527   3.921   0.976  10.574
 6732SOL    HW120528   4.010   0.931  10.560
 6732SOL    HW220529   3.848   0.911  10.555
 6733SOL     OW20530   4.322   0.729   9.580
 6733SOL    HW120531   4.346   0.798   9.512
 6733SOL    HW220532   4.244   0.762   9.634
 6734SOL     OW20533   4.531   0.605  10.775
 6734SOL    HW120534   4.484   0.602  10.864
 6734SOL    HW220535   4.480   0.550  10.709
 6735SOL     OW20536   3.800   0.811  10.099
 6735SOL    HW120537   3.899   0.799  10.108
 6735SOL    HW220538   3.776   0.906  10.120
 6736SOL     OW20539   3.854   1.821  10.881
 6736SOL    HW120540   3.844   1.806  10.980
 6736SOL    HW220541   3.768   1.857  10.845
 6737SOL     OW20542   4.589   0.348   9.505
 6737SOL    HW120543   4.648   0.411   9.456
 6737SOL    HW220544   4.608   0.254   9.476
 6738SOL     OW20545   4.274   0.196  10.195
 6738SOL    HW120546   4.269   0.191  10.295
 6738SOL    HW220547   4.276   0.292  10.166
 6739SOL     OW20548   4.732   1.456   9.787
 6739SOL    HW120549   4.686   1.528   9.735
 6739SOL    HW220550   4.728   1.476   9.885
 6740SOL     OW20551   4.075   1.801  10.163
 6740SOL    HW120552   4.125   1.715  10.169
 6740SOL    HW220553   4.140   1.878  10.160
 6741SOL     OW20554   4.045   0.943   9.552
 6741SOL    HW120555   4.127   0.982   9.510
 6741SOL    HW220556   4.018   0.861   9.503
 6742SOL     OW20557   4.188   1.743   9.633
 6742SOL    HW120558   4.221   1.782   9.719
 6742SOL    HW220559   4.264   1.736   9.568
 6743SOL     OW20560   3.973   1.785  10.551
 6743SOL    HW120561   4.030   1.720  10.601
 6743SOL    HW220562   3.957   1.752  10.458
 6744SOL     OW20563   4.106   0.700   9.790
 6744SOL    HW120564   4.151   0.610   9.787
 6744SOL    HW220565   4.012   0.689   9.823
 6745SOL     OW20566   4.338   0.122   9.427
 6745SOL    HW120567   4.436   0.100   9.434
 6745SOL    HW220568   4.307   0.105   9.334
 6746SOL     OW20569   4.612   1.514  10.505
 6746SOL    HW120570   4.589   1.489  10.411
 6746SOL    HW220571   4.673   1.445  10.544
 6747SOL     OW20572   4.527   1.402  10.234
 6747SOL    HW120573   4.617   1.416  10.192
 6747SOL    HW220574   4.456   1.404  10.163
 6748SOL     OW20575   4.646   0.503  10.209
 6748SOL    HW120576   4.621   0.494  10.113
 6748SOL    HW220577   4.694   0.421  10.240
 6749SOL     OW20578   4.263   0.064   9.822
 6749SOL    HW120579   4.182   0.065   9.880
 6749SOL    HW220580   4.266   0.147   9.767
 6750SOL     OW20581   4.021   0.035   9.481
 6750SOL    HW120582   4.070   0.119   9.460
 6750SOL    HW220583   4.083  -0.030   9.526
 6751SOL     OW20584   4.951   1.570  10.103
 6751SOL    HW120585   4.972   1.644  10.038
 6751SOL    HW220586   5.019   1.570  10.176
 6752SOL     OW20587   4.183   1.152  10.051
 6752SOL    HW120588   4.112   1.125  10.116
 6752SOL    HW220589   4.157   1.124   9.958
 6753SOL     OW20590   3.802   0.556  10.696
 6753SOL    HW120591   3.894   0.555  10.655
 6753SOL    HW220592   3.796   0.630  10.763
 6754SOL     OW20593   4.285   0.222  10.457
 6754SOL    HW120594   4.323   0.138  10.494
 6754SOL    HW220595   4.197   0.241  10.501
 6755SOL     OW20596   4.212   1.385   9.484
 6755SOL    HW120597   4.125   1.370   9.531
 6755SOL    HW220598   4.195   1.411   9.389
 6756SOL     OW20599   4.251   0.256   9.638
 6756SOL    HW120600   4.278   0.197   9.563
 6756SOL    HW220601   4.251   0.351   9.607
 6757SOL     OW20602   4.639   0.089  10.712
 6757SOL    HW120603   4.664   0.069  10.617
 6757SOL    HW220604   4.711   0.145  10.754
 6758SOL     OW20605   4.429   1.050   9.678
 6758SOL    HW120606   4.415   1.057   9.777
 6758SOL    HW220607   4.513   0.999   9.660
 6759SOL     OW20608   4.134   0.813  10.561
 6759SOL    HW120609   4.220   0.825  10.611
 6759SOL    HW220610   4.092   0.726  10.588
 6760SOL     OW20611   3.788   1.564  10.641
 6760SOL    HW120612   3.742   1.646  10.607
 6760SOL    HW220613   3.886   1.583  10.650
 6761SOL     OW20614   4.091   1.100   9.811
 6761SOL    HW120615   4.084   1.183   9.755
 6761SOL    HW220616   4.095   1.020   9.751
 6762SOL     OW20617   4.290   0.537  10.175
 6762SOL    HW120618   4.302   0.603  10.101
 6762SOL    HW220619   4.336   0.571  10.258
 6763SOL     OW20620   4.078   1.510  10.639
 6763SOL    HW120621   4.057   1.466  10.552
 6763SOL    HW220622   4.175   1.536  10.642
 6764SOL     OW20623   4.126   0.751  10.908
 6764SOL    HW120624   4.194   0.806  10.861
 6764SOL    HW220625   4.166   0.663  10.935
 6765SOL     OW20626   4.297   0.870  10.339
 6765SOL    HW120627   4.341   0.959  10.330
 6765SOL    HW220628   4.234   0.870  10.416
 6766SOL     OW20629   4.933   0.525   9.585
 6766SOL    HW120630   4.946   0.441   9.639
 6766SOL    HW220631   4.904   0.599   9.645
 6767SOL     OW20632   4.031   0.213  10.541
 6767SOL    HW120633   4.008   0.250  10.631
 6767SOL    HW220634   4.001   0.118  10.535
 6768SOL     OW20635   3.761   1.310  10.592
 6768SOL    HW120636   3.814   1.261  10.660
 6768SOL    HW220637   3.783   1.408  10.597
 6769SOL     OW20638   4.456   0.634  10.374
 6769SOL    HW120639   4.515   0.608  10.298
 6769SOL    HW220640   4.428   0.730  10.363
 6770SOL     OW20641   4.031   0.063   9.928
 6770SOL    HW120642   4.020   0.157   9.961
 6770SOL    HW220643   4.026   0.000  10.005
 6771SOL     OW20644   4.747   0.766  10.276
 6771SOL    HW120645   4.762   0.787  10.372
 6771SOL    HW220646   4.717   0.671  10.267
 6772SOL     OW20647   4.043   0.810  10.259
 6772SOL    HW120648   4.136   0.846  10.264
 6772SOL    HW220649   4.037   0.725  10.311
 6773SOL     OW20650   4.063   0.509  10.316
 6773SOL    HW120651   4.011   0.426  10.299
 6773SOL    HW220652   4.140   0.514  10.252
 6774SOL     OW20653   3.732   1.326   9.510
 6774SOL    HW120654   3.639   1.347   9.479
 6774SOL    HW220655   3.742   1.227   9.523
 6775SOL     OW20656   3.812   1.801  10.237
 6775SOL    HW120657   3.770   1.715  10.210
 6775SOL    HW220658   3.906   1.804  10.203
 6776SOL     OW20659   4.228   1.568  10.220
 6776SOL    HW120660   4.294   1.642  10.229
 6776SOL    HW220661   4.272   1.489  10.178
 6777SOL     OW20662   4.726   0.796  10.548
 6777SOL    HW120663   4.767   0.764  10.634
 6777SOL    HW220664   4.630   0.769  10.545
 6778SOL     OW20665   3.764   0.544  10.424
 6778SOL    HW120666   3.849   0.511  10.383
 6778SOL    HW220667   3.777   0.559  10.522
 6779SOL     OW20668   4.539   0.572   9.635
 6779SOL    HW120669   4.546   0.483   9.589
 6779SOL    HW220670   4.445   0.606   9.627
 6780SOL     OW20671   4.395   0.464  10.579
 6780SOL    HW120672   4.361   0.375  10.549
 6780SOL    HW220673   4.421   0.518  10.499
 6781SOL     OW20674   4.654   1.678  10.775
 6781SOL    HW120675   4.630   1.660  10.680
 6781SOL    HW220676   4.684   1.772  10.785
 6782SOL     OW20677   4.197   0.500   9.501
 6782SOL    HW120678   4.258   0.580   9.505
 6782SOL    HW220679   4.102   0.531   9.508
 6783SOL     OW20680   3.883   1.137  10.776
 6783SOL    HW120681   3.905   1.076  10.852
 6783SOL    HW220682   3.893   1.088  10.690
 6784SOL     OW20683   3.807   1.258  10.332
 6784SOL    HW120684   3.802   1.257  10.432
 6784SOL    HW220685   3.724   1.217  10.294
 6785SOL     OW20686   4.627   0.086   9.443
 6785SOL    HW120687   4.678   0.087   9.357
 6785SOL    HW220688   4.683   0.044   9.514
 6786SOL     OW20689   4.396   1.616   9.464
 6786SOL    HW120690   4.405   1.626   9.365
 6786SOL    HW220691   4.356   1.527   9.485
 6787SOL     OW20692   3.987   0.326  10.030
 6787SOL    HW120693   3.908   0.377   9.996
 6787SOL    HW220694   3.978   0.311  10.128
 6788SOL     OW20695   4.546   1.002  10.682
 6788SOL    HW120696   4.586   1.001  10.590
 6788SOL    HW220697   4.556   1.094  10.722
 6789SOL     OW20698   4.096   1.288  10.800
 6789SOL    HW120699   4.083   1.381  10.766
 6789SOL    HW220700   4.012   1.236  10.787
 6790SOL     OW20701   4.314   1.487   9.801
 6790SOL    HW120702   4.356   1.429   9.731
 6790SOL    HW220703   4.270   1.566   9.757
 6791SOL     OW20704   3.979   1.348   9.600
 6791SOL    HW120705   3.883   1.349   9.573
 6791SOL    HW220706   3.991   1.401   9.684
 6792SOL     OW20707   3.799   0.345   9.343
 6792SOL    HW120708   3.707   0.317   9.314
 6792SOL    HW220709   3.830   0.422   9.287
 6793SOL     OW20710   3.796   0.166   9.628
 6793SOL    HW120711   3.779   0.249   9.574
 6793SOL    HW220712   3.886   0.129   9.606
 6794SOL     OW20713   4.337   0.842  10.741
 6794SOL    HW120714   4.393   0.923  10.724
 6794SOL    HW220715   4.396   0.762  10.744
 6795SOL     OW20716   4.114   1.741  10.870
 6795SOL    HW120717   4.023   1.782  10.868
 6795SOL    HW220718   4.107   1.647  10.902
 6796SOL     OW20719   4.949   0.325   9.759
 6796SOL    HW120720   5.014   0.251   9.748
 6796SOL    HW220721   4.969   0.375   9.843
 6797SOL     OW20722   4.318   0.745   9.962
 6797SOL    HW120723   4.368   0.830   9.943
 6797SOL    HW220724   4.230   0.747   9.914
 6798SOL     OW20725   4.583   1.374   9.326
 6798SOL    HW120726   4.537   1.389   9.414
 6798SOL    HW220727   4.627   1.459   9.296
 6799SOL     OW20728   4.385   1.790  10.263
 6799SOL    HW120729   4.339   1.878  10.250
 6799SOL    HW220730   4.484   1.802  10.256
 6800SOL     OW20731   4.583   0.956  10.171
 6800SOL    HW120732   4.637   0.887  10.219
 6800SOL    HW220733   4.551   1.025  10.237
 6801SOL     OW20734   3.803   1.240   9.963
 6801SOL    HW120735   3.802   1.193  10.051
 6801SOL    HW220736   3.885   1.212   9.912
 6802SOL     OW20737   4.152   0.424   9.830
 6802SOL    HW120738   4.182   0.352   9.768
 6802SOL    HW220739   4.113   0.384   9.913
 6803SOL     OW20740   4.041   0.547  10.590
 6803SOL    HW120741   4.079   0.488  10.662
 6803SOL    HW220742   4.081   0.521  10.502
 6804SOL     OW20743   4.536   1.586   9.997
 6804SOL    HW120744   4.568   1.596   9.903
 6804SOL    HW220745   4.457   1.524   9.999
 6805SOL     OW20746   4.725   0.034  10.464
 6805SOL    HW120747   4.662  -0.038  10.433
 6805SOL    HW220748   4.818  -0.002  10.464
 6806SOL     OW20749   4.494   1.330   9.611
 6806SOL    HW120750   4.448   1.243   9.628
 6806SOL    HW220751   4.585   1.327   9.652
 6807SOL     OW20752   4.342   1.567  10.594
 6807SOL    HW120753   4.337   1.649  10.651
 6807SOL    HW220754   4.431   1.564  10.549
 6808SOL     OW20755   3.763   1.077   9.610
 6808SOL    HW120756   3.862   1.066   9.601
 6808SOL    HW220757   3.723   0.991   9.642
 6809SOL     OW20758   4.599   1.646   9.647
 6809SOL    HW120759   4.522   1.611   9.593
 6809SOL    HW220760   4.567   1.717   9.709
 6810SOL     OW20761   3.954   2.490   0.113
 6810SOL    HW120762   3.861   2.488   0.150
 6810SOL    HW220763   3.955   2.451   0.021
 6811SOL     OW20764   3.949   2.137   0.996
 6811SOL    HW120765   3.984   2.120   1.088
 6811SOL    HW220766   3.861   2.092   0.984
 6812SOL     OW20767   3.743   2.230   0.647
 6812SOL    HW120768   3.661   2.273   0.686
 6812SOL    HW220769   3.715   2.157   0.584
 6813SOL     OW20770   4.293   3.137   1.165
 6813SOL    HW120771   4.200   3.130   1.128
 6813SOL    HW220772   4.304   3.226   1.209
 6814SOL     OW20773   4.492   3.006   1.023
 6814SOL    HW120774   4.414   3.023   1.083
 6814SOL    HW220775   4.526   3.093   0.987
 6815SOL     OW20776   4.574   2.660   1.823
 6815SOL    HW120777   4.570   2.736   1.888
 6815SOL    HW220778   4.596   2.696   1.732
 6816SOL     OW20779   4.409   2.874   0.665
 6816SOL    HW120780   4.478   2.858   0.735
 6816SOL    HW220781   4.336   2.931   0.703
 6817SOL     OW20782   4.410   3.023   1.803
 6817SOL    HW120783   4.470   3.102   1.817
 6817SOL    HW220784   4.324   3.054   1.762
 6818SOL     OW20785   4.059   3.297   1.061
 6818SOL    HW120786   3.981   3.266   1.008
 6818SOL    HW220787   4.117   3.355   1.004
 6819SOL     OW20788   4.162   2.254   1.499
 6819SOL    HW120789   4.244   2.198   1.508
 6819SOL    HW220790   4.081   2.196   1.503
 6820SOL     OW20791   3.955   3.575   0.483
 6820SOL    HW120792   3.989   3.652   0.537
 6820SOL    HW220793   3.999   3.575   0.393
 6821SOL     OW20794   3.954   3.296   0.538
 6821SOL    HW120795   3.928   3.392   0.538
 6821SOL    HW220796   3.883   3.242   0.583
 6822SOL     OW20797   3.964   2.953   0.886
 6822SOL    HW120798   3.978   2.869   0.938
 6822SOL    HW220799   3.909   3.017   0.941
 6823SOL     OW20800   4.344   3.648   1.439
 6823SOL    HW120801   4.252   3.631   1.474
 6823SOL    HW220802   4.372   3.740   1.465
 6824SOL     OW20803   4.330   2.826   0.123
 6824SOL    HW120804   4.337   2.910   0.069
 6824SOL    HW220805   4.376   2.839   0.211
 6825SOL     OW20806   3.846   2.505   0.563
 6825SOL    HW120807   3.801   2.417   0.580
 6825SOL    HW220808   3.845   2.559   0.647
 6826SOL     OW20809   3.751   3.458   0.117
 6826SOL    HW120810   3.732   3.362   0.138
 6826SOL    HW220811   3.718   3.516   0.192
 6827SOL     OW20812   3.837   2.599   1.597
 6827SOL    HW120813   3.925   2.586   1.642
 6827SOL    HW220814   3.824   2.696   1.575
 6828SOL     OW20815   4.337   3.227   0.726
 6828SOL    HW120816   4.288   3.140   0.735
 6828SOL    HW220817   4.314   3.270   0.639
 6829SOL     OW20818   4.533   1.866   0.502
 6829SOL    HW120819   4.573   1.957   0.493
 6829SOL    HW220820   4.433   1.874   0.508
 6830SOL     OW20821   3.921   2.838   1.264
 6830SOL    HW120822   4.010   2.793   1.250
 6830SOL    HW220823   3.848   2.773   1.245
 6831SOL     OW20824   4.041   2.113   1.801
 6831SOL    HW120825   4.112   2.184   1.807
 6831SOL    HW220826   3.953   2.152   1.829
 6832SOL     OW20827   4.322   2.591   0.270
 6832SOL    HW120828   4.346   2.660   0.202
 6832SOL    HW220829   4.244   2.624   0.324
 6833SOL     OW20830   4.531   2.467   1.465
 6833SOL    HW120831   4.484   2.464   1.554
 6833SOL    HW220832   4.480   2.412   1.399
 6834SOL     OW20833   4.715   2.272   1.242
 6834SOL    HW120834   4.638   2.306   1.296
 6834SOL    HW220835   4.681   2.221   1.163
 6835SOL     OW20836   3.800   2.673   0.789
 6835SOL    HW120837   3.899   2.661   0.798
 6835SOL    HW220838   3.776   2.768   0.810
 6836SOL     OW20839   3.854   3.683   1.571
 6836SOL    HW120840   3.844   3.668   1.670
 6836SOL    HW220841   3.768   3.719   1.535
 6837SOL     OW20842   4.589   2.210   0.195
 6837SOL    HW120843   4.648   2.273   0.146
 6837SOL    HW220844   4.608   2.116   0.166
 6838SOL     OW20845   4.274   2.058   0.885
 6838SOL    HW120846   4.269   2.053   0.985
 6838SOL    HW220847   4.276   2.154   0.856
 6839SOL     OW20848   4.732   3.318   0.477
 6839SOL    HW120849   4.686   3.390   0.425
 6839SOL    HW220850   4.728   3.338   0.575
 6840SOL     OW20851   4.075   3.663   0.853
 6840SOL    HW120852   4.125   3.577   0.859
 6840SOL    HW220853   4.140   3.740   0.850
 6841SOL     OW20854   4.045   2.805   0.242
 6841SOL    HW120855   4.127   2.844   0.200
 6841SOL    HW220856   4.018   2.723   0.193
 6842SOL     OW20857   4.185   3.128   1.727
 6842SOL    HW120858   4.135   3.129   1.641
 6842SOL    HW220859   4.122   3.110   1.803
 6843SOL     OW20860   3.926   2.147   1.498
 6843SOL    HW120861   3.846   2.207   1.485
 6843SOL    HW220862   3.916   2.098   1.584
 6844SOL     OW20863   4.188   3.605   0.323
 6844SOL    HW120864   4.221   3.644   0.409
 6844SOL    HW220865   4.264   3.598   0.258
 6845SOL     OW20866   3.973   3.647   1.241
 6845SOL    HW120867   4.030   3.582   1.291
 6845SOL    HW220868   3.957   3.614   1.148
 6846SOL     OW20869   4.106   2.562   0.480
 6846SOL    HW120870   4.151   2.472   0.477
 6846SOL    HW220871   4.012   2.551   0.513
 6847SOL     OW20872   4.338   1.984   0.117
 6847SOL    HW120873   4.436   1.962   0.124
 6847SOL    HW220874   4.307   1.967   0.024
 6848SOL     OW20875   4.505   2.126   1.749
 6848SOL    HW120876   4.572   2.065   1.792
 6848SOL    HW220877   4.432   2.145   1.814
 6849SOL     OW20878   4.612   3.376   1.195
 6849SOL    HW120879   4.589   3.351   1.101
 6849SOL    HW220880   4.673   3.307   1.234
 6850SOL     OW20881   4.527   3.264   0.924
 6850SOL    HW120882   4.617   3.278   0.882
 6850SOL    HW220883   4.456   3.266   0.853
 6851SOL     OW20884   4.646   2.365   0.899
 6851SOL    HW120885   4.621   2.356   0.803
 6851SOL    HW220886   4.694   2.283   0.930
 6852SOL     OW20887   4.263   1.926   0.512
 6852SOL    HW120888   4.182   1.927   0.570
 6852SOL    HW220889   4.266   2.009   0.457
 6853SOL     OW20890   4.021   1.897   0.171
 6853SOL    HW120891   4.070   1.981   0.150
 6853SOL    HW220892   4.083   1.832   0.216
 6854SOL     OW20893   4.951   3.432   0.793
 6854SOL    HW120894   4.972   3.506   0.728
 6854SOL    HW220895   5.019   3.432   0.866
 6855SOL     OW20896   4.183   3.014   0.741
 6855SOL    HW120897   4.112   2.987   0.806
 6855SOL    HW220898   4.157   2.986   0.648
 6856SOL     OW20899   3.802   2.418   1.386
 6856SOL    HW120900   3.894   2.417   1.345
 6856SOL    HW220901   3.796   2.492   1.453
 6857SOL     OW20902   4.285   2.084   1.147
 6857SOL    HW120903   4.323   2.000   1.184
 6857SOL    HW220904   4.197   2.103   1.191
 6858SOL     OW20905   4.741   1.901   0.753
 6858SOL    HW120906   4.669   1.906   0.684
 6858SOL    HW220907   4.717   1.832   0.822
 6859SOL     OW20908   4.212   3.247   0.174
 6859SOL    HW120909   4.125   3.232   0.221
 6859SOL    HW220910   4.195   3.273   0.079
 6860SOL     OW20911   4.251   2.118   0.328
 6860SOL    HW120912   4.278   2.059   0.253
 6860SOL    HW220913   4.251   2.213   0.297
 6861SOL     OW20914   4.639   1.951   1.402
 6861SOL    HW120915   4.664   1.931   1.307
 6861SOL    HW220916   4.711   2.007   1.444
 6862SOL     OW20917   4.429   2.912   0.368
 6862SOL    HW120918   4.415   2.919   0.467
 6862SOL    HW220919   4.513   2.861   0.350
 6863SOL     OW20920   4.134   2.675   1.251
 6863SOL    HW120921   4.220   2.687   1.301
 6863SOL    HW220922   4.092   2.588   1.278
 6864SOL     OW20923   3.788   3.426   1.331
 6864SOL    HW120924   3.742   3.508   1.297
 6864SOL    HW220925   3.886   3.445   1.340
 6865SOL     OW20926   4.091   2.962   0.501
 6865SOL    HW120927   4.084   3.045   0.445
 6865SOL    HW220928   4.095   2.882   0.441
 6866SOL     OW20929   4.290   2.399   0.865
 6866SOL    HW120930   4.302   2.465   0.791
 6866SOL    HW220931   4.336   2.433   0.948
 6867SOL     OW20932   4.078   3.372   1.329
 6867SOL    HW120933   4.057   3.328   1.242
 6867SOL    HW220934   4.175   3.398   1.332
 6868SOL     OW20935   4.126   2.613   1.598
 6868SOL    HW120936   4.194   2.668   1.551
 6868SOL    HW220937   4.166   2.525   1.625
 6869SOL     OW20938   4.228   1.912   1.740
 6869SOL    HW120939   4.186   1.855   1.670
 6869SOL    HW220940   4.162   1.981   1.772
 6870SOL     OW20941   4.297   2.732   1.029
 6870SOL    HW120942   4.341   2.821   1.020
 6870SOL    HW220943   4.234   2.732   1.106
 6871SOL     OW20944   4.933   2.387   0.275
 6871SOL    HW120945   4.946   2.303   0.329
 6871SOL    HW220946   4.904   2.461   0.335
 6872SOL     OW20947   4.031   2.075   1.231
 6872SOL    HW120948   4.008   2.112   1.321
 6872SOL    HW220949   4.001   1.980   1.225
 6873SOL     OW20950   3.761   3.172   1.282
 6873SOL    HW120951   3.814   3.123   1.350
 6873SOL    HW220952   3.783   3.270   1.287
 6874SOL     OW20953   4.456   2.496   1.064
 6874SOL    HW120954   4.515   2.470   0.988
 6874SOL    HW220955   4.428   2.592   1.053
 6875SOL     OW20956   4.031   1.925   0.618
 6875SOL    HW120957   4.020   2.019   0.651
 6875SOL    HW220958   4.026   1.862   0.695
 6876SOL     OW20959   4.747   2.628   0.966
 6876SOL    HW120960   4.762   2.649   1.062
 6876SOL    HW220961   4.717   2.533   0.957
 6877SOL     OW20962   4.704   3.435   1.700
 6877SOL    HW120963   4.684   3.479   1.612
 6877SOL    HW220964   4.743   3.344   1.684
 6878SOL     OW20965   4.074   2.760   1.804
 6878SOL    HW120966   4.150   2.804   1.852
 6878SOL    HW220967   4.109   2.713   1.722
 6879SOL     OW20968   4.043   2.672   0.949
 6879SOL    HW120969   4.136   2.708   0.954
 6879SOL    HW220970   4.037   2.587   1.001
 6880SOL     OW20971   4.063   2.371   1.006
 6880SOL    HW120972   4.011   2.288   0.989
 6880SOL    HW220973   4.140   2.376   0.942
 6881SOL     OW20974   3.732   3.188   0.200
 6881SOL    HW120975   3.639   3.209   0.169
 6881SOL    HW220976   3.742   3.089   0.213
 6882SOL     OW20977   3.812   3.663   0.927
 6882SOL    HW120978   3.770   3.577   0.900
 6882SOL    HW220979   3.906   3.666   0.893
 6883SOL     OW20980   4.228   3.430   0.910
 6883SOL    HW120981   4.294   3.504   0.919
 6883SOL    HW220982   4.272   3.351   0.868
 6884SOL     OW20983   4.726   2.658   1.238
 6884SOL    HW120984   4.767   2.626   1.324
 6884SOL    HW220985   4.630   2.631   1.235
 6885SOL     OW20986   3.764   2.406   1.114
 6885SOL    HW120987   3.849   2.373   1.073
 6885SOL    HW220988   3.777   2.421   1.212
 6886SOL     OW20989   3.913   2.382   1.722
 6886SOL    HW120990   3.972   2.342   1.652
 6886SOL    HW220991   3.855   2.453   1.681
 6887SOL     OW20992   4.539   2.434   0.325
 6887SOL    HW120993   4.546   2.345   0.279
 6887SOL    HW220994   4.445   2.468   0.317
 6888SOL     OW20995   3.976   3.426   1.744
 6888SOL    HW120996   3.946   3.483   1.820
 6888SOL    HW220997   3.969   3.329   1.770
 6889SOL     OW20998   4.395   2.326   1.269
 6889SOL    HW120999   4.361   2.237   1.239
 6889SOL    HW221000   4.421   2.380   1.189
 6890SOL     OW21001   4.654   3.540   1.465
 6890SOL    HW121002   4.630   3.522   1.370
 6890SOL    HW221003   4.684   3.634   1.475
 6891SOL     OW21004   4.197   2.362   0.191
 6891SOL    HW121005   4.258   2.442   0.195
 6891SOL    HW221006   4.102   2.393   0.198
 6892SOL     OW21007   3.883   2.999   1.466
 6892SOL    HW121008   3.905   2.938   1.542
 6892SOL    HW221009   3.893   2.950   1.380
 6893SOL     OW21010   3.807   3.120   1.022
 6893SOL    HW121011   3.802   3.119   1.122
 6893SOL    HW221012   3.724   3.079   0.984
 6894SOL     OW21013   4.412   3.524   1.716
 6894SOL    HW121014   4.356   3.605   1.725
 6894SOL    HW221015   4.464   3.528   1.630
 6895SOL     OW21016   4.627   1.948   0.133
 6895SOL    HW121017   4.678   1.949   0.047
 6895SOL    HW221018   4.683   1.906   0.204
 6896SOL     OW21019   3.854   3.656   1.851
 6896SOL    HW121020   3.813   3.582   1.904
 6896SOL    HW221021   3.918   3.707   1.909
 6897SOL     OW21022   4.554   3.135   1.422
 6897SOL    HW121023   4.549   3.168   1.517
 6897SOL    HW221024   4.468   3.154   1.376
 6898SOL     OW21025   4.396   3.478   0.154
 6898SOL    HW121026   4.405   3.488   0.055
 6898SOL    HW221027   4.356   3.389   0.175
 6899SOL     OW21028   3.987   2.188   0.720
 6899SOL    HW121029   3.908   2.239   0.686
 6899SOL    HW221030   3.978   2.173   0.818
 6900SOL     OW21031   4.918   3.474   0.031
 6900SOL    HW121032   4.924   3.381   0.068
 6900SOL    HW221033   4.859   3.474  -0.049
 6901SOL     OW21034   4.546   2.864   1.372
 6901SOL    HW121035   4.586   2.863   1.280
 6901SOL    HW221036   4.556   2.956   1.412
 6902SOL     OW21037   4.096   3.150   1.490
 6902SOL    HW121038   4.083   3.243   1.456
 6902SOL    HW221039   4.012   3.098   1.477
 6903SOL     OW21040   4.314   3.349   0.491
 6903SOL    HW121041   4.356   3.291   0.421
 6903SOL    HW221042   4.270   3.428   0.447
 6904SOL     OW21043   3.979   3.210   0.290
 6904SOL    HW121044   3.883   3.211   0.263
 6904SOL    HW221045   3.991   3.263   0.374
 6905SOL     OW21046   3.829   2.875   1.726
 6905SOL    HW121047   3.752   2.842   1.780
 6905SOL    HW221048   3.914   2.845   1.768
 6906SOL     OW21049   4.396   2.065   1.489
 6906SOL    HW121050   4.486   2.049   1.449
 6906SOL    HW221051   4.404   2.070   1.588
 6907SOL     OW21052   3.799   2.207   0.033
 6907SOL    HW121053   3.707   2.179   0.004
 6907SOL    HW221054   3.830   2.284  -0.023
 6908SOL     OW21055   3.796   2.028   0.318
 6908SOL    HW121056   3.779   2.111   0.264
 6908SOL    HW221057   3.886   1.991   0.296
 6909SOL     OW21058   4.337   2.704   1.431
 6909SOL    HW121059   4.393   2.785   1.414
 6909SOL    HW221060   4.396   2.624   1.434
 6910SOL     OW21061   4.440   2.427   1.708
 6910SOL    HW121062   4.459   2.492   1.782
 6910SOL    HW221063   4.500   2.347   1.717
 6911SOL     OW21064   4.114   3.603   1.560
 6911SOL    HW121065   4.023   3.644   1.558
 6911SOL    HW221066   4.107   3.509   1.592
 6912SOL     OW21067   4.949   2.187   0.449
 6912SOL    HW121068   5.014   2.113   0.438
 6912SOL    HW221069   4.969   2.237   0.533
 6913SOL     OW21070   4.318   2.607   0.652
 6913SOL    HW121071   4.368   2.692   0.633
 6913SOL    HW221072   4.230   2.609   0.604
 6914SOL     OW21073   4.583   3.236   0.016
 6914SOL    HW121074   4.537   3.251   0.104
 6914SOL    HW221075   4.627   3.321  -0.014
 6915SOL     OW21076   4.385   3.652   0.953
 6915SOL    HW121077   4.339   3.740   0.940
 6915SOL    HW221078   4.484   3.664   0.946
 6916SOL     OW21079   4.583   2.818   0.861
 6916SOL    HW121080   4.637   2.749   0.909
 6916SOL    HW221081   4.551   2.887   0.927
 6917SOL     OW21082   4.807   2.846   0.087
 6917SOL    HW121083   4.784   2.899   0.005
 6917SOL    HW221084   4.888   2.790   0.068
 6918SOL     OW21085   3.945   3.176   1.844
 6918SOL    HW121086   3.880   3.103   1.823
 6918SOL    HW221087   3.949   3.190   1.942
 6919SOL     OW21088   3.803   3.102   0.653
 6919SOL    HW121089   3.802   3.055   0.741
 6919SOL    HW221090   3.885   3.074   0.602
 6920SOL     OW21091   4.396   3.253   1.624
 6920SOL    HW121092   4.318   3.203   1.662
 6920SOL    HW221093   4.393   3.348   1.655
 6921SOL     OW21094   4.152   2.286   0.520
 6921SOL    HW121095   4.182   2.214   0.458
 6921SOL    HW221096   4.113   2.246   0.603
 6922SOL     OW21097   4.041   2.409   1.280
 6922SOL    HW121098   4.079   2.350   1.352
 6922SOL    HW221099   4.081   2.383   1.192
 6923SOL     OW21100   4.536   3.448   0.687
 6923SOL    HW121101   4.568   3.458   0.593
 6923SOL    HW221102   4.457   3.386   0.689
 6924SOL     OW21103   4.725   1.896   1.154
 6924SOL    HW121104   4.662   1.824   1.123
 6924SOL    HW221105   4.818   1.860   1.154
 6925SOL     OW21106   4.494   3.192   0.301
 6925SOL    HW121107   4.448   3.105   0.318
 6925SOL    HW221108   4.585   3.189   0.342
 6926SOL     OW21109   4.342   3.429   1.284
 6926SOL    HW121110   4.337   3.511   1.341
 6926SOL    HW221111   4.431   3.426   1.239
 6927SOL     OW21112   3.763   2.939   0.300
 6927SOL    HW121113   3.862   2.928   0.291
 6927SOL    HW221114   3.723   2.853   0.332
 6928SOL     OW21115   4.599   3.508   0.337
 6928SOL    HW121116   4.522   3.473   0.283
 6928SOL    HW221117   4.567   3.579   0.399
 6929SOL     OW21118   3.954   2.490   1.975
 6929SOL    HW121119   3.861   2.488   2.012
 6929SOL    HW221120   3.955   2.451   1.883
 6930SOL     OW21121   3.949   2.137   2.858
 6930SOL    HW121122   3.984   2.120   2.950
 6930SOL    HW221123   3.861   2.092   2.846
 6931SOL     OW21124   3.743   2.230   2.509
 6931SOL    HW121125   3.661   2.273   2.548
 6931SOL    HW221126   3.715   2.157   2.446
 6932SOL     OW21127   4.293   3.137   3.027
 6932SOL    HW121128   4.200   3.130   2.990
 6932SOL    HW221129   4.304   3.226   3.071
 6933SOL     OW21130   4.492   3.006   2.885
 6933SOL    HW121131   4.414   3.023   2.945
 6933SOL    HW221132   4.526   3.093   2.849
 6934SOL     OW21133   4.574   2.660   3.685
 6934SOL    HW121134   4.570   2.736   3.750
 6934SOL    HW221135   4.596   2.696   3.594
 6935SOL     OW21136   4.409   2.874   2.527
 6935SOL    HW121137   4.478   2.858   2.597
 6935SOL    HW221138   4.336   2.931   2.565
 6936SOL     OW21139   4.410   3.023   3.665
 6936SOL    HW121140   4.470   3.102   3.679
 6936SOL    HW221141   4.324   3.054   3.624
 6937SOL     OW21142   4.059   3.297   2.923
 6937SOL    HW121143   3.981   3.266   2.870
 6937SOL    HW221144   4.117   3.355   2.866
 6938SOL     OW21145   4.162   2.254   3.361
 6938SOL    HW121146   4.244   2.198   3.370
 6938SOL    HW221147   4.081   2.196   3.365
 6939SOL     OW21148   3.955   3.575   2.345
 6939SOL    HW121149   3.989   3.652   2.399
 6939SOL    HW221150   3.999   3.575   2.255
 6940SOL     OW21151   3.954   3.296   2.400
 6940SOL    HW121152   3.928   3.392   2.400
 6940SOL    HW221153   3.883   3.242   2.445
 6941SOL     OW21154   3.964   2.953   2.748
 6941SOL    HW121155   3.978   2.869   2.800
 6941SOL    HW221156   3.909   3.017   2.803
 6942SOL     OW21157   4.344   3.648   3.301
 6942SOL    HW121158   4.252   3.631   3.336
 6942SOL    HW221159   4.372   3.740   3.327
 6943SOL     OW21160   4.330   2.826   1.985
 6943SOL    HW121161   4.337   2.910   1.931
 6943SOL    HW221162   4.376   2.839   2.073
 6944SOL     OW21163   3.846   2.505   2.425
 6944SOL    HW121164   3.801   2.417   2.442
 6944SOL    HW221165   3.845   2.559   2.509
 6945SOL     OW21166   3.751   3.458   1.979
 6945SOL    HW121167   3.732   3.362   2.000
 6945SOL    HW221168   3.718   3.516   2.054
 6946SOL     OW21169   3.837   2.599   3.459
 6946SOL    HW121170   3.925   2.586   3.504
 6946SOL    HW221171   3.824   2.696   3.437
 6947SOL     OW21172   4.337   3.227   2.588
 6947SOL    HW121173   4.288   3.140   2.597
 6947SOL    HW221174   4.314   3.270   2.501
 6948SOL     OW21175   4.533   1.866   2.364
 6948SOL    HW121176   4.573   1.957   2.355
 6948SOL    HW221177   4.433   1.874   2.370
 6949SOL     OW21178   3.921   2.838   3.126
 6949SOL    HW121179   4.010   2.793   3.112
 6949SOL    HW221180   3.848   2.773   3.107
 6950SOL     OW21181   4.041   2.113   3.663
 6950SOL    HW121182   4.112   2.184   3.669
 6950SOL    HW221183   3.953   2.152   3.691
 6951SOL     OW21184   4.322   2.591   2.132
 6951SOL    HW121185   4.346   2.660   2.064
 6951SOL    HW221186   4.244   2.624   2.186
 6952SOL     OW21187   4.531   2.467   3.327
 6952SOL    HW121188   4.484   2.464   3.416
 6952SOL    HW221189   4.480   2.412   3.261
 6953SOL     OW21190   4.715   2.272   3.104
 6953SOL    HW121191   4.638   2.306   3.158
 6953SOL    HW221192   4.681   2.221   3.025
 6954SOL     OW21193   3.800   2.673   2.651
 6954SOL    HW121194   3.899   2.661   2.660
 6954SOL    HW221195   3.776   2.768   2.672
 6955SOL     OW21196   3.854   3.683   3.433
 6955SOL    HW121197   3.844   3.668   3.532
 6955SOL    HW221198   3.768   3.719   3.397
 6956SOL     OW21199   4.589   2.210   2.057
 6956SOL    HW121200   4.648   2.273   2.008
 6956SOL    HW221201   4.608   2.116   2.028
 6957SOL     OW21202   4.274   2.058   2.747
 6957SOL    HW121203   4.269   2.053   2.847
 6957SOL    HW221204   4.276   2.154   2.718
 6958SOL     OW21205   4.732   3.318   2.339
 6958SOL    HW121206   4.686   3.390   2.287
 6958SOL    HW221207   4.728   3.338   2.437
 6959SOL     OW21208   4.075   3.663   2.715
 6959SOL    HW121209   4.125   3.577   2.721
 6959SOL    HW221210   4.140   3.740   2.712
 6960SOL     OW21211   4.045   2.805   2.104
 6960SOL    HW121212   4.127   2.844   2.062
 6960SOL    HW221213   4.018   2.723   2.055
 6961SOL     OW21214   4.185   3.128   3.589
 6961SOL    HW121215   4.135   3.129   3.503
 6961SOL    HW221216   4.122   3.110   3.665
 6962SOL     OW21217   3.926   2.147   3.360
 6962SOL    HW121218   3.846   2.207   3.347
 6962SOL    HW221219   3.916   2.098   3.446
 6963SOL     OW21220   4.188   3.605   2.185
 6963SOL    HW121221   4.221   3.644   2.271
 6963SOL    HW221222   4.264   3.598   2.120
 6964SOL     OW21223   3.973   3.647   3.103
 6964SOL    HW121224   4.030   3.582   3.153
 6964SOL    HW221225   3.957   3.614   3.010
 6965SOL     OW21226   4.106   2.562   2.342
 6965SOL    HW121227   4.151   2.472   2.339
 6965SOL    HW221228   4.012   2.551   2.375
 6966SOL     OW21229   4.338   1.984   1.979
 6966SOL    HW121230   4.436   1.962   1.986
 6966SOL    HW221231   4.307   1.967   1.886
 6967SOL     OW21232   4.505   2.126   3.611
 6967SOL    HW121233   4.572   2.065   3.654
 6967SOL    HW221234   4.432   2.145   3.676
 6968SOL     OW21235   4.612   3.376   3.057
 6968SOL    HW121236   4.589   3.351   2.963
 6968SOL    HW221237   4.673   3.307   3.096
 6969SOL     OW21238   4.527   3.264   2.786
 6969SOL    HW121239   4.617   3.278   2.744
 6969SOL    HW221240   4.456   3.266   2.715
 6970SOL     OW21241   4.646   2.365   2.761
 6970SOL    HW121242   4.621   2.356   2.665
 6970SOL    HW221243   4.694   2.283   2.792
 6971SOL     OW21244   4.263   1.926   2.374
 6971SOL    HW121245   4.182   1.927   2.432
 6971SOL    HW221246   4.266   2.009   2.319
 6972SOL     OW21247   4.021   1.897   2.033
 6972SOL    HW121248   4.070   1.981   2.012
 6972SOL    HW221249   4.083   1.832   2.078
 6973SOL     OW21250   4.951   3.432   2.655
 6973SOL    HW121251   4.972   3.506   2.590
 6973SOL    HW221252   5.019   3.432   2.728
 6974SOL     OW21253   4.183   3.014   2.603
 6974SOL    HW121254   4.112   2.987   2.668
 6974SOL    HW221255   4.157   2.986   2.510
 6975SOL     OW21256   3.802   2.418   3.248
 6975SOL    HW121257   3.894   2.417   3.207
 6975SOL    HW221258   3.796   2.492   3.315
 6976SOL     OW21259   4.285   2.084   3.009
 6976SOL    HW121260   4.323   2.000   3.046
 6976SOL    HW221261   4.197   2.103   3.053
 6977SOL     OW21262   4.741   1.901   2.615
 6977SOL    HW121263   4.669   1.906   2.546
 6977SOL    HW221264   4.717   1.832   2.684
 6978SOL     OW21265   4.212   3.247   2.036
 6978SOL    HW121266   4.125   3.232   2.083
 6978SOL    HW221267   4.195   3.273   1.941
 6979SOL     OW21268   4.251   2.118   2.190
 6979SOL    HW121269   4.278   2.059   2.115
 6979SOL    HW221270   4.251   2.213   2.159
 6980SOL     OW21271   4.639   1.951   3.264
 6980SOL    HW121272   4.664   1.931   3.169
 6980SOL    HW221273   4.711   2.007   3.306
 6981SOL     OW21274   4.429   2.912   2.230
 6981SOL    HW121275   4.415   2.919   2.329
 6981SOL    HW221276   4.513   2.861   2.212
 6982SOL     OW21277   4.134   2.675   3.113
 6982SOL    HW121278   4.220   2.687   3.163
 6982SOL    HW221279   4.092   2.588   3.140
 6983SOL     OW21280   3.788   3.426   3.193
 6983SOL    HW121281   3.742   3.508   3.159
 6983SOL    HW221282   3.886   3.445   3.202
 6984SOL     OW21283   4.091   2.962   2.363
 6984SOL    HW121284   4.084   3.045   2.307
 6984SOL    HW221285   4.095   2.882   2.303
 6985SOL     OW21286   4.290   2.399   2.727
 6985SOL    HW121287   4.302   2.465   2.653
 6985SOL    HW221288   4.336   2.433   2.810
 6986SOL     OW21289   4.078   3.372   3.191
 6986SOL    HW121290   4.057   3.328   3.104
 6986SOL    HW221291   4.175   3.398   3.194
 6987SOL     OW21292   4.126   2.613   3.460
 6987SOL    HW121293   4.194   2.668   3.413
 6987SOL    HW221294   4.166   2.525   3.487
 6988SOL     OW21295   4.228   1.912   3.602
 6988SOL    HW121296   4.186   1.855   3.532
 6988SOL    HW221297   4.162   1.981   3.634
 6989SOL     OW21298   4.297   2.732   2.891
 6989SOL    HW121299   4.341   2.821   2.882
 6989SOL    HW221300   4.234   2.732   2.968
 6990SOL     OW21301   4.933   2.387   2.137
 6990SOL    HW121302   4.946   2.303   2.191
 6990SOL    HW221303   4.904   2.461   2.197
 6991SOL     OW21304   4.031   2.075   3.093
 6991SOL    HW121305   4.008   2.112   3.183
 6991SOL    HW221306   4.001   1.980   3.087
 6992SOL     OW21307   3.761   3.172   3.144
 6992SOL    HW121308   3.814   3.123   3.212
 6992SOL    HW221309   3.783   3.270   3.149
 6993SOL     OW21310   4.456   2.496   2.926
 6993SOL    HW121311   4.515   2.470   2.850
 6993SOL    HW221312   4.428   2.592   2.915
 6994SOL     OW21313   4.031   1.925   2.480
 6994SOL    HW121314   4.020   2.019   2.513
 6994SOL    HW221315   4.026   1.862   2.557
 6995SOL     OW21316   4.747   2.628   2.828
 6995SOL    HW121317   4.762   2.649   2.924
 6995SOL    HW221318   4.717   2.533   2.819
 6996SOL     OW21319   4.704   3.435   3.562
 6996SOL    HW121320   4.684   3.479   3.474
 6996SOL    HW221321   4.743   3.344   3.546
 6997SOL     OW21322   4.074   2.760   3.666
 6997SOL    HW121323   4.150   2.804   3.714
 6997SOL    HW221324   4.109   2.713   3.584
 6998SOL     OW21325   4.043   2.672   2.811
 6998SOL    HW121326   4.136   2.708   2.816
 6998SOL    HW221327   4.037   2.587   2.863
 6999SOL     OW21328   4.063   2.371   2.868
 6999SOL    HW121329   4.011   2.288   2.851
 6999SOL    HW221330   4.140   2.376   2.804
 7000SOL     OW21331   3.732   3.188   2.062
 7000SOL    HW121332   3.639   3.209   2.031
 7000SOL    HW221333   3.742   3.089   2.075
 7001SOL     OW21334   3.812   3.663   2.789
 7001SOL    HW121335   3.770   3.577   2.762
 7001SOL    HW221336   3.906   3.666   2.755
 7002SOL     OW21337   4.228   3.430   2.772
 7002SOL    HW121338   4.294   3.504   2.781
 7002SOL    HW221339   4.272   3.351   2.730
 7003SOL     OW21340   4.726   2.658   3.100
 7003SOL    HW121341   4.767   2.626   3.186
 7003SOL    HW221342   4.630   2.631   3.097
 7004SOL     OW21343   3.764   2.406   2.976
 7004SOL    HW121344   3.849   2.373   2.935
 7004SOL    HW221345   3.777   2.421   3.074
 7005SOL     OW21346   3.913   2.382   3.584
 7005SOL    HW121347   3.972   2.342   3.514
 7005SOL    HW221348   3.855   2.453   3.543
 7006SOL     OW21349   4.539   2.434   2.187
 7006SOL    HW121350   4.546   2.345   2.141
 7006SOL    HW221351   4.445   2.468   2.179
 7007SOL     OW21352   3.976   3.426   3.606
 7007SOL    HW121353   3.946   3.483   3.682
 7007SOL    HW221354   3.969   3.329   3.632
 7008SOL     OW21355   4.395   2.326   3.131
 7008SOL    HW121356   4.361   2.237   3.101
 7008SOL    HW221357   4.421   2.380   3.051
 7009SOL     OW21358   4.654   3.540   3.327
 7009SOL    HW121359   4.630   3.522   3.232
 7009SOL    HW221360   4.684   3.634   3.337
 7010SOL     OW21361   4.197   2.362   2.053
 7010SOL    HW121362   4.258   2.442   2.057
 7010SOL    HW221363   4.102   2.393   2.060
 7011SOL     OW21364   3.883   2.999   3.328
 7011SOL    HW121365   3.905   2.938   3.404
 7011SOL    HW221366   3.893   2.950   3.242
 7012SOL     OW21367   3.807   3.120   2.884
 7012SOL    HW121368   3.802   3.119   2.984
 7012SOL    HW221369   3.724   3.079   2.846
 7013SOL     OW21370   4.412   3.524   3.578
 7013SOL    HW121371   4.356   3.605   3.587
 7013SOL    HW221372   4.464   3.528   3.492
 7014SOL     OW21373   4.627   1.948   1.995
 7014SOL    HW121374   4.678   1.949   1.909
 7014SOL    HW221375   4.683   1.906   2.066
 7015SOL     OW21376   3.854   3.656   3.713
 7015SOL    HW121377   3.813   3.582   3.766
 7015SOL    HW221378   3.918   3.707   3.771
 7016SOL     OW21379   4.554   3.135   3.284
 7016SOL    HW121380   4.549   3.168   3.379
 7016SOL    HW221381   4.468   3.154   3.238
 7017SOL     OW21382   4.396   3.478   2.016
 7017SOL    HW121383   4.405   3.488   1.917
 7017SOL    HW221384   4.356   3.389   2.037
 7018SOL     OW21385   3.987   2.188   2.582
 7018SOL    HW121386   3.908   2.239   2.548
 7018SOL    HW221387   3.978   2.173   2.680
 7019SOL     OW21388   4.546   2.864   3.234
 7019SOL    HW121389   4.586   2.863   3.142
 7019SOL    HW221390   4.556   2.956   3.274
 7020SOL     OW21391   4.096   3.150   3.352
 7020SOL    HW121392   4.083   3.243   3.318
 7020SOL    HW221393   4.012   3.098   3.339
 7021SOL     OW21394   4.314   3.349   2.353
 7021SOL    HW121395   4.356   3.291   2.283
 7021SOL    HW221396   4.270   3.428   2.309
 7022SOL     OW21397   3.979   3.210   2.152
 7022SOL    HW121398   3.883   3.211   2.125
 7022SOL    HW221399   3.991   3.263   2.236
 7023SOL     OW21400   3.829   2.875   3.588
 7023SOL    HW121401   3.752   2.842   3.642
 7023SOL    HW221402   3.914   2.845   3.630
 7024SOL     OW21403   4.396   2.065   3.351
 7024SOL    HW121404   4.486   2.049   3.311
 7024SOL    HW221405   4.404   2.070   3.450
 7025SOL     OW21406   3.799   2.207   1.895
 7025SOL    HW121407   3.707   2.179   1.866
 7025SOL    HW221408   3.830   2.284   1.839
 7026SOL     OW21409   3.796   2.028   2.180
 7026SOL    HW121410   3.779   2.111   2.126
 7026SOL    HW221411   3.886   1.991   2.158
 7027SOL     OW21412   4.337   2.704   3.293
 7027SOL    HW121413   4.393   2.785   3.276
 7027SOL    HW221414   4.396   2.624   3.296
 7028SOL     OW21415   4.440   2.427   3.570
 7028SOL    HW121416   4.459   2.492   3.644
 7028SOL    HW221417   4.500   2.347   3.579
 7029SOL     OW21418   4.114   3.603   3.422
 7029SOL    HW121419   4.023   3.644   3.420
 7029SOL    HW221420   4.107   3.509   3.454
 7030SOL     OW21421   4.949   2.187   2.311
 7030SOL    HW121422   5.014   2.113   2.300
 7030SOL    HW221423   4.969   2.237   2.395
 7031SOL     OW21424   4.318   2.607   2.514
 7031SOL    HW121425   4.368   2.692   2.495
 7031SOL    HW221426   4.230   2.609   2.466
 7032SOL     OW21427   4.583   3.236   1.878
 7032SOL    HW121428   4.537   3.251   1.966
 7032SOL    HW221429   4.627   3.321   1.848
 7033SOL     OW21430   4.385   3.652   2.815
 7033SOL    HW121431   4.339   3.740   2.802
 7033SOL    HW221432   4.484   3.664   2.808
 7034SOL     OW21433   4.583   2.818   2.723
 7034SOL    HW121434   4.637   2.749   2.771
 7034SOL    HW221435   4.551   2.887   2.789
 7035SOL     OW21436   3.945   3.176   3.706
 7035SOL    HW121437   3.880   3.103   3.685
 7035SOL    HW221438   3.949   3.190   3.804
 7036SOL     OW21439   3.803   3.102   2.515
 7036SOL    HW121440   3.802   3.055   2.603
 7036SOL    HW221441   3.885   3.074   2.464
 7037SOL     OW21442   4.396   3.253   3.486
 7037SOL    HW121443   4.318   3.203   3.524
 7037SOL    HW221444   4.393   3.348   3.517
 7038SOL     OW21445   4.152   2.286   2.382
 7038SOL    HW121446   4.182   2.214   2.320
 7038SOL    HW221447   4.113   2.246   2.465
 7039SOL     OW21448   4.041   2.409   3.142
 7039SOL    HW121449   4.079   2.350   3.214
 7039SOL    HW221450   4.081   2.383   3.054
 7040SOL     OW21451   4.536   3.448   2.549
 7040SOL    HW121452   4.568   3.458   2.455
 7040SOL    HW221453   4.457   3.386   2.551
 7041SOL     OW21454   4.725   1.896   3.016
 7041SOL    HW121455   4.662   1.824   2.985
 7041SOL    HW221456   4.818   1.860   3.016
 7042SOL     OW21457   4.494   3.192   2.163
 7042SOL    HW121458   4.448   3.105   2.180
 7042SOL    HW221459   4.585   3.189   2.204
 7043SOL     OW21460   4.342   3.429   3.146
 7043SOL    HW121461   4.337   3.511   3.203
 7043SOL    HW221462   4.431   3.426   3.101
 7044SOL     OW21463   3.763   2.939   2.162
 7044SOL    HW121464   3.862   2.928   2.153
 7044SOL    HW221465   3.723   2.853   2.194
 7045SOL     OW21466   4.599   3.508   2.199
 7045SOL    HW121467   4.522   3.473   2.145
 7045SOL    HW221468   4.567   3.579   2.261
 7046SOL     OW21469   3.954   2.490   3.837
 7046SOL    HW121470   3.861   2.488   3.874
 7046SOL    HW221471   3.955   2.451   3.745
 7047SOL     OW21472   3.949   2.137   4.720
 7047SOL    HW121473   3.984   2.120   4.812
 7047SOL    HW221474   3.861   2.092   4.708
 7048SOL     OW21475   3.743   2.230   4.371
 7048SOL    HW121476   3.661   2.273   4.410
 7048SOL    HW221477   3.715   2.157   4.308
 7049SOL     OW21478   4.293   3.137   4.889
 7049SOL    HW121479   4.200   3.130   4.852
 7049SOL    HW221480   4.304   3.226   4.933
 7050SOL     OW21481   4.492   3.006   4.747
 7050SOL    HW121482   4.414   3.023   4.807
 7050SOL    HW221483   4.526   3.093   4.711
 7051SOL     OW21484   4.574   2.660   5.547
 7051SOL    HW121485   4.570   2.736   5.612
 7051SOL    HW221486   4.596   2.696   5.456
 7052SOL     OW21487   4.409   2.874   4.389
 7052SOL    HW121488   4.478   2.858   4.459
 7052SOL    HW221489   4.336   2.931   4.427
 7053SOL     OW21490   4.410   3.023   5.527
 7053SOL    HW121491   4.470   3.102   5.541
 7053SOL    HW221492   4.324   3.054   5.486
 7054SOL     OW21493   4.059   3.297   4.785
 7054SOL    HW121494   3.981   3.266   4.732
 7054SOL    HW221495   4.117   3.355   4.728
 7055SOL     OW21496   4.162   2.254   5.223
 7055SOL    HW121497   4.244   2.198   5.232
 7055SOL    HW221498   4.081   2.196   5.227
 7056SOL     OW21499   3.955   3.575   4.207
 7056SOL    HW121500   3.989   3.652   4.261
 7056SOL    HW221501   3.999   3.575   4.117
 7057SOL     OW21502   3.954   3.296   4.262
 7057SOL    HW121503   3.928   3.392   4.262
 7057SOL    HW221504   3.883   3.242   4.307
 7058SOL     OW21505   3.964   2.953   4.610
 7058SOL    HW121506   3.978   2.869   4.662
 7058SOL    HW221507   3.909   3.017   4.665
 7059SOL     OW21508   4.344   3.648   5.163
 7059SOL    HW121509   4.252   3.631   5.198
 7059SOL    HW221510   4.372   3.740   5.189
 7060SOL     OW21511   4.330   2.826   3.847
 7060SOL    HW121512   4.337   2.910   3.793
 7060SOL    HW221513   4.376   2.839   3.935
 7061SOL     OW21514   3.846   2.505   4.287
 7061SOL    HW121515   3.801   2.417   4.304
 7061SOL    HW221516   3.845   2.559   4.371
 7062SOL     OW21517   3.751   3.458   3.841
 7062SOL    HW121518   3.732   3.362   3.862
 7062SOL    HW221519   3.718   3.516   3.916
 7063SOL     OW21520   3.837   2.599   5.321
 7063SOL    HW121521   3.925   2.586   5.366
 7063SOL    HW221522   3.824   2.696   5.299
 7064SOL     OW21523   4.337   3.227   4.450
 7064SOL    HW121524   4.288   3.140   4.459
 7064SOL    HW221525   4.314   3.270   4.363
 7065SOL     OW21526   4.533   1.866   4.226
 7065SOL    HW121527   4.573   1.957   4.217
 7065SOL    HW221528   4.433   1.874   4.232
 7066SOL     OW21529   3.921   2.838   4.988
 7066SOL    HW121530   4.010   2.793   4.974
 7066SOL    HW221531   3.848   2.773   4.969
 7067SOL     OW21532   4.041   2.113   5.525
 7067SOL    HW121533   4.112   2.184   5.531
 7067SOL    HW221534   3.953   2.152   5.553
 7068SOL     OW21535   4.322   2.591   3.994
 7068SOL    HW121536   4.346   2.660   3.926
 7068SOL    HW221537   4.244   2.624   4.048
 7069SOL     OW21538   4.531   2.467   5.189
 7069SOL    HW121539   4.484   2.464   5.278
 7069SOL    HW221540   4.480   2.412   5.123
 7070SOL     OW21541   4.715   2.272   4.966
 7070SOL    HW121542   4.638   2.306   5.020
 7070SOL    HW221543   4.681   2.221   4.887
 7071SOL     OW21544   3.800   2.673   4.513
 7071SOL    HW121545   3.899   2.661   4.522
 7071SOL    HW221546   3.776   2.768   4.534
 7072SOL     OW21547   3.854   3.683   5.295
 7072SOL    HW121548   3.844   3.668   5.394
 7072SOL    HW221549   3.768   3.719   5.259
 7073SOL     OW21550   4.589   2.210   3.919
 7073SOL    HW121551   4.648   2.273   3.870
 7073SOL    HW221552   4.608   2.116   3.890
 7074SOL     OW21553   4.274   2.058   4.609
 7074SOL    HW121554   4.269   2.053   4.709
 7074SOL    HW221555   4.276   2.154   4.580
 7075SOL     OW21556   4.732   3.318   4.201
 7075SOL    HW121557   4.686   3.390   4.149
 7075SOL    HW221558   4.728   3.338   4.299
 7076SOL     OW21559   4.075   3.663   4.577
 7076SOL    HW121560   4.125   3.577   4.583
 7076SOL    HW221561   4.140   3.740   4.574
 7077SOL     OW21562   4.045   2.805   3.966
 7077SOL    HW121563   4.127   2.844   3.924
 7077SOL    HW221564   4.018   2.723   3.917
 7078SOL     OW21565   4.185   3.128   5.451
 7078SOL    HW121566   4.135   3.129   5.365
 7078SOL    HW221567   4.122   3.110   5.527
 7079SOL     OW21568   3.926   2.147   5.222
 7079SOL    HW121569   3.846   2.207   5.209
 7079SOL    HW221570   3.916   2.098   5.308
 7080SOL     OW21571   4.188   3.605   4.047
 7080SOL    HW121572   4.221   3.644   4.133
 7080SOL    HW221573   4.264   3.598   3.982
 7081SOL     OW21574   3.973   3.647   4.965
 7081SOL    HW121575   4.030   3.582   5.015
 7081SOL    HW221576   3.957   3.614   4.872
 7082SOL     OW21577   4.106   2.562   4.204
 7082SOL    HW121578   4.151   2.472   4.201
 7082SOL    HW221579   4.012   2.551   4.237
 7083SOL     OW21580   4.338   1.984   3.841
 7083SOL    HW121581   4.436   1.962   3.848
 7083SOL    HW221582   4.307   1.967   3.748
 7084SOL     OW21583   4.505   2.126   5.473
 7084SOL    HW121584   4.572   2.065   5.516
 7084SOL    HW221585   4.432   2.145   5.538
 7085SOL     OW21586   4.612   3.376   4.919
 7085SOL    HW121587   4.589   3.351   4.825
 7085SOL    HW221588   4.673   3.307   4.958
 7086SOL     OW21589   4.527   3.264   4.648
 7086SOL    HW121590   4.617   3.278   4.606
 7086SOL    HW221591   4.456   3.266   4.577
 7087SOL     OW21592   4.646   2.365   4.623
 7087SOL    HW121593   4.621   2.356   4.527
 7087SOL    HW221594   4.694   2.283   4.654
 7088SOL     OW21595   4.263   1.926   4.236
 7088SOL    HW121596   4.182   1.927   4.294
 7088SOL    HW221597   4.266   2.009   4.181
 7089SOL     OW21598   4.021   1.897   3.895
 7089SOL    HW121599   4.070   1.981   3.874
 7089SOL    HW221600   4.083   1.832   3.940
 7090SOL     OW21601   4.951   3.432   4.517
 7090SOL    HW121602   4.972   3.506   4.452
 7090SOL    HW221603   5.019   3.432   4.590
 7091SOL     OW21604   4.183   3.014   4.465
 7091SOL    HW121605   4.112   2.987   4.530
 7091SOL    HW221606   4.157   2.986   4.372
 7092SOL     OW21607   3.802   2.418   5.110
 7092SOL    HW121608   3.894   2.417   5.069
 7092SOL    HW221609   3.796   2.492   5.177
 7093SOL     OW21610   4.285   2.084   4.871
 7093SOL    HW121611   4.323   2.000   4.908
 7093SOL    HW221612   4.197   2.103   4.915
 7094SOL     OW21613   4.741   1.901   4.477
 7094SOL    HW121614   4.669   1.906   4.408
 7094SOL    HW221615   4.717   1.832   4.546
 7095SOL     OW21616   4.212   3.247   3.898
 7095SOL    HW121617   4.125   3.232   3.945
 7095SOL    HW221618   4.195   3.273   3.803
 7096SOL     OW21619   4.251   2.118   4.052
 7096SOL    HW121620   4.278   2.059   3.977
 7096SOL    HW221621   4.251   2.213   4.021
 7097SOL     OW21622   4.639   1.951   5.126
 7097SOL    HW121623   4.664   1.931   5.031
 7097SOL    HW221624   4.711   2.007   5.168
 7098SOL     OW21625   4.429   2.912   4.092
 7098SOL    HW121626   4.415   2.919   4.191
 7098SOL    HW221627   4.513   2.861   4.074
 7099SOL     OW21628   4.134   2.675   4.975
 7099SOL    HW121629   4.220   2.687   5.025
 7099SOL    HW221630   4.092   2.588   5.002
 7100SOL     OW21631   3.788   3.426   5.055
 7100SOL    HW121632   3.742   3.508   5.021
 7100SOL    HW221633   3.886   3.445   5.064
 7101SOL     OW21634   4.091   2.962   4.225
 7101SOL    HW121635   4.084   3.045   4.169
 7101SOL    HW221636   4.095   2.882   4.165
 7102SOL     OW21637   4.290   2.399   4.589
 7102SOL    HW121638   4.302   2.465   4.515
 7102SOL    HW221639   4.336   2.433   4.672
 7103SOL     OW21640   4.078   3.372   5.053
 7103SOL    HW121641   4.057   3.328   4.966
 7103SOL    HW221642   4.175   3.398   5.056
 7104SOL     OW21643   4.126   2.613   5.322
 7104SOL    HW121644   4.194   2.668   5.275
 7104SOL    HW221645   4.166   2.525   5.349
 7105SOL     OW21646   4.228   1.912   5.464
 7105SOL    HW121647   4.186   1.855   5.394
 7105SOL    HW221648   4.162   1.981   5.496
 7106SOL     OW21649   4.297   2.732   4.753
 7106SOL    HW121650   4.341   2.821   4.744
 7106SOL    HW221651   4.234   2.732   4.830
 7107SOL     OW21652   4.933   2.387   3.999
 7107SOL    HW121653   4.946   2.303   4.053
 7107SOL    HW221654   4.904   2.461   4.059
 7108SOL     OW21655   4.031   2.075   4.955
 7108SOL    HW121656   4.008   2.112   5.045
 7108SOL    HW221657   4.001   1.980   4.949
 7109SOL     OW21658   3.761   3.172   5.006
 7109SOL    HW121659   3.814   3.123   5.074
 7109SOL    HW221660   3.783   3.270   5.011
 7110SOL     OW21661   4.456   2.496   4.788
 7110SOL    HW121662   4.515   2.470   4.712
 7110SOL    HW221663   4.428   2.592   4.777
 7111SOL     OW21664   4.031   1.925   4.342
 7111SOL    HW121665   4.020   2.019   4.375
 7111SOL    HW221666   4.026   1.862   4.419
 7112SOL     OW21667   4.747   2.628   4.690
 7112SOL    HW121668   4.762   2.649   4.786
 7112SOL    HW221669   4.717   2.533   4.681
 7113SOL     OW21670   4.704   3.435   5.424
 7113SOL    HW121671   4.684   3.479   5.336
 7113SOL    HW221672   4.743   3.344   5.408
 7114SOL     OW21673   4.074   2.760   5.528
 7114SOL    HW121674   4.150   2.804   5.576
 7114SOL    HW221675   4.109   2.713   5.446
 7115SOL     OW21676   4.043   2.672   4.673
 7115SOL    HW121677   4.136   2.708   4.678
 7115SOL    HW221678   4.037   2.587   4.725
 7116SOL     OW21679   4.063   2.371   4.730
 7116SOL    HW121680   4.011   2.288   4.713
 7116SOL    HW221681   4.140   2.376   4.666
 7117SOL     OW21682   3.732   3.188   3.924
 7117SOL    HW121683   3.639   3.209   3.893
 7117SOL    HW221684   3.742   3.089   3.937
 7118SOL     OW21685   3.812   3.663   4.651
 7118SOL    HW121686   3.770   3.577   4.624
 7118SOL    HW221687   3.906   3.666   4.617
 7119SOL     OW21688   4.228   3.430   4.634
 7119SOL    HW121689   4.294   3.504   4.643
 7119SOL    HW221690   4.272   3.351   4.592
 7120SOL     OW21691   4.726   2.658   4.962
 7120SOL    HW121692   4.767   2.626   5.048
 7120SOL    HW221693   4.630   2.631   4.959
 7121SOL     OW21694   3.764   2.406   4.838
 7121SOL    HW121695   3.849   2.373   4.797
 7121SOL    HW221696   3.777   2.421   4.936
 7122SOL     OW21697   3.913   2.382   5.446
 7122SOL    HW121698   3.972   2.342   5.376
 7122SOL    HW221699   3.855   2.453   5.405
 7123SOL     OW21700   4.539   2.434   4.049
 7123SOL    HW121701   4.546   2.345   4.003
 7123SOL    HW221702   4.445   2.468   4.041
 7124SOL     OW21703   3.976   3.426   5.468
 7124SOL    HW121704   3.946   3.483   5.544
 7124SOL    HW221705   3.969   3.329   5.494
 7125SOL     OW21706   4.395   2.326   4.993
 7125SOL    HW121707   4.361   2.237   4.963
 7125SOL    HW221708   4.421   2.380   4.913
 7126SOL     OW21709   4.654   3.540   5.189
 7126SOL    HW121710   4.630   3.522   5.094
 7126SOL    HW221711   4.684   3.634   5.199
 7127SOL     OW21712   4.197   2.362   3.915
 7127SOL    HW121713   4.258   2.442   3.919
 7127SOL    HW221714   4.102   2.393   3.922
 7128SOL     OW21715   3.883   2.999   5.190
 7128SOL    HW121716   3.905   2.938   5.266
 7128SOL    HW221717   3.893   2.950   5.104
 7129SOL     OW21718   3.807   3.120   4.746
 7129SOL    HW121719   3.802   3.119   4.846
 7129SOL    HW221720   3.724   3.079   4.708
 7130SOL     OW21721   4.412   3.524   5.440
 7130SOL    HW121722   4.356   3.605   5.449
 7130SOL    HW221723   4.464   3.528   5.354
 7131SOL     OW21724   4.627   1.948   3.857
 7131SOL    HW121725   4.678   1.949   3.771
 7131SOL    HW221726   4.683   1.906   3.928
 7132SOL     OW21727   3.854   3.656   5.575
 7132SOL    HW121728   3.813   3.582   5.628
 7132SOL    HW221729   3.918   3.707   5.633
 7133SOL     OW21730   4.554   3.135   5.146
 7133SOL    HW121731   4.549   3.168   5.241
 7133SOL    HW221732   4.468   3.154   5.100
 7134SOL     OW21733   4.396   3.478   3.878
 7134SOL    HW121734   4.405   3.488   3.779
 7134SOL    HW221735   4.356   3.389   3.899
 7135SOL     OW21736   3.987   2.188   4.444
 7135SOL    HW121737   3.908   2.239   4.410
 7135SOL    HW221738   3.978   2.173   4.542
 7136SOL     OW21739   4.546   2.864   5.096
 7136SOL    HW121740   4.586   2.863   5.004
 7136SOL    HW221741   4.556   2.956   5.136
 7137SOL     OW21742   4.096   3.150   5.214
 7137SOL    HW121743   4.083   3.243   5.180
 7137SOL    HW221744   4.012   3.098   5.201
 7138SOL     OW21745   4.314   3.349   4.215
 7138SOL    HW121746   4.356   3.291   4.145
 7138SOL    HW221747   4.270   3.428   4.171
 7139SOL     OW21748   3.979   3.210   4.014
 7139SOL    HW121749   3.883   3.211   3.987
 7139SOL    HW221750   3.991   3.263   4.098
 7140SOL     OW21751   3.829   2.875   5.450
 7140SOL    HW121752   3.752   2.842   5.504
 7140SOL    HW221753   3.914   2.845   5.492
 7141SOL     OW21754   4.396   2.065   5.213
 7141SOL    HW121755   4.486   2.049   5.173
 7141SOL    HW221756   4.404   2.070   5.312
 7142SOL     OW21757   3.799   2.207   3.757
 7142SOL    HW121758   3.707   2.179   3.728
 7142SOL    HW221759   3.830   2.284   3.701
 7143SOL     OW21760   3.796   2.028   4.042
 7143SOL    HW121761   3.779   2.111   3.988
 7143SOL    HW221762   3.886   1.991   4.020
 7144SOL     OW21763   4.337   2.704   5.155
 7144SOL    HW121764   4.393   2.785   5.138
 7144SOL    HW221765   4.396   2.624   5.158
 7145SOL     OW21766   4.440   2.427   5.432
 7145SOL    HW121767   4.459   2.492   5.506
 7145SOL    HW221768   4.500   2.347   5.441
 7146SOL     OW21769   4.114   3.603   5.284
 7146SOL    HW121770   4.023   3.644   5.282
 7146SOL    HW221771   4.107   3.509   5.316
 7147SOL     OW21772   4.949   2.187   4.173
 7147SOL    HW121773   5.014   2.113   4.162
 7147SOL    HW221774   4.969   2.237   4.257
 7148SOL     OW21775   4.318   2.607   4.376
 7148SOL    HW121776   4.368   2.692   4.357
 7148SOL    HW221777   4.230   2.609   4.328
 7149SOL     OW21778   4.583   3.236   3.740
 7149SOL    HW121779   4.537   3.251   3.828
 7149SOL    HW221780   4.627   3.321   3.710
 7150SOL     OW21781   4.385   3.652   4.677
 7150SOL    HW121782   4.339   3.740   4.664
 7150SOL    HW221783   4.484   3.664   4.670
 7151SOL     OW21784   4.583   2.818   4.585
 7151SOL    HW121785   4.637   2.749   4.633
 7151SOL    HW221786   4.551   2.887   4.651
 7152SOL     OW21787   3.945   3.176   5.568
 7152SOL    HW121788   3.880   3.103   5.547
 7152SOL    HW221789   3.949   3.190   5.666
 7153SOL     OW21790   3.803   3.102   4.377
 7153SOL    HW121791   3.802   3.055   4.465
 7153SOL    HW221792   3.885   3.074   4.326
 7154SOL     OW21793   4.396   3.253   5.348
 7154SOL    HW121794   4.318   3.203   5.386
 7154SOL    HW221795   4.393   3.348   5.379
 7155SOL     OW21796   4.152   2.286   4.244
 7155SOL    HW121797   4.182   2.214   4.182
 7155SOL    HW221798   4.113   2.246   4.327
 7156SOL     OW21799   4.041   2.409   5.004
 7156SOL    HW121800   4.079   2.350   5.076
 7156SOL    HW221801   4.081   2.383   4.916
 7157SOL     OW21802   4.536   3.448   4.411
 7157SOL    HW121803   4.568   3.458   4.317
 7157SOL    HW221804   4.457   3.386   4.413
 7158SOL     OW21805   4.725   1.896   4.878
 7158SOL    HW121806   4.662   1.824   4.847
 7158SOL    HW221807   4.818   1.860   4.878
 7159SOL     OW21808   4.494   3.192   4.025
 7159SOL    HW121809   4.448   3.105   4.042
 7159SOL    HW221810   4.585   3.189   4.066
 7160SOL     OW21811   4.342   3.429   5.008
 7160SOL    HW121812   4.337   3.511   5.065
 7160SOL    HW221813   4.431   3.426   4.963
 7161SOL     OW21814   3.763   2.939   4.024
 7161SOL    HW121815   3.862   2.928   4.015
 7161SOL    HW221816   3.723   2.853   4.056
 7162SOL     OW21817   4.599   3.508   4.061
 7162SOL    HW121818   4.522   3.473   4.007
 7162SOL    HW221819   4.567   3.579   4.123
 7163SOL     OW21820   3.954   2.490   5.699
 7163SOL    HW121821   3.861   2.488   5.736
 7163SOL    HW221822   3.955   2.451   5.607
 7164SOL     OW21823   3.949   2.137   6.582
 7164SOL    HW121824   3.984   2.120   6.674
 7164SOL    HW221825   3.861   2.092   6.570
 7165SOL     OW21826   3.743   2.230   6.233
 7165SOL    HW121827   3.661   2.273   6.272
 7165SOL    HW221828   3.715   2.157   6.170
 7166SOL     OW21829   4.293   3.137   6.751
 7166SOL    HW121830   4.200   3.130   6.714
 7166SOL    HW221831   4.304   3.226   6.795
 7167SOL     OW21832   4.492   3.006   6.609
 7167SOL    HW121833   4.414   3.023   6.669
 7167SOL    HW221834   4.526   3.093   6.573
 7168SOL     OW21835   4.574   2.660   7.409
 7168SOL    HW121836   4.570   2.736   7.474
 7168SOL    HW221837   4.596   2.696   7.318
 7169SOL     OW21838   4.409   2.874   6.251
 7169SOL    HW121839   4.478   2.858   6.321
 7169SOL    HW221840   4.336   2.931   6.289
 7170SOL     OW21841   4.410   3.023   7.389
 7170SOL    HW121842   4.470   3.102   7.403
 7170SOL    HW221843   4.324   3.054   7.348
 7171SOL     OW21844   4.059   3.297   6.647
 7171SOL    HW121845   3.981   3.266   6.594
 7171SOL    HW221846   4.117   3.355   6.590
 7172SOL     OW21847   4.162   2.254   7.085
 7172SOL    HW121848   4.244   2.198   7.094
 7172SOL    HW221849   4.081   2.196   7.089
 7173SOL     OW21850   3.955   3.575   6.069
 7173SOL    HW121851   3.989   3.652   6.123
 7173SOL    HW221852   3.999   3.575   5.979
 7174SOL     OW21853   3.954   3.296   6.124
 7174SOL    HW121854   3.928   3.392   6.124
 7174SOL    HW221855   3.883   3.242   6.169
 7175SOL     OW21856   3.964   2.953   6.472
 7175SOL    HW121857   3.978   2.869   6.524
 7175SOL    HW221858   3.909   3.017   6.527
 7176SOL     OW21859   4.344   3.648   7.025
 7176SOL    HW121860   4.252   3.631   7.060
 7176SOL    HW221861   4.372   3.740   7.051
 7177SOL     OW21862   4.330   2.826   5.709
 7177SOL    HW121863   4.337   2.910   5.655
 7177SOL    HW221864   4.376   2.839   5.797
 7178SOL     OW21865   3.846   2.505   6.149
 7178SOL    HW121866   3.801   2.417   6.166
 7178SOL    HW221867   3.845   2.559   6.233
 7179SOL     OW21868   3.751   3.458   5.703
 7179SOL    HW121869   3.732   3.362   5.724
 7179SOL    HW221870   3.718   3.516   5.778
 7180SOL     OW21871   3.837   2.599   7.183
 7180SOL    HW121872   3.925   2.586   7.228
 7180SOL    HW221873   3.824   2.696   7.161
 7181SOL     OW21874   4.337   3.227   6.312
 7181SOL    HW121875   4.288   3.140   6.321
 7181SOL    HW221876   4.314   3.270   6.225
 7182SOL     OW21877   4.533   1.866   6.088
 7182SOL    HW121878   4.573   1.957   6.079
 7182SOL    HW221879   4.433   1.874   6.094
 7183SOL     OW21880   3.921   2.838   6.850
 7183SOL    HW121881   4.010   2.793   6.836
 7183SOL    HW221882   3.848   2.773   6.831
 7184SOL     OW21883   4.041   2.113   7.387
 7184SOL    HW121884   4.112   2.184   7.393
 7184SOL    HW221885   3.953   2.152   7.415
 7185SOL     OW21886   4.322   2.591   5.856
 7185SOL    HW121887   4.346   2.660   5.788
 7185SOL    HW221888   4.244   2.624   5.910
 7186SOL     OW21889   4.531   2.467   7.051
 7186SOL    HW121890   4.484   2.464   7.140
 7186SOL    HW221891   4.480   2.412   6.985
 7187SOL     OW21892   4.715   2.272   6.828
 7187SOL    HW121893   4.638   2.306   6.882
 7187SOL    HW221894   4.681   2.221   6.749
 7188SOL     OW21895   3.800   2.673   6.375
 7188SOL    HW121896   3.899   2.661   6.384
 7188SOL    HW221897   3.776   2.768   6.396
 7189SOL     OW21898   3.854   3.683   7.157
 7189SOL    HW121899   3.844   3.668   7.256
 7189SOL    HW221900   3.768   3.719   7.121
 7190SOL     OW21901   4.589   2.210   5.781
 7190SOL    HW121902   4.648   2.273   5.732
 7190SOL    HW221903   4.608   2.116   5.752
 7191SOL     OW21904   4.274   2.058   6.471
 7191SOL    HW121905   4.269   2.053   6.571
 7191SOL    HW221906   4.276   2.154   6.442
 7192SOL     OW21907   4.732   3.318   6.063
 7192SOL    HW121908   4.686   3.390   6.011
 7192SOL    HW221909   4.728   3.338   6.161
 7193SOL     OW21910   4.075   3.663   6.439
 7193SOL    HW121911   4.125   3.577   6.445
 7193SOL    HW221912   4.140   3.740   6.436
 7194SOL     OW21913   4.045   2.805   5.828
 7194SOL    HW121914   4.127   2.844   5.786
 7194SOL    HW221915   4.018   2.723   5.779
 7195SOL     OW21916   4.185   3.128   7.313
 7195SOL    HW121917   4.135   3.129   7.227
 7195SOL    HW221918   4.122   3.110   7.389
 7196SOL     OW21919   3.926   2.147   7.084
 7196SOL    HW121920   3.846   2.207   7.071
 7196SOL    HW221921   3.916   2.098   7.170
 7197SOL     OW21922   4.188   3.605   5.909
 7197SOL    HW121923   4.221   3.644   5.995
 7197SOL    HW221924   4.264   3.598   5.844
 7198SOL     OW21925   3.973   3.647   6.827
 7198SOL    HW121926   4.030   3.582   6.877
 7198SOL    HW221927   3.957   3.614   6.734
 7199SOL     OW21928   4.106   2.562   6.066
 7199SOL    HW121929   4.151   2.472   6.063
 7199SOL    HW221930   4.012   2.551   6.099
 7200SOL     OW21931   4.338   1.984   5.703
 7200SOL    HW121932   4.436   1.962   5.710
 7200SOL    HW221933   4.307   1.967   5.610
 7201SOL     OW21934   4.505   2.126   7.335
 7201SOL    HW121935   4.572   2.065   7.378
 7201SOL    HW221936   4.432   2.145   7.400
 7202SOL     OW21937   4.612   3.376   6.781
 7202SOL    HW121938   4.589   3.351   6.687
 7202SOL    HW221939   4.673   3.307   6.820
 7203SOL     OW21940   4.527   3.264   6.510
 7203SOL    HW121941   4.617   3.278   6.468
 7203SOL    HW221942   4.456   3.266   6.439
 7204SOL     OW21943   4.646   2.365   6.485
 7204SOL    HW121944   4.621   2.356   6.389
 7204SOL    HW221945   4.694   2.283   6.516
 7205SOL     OW21946   4.263   1.926   6.098
 7205SOL    HW121947   4.182   1.927   6.156
 7205SOL    HW221948   4.266   2.009   6.043
 7206SOL     OW21949   4.021   1.897   5.757
 7206SOL    HW121950   4.070   1.981   5.736
 7206SOL    HW221951   4.083   1.832   5.802
 7207SOL     OW21952   4.951   3.432   6.379
 7207SOL    HW121953   4.972   3.506   6.314
 7207SOL    HW221954   5.019   3.432   6.452
 7208SOL     OW21955   4.183   3.014   6.327
 7208SOL    HW121956   4.112   2.987   6.392
 7208SOL    HW221957   4.157   2.986   6.234
 7209SOL     OW21958   3.802   2.418   6.972
 7209SOL    HW121959   3.894   2.417   6.931
 7209SOL    HW221960   3.796   2.492   7.039
 7210SOL     OW21961   4.285   2.084   6.733
 7210SOL    HW121962   4.323   2.000   6.770
 7210SOL    HW221963   4.197   2.103   6.777
 7211SOL     OW21964   4.741   1.901   6.339
 7211SOL    HW121965   4.669   1.906   6.270
 7211SOL    HW221966   4.717   1.832   6.408
 7212SOL     OW21967   4.212   3.247   5.760
 7212SOL    HW121968   4.125   3.232   5.807
 7212SOL    HW221969   4.195   3.273   5.665
 7213SOL     OW21970   4.251   2.118   5.914
 7213SOL    HW121971   4.278   2.059   5.839
 7213SOL    HW221972   4.251   2.213   5.883
 7214SOL     OW21973   4.639   1.951   6.988
 7214SOL    HW121974   4.664   1.931   6.893
 7214SOL    HW221975   4.711   2.007   7.030
 7215SOL     OW21976   4.429   2.912   5.954
 7215SOL    HW121977   4.415   2.919   6.053
 7215SOL    HW221978   4.513   2.861   5.936
 7216SOL     OW21979   4.134   2.675   6.837
 7216SOL    HW121980   4.220   2.687   6.887
 7216SOL    HW221981   4.092   2.588   6.864
 7217SOL     OW21982   3.788   3.426   6.917
 7217SOL    HW121983   3.742   3.508   6.883
 7217SOL    HW221984   3.886   3.445   6.926
 7218SOL     OW21985   4.091   2.962   6.087
 7218SOL    HW121986   4.084   3.045   6.031
 7218SOL    HW221987   4.095   2.882   6.027
 7219SOL     OW21988   4.290   2.399   6.451
 7219SOL    HW121989   4.302   2.465   6.377
 7219SOL    HW221990   4.336   2.433   6.534
 7220SOL     OW21991   4.078   3.372   6.915
 7220SOL    HW121992   4.057   3.328   6.828
 7220SOL    HW221993   4.175   3.398   6.918
 7221SOL     OW21994   4.126   2.613   7.184
 7221SOL    HW121995   4.194   2.668   7.137
 7221SOL    HW221996   4.166   2.525   7.211
 7222SOL     OW21997   4.228   1.912   7.326
 7222SOL    HW121998   4.186   1.855   7.256
 7222SOL    HW221999   4.162   1.981   7.358
 7223SOL     OW22000   4.297   2.732   6.615
 7223SOL    HW122001   4.341   2.821   6.606
 7223SOL    HW222002   4.234   2.732   6.692
 7224SOL     OW22003   4.933   2.387   5.861
 7224SOL    HW122004   4.946   2.303   5.915
 7224SOL    HW222005   4.904   2.461   5.921
 7225SOL     OW22006   4.031   2.075   6.817
 7225SOL    HW122007   4.008   2.112   6.907
 7225SOL    HW222008   4.001   1.980   6.811
 7226SOL     OW22009   3.761   3.172   6.868
 7226SOL    HW122010   3.814   3.123   6.936
 7226SOL    HW222011   3.783   3.270   6.873
 7227SOL     OW22012   4.456   2.496   6.650
 7227SOL    HW122013   4.515   2.470   6.574
 7227SOL    HW222014   4.428   2.592   6.639
 7228SOL     OW22015   4.031   1.925   6.204
 7228SOL    HW122016   4.020   2.019   6.237
 7228SOL    HW222017   4.026   1.862   6.281
 7229SOL     OW22018   4.747   2.628   6.552
 7229SOL    HW122019   4.762   2.649   6.648
 7229SOL    HW222020   4.717   2.533   6.543
 7230SOL     OW22021   4.704   3.435   7.286
 7230SOL    HW122022   4.684   3.479   7.198
 7230SOL    HW222023   4.743   3.344   7.270
 7231SOL     OW22024   4.074   2.760   7.390
 7231SOL    HW122025   4.150   2.804   7.438
 7231SOL    HW222026   4.109   2.713   7.308
 7232SOL     OW22027   4.043   2.672   6.535
 7232SOL    HW122028   4.136   2.708   6.540
 7232SOL    HW222029   4.037   2.587   6.587
 7233SOL     OW22030   4.063   2.371   6.592
 7233SOL    HW122031   4.011   2.288   6.575
 7233SOL    HW222032   4.140   2.376   6.528
 7234SOL     OW22033   3.732   3.188   5.786
 7234SOL    HW122034   3.639   3.209   5.755
 7234SOL    HW222035   3.742   3.089   5.799
 7235SOL     OW22036   3.812   3.663   6.513
 7235SOL    HW122037   3.770   3.577   6.486
 7235SOL    HW222038   3.906   3.666   6.479
 7236SOL     OW22039   4.228   3.430   6.496
 7236SOL    HW122040   4.294   3.504   6.505
 7236SOL    HW222041   4.272   3.351   6.454
 7237SOL     OW22042   4.726   2.658   6.824
 7237SOL    HW122043   4.767   2.626   6.910
 7237SOL    HW222044   4.630   2.631   6.821
 7238SOL     OW22045   3.764   2.406   6.700
 7238SOL    HW122046   3.849   2.373   6.659
 7238SOL    HW222047   3.777   2.421   6.798
 7239SOL     OW22048   3.913   2.382   7.308
 7239SOL    HW122049   3.972   2.342   7.238
 7239SOL    HW222050   3.855   2.453   7.267
 7240SOL     OW22051   4.539   2.434   5.911
 7240SOL    HW122052   4.546   2.345   5.865
 7240SOL    HW222053   4.445   2.468   5.903
 7241SOL     OW22054   3.976   3.426   7.330
 7241SOL    HW122055   3.946   3.483   7.406
 7241SOL    HW222056   3.969   3.329   7.356
 7242SOL     OW22057   4.395   2.326   6.855
 7242SOL    HW122058   4.361   2.237   6.825
 7242SOL    HW222059   4.421   2.380   6.775
 7243SOL     OW22060   4.654   3.540   7.051
 7243SOL    HW122061   4.630   3.522   6.956
 7243SOL    HW222062   4.684   3.634   7.061
 7244SOL     OW22063   4.197   2.362   5.777
 7244SOL    HW122064   4.258   2.442   5.781
 7244SOL    HW222065   4.102   2.393   5.784
 7245SOL     OW22066   3.883   2.999   7.052
 7245SOL    HW122067   3.905   2.938   7.128
 7245SOL    HW222068   3.893   2.950   6.966
 7246SOL     OW22069   3.807   3.120   6.608
 7246SOL    HW122070   3.802   3.119   6.708
 7246SOL    HW222071   3.724   3.079   6.570
 7247SOL     OW22072   4.412   3.524   7.302
 7247SOL    HW122073   4.356   3.605   7.311
 7247SOL    HW222074   4.464   3.528   7.216
 7248SOL     OW22075   4.627   1.948   5.719
 7248SOL    HW122076   4.678   1.949   5.633
 7248SOL    HW222077   4.683   1.906   5.790
 7249SOL     OW22078   3.854   3.656   7.437
 7249SOL    HW122079   3.813   3.582   7.490
 7249SOL    HW222080   3.918   3.707   7.495
 7250SOL     OW22081   4.554   3.135   7.008
 7250SOL    HW122082   4.549   3.168   7.103
 7250SOL    HW222083   4.468   3.154   6.962
 7251SOL     OW22084   4.396   3.478   5.740
 7251SOL    HW122085   4.405   3.488   5.641
 7251SOL    HW222086   4.356   3.389   5.761
 7252SOL     OW22087   3.987   2.188   6.306
 7252SOL    HW122088   3.908   2.239   6.272
 7252SOL    HW222089   3.978   2.173   6.404
 7253SOL     OW22090   4.546   2.864   6.958
 7253SOL    HW122091   4.586   2.863   6.866
 7253SOL    HW222092   4.556   2.956   6.998
 7254SOL     OW22093   4.096   3.150   7.076
 7254SOL    HW122094   4.083   3.243   7.042
 7254SOL    HW222095   4.012   3.098   7.063
 7255SOL     OW22096   4.314   3.349   6.077
 7255SOL    HW122097   4.356   3.291   6.007
 7255SOL    HW222098   4.270   3.428   6.033
 7256SOL     OW22099   3.979   3.210   5.876
 7256SOL    HW122100   3.883   3.211   5.849
 7256SOL    HW222101   3.991   3.263   5.960
 7257SOL     OW22102   3.829   2.875   7.312
 7257SOL    HW122103   3.752   2.842   7.366
 7257SOL    HW222104   3.914   2.845   7.354
 7258SOL     OW22105   4.396   2.065   7.075
 7258SOL    HW122106   4.486   2.049   7.035
 7258SOL    HW222107   4.404   2.070   7.174
 7259SOL     OW22108   3.799   2.207   5.619
 7259SOL    HW122109   3.707   2.179   5.590
 7259SOL    HW222110   3.830   2.284   5.563
 7260SOL     OW22111   3.796   2.028   5.904
 7260SOL    HW122112   3.779   2.111   5.850
 7260SOL    HW222113   3.886   1.991   5.882
 7261SOL     OW22114   4.337   2.704   7.017
 7261SOL    HW122115   4.393   2.785   7.000
 7261SOL    HW222116   4.396   2.624   7.020
 7262SOL     OW22117   4.440   2.427   7.294
 7262SOL    HW122118   4.459   2.492   7.368
 7262SOL    HW222119   4.500   2.347   7.303
 7263SOL     OW22120   4.114   3.603   7.146
 7263SOL    HW122121   4.023   3.644   7.144
 7263SOL    HW222122   4.107   3.509   7.178
 7264SOL     OW22123   4.949   2.187   6.035
 7264SOL    HW122124   5.014   2.113   6.024
 7264SOL    HW222125   4.969   2.237   6.119
 7265SOL     OW22126   4.318   2.607   6.238
 7265SOL    HW122127   4.368   2.692   6.219
 7265SOL    HW222128   4.230   2.609   6.190
 7266SOL     OW22129   4.583   3.236   5.602
 7266SOL    HW122130   4.537   3.251   5.690
 7266SOL    HW222131   4.627   3.321   5.572
 7267SOL     OW22132   4.385   3.652   6.539
 7267SOL    HW122133   4.339   3.740   6.526
 7267SOL    HW222134   4.484   3.664   6.532
 7268SOL     OW22135   4.583   2.818   6.447
 7268SOL    HW122136   4.637   2.749   6.495
 7268SOL    HW222137   4.551   2.887   6.513
 7269SOL     OW22138   3.945   3.176   7.430
 7269SOL    HW122139   3.880   3.103   7.409
 7269SOL    HW222140   3.949   3.190   7.528
 7270SOL     OW22141   3.803   3.102   6.239
 7270SOL    HW122142   3.802   3.055   6.327
 7270SOL    HW222143   3.885   3.074   6.188
 7271SOL     OW22144   4.396   3.253   7.210
 7271SOL    HW122145   4.318   3.203   7.248
 7271SOL    HW222146   4.393   3.348   7.241
 7272SOL     OW22147   4.152   2.286   6.106
 7272SOL    HW122148   4.182   2.214   6.044
 7272SOL    HW222149   4.113   2.246   6.189
 7273SOL     OW22150   4.041   2.409   6.866
 7273SOL    HW122151   4.079   2.350   6.938
 7273SOL    HW222152   4.081   2.383   6.778
 7274SOL     OW22153   4.536   3.448   6.273
 7274SOL    HW122154   4.568   3.458   6.179
 7274SOL    HW222155   4.457   3.386   6.275
 7275SOL     OW22156   4.725   1.896   6.740
 7275SOL    HW122157   4.662   1.824   6.709
 7275SOL    HW222158   4.818   1.860   6.740
 7276SOL     OW22159   4.494   3.192   5.887
 7276SOL    HW122160   4.448   3.105   5.904
 7276SOL    HW222161   4.585   3.189   5.928
 7277SOL     OW22162   4.342   3.429   6.870
 7277SOL    HW122163   4.337   3.511   6.927
 7277SOL    HW222164   4.431   3.426   6.825
 7278SOL     OW22165   3.763   2.939   5.886
 7278SOL    HW122166   3.862   2.928   5.877
 7278SOL    HW222167   3.723   2.853   5.918
 7279SOL     OW22168   4.599   3.508   5.923
 7279SOL    HW122169   4.522   3.473   5.869
 7279SOL    HW222170   4.567   3.579   5.985
 7280SOL     OW22171   3.954   2.490   7.561
 7280SOL    HW122172   3.861   2.488   7.598
 7280SOL    HW222173   3.955   2.451   7.469
 7281SOL     OW22174   3.949   2.137   8.444
 7281SOL    HW122175   3.984   2.120   8.536
 7281SOL    HW222176   3.861   2.092   8.432
 7282SOL     OW22177   3.743   2.230   8.095
 7282SOL    HW122178   3.661   2.273   8.134
 7282SOL    HW222179   3.715   2.157   8.032
 7283SOL     OW22180   4.293   3.137   8.613
 7283SOL    HW122181   4.200   3.130   8.576
 7283SOL    HW222182   4.304   3.226   8.657
 7284SOL     OW22183   4.492   3.006   8.471
 7284SOL    HW122184   4.414   3.023   8.531
 7284SOL    HW222185   4.526   3.093   8.435
 7285SOL     OW22186   4.574   2.660   9.271
 7285SOL    HW122187   4.570   2.736   9.336
 7285SOL    HW222188   4.596   2.696   9.180
 7286SOL     OW22189   4.409   2.874   8.113
 7286SOL    HW122190   4.478   2.858   8.183
 7286SOL    HW222191   4.336   2.931   8.151
 7287SOL     OW22192   4.410   3.023   9.251
 7287SOL    HW122193   4.470   3.102   9.265
 7287SOL    HW222194   4.324   3.054   9.210
 7288SOL     OW22195   4.059   3.297   8.509
 7288SOL    HW122196   3.981   3.266   8.456
 7288SOL    HW222197   4.117   3.355   8.452
 7289SOL     OW22198   4.162   2.254   8.947
 7289SOL    HW122199   4.244   2.198   8.956
 7289SOL    HW222200   4.081   2.196   8.951
 7290SOL     OW22201   3.955   3.575   7.931
 7290SOL    HW122202   3.989   3.652   7.985
 7290SOL    HW222203   3.999   3.575   7.841
 7291SOL     OW22204   3.954   3.296   7.986
 7291SOL    HW122205   3.928   3.392   7.986
 7291SOL    HW222206   3.883   3.242   8.031
 7292SOL     OW22207   3.964   2.953   8.334
 7292SOL    HW122208   3.978   2.869   8.386
 7292SOL    HW222209   3.909   3.017   8.389
 7293SOL     OW22210   4.344   3.648   8.887
 7293SOL    HW122211   4.252   3.631   8.922
 7293SOL    HW222212   4.372   3.740   8.913
 7294SOL     OW22213   4.330   2.826   7.571
 7294SOL    HW122214   4.337   2.910   7.517
 7294SOL    HW222215   4.376   2.839   7.659
 7295SOL     OW22216   3.846   2.505   8.011
 7295SOL    HW122217   3.801   2.417   8.028
 7295SOL    HW222218   3.845   2.559   8.095
 7296SOL     OW22219   3.751   3.458   7.565
 7296SOL    HW122220   3.732   3.362   7.586
 7296SOL    HW222221   3.718   3.516   7.640
 7297SOL     OW22222   3.837   2.599   9.045
 7297SOL    HW122223   3.925   2.586   9.090
 7297SOL    HW222224   3.824   2.696   9.023
 7298SOL     OW22225   4.337   3.227   8.174
 7298SOL    HW122226   4.288   3.140   8.183
 7298SOL    HW222227   4.314   3.270   8.087
 7299SOL     OW22228   4.533   1.866   7.950
 7299SOL    HW122229   4.573   1.957   7.941
 7299SOL    HW222230   4.433   1.874   7.956
 7300SOL     OW22231   3.921   2.838   8.712
 7300SOL    HW122232   4.010   2.793   8.698
 7300SOL    HW222233   3.848   2.773   8.693
 7301SOL     OW22234   4.041   2.113   9.249
 7301SOL    HW122235   4.112   2.184   9.255
 7301SOL    HW222236   3.953   2.152   9.277
 7302SOL     OW22237   4.322   2.591   7.718
 7302SOL    HW122238   4.346   2.660   7.650
 7302SOL    HW222239   4.244   2.624   7.772
 7303SOL     OW22240   4.531   2.467   8.913
 7303SOL    HW122241   4.484   2.464   9.002
 7303SOL    HW222242   4.480   2.412   8.847
 7304SOL     OW22243   4.715   2.272   8.690
 7304SOL    HW122244   4.638   2.306   8.744
 7304SOL    HW222245   4.681   2.221   8.611
 7305SOL     OW22246   3.800   2.673   8.237
 7305SOL    HW122247   3.899   2.661   8.246
 7305SOL    HW222248   3.776   2.768   8.258
 7306SOL     OW22249   3.854   3.683   9.019
 7306SOL    HW122250   3.844   3.668   9.118
 7306SOL    HW222251   3.768   3.719   8.983
 7307SOL     OW22252   4.589   2.210   7.643
 7307SOL    HW122253   4.648   2.273   7.594
 7307SOL    HW222254   4.608   2.116   7.614
 7308SOL     OW22255   4.274   2.058   8.333
 7308SOL    HW122256   4.269   2.053   8.433
 7308SOL    HW222257   4.276   2.154   8.304
 7309SOL     OW22258   4.732   3.318   7.925
 7309SOL    HW122259   4.686   3.390   7.873
 7309SOL    HW222260   4.728   3.338   8.023
 7310SOL     OW22261   4.075   3.663   8.301
 7310SOL    HW122262   4.125   3.577   8.307
 7310SOL    HW222263   4.140   3.740   8.298
 7311SOL     OW22264   4.045   2.805   7.690
 7311SOL    HW122265   4.127   2.844   7.648
 7311SOL    HW222266   4.018   2.723   7.641
 7312SOL     OW22267   4.185   3.128   9.175
 7312SOL    HW122268   4.135   3.129   9.089
 7312SOL    HW222269   4.122   3.110   9.251
 7313SOL     OW22270   3.926   2.147   8.946
 7313SOL    HW122271   3.846   2.207   8.933
 7313SOL    HW222272   3.916   2.098   9.032
 7314SOL     OW22273   4.188   3.605   7.771
 7314SOL    HW122274   4.221   3.644   7.857
 7314SOL    HW222275   4.264   3.598   7.706
 7315SOL     OW22276   3.973   3.647   8.689
 7315SOL    HW122277   4.030   3.582   8.739
 7315SOL    HW222278   3.957   3.614   8.596
 7316SOL     OW22279   4.106   2.562   7.928
 7316SOL    HW122280   4.151   2.472   7.925
 7316SOL    HW222281   4.012   2.551   7.961
 7317SOL     OW22282   4.338   1.984   7.565
 7317SOL    HW122283   4.436   1.962   7.572
 7317SOL    HW222284   4.307   1.967   7.472
 7318SOL     OW22285   4.505   2.126   9.197
 7318SOL    HW122286   4.572   2.065   9.240
 7318SOL    HW222287   4.432   2.145   9.262
 7319SOL     OW22288   4.612   3.376   8.643
 7319SOL    HW122289   4.589   3.351   8.549
 7319SOL    HW222290   4.673   3.307   8.682
 7320SOL     OW22291   4.527   3.264   8.372
 7320SOL    HW122292   4.617   3.278   8.330
 7320SOL    HW222293   4.456   3.266   8.301
 7321SOL     OW22294   4.646   2.365   8.347
 7321SOL    HW122295   4.621   2.356   8.251
 7321SOL    HW222296   4.694   2.283   8.378
 7322SOL     OW22297   4.263   1.926   7.960
 7322SOL    HW122298   4.182   1.927   8.018
 7322SOL    HW222299   4.266   2.009   7.905
 7323SOL     OW22300   4.021   1.897   7.619
 7323SOL    HW122301   4.070   1.981   7.598
 7323SOL    HW222302   4.083   1.832   7.664
 7324SOL     OW22303   4.951   3.432   8.241
 7324SOL    HW122304   4.972   3.506   8.176
 7324SOL    HW222305   5.019   3.432   8.314
 7325SOL     OW22306   4.183   3.014   8.189
 7325SOL    HW122307   4.112   2.987   8.254
 7325SOL    HW222308   4.157   2.986   8.096
 7326SOL     OW22309   3.802   2.418   8.834
 7326SOL    HW122310   3.894   2.417   8.793
 7326SOL    HW222311   3.796   2.492   8.901
 7327SOL     OW22312   4.285   2.084   8.595
 7327SOL    HW122313   4.323   2.000   8.632
 7327SOL    HW222314   4.197   2.103   8.639
 7328SOL     OW22315   4.741   1.901   8.201
 7328SOL    HW122316   4.669   1.906   8.132
 7328SOL    HW222317   4.717   1.832   8.270
 7329SOL     OW22318   4.212   3.247   7.622
 7329SOL    HW122319   4.125   3.232   7.669
 7329SOL    HW222320   4.195   3.273   7.527
 7330SOL     OW22321   4.251   2.118   7.776
 7330SOL    HW122322   4.278   2.059   7.701
 7330SOL    HW222323   4.251   2.213   7.745
 7331SOL     OW22324   4.639   1.951   8.850
 7331SOL    HW122325   4.664   1.931   8.755
 7331SOL    HW222326   4.711   2.007   8.892
 7332SOL     OW22327   4.429   2.912   7.816
 7332SOL    HW122328   4.415   2.919   7.915
 7332SOL    HW222329   4.513   2.861   7.798
 7333SOL     OW22330   4.134   2.675   8.699
 7333SOL    HW122331   4.220   2.687   8.749
 7333SOL    HW222332   4.092   2.588   8.726
 7334SOL     OW22333   3.788   3.426   8.779
 7334SOL    HW122334   3.742   3.508   8.745
 7334SOL    HW222335   3.886   3.445   8.788
 7335SOL     OW22336   4.091   2.962   7.949
 7335SOL    HW122337   4.084   3.045   7.893
 7335SOL    HW222338   4.095   2.882   7.889
 7336SOL     OW22339   4.290   2.399   8.313
 7336SOL    HW122340   4.302   2.465   8.239
 7336SOL    HW222341   4.336   2.433   8.396
 7337SOL     OW22342   4.078   3.372   8.777
 7337SOL    HW122343   4.057   3.328   8.690
 7337SOL    HW222344   4.175   3.398   8.780
 7338SOL     OW22345   4.126   2.613   9.046
 7338SOL    HW122346   4.194   2.668   8.999
 7338SOL    HW222347   4.166   2.525   9.073
 7339SOL     OW22348   4.228   1.912   9.188
 7339SOL    HW122349   4.186   1.855   9.118
 7339SOL    HW222350   4.162   1.981   9.220
 7340SOL     OW22351   4.297   2.732   8.477
 7340SOL    HW122352   4.341   2.821   8.468
 7340SOL    HW222353   4.234   2.732   8.554
 7341SOL     OW22354   4.933   2.387   7.723
 7341SOL    HW122355   4.946   2.303   7.777
 7341SOL    HW222356   4.904   2.461   7.783
 7342SOL     OW22357   4.031   2.075   8.679
 7342SOL    HW122358   4.008   2.112   8.769
 7342SOL    HW222359   4.001   1.980   8.673
 7343SOL     OW22360   3.761   3.172   8.730
 7343SOL    HW122361   3.814   3.123   8.798
 7343SOL    HW222362   3.783   3.270   8.735
 7344SOL     OW22363   4.456   2.496   8.512
 7344SOL    HW122364   4.515   2.470   8.436
 7344SOL    HW222365   4.428   2.592   8.501
 7345SOL     OW22366   4.031   1.925   8.066
 7345SOL    HW122367   4.020   2.019   8.099
 7345SOL    HW222368   4.026   1.862   8.143
 7346SOL     OW22369   4.747   2.628   8.414
 7346SOL    HW122370   4.762   2.649   8.510
 7346SOL    HW222371   4.717   2.533   8.405
 7347SOL     OW22372   4.704   3.435   9.148
 7347SOL    HW122373   4.684   3.479   9.060
 7347SOL    HW222374   4.743   3.344   9.132
 7348SOL     OW22375   4.074   2.760   9.252
 7348SOL    HW122376   4.150   2.804   9.300
 7348SOL    HW222377   4.109   2.713   9.170
 7349SOL     OW22378   4.043   2.672   8.397
 7349SOL    HW122379   4.136   2.708   8.402
 7349SOL    HW222380   4.037   2.587   8.449
 7350SOL     OW22381   4.063   2.371   8.454
 7350SOL    HW122382   4.011   2.288   8.437
 7350SOL    HW222383   4.140   2.376   8.390
 7351SOL     OW22384   3.732   3.188   7.648
 7351SOL    HW122385   3.639   3.209   7.617
 7351SOL    HW222386   3.742   3.089   7.661
 7352SOL     OW22387   3.812   3.663   8.375
 7352SOL    HW122388   3.770   3.577   8.348
 7352SOL    HW222389   3.906   3.666   8.341
 7353SOL     OW22390   4.228   3.430   8.358
 7353SOL    HW122391   4.294   3.504   8.367
 7353SOL    HW222392   4.272   3.351   8.316
 7354SOL     OW22393   4.726   2.658   8.686
 7354SOL    HW122394   4.767   2.626   8.772
 7354SOL    HW222395   4.630   2.631   8.683
 7355SOL     OW22396   3.764   2.406   8.562
 7355SOL    HW122397   3.849   2.373   8.521
 7355SOL    HW222398   3.777   2.421   8.660
 7356SOL     OW22399   3.913   2.382   9.170
 7356SOL    HW122400   3.972   2.342   9.100
 7356SOL    HW222401   3.855   2.453   9.129
 7357SOL     OW22402   4.539   2.434   7.773
 7357SOL    HW122403   4.546   2.345   7.727
 7357SOL    HW222404   4.445   2.468   7.765
 7358SOL     OW22405   3.976   3.426   9.192
 7358SOL    HW122406   3.946   3.483   9.268
 7358SOL    HW222407   3.969   3.329   9.218
 7359SOL     OW22408   4.395   2.326   8.717
 7359SOL    HW122409   4.361   2.237   8.687
 7359SOL    HW222410   4.421   2.380   8.637
 7360SOL     OW22411   4.654   3.540   8.913
 7360SOL    HW122412   4.630   3.522   8.818
 7360SOL    HW222413   4.684   3.634   8.923
 7361SOL     OW22414   4.197   2.362   7.639
 7361SOL    HW122415   4.258   2.442   7.643
 7361SOL    HW222416   4.102   2.393   7.646
 7362SOL     OW22417   3.883   2.999   8.914
 7362SOL    HW122418   3.905   2.938   8.990
 7362SOL    HW222419   3.893   2.950   8.828
 7363SOL     OW22420   3.807   3.120   8.470
 7363SOL    HW122421   3.802   3.119   8.570
 7363SOL    HW222422   3.724   3.079   8.432
 7364SOL     OW22423   4.412   3.524   9.164
 7364SOL    HW122424   4.356   3.605   9.173
 7364SOL    HW222425   4.464   3.528   9.078
 7365SOL     OW22426   4.627   1.948   7.581
 7365SOL    HW122427   4.678   1.949   7.495
 7365SOL    HW222428   4.683   1.906   7.652
 7366SOL     OW22429   3.854   3.656   9.299
 7366SOL    HW122430   3.813   3.582   9.352
 7366SOL    HW222431   3.918   3.707   9.357
 7367SOL     OW22432   4.554   3.135   8.870
 7367SOL    HW122433   4.549   3.168   8.965
 7367SOL    HW222434   4.468   3.154   8.824
 7368SOL     OW22435   4.396   3.478   7.602
 7368SOL    HW122436   4.405   3.488   7.503
 7368SOL    HW222437   4.356   3.389   7.623
 7369SOL     OW22438   3.987   2.188   8.168
 7369SOL    HW122439   3.908   2.239   8.134
 7369SOL    HW222440   3.978   2.173   8.266
 7370SOL     OW22441   4.546   2.864   8.820
 7370SOL    HW122442   4.586   2.863   8.728
 7370SOL    HW222443   4.556   2.956   8.860
 7371SOL     OW22444   4.096   3.150   8.938
 7371SOL    HW122445   4.083   3.243   8.904
 7371SOL    HW222446   4.012   3.098   8.925
 7372SOL     OW22447   4.314   3.349   7.939
 7372SOL    HW122448   4.356   3.291   7.869
 7372SOL    HW222449   4.270   3.428   7.895
 7373SOL     OW22450   3.979   3.210   7.738
 7373SOL    HW122451   3.883   3.211   7.711
 7373SOL    HW222452   3.991   3.263   7.822
 7374SOL     OW22453   3.829   2.875   9.174
 7374SOL    HW122454   3.752   2.842   9.228
 7374SOL    HW222455   3.914   2.845   9.216
 7375SOL     OW22456   4.396   2.065   8.937
 7375SOL    HW122457   4.486   2.049   8.897
 7375SOL    HW222458   4.404   2.070   9.036
 7376SOL     OW22459   3.799   2.207   7.481
 7376SOL    HW122460   3.707   2.179   7.452
 7376SOL    HW222461   3.830   2.284   7.425
 7377SOL     OW22462   3.796   2.028   7.766
 7377SOL    HW122463   3.779   2.111   7.712
 7377SOL    HW222464   3.886   1.991   7.744
 7378SOL     OW22465   4.337   2.704   8.879
 7378SOL    HW122466   4.393   2.785   8.862
 7378SOL    HW222467   4.396   2.624   8.882
 7379SOL     OW22468   4.440   2.427   9.156
 7379SOL    HW122469   4.459   2.492   9.230
 7379SOL    HW222470   4.500   2.347   9.165
 7380SOL     OW22471   4.114   3.603   9.008
 7380SOL    HW122472   4.023   3.644   9.006
 7380SOL    HW222473   4.107   3.509   9.040
 7381SOL     OW22474   4.949   2.187   7.897
 7381SOL    HW122475   5.014   2.113   7.886
 7381SOL    HW222476   4.969   2.237   7.981
 7382SOL     OW22477   4.318   2.607   8.100
 7382SOL    HW122478   4.368   2.692   8.081
 7382SOL    HW222479   4.230   2.609   8.052
 7383SOL     OW22480   4.583   3.236   7.464
 7383SOL    HW122481   4.537   3.251   7.552
 7383SOL    HW222482   4.627   3.321   7.434
 7384SOL     OW22483   4.385   3.652   8.401
 7384SOL    HW122484   4.339   3.740   8.388
 7384SOL    HW222485   4.484   3.664   8.394
 7385SOL     OW22486   4.583   2.818   8.309
 7385SOL    HW122487   4.637   2.749   8.357
 7385SOL    HW222488   4.551   2.887   8.375
 7386SOL     OW22489   3.945   3.176   9.292
 7386SOL    HW122490   3.880   3.103   9.271
 7386SOL    HW222491   3.949   3.190   9.390
 7387SOL     OW22492   3.803   3.102   8.101
 7387SOL    HW122493   3.802   3.055   8.189
 7387SOL    HW222494   3.885   3.074   8.050
 7388SOL     OW22495   4.396   3.253   9.072
 7388SOL    HW122496   4.318   3.203   9.110
 7388SOL    HW222497   4.393   3.348   9.103
 7389SOL     OW22498   4.152   2.286   7.968
 7389SOL    HW122499   4.182   2.214   7.906
 7389SOL    HW222500   4.113   2.246   8.051
 7390SOL     OW22501   4.041   2.409   8.728
 7390SOL    HW122502   4.079   2.350   8.800
 7390SOL    HW222503   4.081   2.383   8.640
 7391SOL     OW22504   4.536   3.448   8.135
 7391SOL    HW122505   4.568   3.458   8.041
 7391SOL    HW222506   4.457   3.386   8.137
 7392SOL     OW22507   4.725   1.896   8.602
 7392SOL    HW122508   4.662   1.824   8.571
 7392SOL    HW222509   4.818   1.860   8.602
 7393SOL     OW22510   4.494   3.192   7.749
 7393SOL    HW122511   4.448   3.105   7.766
 7393SOL    HW222512   4.585   3.189   7.790
 7394SOL     OW22513   4.342   3.429   8.732
 7394SOL    HW122514   4.337   3.511   8.789
 7394SOL    HW222515   4.431   3.426   8.687
 7395SOL     OW22516   3.763   2.939   7.748
 7395SOL    HW122517   3.862   2.928   7.739
 7395SOL    HW222518   3.723   2.853   7.780
 7396SOL     OW22519   4.599   3.508   7.785
 7396SOL    HW122520   4.522   3.473   7.731
 7396SOL    HW222521   4.567   3.579   7.847
 7397SOL     OW22522   3.954   2.490   9.423
 7397SOL    HW122523   3.861   2.488   9.460
 7397SOL    HW222524   3.955   2.451   9.331
 7398SOL     OW22525   3.949   2.137  10.306
 7398SOL    HW122526   3.984   2.120  10.398
 7398SOL    HW222527   3.861   2.092  10.294
 7399SOL     OW22528   3.743   2.230   9.957
 7399SOL    HW122529   3.661   2.273   9.996
 7399SOL    HW222530   3.715   2.157   9.894
 7400SOL     OW22531   4.293   3.137  10.475
 7400SOL    HW122532   4.200   3.130  10.438
 7400SOL    HW222533   4.304   3.226  10.519
 7401SOL     OW22534   4.492   3.006  10.333
 7401SOL    HW122535   4.414   3.023  10.393
 7401SOL    HW222536   4.526   3.093  10.297
 7402SOL     OW22537   4.574   2.660  11.133
 7402SOL    HW122538   4.570   2.736  11.198
 7402SOL    HW222539   4.596   2.696  11.042
 7403SOL     OW22540   4.409   2.874   9.975
 7403SOL    HW122541   4.478   2.858  10.045
 7403SOL    HW222542   4.336   2.931  10.013
 7404SOL     OW22543   4.059   3.297  10.371
 7404SOL    HW122544   3.981   3.266  10.318
 7404SOL    HW222545   4.117   3.355  10.314
 7405SOL     OW22546   4.162   2.254  10.809
 7405SOL    HW122547   4.244   2.198  10.818
 7405SOL    HW222548   4.081   2.196  10.813
 7406SOL     OW22549   3.955   3.575   9.793
 7406SOL    HW122550   3.989   3.652   9.847
 7406SOL    HW222551   3.999   3.575   9.703
 7407SOL     OW22552   3.954   3.296   9.848
 7407SOL    HW122553   3.928   3.392   9.848
 7407SOL    HW222554   3.883   3.242   9.893
 7408SOL     OW22555   3.964   2.953  10.196
 7408SOL    HW122556   3.978   2.869  10.248
 7408SOL    HW222557   3.909   3.017  10.251
 7409SOL     OW22558   4.344   3.648  10.749
 7409SOL    HW122559   4.252   3.631  10.784
 7409SOL    HW222560   4.372   3.740  10.775
 7410SOL     OW22561   4.330   2.826   9.433
 7410SOL    HW122562   4.337   2.910   9.379
 7410SOL    HW222563   4.376   2.839   9.521
 7411SOL     OW22564   3.846   2.505   9.873
 7411SOL    HW122565   3.801   2.417   9.890
 7411SOL    HW222566   3.845   2.559   9.957
 7412SOL     OW22567   3.751   3.458   9.427
 7412SOL    HW122568   3.732   3.362   9.448
 7412SOL    HW222569   3.718   3.516   9.502
 7413SOL     OW22570   4.337   3.227  10.036
 7413SOL    HW122571   4.288   3.140  10.045
 7413SOL    HW222572   4.314   3.270   9.949
 7414SOL     OW22573   4.533   1.866   9.812
 7414SOL    HW122574   4.573   1.957   9.803
 7414SOL    HW222575   4.433   1.874   9.818
 7415SOL     OW22576   3.921   2.838  10.574
 7415SOL    HW122577   4.010   2.793  10.560
 7415SOL    HW222578   3.848   2.773  10.555
 7416SOL     OW22579   4.322   2.591   9.580
 7416SOL    HW122580   4.346   2.660   9.512
 7416SOL    HW222581   4.244   2.624   9.634
 7417SOL     OW22582   4.531   2.467  10.775
 7417SOL    HW122583   4.484   2.464  10.864
 7417SOL    HW222584   4.480   2.412  10.709
 7418SOL     OW22585   4.715   2.272  10.552
 7418SOL    HW122586   4.638   2.306  10.606
 7418SOL    HW222587   4.681   2.221  10.473
 7419SOL     OW22588   3.800   2.673  10.099
 7419SOL    HW122589   3.899   2.661  10.108
 7419SOL    HW222590   3.776   2.768  10.120
 7420SOL     OW22591   3.854   3.683  10.881
 7420SOL    HW122592   3.844   3.668  10.980
 7420SOL    HW222593   3.768   3.719  10.845
 7421SOL     OW22594   4.589   2.210   9.505
 7421SOL    HW122595   4.648   2.273   9.456
 7421SOL    HW222596   4.608   2.116   9.476
 7422SOL     OW22597   4.274   2.058  10.195
 7422SOL    HW122598   4.269   2.053  10.295
 7422SOL    HW222599   4.276   2.154  10.166
 7423SOL     OW22600   4.732   3.318   9.787
 7423SOL    HW122601   4.686   3.390   9.735
 7423SOL    HW222602   4.728   3.338   9.885
 7424SOL     OW22603   4.075   3.663  10.163
 7424SOL    HW122604   4.125   3.577  10.169
 7424SOL    HW222605   4.140   3.740  10.160
 7425SOL     OW22606   4.045   2.805   9.552
 7425SOL    HW122607   4.127   2.844   9.510
 7425SOL    HW222608   4.018   2.723   9.503
 7426SOL     OW22609   4.188   3.605   9.633
 7426SOL    HW122610   4.221   3.644   9.719
 7426SOL    HW222611   4.264   3.598   9.568
 7427SOL     OW22612   3.973   3.647  10.551
 7427SOL    HW122613   4.030   3.582  10.601
 7427SOL    HW222614   3.957   3.614  10.458
 7428SOL     OW22615   4.106   2.562   9.790
 7428SOL    HW122616   4.151   2.472   9.787
 7428SOL    HW222617   4.012   2.551   9.823
 7429SOL     OW22618   4.338   1.984   9.427
 7429SOL    HW122619   4.436   1.962   9.434
 7429SOL    HW222620   4.307   1.967   9.334
 7430SOL     OW22621   4.612   3.376  10.505
 7430SOL    HW122622   4.589   3.351  10.411
 7430SOL    HW222623   4.673   3.307  10.544
 7431SOL     OW22624   4.527   3.264  10.234
 7431SOL    HW122625   4.617   3.278  10.192
 7431SOL    HW222626   4.456   3.266  10.163
 7432SOL     OW22627   4.646   2.365  10.209
 7432SOL    HW122628   4.621   2.356  10.113
 7432SOL    HW222629   4.694   2.283  10.240
 7433SOL     OW22630   4.263   1.926   9.822
 7433SOL    HW122631   4.182   1.927   9.880
 7433SOL    HW222632   4.266   2.009   9.767
 7434SOL     OW22633   4.021   1.897   9.481
 7434SOL    HW122634   4.070   1.981   9.460
 7434SOL    HW222635   4.083   1.832   9.526
 7435SOL     OW22636   4.951   3.432  10.103
 7435SOL    HW122637   4.972   3.506  10.038
 7435SOL    HW222638   5.019   3.432  10.176
 7436SOL     OW22639   4.183   3.014  10.051
 7436SOL    HW122640   4.112   2.987  10.116
 7436SOL    HW222641   4.157   2.986   9.958
 7437SOL     OW22642   3.802   2.418  10.696
 7437SOL    HW122643   3.894   2.417  10.655
 7437SOL    HW222644   3.796   2.492  10.763
 7438SOL     OW22645   4.285   2.084  10.457
 7438SOL    HW122646   4.323   2.000  10.494
 7438SOL    HW222647   4.197   2.103  10.501
 7439SOL     OW22648   4.741   1.901  10.063
 7439SOL    HW122649   4.669   1.906   9.994
 7439SOL    HW222650   4.717   1.832  10.132
 7440SOL     OW22651   4.212   3.247   9.484
 7440SOL    HW122652   4.125   3.232   9.531
 7440SOL    HW222653   4.195   3.273   9.389
 7441SOL     OW22654   4.251   2.118   9.638
 7441SOL    HW122655   4.278   2.059   9.563
 7441SOL    HW222656   4.251   2.213   9.607
 7442SOL     OW22657   4.639   1.951  10.712
 7442SOL    HW122658   4.664   1.931  10.617
 7442SOL    HW222659   4.711   2.007  10.754
 7443SOL     OW22660   4.429   2.912   9.678
 7443SOL    HW122661   4.415   2.919   9.777
 7443SOL    HW222662   4.513   2.861   9.660
 7444SOL     OW22663   4.134   2.675  10.561
 7444SOL    HW122664   4.220   2.687  10.611
 7444SOL    HW222665   4.092   2.588  10.588
 7445SOL     OW22666   3.788   3.426  10.641
 7445SOL    HW122667   3.742   3.508  10.607
 7445SOL    HW222668   3.886   3.445  10.650
 7446SOL     OW22669   4.091   2.962   9.811
 7446SOL    HW122670   4.084   3.045   9.755
 7446SOL    HW222671   4.095   2.882   9.751
 7447SOL     OW22672   4.290   2.399  10.175
 7447SOL    HW122673   4.302   2.465  10.101
 7447SOL    HW222674   4.336   2.433  10.258
 7448SOL     OW22675   4.078   3.372  10.639
 7448SOL    HW122676   4.057   3.328  10.552
 7448SOL    HW222677   4.175   3.398  10.642
 7449SOL     OW22678   4.126   2.613  10.908
 7449SOL    HW122679   4.194   2.668  10.861
 7449SOL    HW222680   4.166   2.525  10.935
 7450SOL     OW22681   4.297   2.732  10.339
 7450SOL    HW122682   4.341   2.821  10.330
 7450SOL    HW222683   4.234   2.732  10.416
 7451SOL     OW22684   4.933   2.387   9.585
 7451SOL    HW122685   4.946   2.303   9.639
 7451SOL    HW222686   4.904   2.461   9.645
 7452SOL     OW22687   4.031   2.075  10.541
 7452SOL    HW122688   4.008   2.112  10.631
 7452SOL    HW222689   4.001   1.980  10.535
 7453SOL     OW22690   3.761   3.172  10.592
 7453SOL    HW122691   3.814   3.123  10.660
 7453SOL    HW222692   3.783   3.270  10.597
 7454SOL     OW22693   4.456   2.496  10.374
 7454SOL    HW122694   4.515   2.470  10.298
 7454SOL    HW222695   4.428   2.592  10.363
 7455SOL     OW22696   4.031   1.925   9.928
 7455SOL    HW122697   4.020   2.019   9.961
 7455SOL    HW222698   4.026   1.862  10.005
 7456SOL     OW22699   4.747   2.628  10.276
 7456SOL    HW122700   4.762   2.649  10.372
 7456SOL    HW222701   4.717   2.533  10.267
 7457SOL     OW22702   4.043   2.672  10.259
 7457SOL    HW122703   4.136   2.708  10.264
 7457SOL    HW222704   4.037   2.587  10.311
 7458SOL     OW22705   4.063   2.371  10.316
 7458SOL    HW122706   4.011   2.288  10.299
 7458SOL    HW222707   4.140   2.376  10.252
 7459SOL     OW22708   3.732   3.188   9.510
 7459SOL    HW122709   3.639   3.209   9.479
 7459SOL    HW222710   3.742   3.089   9.523
 7460SOL     OW22711   3.812   3.663  10.237
 7460SOL    HW122712   3.770   3.577  10.210
 7460SOL    HW222713   3.906   3.666  10.203
 7461SOL     OW22714   4.228   3.430  10.220
 7461SOL    HW122715   4.294   3.504  10.229
 7461SOL    HW222716   4.272   3.351  10.178
 7462SOL     OW22717   4.726   2.658  10.548
 7462SOL    HW122718   4.767   2.626  10.634
 7462SOL    HW222719   4.630   2.631  10.545
 7463SOL     OW22720   3.764   2.406  10.424
 7463SOL    HW122721   3.849   2.373  10.383
 7463SOL    HW222722   3.777   2.421  10.522
 7464SOL     OW22723   4.539   2.434   9.635
 7464SOL    HW122724   4.546   2.345   9.589
 7464SOL    HW222725   4.445   2.468   9.627
 7465SOL     OW22726   4.395   2.326  10.579
 7465SOL    HW122727   4.361   2.237  10.549
 7465SOL    HW222728   4.421   2.380  10.499
 7466SOL     OW22729   4.654   3.540  10.775
 7466SOL    HW122730   4.630   3.522  10.680
 7466SOL    HW222731   4.684   3.634  10.785
 7467SOL     OW22732   4.197   2.362   9.501
 7467SOL    HW122733   4.258   2.442   9.505
 7467SOL    HW222734   4.102   2.393   9.508
 7468SOL     OW22735   3.883   2.999  10.776
 7468SOL    HW122736   3.905   2.938  10.852
 7468SOL    HW222737   3.893   2.950  10.690
 7469SOL     OW22738   3.807   3.120  10.332
 7469SOL    HW122739   3.802   3.119  10.432
 7469SOL    HW222740   3.724   3.079  10.294
 7470SOL     OW22741   4.627   1.948   9.443
 7470SOL    HW122742   4.678   1.949   9.357
 7470SOL    HW222743   4.683   1.906   9.514
 7471SOL     OW22744   4.396   3.478   9.464
 7471SOL    HW122745   4.405   3.488   9.365
 7471SOL    HW222746   4.356   3.389   9.485
 7472SOL     OW22747   3.987   2.188  10.030
 7472SOL    HW122748   3.908   2.239   9.996
 7472SOL    HW222749   3.978   2.173  10.128
 7473SOL     OW22750   4.546   2.864  10.682
 7473SOL    HW122751   4.586   2.863  10.590
 7473SOL    HW222752   4.556   2.956  10.722
 7474SOL     OW22753   4.096   3.150  10.800
 7474SOL    HW122754   4.083   3.243  10.766
 7474SOL    HW222755   4.012   3.098  10.787
 7475SOL     OW22756   4.314   3.349   9.801
 7475SOL    HW122757   4.356   3.291   9.731
 7475SOL    HW222758   4.270   3.428   9.757
 7476SOL     OW22759   3.979   3.210   9.600
 7476SOL    HW122760   3.883   3.211   9.573
 7476SOL    HW222761   3.991   3.263   9.684
 7477SOL     OW22762   3.799   2.207   9.343
 7477SOL    HW122763   3.707   2.179   9.314
 7477SOL    HW222764   3.830   2.284   9.287
 7478SOL     OW22765   3.796   2.028   9.628
 7478SOL    HW122766   3.779   2.111   9.574
 7478SOL    HW222767   3.886   1.991   9.606
 7479SOL     OW22768   4.337   2.704  10.741
 7479SOL    HW122769   4.393   2.785  10.724
 7479SOL    HW222770   4.396   2.624  10.744
 7480SOL     OW22771   4.114   3.603  10.870
 7480SOL    HW122772   4.023   3.644  10.868
 7480SOL    HW222773   4.107   3.509  10.902
 7481SOL     OW22774   4.949   2.187   9.759
 7481SOL    HW122775   5.014   2.113   9.748
 7481SOL    HW222776   4.969   2.237   9.843
 7482SOL     OW22777   4.318   2.607   9.962
 7482SOL    HW122778   4.368   2.692   9.943
 7482SOL    HW222779   4.230   2.609   9.914
 7483SOL     OW22780   4.583   3.236   9.326
 7483SOL    HW122781   4.537   3.251   9.414
 7483SOL    HW222782   4.627   3.321   9.296
 7484SOL     OW22783   4.385   3.652  10.263
 7484SOL    HW122784   4.339   3.740  10.250
 7484SOL    HW222785   4.484   3.664  10.256
 7485SOL     OW22786   4.583   2.818  10.171
 7485SOL    HW122787   4.637   2.749  10.219
 7485SOL    HW222788   4.551   2.887  10.237
 7486SOL     OW22789   3.803   3.102   9.963
 7486SOL    HW122790   3.802   3.055  10.051
 7486SOL    HW222791   3.885   3.074   9.912
 7487SOL     OW22792   4.152   2.286   9.830
 7487SOL    HW122793   4.182   2.214   9.768
 7487SOL    HW222794   4.113   2.246   9.913
 7488SOL     OW22795   4.041   2.409  10.590
 7488SOL    HW122796   4.079   2.350  10.662
 7488SOL    HW222797   4.081   2.383  10.502
 7489SOL     OW22798   4.536   3.448   9.997
 7489SOL    HW122799   4.568   3.458   9.903
 7489SOL    HW222800   4.457   3.386   9.999
 7490SOL     OW22801   4.725   1.896  10.464
 7490SOL    HW122802   4.662   1.824  10.433
 7490SOL    HW222803   4.818   1.860  10.464
 7491SOL     OW22804   4.494   3.192   9.611
 7491SOL    HW122805   4.448   3.105   9.628
 7491SOL    HW222806   4.585   3.189   9.652
 7492SOL     OW22807   4.342   3.429  10.594
 7492SOL    HW122808   4.337   3.511  10.651
 7492SOL    HW222809   4.431   3.426  10.549
 7493SOL     OW22810   3.763   2.939   9.610
 7493SOL    HW122811   3.862   2.928   9.601
 7493SOL    HW222812   3.723   2.853   9.642
 7494SOL     OW22813   4.599   3.508   9.647
 7494SOL    HW122814   4.522   3.473   9.593
 7494SOL    HW222815   4.567   3.579   9.709
 7495SOL     OW22816   3.954   4.352   0.113
 7495SOL    HW122817   3.861   4.350   0.150
 7495SOL    HW222818   3.955   4.313   0.021
 7496SOL     OW22819   3.949   3.999   0.996
 7496SOL    HW122820   3.984   3.982   1.088
 7496SOL    HW222821   3.861   3.954   0.984
 7497SOL     OW22822   3.743   4.092   0.647
 7497SOL    HW122823   3.661   4.135   0.686
 7497SOL    HW222824   3.715   4.019   0.584
 7498SOL     OW22825   4.574   4.522   1.823
 7498SOL    HW122826   4.570   4.598   1.888
 7498SOL    HW222827   4.596   4.558   1.732
 7499SOL     OW22828   4.409   4.736   0.665
 7499SOL    HW122829   4.478   4.720   0.735
 7499SOL    HW222830   4.336   4.793   0.703
 7500SOL     OW22831   4.162   4.116   1.499
 7500SOL    HW122832   4.244   4.060   1.508
 7500SOL    HW222833   4.081   4.058   1.503
 7501SOL     OW22834   3.846   4.367   0.563
 7501SOL    HW122835   3.801   4.279   0.580
 7501SOL    HW222836   3.845   4.421   0.647
 7502SOL     OW22837   3.837   4.461   1.597
 7502SOL    HW122838   3.925   4.448   1.642
 7502SOL    HW222839   3.824   4.558   1.575
 7503SOL     OW22840   4.533   3.728   0.502
 7503SOL    HW122841   4.573   3.819   0.493
 7503SOL    HW222842   4.433   3.736   0.508
 7504SOL     OW22843   3.921   4.700   1.264
 7504SOL    HW122844   4.010   4.655   1.250
 7504SOL    HW222845   3.848   4.635   1.245
 7505SOL     OW22846   4.041   3.975   1.801
 7505SOL    HW122847   4.112   4.046   1.807
 7505SOL    HW222848   3.953   4.014   1.829
 7506SOL     OW22849   4.322   4.453   0.270
 7506SOL    HW122850   4.346   4.522   0.202
 7506SOL    HW222851   4.244   4.486   0.324
 7507SOL     OW22852   4.531   4.329   1.465
 7507SOL    HW122853   4.484   4.326   1.554
 7507SOL    HW222854   4.480   4.274   1.399
 7508SOL     OW22855   4.715   4.134   1.242
 7508SOL    HW122856   4.638   4.168   1.296
 7508SOL    HW222857   4.681   4.083   1.163
 7509SOL     OW22858   3.800   4.535   0.789
 7509SOL    HW122859   3.899   4.523   0.798
 7509SOL    HW222860   3.776   4.630   0.810
 7510SOL     OW22861   4.589   4.072   0.195
 7510SOL    HW122862   4.648   4.135   0.146
 7510SOL    HW222863   4.608   3.978   0.166
 7511SOL     OW22864   4.274   3.920   0.885
 7511SOL    HW122865   4.269   3.915   0.985
 7511SOL    HW222866   4.276   4.016   0.856
 7512SOL     OW22867   3.926   4.009   1.498
 7512SOL    HW122868   3.846   4.069   1.485
 7512SOL    HW222869   3.916   3.960   1.584
 7513SOL     OW22870   4.106   4.424   0.480
 7513SOL    HW122871   4.151   4.334   0.477
 7513SOL    HW222872   4.012   4.413   0.513
 7514SOL     OW22873   4.338   3.846   0.117
 7514SOL    HW122874   4.436   3.824   0.124
 7514SOL    HW222875   4.307   3.829   0.024
 7515SOL     OW22876   4.505   3.988   1.749
 7515SOL    HW122877   4.572   3.927   1.792
 7515SOL    HW222878   4.432   4.007   1.814
 7516SOL     OW22879   4.646   4.227   0.899
 7516SOL    HW122880   4.621   4.218   0.803
 7516SOL    HW222881   4.694   4.145   0.930
 7517SOL     OW22882   4.263   3.788   0.512
 7517SOL    HW122883   4.182   3.789   0.570
 7517SOL    HW222884   4.266   3.871   0.457
 7518SOL     OW22885   4.021   3.759   0.171
 7518SOL    HW122886   4.070   3.843   0.150
 7518SOL    HW222887   4.083   3.694   0.216
 7519SOL     OW22888   3.802   4.280   1.386
 7519SOL    HW122889   3.894   4.279   1.345
 7519SOL    HW222890   3.796   4.354   1.453
 7520SOL     OW22891   4.285   3.946   1.147
 7520SOL    HW122892   4.323   3.862   1.184
 7520SOL    HW222893   4.197   3.965   1.191
 7521SOL     OW22894   4.741   3.763   0.753
 7521SOL    HW122895   4.669   3.768   0.684
 7521SOL    HW222896   4.717   3.694   0.822
 7522SOL     OW22897   4.251   3.980   0.328
 7522SOL    HW122898   4.278   3.921   0.253
 7522SOL    HW222899   4.251   4.075   0.297
 7523SOL     OW22900   4.639   3.813   1.402
 7523SOL    HW122901   4.664   3.793   1.307
 7523SOL    HW222902   4.711   3.869   1.444
 7524SOL     OW22903   4.134   4.537   1.251
 7524SOL    HW122904   4.220   4.549   1.301
 7524SOL    HW222905   4.092   4.450   1.278
 7525SOL     OW22906   4.290   4.261   0.865
 7525SOL    HW122907   4.302   4.327   0.791
 7525SOL    HW222908   4.336   4.295   0.948
 7526SOL     OW22909   4.126   4.475   1.598
 7526SOL    HW122910   4.194   4.530   1.551
 7526SOL    HW222911   4.166   4.387   1.625
 7527SOL     OW22912   4.228   3.774   1.740
 7527SOL    HW122913   4.186   3.717   1.670
 7527SOL    HW222914   4.162   3.843   1.772
 7528SOL     OW22915   4.297   4.594   1.029
 7528SOL    HW122916   4.341   4.683   1.020
 7528SOL    HW222917   4.234   4.594   1.106
 7529SOL     OW22918   4.933   4.249   0.275
 7529SOL    HW122919   4.946   4.165   0.329
 7529SOL    HW222920   4.904   4.323   0.335
 7530SOL     OW22921   4.031   3.937   1.231
 7530SOL    HW122922   4.008   3.974   1.321
 7530SOL    HW222923   4.001   3.842   1.225
 7531SOL     OW22924   4.456   4.358   1.064
 7531SOL    HW122925   4.515   4.332   0.988
 7531SOL    HW222926   4.428   4.454   1.053
 7532SOL     OW22927   4.031   3.787   0.618
 7532SOL    HW122928   4.020   3.881   0.651
 7532SOL    HW222929   4.026   3.724   0.695
 7533SOL     OW22930   4.747   4.490   0.966
 7533SOL    HW122931   4.762   4.511   1.062
 7533SOL    HW222932   4.717   4.395   0.957
 7534SOL     OW22933   4.074   4.622   1.804
 7534SOL    HW122934   4.150   4.666   1.852
 7534SOL    HW222935   4.109   4.575   1.722
 7535SOL     OW22936   4.792   5.057   0.849
 7535SOL    HW122937   4.799   4.973   0.794
 7535SOL    HW222938   4.854   5.126   0.813
 7536SOL     OW22939   4.043   4.534   0.949
 7536SOL    HW122940   4.136   4.570   0.954
 7536SOL    HW222941   4.037   4.449   1.001
 7537SOL     OW22942   4.063   4.233   1.006
 7537SOL    HW122943   4.011   4.150   0.989
 7537SOL    HW222944   4.140   4.238   0.942
 7538SOL     OW22945   4.726   4.520   1.238
 7538SOL    HW122946   4.767   4.488   1.324
 7538SOL    HW222947   4.630   4.493   1.235
 7539SOL     OW22948   3.764   4.268   1.114
 7539SOL    HW122949   3.849   4.235   1.073
 7539SOL    HW222950   3.777   4.283   1.212
 7540SOL     OW22951   3.913   4.244   1.722
 7540SOL    HW122952   3.972   4.204   1.652
 7540SOL    HW222953   3.855   4.315   1.681
 7541SOL     OW22954   4.539   4.296   0.325
 7541SOL    HW122955   4.546   4.207   0.279
 7541SOL    HW222956   4.445   4.330   0.317
 7542SOL     OW22957   4.395   4.188   1.269
 7542SOL    HW122958   4.361   4.099   1.239
 7542SOL    HW222959   4.421   4.242   1.189
 7543SOL     OW22960   4.197   4.224   0.191
 7543SOL    HW122961   4.258   4.304   0.195
 7543SOL    HW222962   4.102   4.255   0.198
 7544SOL     OW22963   5.026   4.579   0.309
 7544SOL    HW122964   4.940   4.548   0.351
 7544SOL    HW222965   5.022   4.565   0.210
 7545SOL     OW22966   4.627   3.810   0.133
 7545SOL    HW122967   4.678   3.811   0.047
 7545SOL    HW222968   4.683   3.768   0.204
 7546SOL     OW22969   3.987   4.050   0.720
 7546SOL    HW122970   3.908   4.101   0.686
 7546SOL    HW222971   3.978   4.035   0.818
 7547SOL     OW22972   4.763   4.822   0.696
 7547SOL    HW122973   4.693   4.775   0.750
 7547SOL    HW222974   4.822   4.754   0.653
 7548SOL     OW22975   3.829   4.737   1.726
 7548SOL    HW122976   3.752   4.704   1.780
 7548SOL    HW222977   3.914   4.707   1.768
 7549SOL     OW22978   4.396   3.927   1.489
 7549SOL    HW122979   4.486   3.911   1.449
 7549SOL    HW222980   4.404   3.932   1.588
 7550SOL     OW22981   3.799   4.069   0.033
 7550SOL    HW122982   3.707   4.041   0.004
 7550SOL    HW222983   3.830   4.146  -0.023
 7551SOL     OW22984   3.796   3.890   0.318
 7551SOL    HW122985   3.779   3.973   0.264
 7551SOL    HW222986   3.886   3.853   0.296
 7552SOL     OW22987   4.337   4.566   1.431
 7552SOL    HW122988   4.393   4.647   1.414
 7552SOL    HW222989   4.396   4.486   1.434
 7553SOL     OW22990   4.440   4.289   1.708
 7553SOL    HW122991   4.459   4.354   1.782
 7553SOL    HW222992   4.500   4.209   1.717
 7554SOL     OW22993   4.949   4.049   0.449
 7554SOL    HW122994   5.014   3.975   0.438
 7554SOL    HW222995   4.969   4.099   0.533
 7555SOL     OW22996   4.318   4.469   0.652
 7555SOL    HW122997   4.368   4.554   0.633
 7555SOL    HW222998   4.230   4.471   0.604
 7556SOL     OW22999   4.583   4.680   0.861
 7556SOL    HW123000   4.637   4.611   0.909
 7556SOL    HW223001   4.551   4.749   0.927
 7557SOL     OW23002   4.152   4.148   0.520
 7557SOL    HW123003   4.182   4.076   0.458
 7557SOL    HW223004   4.113   4.108   0.603
 7558SOL     OW23005   4.041   4.271   1.280
 7558SOL    HW123006   4.079   4.212   1.352
 7558SOL    HW223007   4.081   4.245   1.192
 7559SOL     OW23008   4.725   3.758   1.154
 7559SOL    HW123009   4.662   3.686   1.123
 7559SOL    HW223010   4.818   3.722   1.154
 7560SOL     OW23011   3.954   4.352   1.975
 7560SOL    HW123012   3.861   4.350   2.012
 7560SOL    HW223013   3.955   4.313   1.883
 7561SOL     OW23014   3.949   3.999   2.858
 7561SOL    HW123015   3.984   3.982   2.950
 7561SOL    HW223016   3.861   3.954   2.846
 7562SOL     OW23017   3.743   4.092   2.509
 7562SOL    HW123018   3.661   4.135   2.548
 7562SOL    HW223019   3.715   4.019   2.446
 7563SOL     OW23020   4.574   4.522   3.685
 7563SOL    HW123021   4.570   4.598   3.750
 7563SOL    HW223022   4.596   4.558   3.594
 7564SOL     OW23023   4.409   4.736   2.527
 7564SOL    HW123024   4.478   4.720   2.597
 7564SOL    HW223025   4.336   4.793   2.565
 7565SOL     OW23026   4.162   4.116   3.361
 7565SOL    HW123027   4.244   4.060   3.370
 7565SOL    HW223028   4.081   4.058   3.365
 7566SOL     OW23029   3.846   4.367   2.425
 7566SOL    HW123030   3.801   4.279   2.442
 7566SOL    HW223031   3.845   4.421   2.509
 7567SOL     OW23032   3.837   4.461   3.459
 7567SOL    HW123033   3.925   4.448   3.504
 7567SOL    HW223034   3.824   4.558   3.437
 7568SOL     OW23035   4.533   3.728   2.364
 7568SOL    HW123036   4.573   3.819   2.355
 7568SOL    HW223037   4.433   3.736   2.370
 7569SOL     OW23038   3.921   4.700   3.126
 7569SOL    HW123039   4.010   4.655   3.112
 7569SOL    HW223040   3.848   4.635   3.107
 7570SOL     OW23041   4.041   3.975   3.663
 7570SOL    HW123042   4.112   4.046   3.669
 7570SOL    HW223043   3.953   4.014   3.691
 7571SOL     OW23044   4.322   4.453   2.132
 7571SOL    HW123045   4.346   4.522   2.064
 7571SOL    HW223046   4.244   4.486   2.186
 7572SOL     OW23047   4.531   4.329   3.327
 7572SOL    HW123048   4.484   4.326   3.416
 7572SOL    HW223049   4.480   4.274   3.261
 7573SOL     OW23050   4.715   4.134   3.104
 7573SOL    HW123051   4.638   4.168   3.158
 7573SOL    HW223052   4.681   4.083   3.025
 7574SOL     OW23053   3.800   4.535   2.651
 7574SOL    HW123054   3.899   4.523   2.660
 7574SOL    HW223055   3.776   4.630   2.672
 7575SOL     OW23056   4.589   4.072   2.057
 7575SOL    HW123057   4.648   4.135   2.008
 7575SOL    HW223058   4.608   3.978   2.028
 7576SOL     OW23059   4.274   3.920   2.747
 7576SOL    HW123060   4.269   3.915   2.847
 7576SOL    HW223061   4.276   4.016   2.718
 7577SOL     OW23062   3.926   4.009   3.360
 7577SOL    HW123063   3.846   4.069   3.347
 7577SOL    HW223064   3.916   3.960   3.446
 7578SOL     OW23065   4.106   4.424   2.342
 7578SOL    HW123066   4.151   4.334   2.339
 7578SOL    HW223067   4.012   4.413   2.375
 7579SOL     OW23068   4.338   3.846   1.979
 7579SOL    HW123069   4.436   3.824   1.986
 7579SOL    HW223070   4.307   3.829   1.886
 7580SOL     OW23071   4.505   3.988   3.611
 7580SOL    HW123072   4.572   3.927   3.654
 7580SOL    HW223073   4.432   4.007   3.676
 7581SOL     OW23074   4.646   4.227   2.761
 7581SOL    HW123075   4.621   4.218   2.665
 7581SOL    HW223076   4.694   4.145   2.792
 7582SOL     OW23077   4.263   3.788   2.374
 7582SOL    HW123078   4.182   3.789   2.432
 7582SOL    HW223079   4.266   3.871   2.319
 7583SOL     OW23080   4.021   3.759   2.033
 7583SOL    HW123081   4.070   3.843   2.012
 7583SOL    HW223082   4.083   3.694   2.078
 7584SOL     OW23083   3.802   4.280   3.248
 7584SOL    HW123084   3.894   4.279   3.207
 7584SOL    HW223085   3.796   4.354   3.315
 7585SOL     OW23086   4.285   3.946   3.009
 7585SOL    HW123087   4.323   3.862   3.046
 7585SOL    HW223088   4.197   3.965   3.053
 7586SOL     OW23089   4.741   3.763   2.615
 7586SOL    HW123090   4.669   3.768   2.546
 7586SOL    HW223091   4.717   3.694   2.684
 7587SOL     OW23092   4.251   3.980   2.190
 7587SOL    HW123093   4.278   3.921   2.115
 7587SOL    HW223094   4.251   4.075   2.159
 7588SOL     OW23095   4.639   3.813   3.264
 7588SOL    HW123096   4.664   3.793   3.169
 7588SOL    HW223097   4.711   3.869   3.306
 7589SOL     OW23098   4.134   4.537   3.113
 7589SOL    HW123099   4.220   4.549   3.163
 7589SOL    HW223100   4.092   4.450   3.140
 7590SOL     OW23101   4.290   4.261   2.727
 7590SOL    HW123102   4.302   4.327   2.653
 7590SOL    HW223103   4.336   4.295   2.810
 7591SOL     OW23104   4.126   4.475   3.460
 7591SOL    HW123105   4.194   4.530   3.413
 7591SOL    HW223106   4.166   4.387   3.487
 7592SOL     OW23107   4.228   3.774   3.602
 7592SOL    HW123108   4.186   3.717   3.532
 7592SOL    HW223109   4.162   3.843   3.634
 7593SOL     OW23110   4.297   4.594   2.891
 7593SOL    HW123111   4.341   4.683   2.882
 7593SOL    HW223112   4.234   4.594   2.968
 7594SOL     OW23113   4.933   4.249   2.137
 7594SOL    HW123114   4.946   4.165   2.191
 7594SOL    HW223115   4.904   4.323   2.197
 7595SOL     OW23116   4.031   3.937   3.093
 7595SOL    HW123117   4.008   3.974   3.183
 7595SOL    HW223118   4.001   3.842   3.087
 7596SOL     OW23119   4.456   4.358   2.926
 7596SOL    HW123120   4.515   4.332   2.850
 7596SOL    HW223121   4.428   4.454   2.915
 7597SOL     OW23122   4.031   3.787   2.480
 7597SOL    HW123123   4.020   3.881   2.513
 7597SOL    HW223124   4.026   3.724   2.557
 7598SOL     OW23125   4.747   4.490   2.828
 7598SOL    HW123126   4.762   4.511   2.924
 7598SOL    HW223127   4.717   4.395   2.819
 7599SOL     OW23128   4.074   4.622   3.666
 7599SOL    HW123129   4.150   4.666   3.714
 7599SOL    HW223130   4.109   4.575   3.584
 7600SOL     OW23131   4.792   5.057   2.711
 7600SOL    HW123132   4.799   4.973   2.656
 7600SOL    HW223133   4.854   5.126   2.675
 7601SOL     OW23134   4.043   4.534   2.811
 7601SOL    HW123135   4.136   4.570   2.816
 7601SOL    HW223136   4.037   4.449   2.863
 7602SOL     OW23137   4.063   4.233   2.868
 7602SOL    HW123138   4.011   4.150   2.851
 7602SOL    HW223139   4.140   4.238   2.804
 7603SOL     OW23140   4.726   4.520   3.100
 7603SOL    HW123141   4.767   4.488   3.186
 7603SOL    HW223142   4.630   4.493   3.097
 7604SOL     OW23143   3.764   4.268   2.976
 7604SOL    HW123144   3.849   4.235   2.935
 7604SOL    HW223145   3.777   4.283   3.074
 7605SOL     OW23146   3.913   4.244   3.584
 7605SOL    HW123147   3.972   4.204   3.514
 7605SOL    HW223148   3.855   4.315   3.543
 7606SOL     OW23149   4.539   4.296   2.187
 7606SOL    HW123150   4.546   4.207   2.141
 7606SOL    HW223151   4.445   4.330   2.179
 7607SOL     OW23152   4.395   4.188   3.131
 7607SOL    HW123153   4.361   4.099   3.101
 7607SOL    HW223154   4.421   4.242   3.051
 7608SOL     OW23155   4.197   4.224   2.053
 7608SOL    HW123156   4.258   4.304   2.057
 7608SOL    HW223157   4.102   4.255   2.060
 7609SOL     OW23158   5.026   4.579   2.171
 7609SOL    HW123159   4.940   4.548   2.213
 7609SOL    HW223160   5.022   4.565   2.072
 7610SOL     OW23161   4.627   3.810   1.995
 7610SOL    HW123162   4.678   3.811   1.909
 7610SOL    HW223163   4.683   3.768   2.066
 7611SOL     OW23164   3.987   4.050   2.582
 7611SOL    HW123165   3.908   4.101   2.548
 7611SOL    HW223166   3.978   4.035   2.680
 7612SOL     OW23167   4.763   4.822   2.558
 7612SOL    HW123168   4.693   4.775   2.612
 7612SOL    HW223169   4.822   4.754   2.515
 7613SOL     OW23170   3.829   4.737   3.588
 7613SOL    HW123171   3.752   4.704   3.642
 7613SOL    HW223172   3.914   4.707   3.630
 7614SOL     OW23173   4.396   3.927   3.351
 7614SOL    HW123174   4.486   3.911   3.311
 7614SOL    HW223175   4.404   3.932   3.450
 7615SOL     OW23176   3.799   4.069   1.895
 7615SOL    HW123177   3.707   4.041   1.866
 7615SOL    HW223178   3.830   4.146   1.839
 7616SOL     OW23179   3.796   3.890   2.180
 7616SOL    HW123180   3.779   3.973   2.126
 7616SOL    HW223181   3.886   3.853   2.158
 7617SOL     OW23182   4.337   4.566   3.293
 7617SOL    HW123183   4.393   4.647   3.276
 7617SOL    HW223184   4.396   4.486   3.296
 7618SOL     OW23185   4.440   4.289   3.570
 7618SOL    HW123186   4.459   4.354   3.644
 7618SOL    HW223187   4.500   4.209   3.579
 7619SOL     OW23188   4.949   4.049   2.311
 7619SOL    HW123189   5.014   3.975   2.300
 7619SOL    HW223190   4.969   4.099   2.395
 7620SOL     OW23191   4.318   4.469   2.514
 7620SOL    HW123192   4.368   4.554   2.495
 7620SOL    HW223193   4.230   4.471   2.466
 7621SOL     OW23194   4.583   4.680   2.723
 7621SOL    HW123195   4.637   4.611   2.771
 7621SOL    HW223196   4.551   4.749   2.789
 7622SOL     OW23197   4.152   4.148   2.382
 7622SOL    HW123198   4.182   4.076   2.320
 7622SOL    HW223199   4.113   4.108   2.465
 7623SOL     OW23200   4.041   4.271   3.142
 7623SOL    HW123201   4.079   4.212   3.214
 7623SOL    HW223202   4.081   4.245   3.054
 7624SOL     OW23203   4.725   3.758   3.016
 7624SOL    HW123204   4.662   3.686   2.985
 7624SOL    HW223205   4.818   3.722   3.016
 7625SOL     OW23206   3.954   4.352   3.837
 7625SOL    HW123207   3.861   4.350   3.874
 7625SOL    HW223208   3.955   4.313   3.745
 7626SOL     OW23209   3.949   3.999   4.720
 7626SOL    HW123210   3.984   3.982   4.812
 7626SOL    HW223211   3.861   3.954   4.708
 7627SOL     OW23212   3.743   4.092   4.371
 7627SOL    HW123213   3.661   4.135   4.410
 7627SOL    HW223214   3.715   4.019   4.308
 7628SOL     OW23215   4.574   4.522   5.547
 7628SOL    HW123216   4.570   4.598   5.612
 7628SOL    HW223217   4.596   4.558   5.456
 7629SOL     OW23218   4.409   4.736   4.389
 7629SOL    HW123219   4.478   4.720   4.459
 7629SOL    HW223220   4.336   4.793   4.427
 7630SOL     OW23221   4.162   4.116   5.223
 7630SOL    HW123222   4.244   4.060   5.232
 7630SOL    HW223223   4.081   4.058   5.227
 7631SOL     OW23224   3.846   4.367   4.287
 7631SOL    HW123225   3.801   4.279   4.304
 7631SOL    HW223226   3.845   4.421   4.371
 7632SOL     OW23227   3.837   4.461   5.321
 7632SOL    HW123228   3.925   4.448   5.366
 7632SOL    HW223229   3.824   4.558   5.299
 7633SOL     OW23230   4.533   3.728   4.226
 7633SOL    HW123231   4.573   3.819   4.217
 7633SOL    HW223232   4.433   3.736   4.232
 7634SOL     OW23233   3.921   4.700   4.988
 7634SOL    HW123234   4.010   4.655   4.974
 7634SOL    HW223235   3.848   4.635   4.969
 7635SOL     OW23236   4.041   3.975   5.525
 7635SOL    HW123237   4.112   4.046   5.531
 7635SOL    HW223238   3.953   4.014   5.553
 7636SOL     OW23239   4.322   4.453   3.994
 7636SOL    HW123240   4.346   4.522   3.926
 7636SOL    HW223241   4.244   4.486   4.048
 7637SOL     OW23242   4.531   4.329   5.189
 7637SOL    HW123243   4.484   4.326   5.278
 7637SOL    HW223244   4.480   4.274   5.123
 7638SOL     OW23245   4.715   4.134   4.966
 7638SOL    HW123246   4.638   4.168   5.020
 7638SOL    HW223247   4.681   4.083   4.887
 7639SOL     OW23248   3.800   4.535   4.513
 7639SOL    HW123249   3.899   4.523   4.522
 7639SOL    HW223250   3.776   4.630   4.534
 7640SOL     OW23251   4.589   4.072   3.919
 7640SOL    HW123252   4.648   4.135   3.870
 7640SOL    HW223253   4.608   3.978   3.890
 7641SOL     OW23254   4.274   3.920   4.609
 7641SOL    HW123255   4.269   3.915   4.709
 7641SOL    HW223256   4.276   4.016   4.580
 7642SOL     OW23257   3.926   4.009   5.222
 7642SOL    HW123258   3.846   4.069   5.209
 7642SOL    HW223259   3.916   3.960   5.308
 7643SOL     OW23260   4.106   4.424   4.204
 7643SOL    HW123261   4.151   4.334   4.201
 7643SOL    HW223262   4.012   4.413   4.237
 7644SOL     OW23263   4.338   3.846   3.841
 7644SOL    HW123264   4.436   3.824   3.848
 7644SOL    HW223265   4.307   3.829   3.748
 7645SOL     OW23266   4.505   3.988   5.473
 7645SOL    HW123267   4.572   3.927   5.516
 7645SOL    HW223268   4.432   4.007   5.538
 7646SOL     OW23269   4.646   4.227   4.623
 7646SOL    HW123270   4.621   4.218   4.527
 7646SOL    HW223271   4.694   4.145   4.654
 7647SOL     OW23272   4.263   3.788   4.236
 7647SOL    HW123273   4.182   3.789   4.294
 7647SOL    HW223274   4.266   3.871   4.181
 7648SOL     OW23275   4.021   3.759   3.895
 7648SOL    HW123276   4.070   3.843   3.874
 7648SOL    HW223277   4.083   3.694   3.940
 7649SOL     OW23278   3.802   4.280   5.110
 7649SOL    HW123279   3.894   4.279   5.069
 7649SOL    HW223280   3.796   4.354   5.177
 7650SOL     OW23281   4.285   3.946   4.871
 7650SOL    HW123282   4.323   3.862   4.908
 7650SOL    HW223283   4.197   3.965   4.915
 7651SOL     OW23284   4.741   3.763   4.477
 7651SOL    HW123285   4.669   3.768   4.408
 7651SOL    HW223286   4.717   3.694   4.546
 7652SOL     OW23287   4.251   3.980   4.052
 7652SOL    HW123288   4.278   3.921   3.977
 7652SOL    HW223289   4.251   4.075   4.021
 7653SOL     OW23290   4.639   3.813   5.126
 7653SOL    HW123291   4.664   3.793   5.031
 7653SOL    HW223292   4.711   3.869   5.168
 7654SOL     OW23293   4.134   4.537   4.975
 7654SOL    HW123294   4.220   4.549   5.025
 7654SOL    HW223295   4.092   4.450   5.002
 7655SOL     OW23296   4.290   4.261   4.589
 7655SOL    HW123297   4.302   4.327   4.515
 7655SOL    HW223298   4.336   4.295   4.672
 7656SOL     OW23299   4.126   4.475   5.322
 7656SOL    HW123300   4.194   4.530   5.275
 7656SOL    HW223301   4.166   4.387   5.349
 7657SOL     OW23302   4.228   3.774   5.464
 7657SOL    HW123303   4.186   3.717   5.394
 7657SOL    HW223304   4.162   3.843   5.496
 7658SOL     OW23305   4.297   4.594   4.753
 7658SOL    HW123306   4.341   4.683   4.744
 7658SOL    HW223307   4.234   4.594   4.830
 7659SOL     OW23308   4.933   4.249   3.999
 7659SOL    HW123309   4.946   4.165   4.053
 7659SOL    HW223310   4.904   4.323   4.059
 7660SOL     OW23311   4.031   3.937   4.955
 7660SOL    HW123312   4.008   3.974   5.045
 7660SOL    HW223313   4.001   3.842   4.949
 7661SOL     OW23314   4.456   4.358   4.788
 7661SOL    HW123315   4.515   4.332   4.712
 7661SOL    HW223316   4.428   4.454   4.777
 7662SOL     OW23317   4.031   3.787   4.342
 7662SOL    HW123318   4.020   3.881   4.375
 7662SOL    HW223319   4.026   3.724   4.419
 7663SOL     OW23320   4.747   4.490   4.690
 7663SOL    HW123321   4.762   4.511   4.786
 7663SOL    HW223322   4.717   4.395   4.681
 7664SOL     OW23323   4.074   4.622   5.528
 7664SOL    HW123324   4.150   4.666   5.576
 7664SOL    HW223325   4.109   4.575   5.446
 7665SOL     OW23326   4.792   5.057   4.573
 7665SOL    HW123327   4.799   4.973   4.518
 7665SOL    HW223328   4.854   5.126   4.537
 7666SOL     OW23329   4.043   4.534   4.673
 7666SOL    HW123330   4.136   4.570   4.678
 7666SOL    HW223331   4.037   4.449   4.725
 7667SOL     OW23332   4.063   4.233   4.730
 7667SOL    HW123333   4.011   4.150   4.713
 7667SOL    HW223334   4.140   4.238   4.666
 7668SOL     OW23335   4.726   4.520   4.962
 7668SOL    HW123336   4.767   4.488   5.048
 7668SOL    HW223337   4.630   4.493   4.959
 7669SOL     OW23338   3.764   4.268   4.838
 7669SOL    HW123339   3.849   4.235   4.797
 7669SOL    HW223340   3.777   4.283   4.936
 7670SOL     OW23341   3.913   4.244   5.446
 7670SOL    HW123342   3.972   4.204   5.376
 7670SOL    HW223343   3.855   4.315   5.405
 7671SOL     OW23344   4.539   4.296   4.049
 7671SOL    HW123345   4.546   4.207   4.003
 7671SOL    HW223346   4.445   4.330   4.041
 7672SOL     OW23347   4.395   4.188   4.993
 7672SOL    HW123348   4.361   4.099   4.963
 7672SOL    HW223349   4.421   4.242   4.913
 7673SOL     OW23350   4.197   4.224   3.915
 7673SOL    HW123351   4.258   4.304   3.919
 7673SOL    HW223352   4.102   4.255   3.922
 7674SOL     OW23353   5.026   4.579   4.033
 7674SOL    HW123354   4.940   4.548   4.075
 7674SOL    HW223355   5.022   4.565   3.934
 7675SOL     OW23356   4.627   3.810   3.857
 7675SOL    HW123357   4.678   3.811   3.771
 7675SOL    HW223358   4.683   3.768   3.928
 7676SOL     OW23359   3.987   4.050   4.444
 7676SOL    HW123360   3.908   4.101   4.410
 7676SOL    HW223361   3.978   4.035   4.542
 7677SOL     OW23362   4.763   4.822   4.420
 7677SOL    HW123363   4.693   4.775   4.474
 7677SOL    HW223364   4.822   4.754   4.377
 7678SOL     OW23365   3.829   4.737   5.450
 7678SOL    HW123366   3.752   4.704   5.504
 7678SOL    HW223367   3.914   4.707   5.492
 7679SOL     OW23368   4.396   3.927   5.213
 7679SOL    HW123369   4.486   3.911   5.173
 7679SOL    HW223370   4.404   3.932   5.312
 7680SOL     OW23371   3.799   4.069   3.757
 7680SOL    HW123372   3.707   4.041   3.728
 7680SOL    HW223373   3.830   4.146   3.701
 7681SOL     OW23374   3.796   3.890   4.042
 7681SOL    HW123375   3.779   3.973   3.988
 7681SOL    HW223376   3.886   3.853   4.020
 7682SOL     OW23377   4.337   4.566   5.155
 7682SOL    HW123378   4.393   4.647   5.138
 7682SOL    HW223379   4.396   4.486   5.158
 7683SOL     OW23380   4.440   4.289   5.432
 7683SOL    HW123381   4.459   4.354   5.506
 7683SOL    HW223382   4.500   4.209   5.441
 7684SOL     OW23383   4.949   4.049   4.173
 7684SOL    HW123384   5.014   3.975   4.162
 7684SOL    HW223385   4.969   4.099   4.257
 7685SOL     OW23386   4.318   4.469   4.376
 7685SOL    HW123387   4.368   4.554   4.357
 7685SOL    HW223388   4.230   4.471   4.328
 7686SOL     OW23389   4.583   4.680   4.585
 7686SOL    HW123390   4.637   4.611   4.633
 7686SOL    HW223391   4.551   4.749   4.651
 7687SOL     OW23392   4.152   4.148   4.244
 7687SOL    HW123393   4.182   4.076   4.182
 7687SOL    HW223394   4.113   4.108   4.327
 7688SOL     OW23395   4.041   4.271   5.004
 7688SOL    HW123396   4.079   4.212   5.076
 7688SOL    HW223397   4.081   4.245   4.916
 7689SOL     OW23398   4.725   3.758   4.878
 7689SOL    HW123399   4.662   3.686   4.847
 7689SOL    HW223400   4.818   3.722   4.878
 7690SOL     OW23401   3.954   4.352   5.699
 7690SOL    HW123402   3.861   4.350   5.736
 7690SOL    HW223403   3.955   4.313   5.607
 7691SOL     OW23404   3.949   3.999   6.582
 7691SOL    HW123405   3.984   3.982   6.674
 7691SOL    HW223406   3.861   3.954   6.570
 7692SOL     OW23407   3.743   4.092   6.233
 7692SOL    HW123408   3.661   4.135   6.272
 7692SOL    HW223409   3.715   4.019   6.170
 7693SOL     OW23410   4.574   4.522   7.409
 7693SOL    HW123411   4.570   4.598   7.474
 7693SOL    HW223412   4.596   4.558   7.318
 7694SOL     OW23413   4.409   4.736   6.251
 7694SOL    HW123414   4.478   4.720   6.321
 7694SOL    HW223415   4.336   4.793   6.289
 7695SOL     OW23416   4.162   4.116   7.085
 7695SOL    HW123417   4.244   4.060   7.094
 7695SOL    HW223418   4.081   4.058   7.089
 7696SOL     OW23419   3.846   4.367   6.149
 7696SOL    HW123420   3.801   4.279   6.166
 7696SOL    HW223421   3.845   4.421   6.233
 7697SOL     OW23422   3.837   4.461   7.183
 7697SOL    HW123423   3.925   4.448   7.228
 7697SOL    HW223424   3.824   4.558   7.161
 7698SOL     OW23425   4.533   3.728   6.088
 7698SOL    HW123426   4.573   3.819   6.079
 7698SOL    HW223427   4.433   3.736   6.094
 7699SOL     OW23428   3.921   4.700   6.850
 7699SOL    HW123429   4.010   4.655   6.836
 7699SOL    HW223430   3.848   4.635   6.831
 7700SOL     OW23431   4.041   3.975   7.387
 7700SOL    HW123432   4.112   4.046   7.393
 7700SOL    HW223433   3.953   4.014   7.415
 7701SOL     OW23434   4.322   4.453   5.856
 7701SOL    HW123435   4.346   4.522   5.788
 7701SOL    HW223436   4.244   4.486   5.910
 7702SOL     OW23437   4.531   4.329   7.051
 7702SOL    HW123438   4.484   4.326   7.140
 7702SOL    HW223439   4.480   4.274   6.985
 7703SOL     OW23440   4.715   4.134   6.828
 7703SOL    HW123441   4.638   4.168   6.882
 7703SOL    HW223442   4.681   4.083   6.749
 7704SOL     OW23443   3.800   4.535   6.375
 7704SOL    HW123444   3.899   4.523   6.384
 7704SOL    HW223445   3.776   4.630   6.396
 7705SOL     OW23446   4.589   4.072   5.781
 7705SOL    HW123447   4.648   4.135   5.732
 7705SOL    HW223448   4.608   3.978   5.752
 7706SOL     OW23449   4.274   3.920   6.471
 7706SOL    HW123450   4.269   3.915   6.571
 7706SOL    HW223451   4.276   4.016   6.442
 7707SOL     OW23452   3.926   4.009   7.084
 7707SOL    HW123453   3.846   4.069   7.071
 7707SOL    HW223454   3.916   3.960   7.170
 7708SOL     OW23455   4.106   4.424   6.066
 7708SOL    HW123456   4.151   4.334   6.063
 7708SOL    HW223457   4.012   4.413   6.099
 7709SOL     OW23458   4.338   3.846   5.703
 7709SOL    HW123459   4.436   3.824   5.710
 7709SOL    HW223460   4.307   3.829   5.610
 7710SOL     OW23461   4.505   3.988   7.335
 7710SOL    HW123462   4.572   3.927   7.378
 7710SOL    HW223463   4.432   4.007   7.400
 7711SOL     OW23464   4.646   4.227   6.485
 7711SOL    HW123465   4.621   4.218   6.389
 7711SOL    HW223466   4.694   4.145   6.516
 7712SOL     OW23467   4.263   3.788   6.098
 7712SOL    HW123468   4.182   3.789   6.156
 7712SOL    HW223469   4.266   3.871   6.043
 7713SOL     OW23470   4.021   3.759   5.757
 7713SOL    HW123471   4.070   3.843   5.736
 7713SOL    HW223472   4.083   3.694   5.802
 7714SOL     OW23473   3.802   4.280   6.972
 7714SOL    HW123474   3.894   4.279   6.931
 7714SOL    HW223475   3.796   4.354   7.039
 7715SOL     OW23476   4.285   3.946   6.733
 7715SOL    HW123477   4.323   3.862   6.770
 7715SOL    HW223478   4.197   3.965   6.777
 7716SOL     OW23479   4.741   3.763   6.339
 7716SOL    HW123480   4.669   3.768   6.270
 7716SOL    HW223481   4.717   3.694   6.408
 7717SOL     OW23482   4.251   3.980   5.914
 7717SOL    HW123483   4.278   3.921   5.839
 7717SOL    HW223484   4.251   4.075   5.883
 7718SOL     OW23485   4.639   3.813   6.988
 7718SOL    HW123486   4.664   3.793   6.893
 7718SOL    HW223487   4.711   3.869   7.030
 7719SOL     OW23488   4.134   4.537   6.837
 7719SOL    HW123489   4.220   4.549   6.887
 7719SOL    HW223490   4.092   4.450   6.864
 7720SOL     OW23491   4.290   4.261   6.451
 7720SOL    HW123492   4.302   4.327   6.377
 7720SOL    HW223493   4.336   4.295   6.534
 7721SOL     OW23494   4.126   4.475   7.184
 7721SOL    HW123495   4.194   4.530   7.137
 7721SOL    HW223496   4.166   4.387   7.211
 7722SOL     OW23497   4.228   3.774   7.326
 7722SOL    HW123498   4.186   3.717   7.256
 7722SOL    HW223499   4.162   3.843   7.358
 7723SOL     OW23500   4.297   4.594   6.615
 7723SOL    HW123501   4.341   4.683   6.606
 7723SOL    HW223502   4.234   4.594   6.692
 7724SOL     OW23503   4.933   4.249   5.861
 7724SOL    HW123504   4.946   4.165   5.915
 7724SOL    HW223505   4.904   4.323   5.921
 7725SOL     OW23506   4.031   3.937   6.817
 7725SOL    HW123507   4.008   3.974   6.907
 7725SOL    HW223508   4.001   3.842   6.811
 7726SOL     OW23509   4.456   4.358   6.650
 7726SOL    HW123510   4.515   4.332   6.574
 7726SOL    HW223511   4.428   4.454   6.639
 7727SOL     OW23512   4.031   3.787   6.204
 7727SOL    HW123513   4.020   3.881   6.237
 7727SOL    HW223514   4.026   3.724   6.281
 7728SOL     OW23515   4.747   4.490   6.552
 7728SOL    HW123516   4.762   4.511   6.648
 7728SOL    HW223517   4.717   4.395   6.543
 7729SOL     OW23518   4.074   4.622   7.390
 7729SOL    HW123519   4.150   4.666   7.438
 7729SOL    HW223520   4.109   4.575   7.308
 7730SOL     OW23521   4.792   5.057   6.435
 7730SOL    HW123522   4.799   4.973   6.380
 7730SOL    HW223523   4.854   5.126   6.399
 7731SOL     OW23524   4.043   4.534   6.535
 7731SOL    HW123525   4.136   4.570   6.540
 7731SOL    HW223526   4.037   4.449   6.587
 7732SOL     OW23527   4.063   4.233   6.592
 7732SOL    HW123528   4.011   4.150   6.575
 7732SOL    HW223529   4.140   4.238   6.528
 7733SOL     OW23530   4.726   4.520   6.824
 7733SOL    HW123531   4.767   4.488   6.910
 7733SOL    HW223532   4.630   4.493   6.821
 7734SOL     OW23533   3.764   4.268   6.700
 7734SOL    HW123534   3.849   4.235   6.659
 7734SOL    HW223535   3.777   4.283   6.798
 7735SOL     OW23536   3.913   4.244   7.308
 7735SOL    HW123537   3.972   4.204   7.238
 7735SOL    HW223538   3.855   4.315   7.267
 7736SOL     OW23539   4.539   4.296   5.911
 7736SOL    HW123540   4.546   4.207   5.865
 7736SOL    HW223541   4.445   4.330   5.903
 7737SOL     OW23542   4.395   4.188   6.855
 7737SOL    HW123543   4.361   4.099   6.825
 7737SOL    HW223544   4.421   4.242   6.775
 7738SOL     OW23545   4.197   4.224   5.777
 7738SOL    HW123546   4.258   4.304   5.781
 7738SOL    HW223547   4.102   4.255   5.784
 7739SOL     OW23548   5.026   4.579   5.895
 7739SOL    HW123549   4.940   4.548   5.937
 7739SOL    HW223550   5.022   4.565   5.796
 7740SOL     OW23551   4.627   3.810   5.719
 7740SOL    HW123552   4.678   3.811   5.633
 7740SOL    HW223553   4.683   3.768   5.790
 7741SOL     OW23554   3.987   4.050   6.306
 7741SOL    HW123555   3.908   4.101   6.272
 7741SOL    HW223556   3.978   4.035   6.404
 7742SOL     OW23557   4.763   4.822   6.282
 7742SOL    HW123558   4.693   4.775   6.336
 7742SOL    HW223559   4.822   4.754   6.239
 7743SOL     OW23560   3.829   4.737   7.312
 7743SOL    HW123561   3.752   4.704   7.366
 7743SOL    HW223562   3.914   4.707   7.354
 7744SOL     OW23563   4.396   3.927   7.075
 7744SOL    HW123564   4.486   3.911   7.035
 7744SOL    HW223565   4.404   3.932   7.174
 7745SOL     OW23566   3.799   4.069   5.619
 7745SOL    HW123567   3.707   4.041   5.590
 7745SOL    HW223568   3.830   4.146   5.563
 7746SOL     OW23569   3.796   3.890   5.904
 7746SOL    HW123570   3.779   3.973   5.850
 7746SOL    HW223571   3.886   3.853   5.882
 7747SOL     OW23572   4.337   4.566   7.017
 7747SOL    HW123573   4.393   4.647   7.000
 7747SOL    HW223574   4.396   4.486   7.020
 7748SOL     OW23575   4.440   4.289   7.294
 7748SOL    HW123576   4.459   4.354   7.368
 7748SOL    HW223577   4.500   4.209   7.303
 7749SOL     OW23578   4.949   4.049   6.035
 7749SOL    HW123579   5.014   3.975   6.024
 7749SOL    HW223580   4.969   4.099   6.119
 7750SOL     OW23581   4.318   4.469   6.238
 7750SOL    HW123582   4.368   4.554   6.219
 7750SOL    HW223583   4.230   4.471   6.190
 7751SOL     OW23584   4.583   4.680   6.447
 7751SOL    HW123585   4.637   4.611   6.495
 7751SOL    HW223586   4.551   4.749   6.513
 7752SOL     OW23587   4.152   4.148   6.106
 7752SOL    HW123588   4.182   4.076   6.044
 7752SOL    HW223589   4.113   4.108   6.189
 7753SOL     OW23590   4.041   4.271   6.866
 7753SOL    HW123591   4.079   4.212   6.938
 7753SOL    HW223592   4.081   4.245   6.778
 7754SOL     OW23593   4.725   3.758   6.740
 7754SOL    HW123594   4.662   3.686   6.709
 7754SOL    HW223595   4.818   3.722   6.740
 7755SOL     OW23596   3.954   4.352   7.561
 7755SOL    HW123597   3.861   4.350   7.598
 7755SOL    HW223598   3.955   4.313   7.469
 7756SOL     OW23599   3.949   3.999   8.444
 7756SOL    HW123600   3.984   3.982   8.536
 7756SOL    HW223601   3.861   3.954   8.432
 7757SOL     OW23602   3.743   4.092   8.095
 7757SOL    HW123603   3.661   4.135   8.134
 7757SOL    HW223604   3.715   4.019   8.032
 7758SOL     OW23605   4.574   4.522   9.271
 7758SOL    HW123606   4.570   4.598   9.336
 7758SOL    HW223607   4.596   4.558   9.180
 7759SOL     OW23608   4.409   4.736   8.113
 7759SOL    HW123609   4.478   4.720   8.183
 7759SOL    HW223610   4.336   4.793   8.151
 7760SOL     OW23611   4.162   4.116   8.947
 7760SOL    HW123612   4.244   4.060   8.956
 7760SOL    HW223613   4.081   4.058   8.951
 7761SOL     OW23614   3.846   4.367   8.011
 7761SOL    HW123615   3.801   4.279   8.028
 7761SOL    HW223616   3.845   4.421   8.095
 7762SOL     OW23617   3.837   4.461   9.045
 7762SOL    HW123618   3.925   4.448   9.090
 7762SOL    HW223619   3.824   4.558   9.023
 7763SOL     OW23620   4.533   3.728   7.950
 7763SOL    HW123621   4.573   3.819   7.941
 7763SOL    HW223622   4.433   3.736   7.956
 7764SOL     OW23623   3.921   4.700   8.712
 7764SOL    HW123624   4.010   4.655   8.698
 7764SOL    HW223625   3.848   4.635   8.693
 7765SOL     OW23626   4.041   3.975   9.249
 7765SOL    HW123627   4.112   4.046   9.255
 7765SOL    HW223628   3.953   4.014   9.277
 7766SOL     OW23629   4.322   4.453   7.718
 7766SOL    HW123630   4.346   4.522   7.650
 7766SOL    HW223631   4.244   4.486   7.772
 7767SOL     OW23632   4.531   4.329   8.913
 7767SOL    HW123633   4.484   4.326   9.002
 7767SOL    HW223634   4.480   4.274   8.847
 7768SOL     OW23635   4.715   4.134   8.690
 7768SOL    HW123636   4.638   4.168   8.744
 7768SOL    HW223637   4.681   4.083   8.611
 7769SOL     OW23638   3.800   4.535   8.237
 7769SOL    HW123639   3.899   4.523   8.246
 7769SOL    HW223640   3.776   4.630   8.258
 7770SOL     OW23641   4.589   4.072   7.643
 7770SOL    HW123642   4.648   4.135   7.594
 7770SOL    HW223643   4.608   3.978   7.614
 7771SOL     OW23644   4.274   3.920   8.333
 7771SOL    HW123645   4.269   3.915   8.433
 7771SOL    HW223646   4.276   4.016   8.304
 7772SOL     OW23647   3.926   4.009   8.946
 7772SOL    HW123648   3.846   4.069   8.933
 7772SOL    HW223649   3.916   3.960   9.032
 7773SOL     OW23650   4.106   4.424   7.928
 7773SOL    HW123651   4.151   4.334   7.925
 7773SOL    HW223652   4.012   4.413   7.961
 7774SOL     OW23653   4.338   3.846   7.565
 7774SOL    HW123654   4.436   3.824   7.572
 7774SOL    HW223655   4.307   3.829   7.472
 7775SOL     OW23656   4.505   3.988   9.197
 7775SOL    HW123657   4.572   3.927   9.240
 7775SOL    HW223658   4.432   4.007   9.262
 7776SOL     OW23659   4.646   4.227   8.347
 7776SOL    HW123660   4.621   4.218   8.251
 7776SOL    HW223661   4.694   4.145   8.378
 7777SOL     OW23662   4.263   3.788   7.960
 7777SOL    HW123663   4.182   3.789   8.018
 7777SOL    HW223664   4.266   3.871   7.905
 7778SOL     OW23665   4.021   3.759   7.619
 7778SOL    HW123666   4.070   3.843   7.598
 7778SOL    HW223667   4.083   3.694   7.664
 7779SOL     OW23668   3.802   4.280   8.834
 7779SOL    HW123669   3.894   4.279   8.793
 7779SOL    HW223670   3.796   4.354   8.901
 7780SOL     OW23671   4.285   3.946   8.595
 7780SOL    HW123672   4.323   3.862   8.632
 7780SOL    HW223673   4.197   3.965   8.639
 7781SOL     OW23674   4.741   3.763   8.201
 7781SOL    HW123675   4.669   3.768   8.132
 7781SOL    HW223676   4.717   3.694   8.270
 7782SOL     OW23677   4.251   3.980   7.776
 7782SOL    HW123678   4.278   3.921   7.701
 7782SOL    HW223679   4.251   4.075   7.745
 7783SOL     OW23680   4.639   3.813   8.850
 7783SOL    HW123681   4.664   3.793   8.755
 7783SOL    HW223682   4.711   3.869   8.892
 7784SOL     OW23683   4.134   4.537   8.699
 7784SOL    HW123684   4.220   4.549   8.749
 7784SOL    HW223685   4.092   4.450   8.726
 7785SOL     OW23686   4.290   4.261   8.313
 7785SOL    HW123687   4.302   4.327   8.239
 7785SOL    HW223688   4.336   4.295   8.396
 7786SOL     OW23689   4.126   4.475   9.046
 7786SOL    HW123690   4.194   4.530   8.999
 7786SOL    HW223691   4.166   4.387   9.073
 7787SOL     OW23692   4.228   3.774   9.188
 7787SOL    HW123693   4.186   3.717   9.118
 7787SOL    HW223694   4.162   3.843   9.220
 7788SOL     OW23695   4.297   4.594   8.477
 7788SOL    HW123696   4.341   4.683   8.468
 7788SOL    HW223697   4.234   4.594   8.554
 7789SOL     OW23698   4.933   4.249   7.723
 7789SOL    HW123699   4.946   4.165   7.777
 7789SOL    HW223700   4.904   4.323   7.783
 7790SOL     OW23701   4.031   3.937   8.679
 7790SOL    HW123702   4.008   3.974   8.769
 7790SOL    HW223703   4.001   3.842   8.673
 7791SOL     OW23704   4.456   4.358   8.512
 7791SOL    HW123705   4.515   4.332   8.436
 7791SOL    HW223706   4.428   4.454   8.501
 7792SOL     OW23707   4.031   3.787   8.066
 7792SOL    HW123708   4.020   3.881   8.099
 7792SOL    HW223709   4.026   3.724   8.143
 7793SOL     OW23710   4.747   4.490   8.414
 7793SOL    HW123711   4.762   4.511   8.510
 7793SOL    HW223712   4.717   4.395   8.405
 7794SOL     OW23713   4.074   4.622   9.252
 7794SOL    HW123714   4.150   4.666   9.300
 7794SOL    HW223715   4.109   4.575   9.170
 7795SOL     OW23716   4.792   5.057   8.297
 7795SOL    HW123717   4.799   4.973   8.242
 7795SOL    HW223718   4.854   5.126   8.261
 7796SOL     OW23719   4.043   4.534   8.397
 7796SOL    HW123720   4.136   4.570   8.402
 7796SOL    HW223721   4.037   4.449   8.449
 7797SOL     OW23722   4.063   4.233   8.454
 7797SOL    HW123723   4.011   4.150   8.437
 7797SOL    HW223724   4.140   4.238   8.390
 7798SOL     OW23725   4.726   4.520   8.686
 7798SOL    HW123726   4.767   4.488   8.772
 7798SOL    HW223727   4.630   4.493   8.683
 7799SOL     OW23728   3.764   4.268   8.562
 7799SOL    HW123729   3.849   4.235   8.521
 7799SOL    HW223730   3.777   4.283   8.660
 7800SOL     OW23731   3.913   4.244   9.170
 7800SOL    HW123732   3.972   4.204   9.100
 7800SOL    HW223733   3.855   4.315   9.129
 7801SOL     OW23734   4.539   4.296   7.773
 7801SOL    HW123735   4.546   4.207   7.727
 7801SOL    HW223736   4.445   4.330   7.765
 7802SOL     OW23737   4.395   4.188   8.717
 7802SOL    HW123738   4.361   4.099   8.687
 7802SOL    HW223739   4.421   4.242   8.637
 7803SOL     OW23740   4.197   4.224   7.639
 7803SOL    HW123741   4.258   4.304   7.643
 7803SOL    HW223742   4.102   4.255   7.646
 7804SOL     OW23743   5.026   4.579   7.757
 7804SOL    HW123744   4.940   4.548   7.799
 7804SOL    HW223745   5.022   4.565   7.658
 7805SOL     OW23746   4.627   3.810   7.581
 7805SOL    HW123747   4.678   3.811   7.495
 7805SOL    HW223748   4.683   3.768   7.652
 7806SOL     OW23749   3.987   4.050   8.168
 7806SOL    HW123750   3.908   4.101   8.134
 7806SOL    HW223751   3.978   4.035   8.266
 7807SOL     OW23752   4.763   4.822   8.144
 7807SOL    HW123753   4.693   4.775   8.198
 7807SOL    HW223754   4.822   4.754   8.101
 7808SOL     OW23755   3.829   4.737   9.174
 7808SOL    HW123756   3.752   4.704   9.228
 7808SOL    HW223757   3.914   4.707   9.216
 7809SOL     OW23758   4.396   3.927   8.937
 7809SOL    HW123759   4.486   3.911   8.897
 7809SOL    HW223760   4.404   3.932   9.036
 7810SOL     OW23761   3.799   4.069   7.481
 7810SOL    HW123762   3.707   4.041   7.452
 7810SOL    HW223763   3.830   4.146   7.425
 7811SOL     OW23764   3.796   3.890   7.766
 7811SOL    HW123765   3.779   3.973   7.712
 7811SOL    HW223766   3.886   3.853   7.744
 7812SOL     OW23767   4.337   4.566   8.879
 7812SOL    HW123768   4.393   4.647   8.862
 7812SOL    HW223769   4.396   4.486   8.882
 7813SOL     OW23770   4.440   4.289   9.156
 7813SOL    HW123771   4.459   4.354   9.230
 7813SOL    HW223772   4.500   4.209   9.165
 7814SOL     OW23773   4.949   4.049   7.897
 7814SOL    HW123774   5.014   3.975   7.886
 7814SOL    HW223775   4.969   4.099   7.981
 7815SOL     OW23776   4.318   4.469   8.100
 7815SOL    HW123777   4.368   4.554   8.081
 7815SOL    HW223778   4.230   4.471   8.052
 7816SOL     OW23779   4.583   4.680   8.309
 7816SOL    HW123780   4.637   4.611   8.357
 7816SOL    HW223781   4.551   4.749   8.375
 7817SOL     OW23782   4.152   4.148   7.968
 7817SOL    HW123783   4.182   4.076   7.906
 7817SOL    HW223784   4.113   4.108   8.051
 7818SOL     OW23785   4.041   4.271   8.728
 7818SOL    HW123786   4.079   4.212   8.800
 7818SOL    HW223787   4.081   4.245   8.640
 7819SOL     OW23788   4.725   3.758   8.602
 7819SOL    HW123789   4.662   3.686   8.571
 7819SOL    HW223790   4.818   3.722   8.602
 7820SOL     OW23791   3.954   4.352   9.423
 7820SOL    HW123792   3.861   4.350   9.460
 7820SOL    HW223793   3.955   4.313   9.331
 7821SOL     OW23794   3.949   3.999  10.306
 7821SOL    HW123795   3.984   3.982  10.398
 7821SOL    HW223796   3.861   3.954  10.294
 7822SOL     OW23797   3.743   4.092   9.957
 7822SOL    HW123798   3.661   4.135   9.996
 7822SOL    HW223799   3.715   4.019   9.894
 7823SOL     OW23800   4.574   4.522  11.133
 7823SOL    HW123801   4.570   4.598  11.198
 7823SOL    HW223802   4.596   4.558  11.042
 7824SOL     OW23803   4.409   4.736   9.975
 7824SOL    HW123804   4.478   4.720  10.045
 7824SOL    HW223805   4.336   4.793  10.013
 7825SOL     OW23806   4.162   4.116  10.809
 7825SOL    HW123807   4.244   4.060  10.818
 7825SOL    HW223808   4.081   4.058  10.813
 7826SOL     OW23809   3.846   4.367   9.873
 7826SOL    HW123810   3.801   4.279   9.890
 7826SOL    HW223811   3.845   4.421   9.957
 7827SOL     OW23812   4.533   3.728   9.812
 7827SOL    HW123813   4.573   3.819   9.803
 7827SOL    HW223814   4.433   3.736   9.818
 7828SOL     OW23815   3.921   4.700  10.574
 7828SOL    HW123816   4.010   4.655  10.560
 7828SOL    HW223817   3.848   4.635  10.555
 7829SOL     OW23818   4.322   4.453   9.580
 7829SOL    HW123819   4.346   4.522   9.512
 7829SOL    HW223820   4.244   4.486   9.634
 7830SOL     OW23821   4.531   4.329  10.775
 7830SOL    HW123822   4.484   4.326  10.864
 7830SOL    HW223823   4.480   4.274  10.709
 7831SOL     OW23824   4.697   4.614  10.882
 7831SOL    HW123825   4.743   4.530  10.853
 7831SOL    HW223826   4.641   4.648  10.807
 7832SOL     OW23827   4.715   4.134  10.552
 7832SOL    HW123828   4.638   4.168  10.606
 7832SOL    HW223829   4.681   4.083  10.473
 7833SOL     OW23830   3.800   4.535  10.099
 7833SOL    HW123831   3.899   4.523  10.108
 7833SOL    HW223832   3.776   4.630  10.120
 7834SOL     OW23833   4.589   4.072   9.505
 7834SOL    HW123834   4.648   4.135   9.456
 7834SOL    HW223835   4.608   3.978   9.476
 7835SOL     OW23836   4.274   3.920  10.195
 7835SOL    HW123837   4.269   3.915  10.295
 7835SOL    HW223838   4.276   4.016  10.166
 7836SOL     OW23839   4.106   4.424   9.790
 7836SOL    HW123840   4.151   4.334   9.787
 7836SOL    HW223841   4.012   4.413   9.823
 7837SOL     OW23842   4.338   3.846   9.427
 7837SOL    HW123843   4.436   3.824   9.434
 7837SOL    HW223844   4.307   3.829   9.334
 7838SOL     OW23845   4.646   4.227  10.209
 7838SOL    HW123846   4.621   4.218  10.113
 7838SOL    HW223847   4.694   4.145  10.240
 7839SOL     OW23848   4.263   3.788   9.822
 7839SOL    HW123849   4.182   3.789   9.880
 7839SOL    HW223850   4.266   3.871   9.767
 7840SOL     OW23851   4.021   3.759   9.481
 7840SOL    HW123852   4.070   3.843   9.460
 7840SOL    HW223853   4.083   3.694   9.526
 7841SOL     OW23854   3.802   4.280  10.696
 7841SOL    HW123855   3.894   4.279  10.655
 7841SOL    HW223856   3.796   4.354  10.763
 7842SOL     OW23857   4.285   3.946  10.457
 7842SOL    HW123858   4.323   3.862  10.494
 7842SOL    HW223859   4.197   3.965  10.501
 7843SOL     OW23860   4.741   3.763  10.063
 7843SOL    HW123861   4.669   3.768   9.994
 7843SOL    HW223862   4.717   3.694  10.132
 7844SOL     OW23863   4.251   3.980   9.638
 7844SOL    HW123864   4.278   3.921   9.563
 7844SOL    HW223865   4.251   4.075   9.607
 7845SOL     OW23866   4.639   3.813  10.712
 7845SOL    HW123867   4.664   3.793  10.617
 7845SOL    HW223868   4.711   3.869  10.754
 7846SOL     OW23869   4.134   4.537  10.561
 7846SOL    HW123870   4.220   4.549  10.611
 7846SOL    HW223871   4.092   4.450  10.588
 7847SOL     OW23872   4.290   4.261  10.175
 7847SOL    HW123873   4.302   4.327  10.101
 7847SOL    HW223874   4.336   4.295  10.258
 7848SOL     OW23875   4.126   4.475  10.908
 7848SOL    HW123876   4.194   4.530  10.861
 7848SOL    HW223877   4.166   4.387  10.935
 7849SOL     OW23878   4.297   4.594  10.339
 7849SOL    HW123879   4.341   4.683  10.330
 7849SOL    HW223880   4.234   4.594  10.416
 7850SOL     OW23881   4.933   4.249   9.585
 7850SOL    HW123882   4.946   4.165   9.639
 7850SOL    HW223883   4.904   4.323   9.645
 7851SOL     OW23884   4.031   3.937  10.541
 7851SOL    HW123885   4.008   3.974  10.631
 7851SOL    HW223886   4.001   3.842  10.535
 7852SOL     OW23887   4.456   4.358  10.374
 7852SOL    HW123888   4.515   4.332  10.298
 7852SOL    HW223889   4.428   4.454  10.363
 7853SOL     OW23890   4.031   3.787   9.928
 7853SOL    HW123891   4.020   3.881   9.961
 7853SOL    HW223892   4.026   3.724  10.005
 7854SOL     OW23893   4.747   4.490  10.276
 7854SOL    HW123894   4.762   4.511  10.372
 7854SOL    HW223895   4.717   4.395  10.267
 7855SOL     OW23896   4.792   5.057  10.159
 7855SOL    HW123897   4.799   4.973  10.104
 7855SOL    HW223898   4.854   5.126  10.123
 7856SOL     OW23899   4.043   4.534  10.259
 7856SOL    HW123900   4.136   4.570  10.264
 7856SOL    HW223901   4.037   4.449  10.311
 7857SOL     OW23902   4.063   4.233  10.316
 7857SOL    HW123903   4.011   4.150  10.299
 7857SOL    HW223904   4.140   4.238  10.252
 7858SOL     OW23905   4.726   4.520  10.548
 7858SOL    HW123906   4.767   4.488  10.634
 7858SOL    HW223907   4.630   4.493  10.545
 7859SOL     OW23908   3.764   4.268  10.424
 7859SOL    HW123909   3.849   4.235  10.383
 7859SOL    HW223910   3.777   4.283  10.522
 7860SOL     OW23911   4.539   4.296   9.635
 7860SOL    HW123912   4.546   4.207   9.589
 7860SOL    HW223913   4.445   4.330   9.627
 7861SOL     OW23914   4.395   4.188  10.579
 7861SOL    HW123915   4.361   4.099  10.549
 7861SOL    HW223916   4.421   4.242  10.499
 7862SOL     OW23917   4.197   4.224   9.501
 7862SOL    HW123918   4.258   4.304   9.505
 7862SOL    HW223919   4.102   4.255   9.508
 7863SOL     OW23920   3.883   4.861  10.776
 7863SOL    HW123921   3.905   4.800  10.852
 7863SOL    HW223922   3.893   4.812  10.690
 7864SOL     OW23923   5.026   4.579   9.619
 7864SOL    HW123924   4.940   4.548   9.661
 7864SOL    HW223925   5.022   4.565   9.520
 7865SOL     OW23926   4.627   3.810   9.443
 7865SOL    HW123927   4.678   3.811   9.357
 7865SOL    HW223928   4.683   3.768   9.514
 7866SOL     OW23929   4.554   4.997  10.732
 7866SOL    HW123930   4.549   5.030  10.827
 7866SOL    HW223931   4.468   5.016  10.686
 7867SOL     OW23932   3.987   4.050  10.030
 7867SOL    HW123933   3.908   4.101   9.996
 7867SOL    HW223934   3.978   4.035  10.128
 7868SOL     OW23935   4.763   4.822  10.006
 7868SOL    HW123936   4.693   4.775  10.060
 7868SOL    HW223937   4.822   4.754   9.963
 7869SOL     OW23938   3.799   4.069   9.343
 7869SOL    HW123939   3.707   4.041   9.314
 7869SOL    HW223940   3.830   4.146   9.287
 7870SOL     OW23941   3.796   3.890   9.628
 7870SOL    HW123942   3.779   3.973   9.574
 7870SOL    HW223943   3.886   3.853   9.606
 7871SOL     OW23944   4.337   4.566  10.741
 7871SOL    HW123945   4.393   4.647  10.724
 7871SOL    HW223946   4.396   4.486  10.744
 7872SOL     OW23947   4.949   4.049   9.759
 7872SOL    HW123948   5.014   3.975   9.748
 7872SOL    HW223949   4.969   4.099   9.843
 7873SOL     OW23950   4.318   4.469   9.962
 7873SOL    HW123951   4.368   4.554   9.943
 7873SOL    HW223952   4.230   4.471   9.914
 7874SOL     OW23953   4.583   4.680  10.171
 7874SOL    HW123954   4.637   4.611  10.219
 7874SOL    HW223955   4.551   4.749  10.237
 7875SOL     OW23956   4.152   4.148   9.830
 7875SOL    HW123957   4.182   4.076   9.768
 7875SOL    HW223958   4.113   4.108   9.913
 7876SOL     OW23959   4.041   4.271  10.590
 7876SOL    HW123960   4.079   4.212  10.662
 7876SOL    HW223961   4.081   4.245  10.502
 7877SOL     OW23962   4.725   3.758  10.464
 7877SOL    HW123963   4.662   3.686  10.433
 7877SOL    HW223964   4.818   3.722  10.464
   4.74000   4.74000  10.88565
