2gCDOC_1PEG_l11
21981
    1LIG      O    1   2.215   2.279   0.025
    1LIG      C    2   2.295   2.292   0.151
    1LIG     C1    3   2.223   2.236   0.282
    1LIG     O1    4   2.283   2.287   0.407
    1LIG     C2    5   2.222   2.233   0.530
    1LIG     C3    6   2.296   2.280   0.663
    1LIG     O2    7   2.234   2.222   0.783
    1LIG     C4    8   2.289   2.274   0.908
    1LIG     C5    9   2.209   2.222   1.034
    1LIG     O3   10   2.267   2.274   1.158
    1LIG     C6   11   2.210   2.222   1.281
    1LIG     C7   12   2.286   2.280   1.406
    1LIG     O4   13   2.218   2.244   1.529
    1LIG     C8   14   2.294   2.277   1.649
    1LIG     C9   15   2.218   2.225   1.774
    1LIG     O5   16   2.282   2.272   1.894
    1LIG    C10   17   2.222   2.222   2.016
    1LIG    C11   18   2.297   2.276   2.141
    1LIG     O6   19   2.241   2.217   2.262
    1LIG    C12   20   2.292   2.280   2.383
    1LIG    C13   21   2.216   2.227   2.508
    1LIG     O7   22   2.284   2.271   2.629
    1LIG    C14   23   2.213   2.244   2.752
    1LIG    C15   24   2.294   2.300   2.876
    1LIG     O8   25   2.244   2.248   3.002
    1LIG    C16   26   2.304   2.301   3.123
    1LIG    C17   27   2.232   2.239   3.246
    1LIG     O9   28   2.281   2.298   3.370
    1LIG    C18   29   2.222   2.238   3.489
    1LIG    C19   30   2.297   2.287   3.617
    1LIG    O10   31   2.231   2.237   3.736
    1LIG    C20   32   2.295   2.285   3.859
    1LIG    C21   33   2.216   2.235   3.985
    1LIG    O11   34   2.275   2.286   4.107
    1LIG    C22   35   2.211   2.231   4.226
    1LIG    C23   36   2.287   2.278   4.354
    1LIG    O12   37   2.229   2.218   4.473
    1LIG    C24   38   2.286   2.275   4.594
    1LIG    C25   39   2.213   2.220   4.720
    1LIG    O13   40   2.280   2.265   4.841
    1LIG    C26   41   2.220   2.214   4.963
    1LIG    C27   42   2.291   2.279   5.089
    1LIG    O14   43   2.217   2.258   5.211
    1LIG    C28   44   2.291   2.294   5.332
    1LIG    C29   45   2.203   2.262   5.457
    1LIG    O15   46   2.275   2.286   5.581
    1LIG    C30   47   2.214   2.223   5.698
    1LIG    C31   48   2.287   2.270   5.829
    1LIG    O16   49   2.237   2.208   5.950
    1LIG    C32   50   2.284   2.275   6.072
    1LIG    C33   51   2.208   2.219   6.198
    1LIG    O17   52   2.251   2.284   6.320
    1LIG    C34   53   2.182   2.237   6.439
    1LIG    C35   54   2.251   2.297   6.567
    1LIG    O18   55   2.192   2.249   6.690
    1LIG    C36   56   2.265   2.295   6.807
    1LIG    C37   57   2.207   2.226   6.933
    1LIG    O19   58   2.262   2.286   7.052
    1LIG    C38   59   2.210   2.225   7.173
    1LIG    C39   60   2.289   2.278   7.297
    1LIG    O20   61   2.229   2.229   7.420
    1LIG    C40   62   2.294   2.280   7.539
    1LIG    C41   63   2.218   2.230   7.666
    1LIG    O21   64   2.284   2.272   7.787
    1LIG    C42   65   2.214   2.228   7.906
    1LIG    C43   66   2.287   2.280   8.033
    1LIG    O22   67   2.231   2.218   8.152
    1LIG    C44   68   2.286   2.276   8.274
    1LIG    C45   69   2.211   2.221   8.399
    1LIG    O23   70   2.270   2.276   8.520
    1LIG    C46   71   2.216   2.220   8.643
    1LIG    C47   72   2.292   2.281   8.766
    1LIG    O24   73   2.222   2.247   8.890
    1LIG    C48   74   2.297   2.282   9.010
    1LIG    C49   75   2.224   2.226   9.137
    1LIG    O25   76   2.292   2.271   9.257
    1LIG    C50   77   2.229   2.226   9.380
    1LIG    C51   78   2.306   2.278   9.506
    1LIG    O26   79   2.244   2.225   9.627
    1LIG    C52   80   2.293   2.286   9.750
    1LIG    C53   81   2.211   2.231   9.872
    1LIG    O27   82   2.271   2.268  10.000
    1LIG    C54   83   2.205   2.217  10.121
    1LIG    C55   84   2.277   2.273  10.251
    1LIG    O28   85   2.213   2.235  10.377
    1LIG    C56   86   2.277   2.291  10.497
    1LIG    C57   87   2.214   2.227  10.628
    1LIG    O29   88   2.265   2.281  10.756
    1LIG    C58   89   2.199   2.216  10.873
    1LIG    C59   90   2.283   2.214  11.010
    1LIG      H   91   2.315   2.398   0.167
    1LIG     H1   92   2.392   2.242   0.139
    1LIG     H2   93   2.231   2.126   0.282
    1LIG     H3   94   2.116   2.261   0.280
    1LIG     H4   95   2.227   2.124   0.526
    1LIG     H5   96   2.117   2.261   0.535
    1LIG     H6   97   2.291   2.389   0.670
    1LIG     H7   98   2.401   2.250   0.659
    1LIG     H8   99   2.284   2.384   0.907
    1LIG     H9  100   2.394   2.245   0.918
    1LIG    H10  101   2.212   2.112   1.036
    1LIG    H11  102   2.104   2.253   1.027
    1LIG    H12  103   2.218   2.112   1.282
    1LIG    H13  104   2.104   2.249   1.287
    1LIG    H14  105   2.292   2.390   1.399
    1LIG    H15  106   2.388   2.241   1.408
    1LIG    H16  107   2.305   2.386   1.656
    1LIG    H17  108   2.394   2.232   1.644
    1LIG    H18  109   2.217   2.115   1.773
    1LIG    H19  110   2.115   2.262   1.770
    1LIG    H20  111   2.223   2.112   2.016
    1LIG    H21  112   2.118   2.255   2.022
    1LIG    H22  113   2.285   2.385   2.145
    1LIG    H23  114   2.404   2.252   2.135
    1LIG    H24  115   2.281   2.389   2.376
    1LIG    H25  116   2.399   2.256   2.391
    1LIG    H26  117   2.214   2.117   2.506
    1LIG    H27  118   2.113   2.265   2.507
    1LIG    H28  119   2.200   2.136   2.762
    1LIG    H29  120   2.114   2.291   2.748
    1LIG    H30  121   2.288   2.410   2.876
    1LIG    H31  122   2.399   2.271   2.866
    1LIG    H32  123   2.293   2.410   3.125
    1LIG    H33  124   2.411   2.276   3.125
    1LIG    H34  125   2.245   2.130   3.247
    1LIG    H35  126   2.125   2.260   3.237
    1LIG    H36  127   2.228   2.128   3.483
    1LIG    H37  128   2.117   2.267   3.496
    1LIG    H38  129   2.297   2.396   3.619
    1LIG    H39  130   2.400   2.250   3.615
    1LIG    H40  131   2.298   2.394   3.859
    1LIG    H41  132   2.398   2.248   3.863
    1LIG    H42  133   2.219   2.126   3.987
    1LIG    H43  134   2.111   2.266   3.978
    1LIG    H44  135   2.213   2.122   4.220
    1LIG    H45  136   2.107   2.264   4.229
    1LIG    H46  137   2.282   2.387   4.362
    1LIG    H47  138   2.393   2.248   4.347
    1LIG    H48  139   2.275   2.385   4.592
    1LIG    H49  140   2.392   2.251   4.599
    1LIG    H50  141   2.213   2.110   4.717
    1LIG    H51  142   2.109   2.254   4.720
    1LIG    H52  143   2.229   2.105   4.967
    1LIG    H53  144   2.113   2.238   4.961
    1LIG    H54  145   2.304   2.387   5.073
    1LIG    H55  146   2.389   2.232   5.100
    1LIG    H56  147   2.317   2.400   5.330
    1LIG    H57  148   2.385   2.237   5.336
    1LIG    H58  149   2.173   2.158   5.450
    1LIG    H59  150   2.112   2.323   5.455
    1LIG    H60  151   2.219   2.116   5.688
    1LIG    H61  152   2.107   2.243   5.701
    1LIG    H62  153   2.274   2.378   5.837
    1LIG    H63  154   2.395   2.250   5.820
    1LIG    H64  155   2.269   2.383   6.064
    1LIG    H65  156   2.392   2.257   6.083
    1LIG    H66  157   2.223   2.111   6.206
    1LIG    H67  158   2.101   2.235   6.183
    1LIG    H68  159   2.185   2.127   6.444
    1LIG    H69  160   2.077   2.269   6.436
    1LIG    H70  161   2.244   2.405   6.563
    1LIG    H71  162   2.358   2.272   6.569
    1LIG    H72  163   2.255   2.404   6.816
    1LIG    H73  164   2.371   2.272   6.798
    1LIG    H74  165   2.229   2.118   6.930
    1LIG    H75  166   2.098   2.238   6.934
    1LIG    H76  167   2.219   2.116   7.168
    1LIG    H77  168   2.104   2.251   7.183
    1LIG    H78  169   2.288   2.387   7.298
    1LIG    H79  170   2.393   2.243   7.291
    1LIG    H80  171   2.295   2.390   7.537
    1LIG    H81  172   2.398   2.246   7.542
    1LIG    H82  173   2.216   2.121   7.663
    1LIG    H83  174   2.115   2.267   7.665
    1LIG    H84  175   2.212   2.118   7.907
    1LIG    H85  176   2.110   2.264   7.904
    1LIG    H86  177   2.277   2.389   8.039
    1LIG    H87  178   2.393   2.255   8.026
    1LIG    H88  179   2.277   2.385   8.271
    1LIG    H89  180   2.393   2.250   8.281
    1LIG    H90  181   2.217   2.112   8.401
    1LIG    H91  182   2.105   2.250   8.395
    1LIG    H92  183   2.226   2.111   8.643
    1LIG    H93  184   2.110   2.246   8.650
    1LIG    H94  185   2.296   2.390   8.757
    1LIG    H95  186   2.395   2.243   8.768
    1LIG    H96  187   2.303   2.390   9.017
    1LIG    H97  188   2.399   2.243   9.005
    1LIG    H98  189   2.223   2.116   9.133
    1LIG    H99  190   2.120   2.261   9.137
    1LIG   H100  191   2.226   2.116   9.380
    1LIG   H101  192   2.127   2.264   9.384
    1LIG   H102  193   2.301   2.388   9.507
    1LIG   H103  194   2.411   2.248   9.502
    1LIG   H104  195   2.283   2.395   9.745
    1LIG   H105  196   2.399   2.261   9.762
    1LIG   H106  197   2.212   2.122   9.863
    1LIG   H107  198   2.108   2.266   9.867
    1LIG   H108  199   2.208   2.107  10.121
    1LIG   H109  200   2.099   2.248  10.121
    1LIG   H110  201   2.280   2.382  10.244
    1LIG   H111  202   2.380   2.235  10.251
    1LIG   H112  203   2.262   2.400  10.498
    1LIG   H113  204   2.385   2.272  10.494
    1LIG   H114  205   2.234   2.119  10.625
    1LIG   H115  206   2.106   2.241  10.624
    1LIG   H116  207   2.182   2.111  10.846
    1LIG   H117  208   2.101   2.262  10.888
    1LIG   H118  209   2.383   2.256  10.995
    1LIG   H119  210   2.296   2.108  11.037
    2MOL     C1  211   1.725   1.795   4.944
    2MOL     H1  212   1.705   1.689   4.925
    2MOL     O1  213   1.681   1.830   5.077
    2MOL     C2  214   1.700   1.969   5.113
    2MOL     H2  215   1.804   1.999   5.096
    2MOL     C3  216   1.671   1.982   5.263
    2MOL     H3  217   1.705   2.079   5.300
    2MOL     H4  218   1.727   1.903   5.313
    2MOL     O2  219   1.529   1.965   5.286
    2MOL     C4  220   1.491   1.981   5.423
    2MOL     C5  221   1.641   1.880   4.842
    2MOL     H5  222   1.538   1.845   4.846
    2MOL     O3  223   1.692   1.867   4.708
    2MOL     C6  224   1.662   1.743   4.644
    2MOL     C7  225   1.641   2.030   4.875
    2MOL     H6  226   1.741   2.070   4.855
    2MOL     O4  227   1.540   2.094   4.795
    2MOL     C8  228   1.594   2.184   4.698
    2MOL     C9  229   1.607   2.055   5.023
    2MOL     H7  230   1.502   2.029   5.040
    2MOL     O5  231   1.630   2.196   5.045
    2MOL    C10  232   1.538   2.264   5.134
    2MOL     H8  233   1.456   2.198   5.162
    2MOL     O6  234   1.610   2.304   5.252
    2MOL    C11  235   1.727   2.384   5.222
    2MOL     H9  236   1.785   2.328   5.149
    2MOL    C12  237   1.811   2.397   5.347
    2MOL    H10  238   1.913   2.429   5.322
    2MOL    H11  239   1.817   2.301   5.401
    2MOL     O7  240   1.749   2.496   5.427
    2MOL    C13  241   1.830   2.530   5.537
    2MOL    C14  242   1.485   2.392   5.064
    2MOL    H12  243   1.411   2.439   5.131
    2MOL     O8  244   1.423   2.358   4.939
    2MOL    C15  245   1.297   2.293   4.950
    2MOL    C16  246   1.595   2.495   5.036
    2MOL    H13  247   1.660   2.459   4.955
    2MOL     O9  248   1.531   2.619   5.001
    2MOL    C17  249   1.548   2.658   4.864
    2MOL    C18  250   1.682   2.520   5.161
    2MOL    H14  251   1.620   2.575   5.234
    2MOL    O10  252   1.798   2.599   5.121
    2MOL    C19  253   1.835   2.709   5.208
    2MOL    H15  254   1.761   2.721   5.288
    2MOL    O11  255   1.964   2.682   5.265
    2MOL    C20  256   2.073   2.674   5.171
    2MOL    H16  257   2.049   2.606   5.090
    2MOL    C21  258   2.195   2.622   5.247
    2MOL    H17  259   2.273   2.591   5.176
    2MOL    H18  260   2.163   2.535   5.304
    2MOL    O12  261   2.244   2.724   5.336
    2MOL    C22  262   2.357   2.682   5.413
    2MOL    C23  263   1.843   2.843   5.129
    2MOL    H19  264   1.857   2.926   5.199
    2MOL    O13  265   1.722   2.862   5.054
    2MOL    C24  266   1.608   2.894   5.135
    2MOL    C25  267   1.961   2.846   5.029
    2MOL    H20  268   1.941   2.773   4.949
    2MOL    O14  269   1.977   2.979   4.977
    2MOL    C26  270   1.933   2.993   4.841
    2MOL    C27  271   2.093   2.806   5.097
    2MOL    H21  272   2.128   2.884   5.167
    2MOL    O15  273   2.189   2.779   4.993
    2MOL    C28  274   2.260   2.894   4.944
    2MOL    H22  275   2.194   2.980   4.932
    2MOL    O16  276   2.363   2.926   5.038
    2MOL    C29  277   2.463   2.824   5.063
    2MOL    H23  278   2.417   2.736   5.107
    2MOL    C30  279   2.559   2.888   5.167
    2MOL    H24  280   2.623   2.811   5.212
    2MOL    H25  281   2.499   2.932   5.248
    2MOL    O17  282   2.638   2.989   5.101
    2MOL    C31  283   2.729   3.058   5.187
    2MOL    C32  284   2.322   2.862   4.806
    2MOL    H26  285   2.372   2.952   4.770
    2MOL    O18  286   2.216   2.823   4.715
    2MOL    C33  287   2.228   2.879   4.583
    2MOL    C34  288   2.425   2.749   4.819
    2MOL    H27  289   2.373   2.657   4.847
    2MOL    O19  290   2.494   2.736   4.692
    2MOL    C35  291   2.516   2.600   4.652
    2MOL    C36  292   2.530   2.785   4.927
    2MOL    H28  293   2.586   2.871   4.890
    2MOL    O20  294   2.617   2.671   4.943
    2MOL    C37  295   2.753   2.705   4.975
    2MOL    H29  296   2.767   2.814   4.973
    2MOL    O21  297   2.778   2.656   5.107
    2MOL    C38  298   2.768   2.513   5.125
    2MOL    H30  299   2.668   2.480   5.096
    2MOL    C39  300   2.785   2.488   5.274
    2MOL    H31  301   2.750   2.388   5.301
    2MOL    H32  302   2.720   2.561   5.322
    2MOL    O22  303   2.923   2.509   5.310
    2MOL    C40  304   2.960   2.476   5.444
    2MOL    C41  305   2.854   2.640   4.878
    2MOL    H33  306   2.954   2.679   4.900
    2MOL    O23  307   2.819   2.666   4.741
    2MOL    C42  308   2.855   2.795   4.693
    2MOL    C43  309   2.860   2.488   4.894
    2MOL    H34  310   2.765   2.446   4.857
    2MOL    O24  311   2.972   2.443   4.817
    2MOL    C44  312   2.929   2.372   4.702
    2MOL    C45  313   2.875   2.443   5.039
    2MOL    H35  314   2.976   2.471   5.073
    2MOL    O25  315   2.856   2.300   5.044
    2MOL    C46  316   2.938   2.229   5.139
    2MOL    H36  317   3.018   2.294   5.177
    2MOL    O26  318   2.855   2.185   5.249
    2MOL    C47  319   2.744   2.096   5.217
    2MOL    H37  320   2.678   2.145   5.144
    2MOL    C48  321   2.663   2.069   5.346
    2MOL    H38  322   2.567   2.022   5.320
    2MOL    H39  323   2.640   2.164   5.397
    2MOL    O27  324   2.739   1.984   5.433
    2MOL    C49  325   2.666   1.933   5.545
    2MOL    C50  326   3.002   2.104   5.071
    2MOL    H40  327   3.072   2.059   5.142
    2MOL    O28  328   3.071   2.139   4.949
    2MOL    C51  329   3.190   2.218   4.968
    2MOL    C52  330   2.895   1.999   5.035
    2MOL    H41  331   2.834   2.037   4.953
    2MOL    O29  332   2.967   1.879   4.999
    2MOL    C53  333   2.970   1.847   4.860
    2MOL    C54  334   2.803   1.967   5.155
    2MOL    H42  335   2.864   1.917   5.231
    2MOL    O30  336   2.696   1.882   5.108
    2MOL    C55  337   2.677   1.760   5.184
    2MOL    H43  338   2.762   1.744   5.251
    2MOL    O31  339   2.557   1.771   5.262
    2MOL    C56  340   2.434   1.788   5.187
    2MOL    H44  341   2.435   1.883   5.132
    2MOL    C57  342   2.319   1.782   5.286
    2MOL    H45  343   2.339   1.702   5.360
    2MOL    H46  344   2.228   1.756   5.232
    2MOL    O32  345   2.300   1.906   5.353
    2MOL    C58  346   2.176   1.900   5.425
    2MOL    C59  347   2.664   1.638   5.089
    2MOL    H47  348   2.659   1.547   5.150
    2MOL    O33  349   2.777   1.632   5.002
    2MOL    C60  350   2.897   1.595   5.068
    2MOL    C61  351   2.537   1.644   5.003
    2MOL    H48  352   2.547   1.725   4.930
    2MOL    O34  353   2.519   1.516   4.939
    2MOL    C62  354   2.562   1.514   4.803
    2MOL    C63  355   2.414   1.670   5.089
    2MOL    H49  356   2.392   1.580   5.148
    2MOL    O35  357   2.304   1.704   5.001
    2MOL    C64  358   2.224   1.592   4.959
    2MOL    H50  359   2.285   1.501   4.952
    2MOL    O36  360   2.118   1.572   5.055
    2MOL    C65  361   2.022   1.681   5.068
    2MOL    H51  362   2.072   1.774   5.096
    2MOL    C66  363   1.927   1.640   5.182
    2MOL    H52  364   1.892   1.537   5.167
    2MOL    H53  365   1.840   1.706   5.186
    2MOL    O37  366   1.999   1.651   5.306
    2MOL    C67  367   1.928   1.606   5.422
    2MOL    C68  368   2.162   1.617   4.819
    2MOL    H54  369   2.111   1.526   4.787
    2MOL    O38  370   2.267   1.651   4.727
    2MOL    C69  371   2.262   1.582   4.601
    2MOL    C70  372   2.060   1.733   4.822
    2MOL    H55  373   2.115   1.825   4.848
    2MOL    O39  374   1.997   1.743   4.693
    2MOL    C71  375   2.005   1.873   4.632
    2MOL    C72  376   1.953   1.705   4.929
    2MOL    H56  377   1.897   1.616   4.899
    2MOL    O40  378   1.867   1.822   4.934
    2MOL    H57  379   1.382   1.970   5.433
    2MOL    H58  380   1.539   1.905   5.486
    2MOL    H59  381   1.520   2.080   5.460
    2MOL    H60  382   1.988   1.624   5.512
    2MOL    H61  383   1.833   1.660   5.433
    2MOL    H62  384   1.908   1.498   5.415
    2MOL    H63  385   2.173   1.975   5.504
    2MOL    H64  386   2.092   1.914   5.357
    2MOL    H65  387   2.166   1.802   5.474
    2MOL    H66  388   2.727   1.858   5.596
    2MOL    H67  389   2.642   2.014   5.615
    2MOL    H68  390   2.573   1.885   5.513
    2MOL    H69  391   3.069   2.472   5.452
    2MOL    H70  392   2.926   2.554   5.514
    2MOL    H71  393   2.920   2.379   5.474
    2MOL    H72  394   2.771   3.146   5.136
    2MOL    H73  395   2.678   3.093   5.277
    2MOL    H74  396   2.812   2.993   5.215
    2MOL    H75  397   2.390   2.764   5.478
    2MOL    H76  398   2.330   2.597   5.477
    2MOL    H77  399   2.439   2.652   5.348
    2MOL    H78  400   1.780   2.609   5.592
    2MOL    H79  401   1.840   2.441   5.600
    2MOL    H80  402   1.928   2.567   5.505
    2MOL    H81  403   1.492   2.749   4.844
    2MOL    H82  404   1.654   2.676   4.843
    2MOL    H83  405   1.511   2.579   4.797
    2MOL    H84  406   1.244   2.298   4.854
    2MOL    H85  407   1.311   2.187   4.977
    2MOL    H86  408   1.235   2.342   5.025
    2MOL    H87  409   1.514   2.228   4.638
    2MOL    H88  410   1.650   2.265   4.747
    2MOL    H89  411   1.662   2.130   4.630
    2MOL    H90  412   1.687   1.750   4.538
    2MOL    H91  413   1.722   1.663   4.688
    2MOL    H92  414   1.555   1.718   4.654
    2MOL    H93  415   1.957   1.869   4.533
    2MOL    H94  416   1.952   1.947   4.693
    2MOL    H95  417   2.110   1.903   4.622
    2MOL    H96  418   2.346   1.613   4.538
    2MOL    H97  419   2.268   1.474   4.616
    2MOL    H98  420   2.168   1.604   4.548
    2MOL    H99  421   2.527   1.422   4.756
    2MOL   H100  422   2.518   1.598   4.748
    2MOL   H101  423   2.671   1.520   4.797
    2MOL   H102  424   2.970   1.560   4.994
    2MOL   H103  425   2.940   1.680   5.122
    2MOL   H104  426   2.878   1.515   5.140
    2MOL   H105  427   3.022   1.751   4.844
    2MOL   H106  428   2.867   1.838   4.822
    2MOL   H107  429   3.024   1.924   4.804
    2MOL   H108  430   3.249   2.223   4.877
    2MOL   H109  431   3.161   2.320   4.994
    2MOL   H110  432   3.252   2.175   5.048
    2MOL   H111  433   3.015   2.338   4.644
    2MOL   H112  434   2.869   2.287   4.735
    2MOL   H113  435   2.866   2.435   4.638
    2MOL   H114  436   2.831   2.801   4.587
    2MOL   H115  437   2.799   2.872   4.747
    2MOL   H116  438   2.963   2.813   4.707
    2MOL   H117  439   2.580   2.597   4.563
    2MOL   H118  440   2.566   2.543   4.731
    2MOL   H119  441   2.420   2.552   4.628
    2MOL   H120  442   2.143   2.848   4.521
    2MOL   H121  443   2.229   2.988   4.588
    2MOL   H122  444   2.320   2.844   4.535
    2MOL   H123  445   1.947   3.095   4.805
    2MOL   H124  446   1.988   2.924   4.775
    2MOL   H125  447   1.828   2.967   4.836
    2MOL   H126  448   1.524   2.920   5.070
    2MOL   H127  449   1.578   2.810   5.198
    2MOL   H128  450   1.629   2.981   5.197
    3MOL     C1  451   2.775   1.789   6.154
    3MOL     H1  452   2.797   1.684   6.168
    3MOL     O1  453   2.814   1.830   6.021
    3MOL     C2  454   2.797   1.970   5.990
    3MOL     H2  455   2.692   2.000   6.008
    3MOL     C3  456   2.825   1.987   5.839
    3MOL     H3  457   2.781   2.081   5.802
    3MOL     H4  458   2.776   1.904   5.787
    3MOL     O2  459   2.967   1.983   5.814
    3MOL     C4  460   3.004   1.991   5.675
    3MOL     C5  461   2.858   1.870   6.258
    3MOL     H5  462   2.962   1.833   6.254
    3MOL     O3  463   2.806   1.853   6.392
    3MOL     C6  464   2.835   1.727   6.454
    3MOL     C7  465   2.863   2.021   6.230
    3MOL     H6  466   2.766   2.064   6.260
    3MOL     O4  467   2.973   2.073   6.307
    3MOL     C8  468   2.937   2.171   6.404
    3MOL     C9  469   2.889   2.054   6.082
    3MOL     H7  470   2.995   2.029   6.060
    3MOL     O5  471   2.866   2.195   6.064
    3MOL    C10  472   2.952   2.264   5.970
    3MOL     H8  473   3.033   2.197   5.938
    3MOL     O6  474   2.873   2.303   5.856
    3MOL    C11  475   2.761   2.389   5.885
    3MOL     H9  476   2.696   2.342   5.960
    3MOL    C12  477   2.677   2.403   5.757
    3MOL    H10  478   2.576   2.436   5.783
    3MOL    H11  479   2.671   2.307   5.705
    3MOL     O7  480   2.740   2.501   5.673
    3MOL    C13  481   2.661   2.540   5.563
    3MOL    C14  482   3.013   2.391   6.035
    3MOL    H12  483   3.091   2.431   5.970
    3MOL     O8  484   3.068   2.357   6.164
    3MOL    C15  485   3.191   2.284   6.161
    3MOL    C16  486   2.908   2.500   6.061
    3MOL    H13  487   2.847   2.470   6.145
    3MOL     O9  488   2.978   2.623   6.091
    3MOL    C17  489   2.966   2.660   6.230
    3MOL    C18  490   2.816   2.524   5.940
    3MOL    H14  491   2.875   2.575   5.863
    3MOL    O10  492   2.706   2.606   5.987
    3MOL    C19  493   2.667   2.712   5.896
    3MOL    H15  494   2.740   2.722   5.815
    3MOL    O11  495   2.537   2.680   5.842
    3MOL    C20  496   2.427   2.670   5.936
    3MOL    H16  497   2.449   2.591   6.010
    3MOL    C21  498   2.301   2.628   5.857
    3MOL    H17  499   2.230   2.577   5.923
    3MOL    H18  500   2.333   2.559   5.778
    3MOL    O12  501   2.241   2.744   5.799
    3MOL    C22  502   2.150   2.721   5.691
    3MOL    C23  503   2.658   2.847   5.972
    3MOL    H19  504   2.639   2.926   5.898
    3MOL    O13  505   2.781   2.874   6.043
    3MOL    C24  506   2.892   2.917   5.964
    3MOL    C25  507   2.543   2.847   6.074
    3MOL    H20  508   2.567   2.774   6.154
    3MOL    O14  509   2.532   2.981   6.127
    3MOL    C26  510   2.592   2.992   6.257
    3MOL    C27  511   2.409   2.805   6.011
    3MOL    H21  512   2.376   2.882   5.940
    3MOL    O15  513   2.311   2.784   6.114
    3MOL    C28  514   2.240   2.901   6.159
    3MOL    H22  515   2.307   2.986   6.169
    3MOL    O16  516   2.135   2.933   6.065
    3MOL    C29  517   2.036   2.830   6.039
    3MOL    H23  518   2.085   2.740   6.000
    3MOL    C30  519   1.944   2.887   5.929
    3MOL    H24  520   1.879   2.809   5.889
    3MOL    H25  521   2.006   2.925   5.847
    3MOL    O17  522   1.866   2.995   5.986
    3MOL    C31  523   1.779   3.061   5.894
    3MOL    C32  524   2.175   2.871   6.296
    3MOL    H26  525   2.124   2.962   6.330
    3MOL    O18  526   2.279   2.834   6.389
    3MOL    C33  527   2.279   2.910   6.511
    3MOL    C34  528   2.070   2.758   6.281
    3MOL    H27  529   2.124   2.667   6.252
    3MOL    O19  530   2.002   2.740   6.407
    3MOL    C35  531   1.968   2.604   6.439
    3MOL    C36  532   1.965   2.794   6.173
    3MOL    H28  533   1.908   2.881   6.210
    3MOL    O20  534   1.875   2.683   6.156
    3MOL    C37  535   1.738   2.712   6.124
    3MOL    H29  536   1.720   2.821   6.129
    3MOL    O21  537   1.712   2.665   5.992
    3MOL    C38  538   1.730   2.521   5.972
    3MOL    H30  539   1.830   2.492   5.999
    3MOL    C39  540   1.712   2.498   5.824
    3MOL    H31  541   1.748   2.397   5.798
    3MOL    H32  542   1.776   2.572   5.778
    3MOL    O22  543   1.573   2.516   5.789
    3MOL    C40  544   1.535   2.473   5.658
    3MOL    C41  545   1.639   2.640   6.221
    3MOL    H33  546   1.538   2.675   6.202
    3MOL    O23  547   1.676   2.664   6.358
    3MOL    C42  548   1.648   2.795   6.406
    3MOL    C43  549   1.643   2.487   6.204
    3MOL    H34  550   1.737   2.452   6.242
    3MOL    O24  551   1.531   2.431   6.277
    3MOL    C44  552   1.570   2.340   6.380
    3MOL    C45  553   1.627   2.445   6.058
    3MOL    H35  554   1.526   2.470   6.027
    3MOL    O25  555   1.651   2.301   6.051
    3MOL    C46  556   1.566   2.230   5.957
    3MOL    H36  557   1.488   2.295   5.919
    3MOL    O26  558   1.650   2.184   5.848
    3MOL    C47  559   1.756   2.092   5.881
    3MOL    H37  560   1.824   2.138   5.954
    3MOL    C48  561   1.839   2.066   5.753
    3MOL    H38  562   1.933   2.017   5.779
    3MOL    H39  563   1.862   2.161   5.704
    3MOL    O27  564   1.761   1.983   5.665
    3MOL    C49  565   1.834   1.932   5.553
    3MOL    C50  566   1.501   2.107   6.027
    3MOL    H40  567   1.428   2.062   5.958
    3MOL    O28  568   1.436   2.147   6.149
    3MOL    C51  569   1.313   2.220   6.135
    3MOL    C52  570   1.605   2.000   6.064
    3MOL    H41  571   1.670   2.040   6.143
    3MOL    O29  572   1.536   1.882   6.109
    3MOL    C53  573   1.548   1.855   6.250
    3MOL    C54  574   1.694   1.964   5.943
    3MOL    H42  575   1.630   1.914   5.868
    3MOL    O30  576   1.798   1.876   5.991
    3MOL    C55  577   1.817   1.754   5.914
    3MOL    H43  578   1.732   1.737   5.847
    3MOL    O31  579   1.938   1.765   5.837
    3MOL    C56  580   2.062   1.785   5.912
    3MOL    H44  581   2.062   1.882   5.962
    3MOL    C57  582   2.180   1.774   5.814
    3MOL    H45  583   2.159   1.697   5.738
    3MOL    H46  584   2.269   1.743   5.870
    3MOL    O32  585   2.207   1.899   5.751
    3MOL    C58  586   2.339   1.900   5.693
    3MOL    C59  587   1.830   1.631   6.009
    3MOL    H47  588   1.840   1.540   5.949
    3MOL    O33  589   1.713   1.621   6.094
    3MOL    C60  590   1.595   1.571   6.029
    3MOL    C61  591   1.953   1.644   6.100
    3MOL    H48  592   1.940   1.729   6.168
    3MOL    O34  593   1.973   1.520   6.172
    3MOL    C62  594   1.924   1.519   6.307
    3MOL    C63  595   2.079   1.671   6.015
    3MOL    H49  596   2.104   1.581   5.958
    3MOL    O35  597   2.187   1.707   6.104
    3MOL    C64  598   2.268   1.594   6.144
    3MOL    H50  599   2.206   1.503   6.149
    3MOL    O36  600   2.374   1.573   6.047
    3MOL    C65  601   2.474   1.678   6.036
    3MOL    H51  602   2.426   1.772   6.009
    3MOL    C66  603   2.567   1.639   5.920
    3MOL    H52  604   2.591   1.532   5.927
    3MOL    H53  605   2.660   1.695   5.923
    3MOL    O37  606   2.501   1.667   5.796
    3MOL    C67  607   2.569   1.615   5.682
    3MOL    C68  608   2.329   1.615   6.284
    3MOL    H54  609   2.368   1.519   6.315
    3MOL    O38  610   2.225   1.656   6.377
    3MOL    C69  611   2.230   1.584   6.502
    3MOL    C70  612   2.444   1.717   6.286
    3MOL    H55  613   2.403   1.818   6.274
    3MOL    O39  614   2.512   1.701   6.412
    3MOL    C71  615   2.512   1.821   6.488
    3MOL    C72  616   2.547   1.694   6.172
    3MOL    H56  617   2.604   1.604   6.195
    3MOL    O40  618   2.632   1.812   6.170
    3MOL    H57  619   3.113   1.980   5.665
    3MOL    H58  620   2.956   1.911   5.618
    3MOL    H59  621   2.975   2.088   5.632
    3MOL    H60  622   2.516   1.642   5.590
    3MOL    H61  623   2.672   1.653   5.676
    3MOL    H62  624   2.571   1.506   5.690
    3MOL    H63  625   2.356   1.990   5.632
    3MOL    H64  626   2.415   1.898   5.772
    3MOL    H65  627   2.352   1.813   5.627
    3MOL    H66  628   1.773   1.857   5.502
    3MOL    H67  629   1.858   2.014   5.483
    3MOL    H68  630   1.927   1.884   5.586
    3MOL    H69  631   1.427   2.458   5.656
    3MOL    H70  632   1.561   2.550   5.584
    3MOL    H71  633   1.584   2.379   5.632
    3MOL    H72  634   1.718   3.136   5.946
    3MOL    H73  635   1.836   3.111   5.815
    3MOL    H74  636   1.712   2.989   5.847
    3MOL    H75  637   2.145   2.812   5.629
    3MOL    H76  638   2.185   2.638   5.628
    3MOL    H77  639   2.050   2.699   5.730
    3MOL    H78  640   2.712   2.622   5.511
    3MOL    H79  641   2.648   2.454   5.495
    3MOL    H80  642   2.563   2.576   5.595
    3MOL    H81  643   3.031   2.746   6.252
    3MOL    H82  644   2.862   2.686   6.253
    3MOL    H83  645   2.996   2.577   6.295
    3MOL    H84  646   3.231   2.275   6.262
    3MOL    H85  647   3.175   2.183   6.122
    3MOL    H86  648   3.264   2.335   6.097
    3MOL    H87  649   3.024   2.198   6.465
    3MOL    H88  650   2.902   2.260   6.352
    3MOL    H89  651   2.858   2.132   6.470
    3MOL    H90  652   2.798   1.727   6.557
    3MOL    H91  653   2.785   1.646   6.400
    3MOL    H92  654   2.943   1.710   6.456
    3MOL    H93  655   2.561   1.807   6.585
    3MOL    H94  656   2.568   1.897   6.432
    3MOL    H95  657   2.410   1.857   6.504
    3MOL    H96  658   2.147   1.613   6.567
    3MOL    H97  659   2.224   1.476   6.484
    3MOL    H98  660   2.325   1.605   6.554
    3MOL    H99  661   1.953   1.426   6.357
    3MOL   H100  662   1.970   1.602   6.362
    3MOL   H101  663   1.815   1.529   6.309
    3MOL   H102  664   1.519   1.547   6.104
    3MOL   H103  665   1.553   1.646   5.961
    3MOL   H104  666   1.617   1.480   5.972
    3MOL   H105  667   1.494   1.763   6.275
    3MOL   H106  668   1.653   1.841   6.277
    3MOL   H107  669   1.505   1.938   6.308
    3MOL   H108  670   1.266   2.233   6.233
    3MOL   H109  671   1.332   2.321   6.094
    3MOL   H110  672   1.244   2.166   6.069
    3MOL   H111  673   1.479   2.302   6.429
    3MOL   H112  674   1.624   2.255   6.339
    3MOL   H113  675   1.631   2.391   6.455
    3MOL   H114  676   1.668   2.795   6.514
    3MOL   H115  677   1.712   2.870   6.358
    3MOL   H116  678   1.543   2.820   6.390
    3MOL   H117  679   1.928   2.599   6.541
    3MOL   H118  680   1.893   2.564   6.371
    3MOL   H119  681   2.056   2.539   6.432
    3MOL   H120  682   2.359   2.875   6.578
    3MOL   H121  683   2.294   3.017   6.491
    3MOL   H122  684   2.183   2.897   6.564
    3MOL   H123  685   2.607   3.096   6.285
    3MOL   H124  686   2.530   2.941   6.332
    3MOL   H125  687   2.690   2.945   6.255
    3MOL   H126  688   2.972   2.957   6.028
    3MOL   H127  689   2.933   2.831   5.910
    3MOL   H128  690   2.862   2.994   5.892
    4SOL     OW  691   0.244   0.600   0.110
    4SOL    HW1  692   0.169   0.605   0.170
    4SOL    HW2  693   0.209   0.628   0.026
    5SOL     OW  694   0.198   0.292   0.989
    5SOL    HW1  695   0.236   0.270   1.074
    5SOL    HW2  696   0.131   0.225   0.975
    6SOL     OW  697   0.007   0.376   0.643
    6SOL    HW1  698   4.429   0.414   0.682
    6SOL    HW2  699   4.474   0.305   0.588
    7SOL     OW  700   0.566   1.281   1.172
    7SOL    HW1  701   0.479   1.286   1.134
    7SOL    HW2  702   0.582   1.369   1.207
    8SOL     OW  703   1.557   1.511   0.705
    8SOL    HW1  704   1.513   1.494   0.788
    8SOL    HW2  705   1.486   1.516   0.641
    9SOL     OW  706   1.131   0.700   0.702
    9SOL    HW1  707   1.180   0.782   0.691
    9SOL    HW2  708   1.082   0.713   0.784
   10SOL     OW  709   1.772   0.604   0.222
   10SOL    HW1  710   1.727   0.600   0.137
   10SOL    HW2  711   1.733   0.533   0.273
   11SOL     OW  712   0.759   1.144   1.037
   11SOL    HW1  713   0.689   1.178   1.093
   11SOL    HW2  714   0.793   1.222   0.992
   12SOL     OW  715   0.862   0.780   1.820
   12SOL    HW1  716   0.849   0.852   1.883
   12SOL    HW2  717   0.885   0.824   1.739
   13SOL     OW  718   0.686   1.008   0.649
   13SOL    HW1  719   0.750   0.992   0.719
   13SOL    HW2  720   0.616   1.057   0.692
   14SOL     OW  721   0.707   1.152   1.809
   14SOL    HW1  722   0.755   1.231   1.833
   14SOL    HW2  723   0.623   1.183   1.775
   15SOL     OW  724   0.337   1.424   1.069
   15SOL    HW1  725   0.256   1.405   1.022
   15SOL    HW2  726   0.387   1.479   1.009
   16SOL     OW  727   1.462   1.498   1.349
   16SOL    HW1  728   1.505   1.583   1.359
   16SOL    HW2  729   1.409   1.489   1.429
   17SOL     OW  730   0.436   0.396   1.494
   17SOL    HW1  731   0.524   0.359   1.496
   17SOL    HW2  732   0.377   0.322   1.508
   18SOL     OW  733   1.613   0.449   0.737
   18SOL    HW1  734   1.532   0.472   0.692
   18SOL    HW2  735   1.634   0.526   0.790
   19SOL     OW  736   0.245   1.692   0.483
   19SOL    HW1  737   0.235   1.778   0.524
   19SOL    HW2  738   0.299   1.707   0.406
   20SOL     OW  739   1.136   1.341   1.691
   20SOL    HW1  740   1.175   1.338   1.778
   20SOL    HW2  741   1.082   1.261   1.686
   21SOL     OW  742   0.241   1.428   0.529
   21SOL    HW1  743   0.237   1.523   0.532
   21SOL    HW2  744   0.175   1.399   0.591
   22SOL     OW  745   0.243   1.081   0.881
   22SOL    HW1  746   0.263   0.995   0.917
   22SOL    HW2  747   0.187   1.122   0.947
   23SOL     OW  748   0.617   1.790   1.433
   23SOL    HW1  749   0.533   1.773   1.476
   23SOL    HW2  750   0.637   1.881   1.456
   24SOL     OW  751   0.578   0.990   0.142
   24SOL    HW1  752   0.621   1.038   0.071
   24SOL    HW2  753   0.629   1.012   0.220
   25SOL     OW  754   1.586   0.114   1.475
   25SOL    HW1  755   1.595   0.183   1.408
   25SOL    HW2  756   1.576   0.162   1.557
   26SOL     OW  757   0.138   0.642   0.576
   26SOL    HW1  758   0.082   0.565   0.587
   26SOL    HW2  759   0.108   0.702   0.645
   27SOL     OW  760   1.840   1.763   0.336
   27SOL    HW1  761   1.898   1.731   0.405
   27SOL    HW2  762   1.871   1.852   0.318
   28SOL     OW  763   0.068   1.594   0.150
   28SOL    HW1  764   0.033   1.505   0.151
   28SOL    HW2  765   0.012   1.642   0.210
   29SOL     OW  766   1.690   0.919   0.637
   29SOL    HW1  767   1.776   0.881   0.618
   29SOL    HW2  768   1.669   0.970   0.559
   30SOL     OW  769   1.645   1.107   0.432
   30SOL    HW1  770   1.727   1.120   0.384
   30SOL    HW2  771   1.650   1.168   0.505
   31SOL     OW  772   0.107   0.760   1.589
   31SOL    HW1  773   0.202   0.759   1.577
   31SOL    HW2  774   0.083   0.852   1.592
   32SOL     OW  775   0.612   1.381   0.735
   32SOL    HW1  776   0.566   1.298   0.744
   32SOL    HW2  777   0.596   1.409   0.645
   33SOL     OW  778   1.290   1.238   1.425
   33SOL    HW1  779   1.323   1.171   1.365
   33SOL    HW2  780   1.346   1.231   1.502
   34SOL     OW  781   0.817   0.009   0.547
   34SOL    HW1  782   0.854   0.088   0.509
   34SOL    HW2  783   0.722   0.019   0.538
   35SOL     OW  784   0.184   0.945   1.279
   35SOL    HW1  785   0.275   0.927   1.255
   35SOL    HW2  786   0.133   0.920   1.202
   36SOL     OW  787   1.522   0.997   0.200
   36SOL    HW1  788   1.457   0.934   0.232
   36SOL    HW2  789   1.568   1.027   0.278
   37SOL     OW  790   1.184   1.803   1.620
   37SOL    HW1  791   1.202   1.860   1.545
   37SOL    HW2  792   1.200   1.715   1.586
   38SOL     OW  793   0.318   0.260   1.773
   38SOL    HW1  794   0.386   0.313   1.814
   38SOL    HW2  795   0.243   0.269   1.831
   39SOL     OW  796   1.465   1.419   0.953
   39SOL    HW1  797   1.397   1.433   1.019
   39SOL    HW2  798   1.454   1.328   0.926
   40SOL     OW  799   1.663   1.731   0.578
   40SOL    HW1  800   1.638   1.705   0.489
   40SOL    HW2  801   1.635   1.659   0.634
   41SOL     OW  802   0.595   0.721   0.263
   41SOL    HW1  803   0.603   0.801   0.210
   41SOL    HW2  804   0.532   0.743   0.331
   42SOL     OW  805   1.288   0.356   0.935
   42SOL    HW1  806   1.199   0.323   0.923
   42SOL    HW2  807   1.328   0.295   0.997
   43SOL     OW  808   1.582   1.668   0.311
   43SOL    HW1  809   1.671   1.703   0.304
   43SOL    HW2  810   1.557   1.649   0.220
   44SOL     OW  811   0.797   0.616   1.455
   44SOL    HW1  812   0.769   0.594   1.543
   44SOL    HW2  813   0.751   0.553   1.398
   45SOL     OW  814   1.389   0.477   1.676
   45SOL    HW1  815   1.391   0.521   1.761
   45SOL    HW2  816   1.457   0.410   1.683
   46SOL     OW  817   0.958   0.889   1.580
   46SOL    HW1  818   1.012   0.817   1.547
   46SOL    HW2  819   0.912   0.922   1.504
   47SOL     OW  820   0.996   0.416   1.238
   47SOL    HW1  821   0.912   0.432   1.282
   47SOL    HW2  822   0.973   0.366   1.160
   48SOL     OW  823   1.048   0.701   0.428
   48SOL    HW1  824   1.064   0.692   0.522
   48SOL    HW2  825   0.967   0.652   0.413
   49SOL     OW  826   0.098   0.821   0.783
   49SOL    HW1  827   0.185   0.803   0.820
   49SOL    HW2  828   0.054   0.874   0.850
   50SOL     OW  829   0.125   1.852   1.576
   50SOL    HW1  830   0.119   1.828   1.668
   50SOL    HW2  831   0.045   1.818   1.537
   51SOL     OW  832   0.876   0.357   0.201
   51SOL    HW1  833   0.932   0.410   0.144
   51SOL    HW2  834   0.904   0.267   0.184
   52SOL     OW  835   1.707   0.576   1.828
   52SOL    HW1  836   1.672   0.654   1.784
   52SOL    HW2  837   1.738   0.520   1.757
   53SOL     OW  838   1.375   1.142   0.542
   53SOL    HW1  839   1.453   1.127   0.488
   53SOL    HW2  840   1.323   1.205   0.491
   54SOL     OW  841   0.543   0.202   0.900
   54SOL    HW1  842   0.562   0.220   0.992
   54SOL    HW2  843   0.536   0.288   0.859
   55SOL     OW  844   1.009   1.446   0.475
   55SOL    HW1  845   0.967   1.517   0.426
   55SOL    HW2  846   0.994   1.469   0.566
   56SOL     OW  847   0.354   1.807   0.857
   56SOL    HW1  848   0.398   1.722   0.866
   56SOL    HW2  849   0.424   1.872   0.868
   57SOL     OW  850   1.798   1.059   0.867
   57SOL    HW1  851   1.741   1.045   0.792
   57SOL    HW2  852   1.739   1.065   0.942
   58SOL     OW  853   1.228   1.540   1.512
   58SOL    HW1  854   1.214   1.466   1.572
   58SOL    HW2  855   1.168   1.523   1.440
   59SOL     OW  856   0.316   0.956   0.275
   59SOL    HW1  857   0.399   0.983   0.237
   59SOL    HW2  858   0.303   0.866   0.244
   60SOL     OW  859   1.476   0.738   0.725
   60SOL    HW1  860   1.462   0.692   0.808
   60SOL    HW2  861   1.551   0.795   0.742
   61SOL     OW  862   0.465   1.261   1.735
   61SOL    HW1  863   0.437   1.267   1.644
   61SOL    HW2  864   0.384   1.266   1.786
   62SOL     OW  865   1.107   1.778   0.226
   62SOL    HW1  866   1.050   1.726   0.282
   62SOL    HW2  867   1.146   1.716   0.166
   63SOL     OW  868   0.168   0.262   1.508
   63SOL    HW1  869   0.135   0.348   1.483
   63SOL    HW2  870   0.199   0.274   1.598
   64SOL     OW  871   1.629   1.375   0.089
   64SOL    HW1  872   1.587   1.460   0.075
   64SOL    HW2  873   1.563   1.311   0.062
   65SOL     OW  874   0.470   1.742   0.317
   65SOL    HW1  875   0.505   1.797   0.387
   65SOL    HW2  876   0.546   1.718   0.264
   66SOL     OW  877   1.415   0.127   0.425
   66SOL    HW1  878   1.392   0.093   0.338
   66SOL    HW2  879   1.511   0.131   0.424
   67SOL     OW  880   0.256   1.791   1.236
   67SOL    HW1  881   0.306   1.719   1.275
   67SOL    HW2  882   0.230   1.758   1.150
   68SOL     OW  883   0.938   1.698   0.901
   68SOL    HW1  884   1.015   1.645   0.921
   68SOL    HW2  885   0.892   1.649   0.832
   69SOL     OW  886   0.391   0.694   0.473
   69SOL    HW1  887   0.418   0.603   0.484
   69SOL    HW2  888   0.300   0.696   0.502
   70SOL     OW  889   1.527   0.232   1.722
   70SOL    HW1  890   1.525   0.257   1.814
   70SOL    HW2  891   1.452   0.173   1.711
   71SOL     OW  892   0.602   0.107   0.117
   71SOL    HW1  893   0.695   0.084   0.119
   71SOL    HW2  894   0.572   0.078   0.030
   72SOL     OW  895   0.769   0.268   1.752
   72SOL    HW1  896   0.835   0.201   1.770
   72SOL    HW2  897   0.724   0.280   1.835
   73SOL     OW  898   0.877   1.521   1.193
   73SOL    HW1  899   0.862   1.485   1.106
   73SOL    HW2  900   0.946   1.465   1.230
   74SOL     OW  901   1.343   0.589   1.430
   74SOL    HW1  902   1.371   0.559   1.516
   74SOL    HW2  903   1.377   0.678   1.423
   75SOL     OW  904   0.813   1.398   0.935
   75SOL    HW1  905   0.896   1.389   0.890
   75SOL    HW2  906   0.747   1.396   0.866
   76SOL     OW  907   0.922   0.513   0.902
   76SOL    HW1  908   0.905   0.513   0.808
   76SOL    HW2  909   0.964   0.429   0.920
   77SOL     OW  910   0.557   0.067   0.512
   77SOL    HW1  911   0.469   0.056   0.547
   77SOL    HW2  912   0.549   0.140   0.450
   78SOL     OW  913   1.427   1.196   0.032
   78SOL    HW1  914   1.460   1.123   0.085
   78SOL    HW2  915   1.343   1.219   0.073
   79SOL     OW  916   0.294   0.057   0.189
   79SOL    HW1  917   0.368   0.100   0.147
   79SOL    HW2  918   0.334   0.002   0.256
   80SOL     OW  919   0.948   0.227   0.447
   80SOL    HW1  920   0.901   0.291   0.393
   80SOL    HW2  921   1.037   0.261   0.453
   81SOL     OW  922   1.080   0.679   1.461
   81SOL    HW1  923   1.008   0.616   1.463
   81SOL    HW2  924   1.159   0.626   1.450
   82SOL     OW  925   1.225   1.569   0.793
   82SOL    HW1  926   1.243   1.637   0.729
   82SOL    HW2  927   1.292   1.581   0.860
   83SOL     OW  928   0.466   1.147   0.741
   83SOL    HW1  929   0.393   1.129   0.800
   83SOL    HW2  930   0.430   1.132   0.653
   84SOL     OW  931   1.271   1.795   0.603
   84SOL    HW1  932   1.315   1.857   0.546
   84SOL    HW2  933   1.208   1.849   0.652
   85SOL     OW  934   1.022   0.536   0.030
   85SOL    HW1  935   0.985   0.620   0.005
   85SOL    HW2  936   1.094   0.559   0.089
   86SOL     OW  937   0.089   0.526   1.410
   86SOL    HW1  938   0.153   0.537   1.339
   86SOL    HW2  939   0.063   0.615   1.432
   87SOL     OW  940   0.564   0.241   1.164
   87SOL    HW1  941   0.594   0.156   1.196
   87SOL    HW2  942   0.471   0.243   1.185
   88SOL     OW  943   0.863   0.505   0.627
   88SOL    HW1  944   0.814   0.542   0.553
   88SOL    HW2  945   0.852   0.410   0.618
   89SOL     OW  946   0.970   0.037   0.774
   89SOL    HW1  947   0.921   0.029   0.691
   89SOL    HW2  948   0.985   4.446   0.802
   90SOL     OW  949   1.436   1.163   0.858
   90SOL    HW1  950   1.368   1.096   0.856
   90SOL    HW2  951   1.458   1.178   0.766
   91SOL     OW  952   1.468   0.602   0.980
   91SOL    HW1  953   1.418   0.521   0.984
   91SOL    HW2  954   1.527   0.597   1.055
   92SOL     OW  955   1.850   0.817   0.379
   92SOL    HW1  956   1.903   0.765   0.439
   92SOL    HW2  957   1.820   0.755   0.313
   93SOL     OW  958   0.493   1.421   0.175
   93SOL    HW1  959   0.415   1.394   0.223
   93SOL    HW2  960   0.486   1.378   0.090
   94SOL     OW  961   1.668   1.266   0.650
   94SOL    HW1  962   1.763   1.272   0.662
   94SOL    HW2  963   1.635   1.353   0.671
   95SOL     OW  964   1.390   0.576   0.076
   95SOL    HW1  965   1.330   0.556   0.148
   95SOL    HW2  966   1.466   0.520   0.091
   96SOL     OW  967   0.525   0.262   0.325
   96SOL    HW1  968   0.558   0.205   0.256
   96SOL    HW2  969   0.514   0.347   0.283
   97SOL     OW  970   1.754   1.235   1.578
   97SOL    HW1  971   1.842   1.197   1.574
   97SOL    HW2  972   1.768   1.325   1.606
   98SOL     OW  973   1.061   1.353   1.335
   98SOL    HW1  974   0.986   1.322   1.386
   98SOL    HW2  975   1.137   1.312   1.376
   99SOL     OW  976   1.605   1.624   1.650
   99SOL    HW1  977   1.603   1.660   1.561
   99SOL    HW2  978   1.689   1.579   1.656
  100SOL     OW  979   1.125   1.201   1.107
  100SOL    HW1  980   1.067   1.240   1.173
  100SOL    HW2  981   1.090   1.232   1.024
  101SOL     OW  982   1.632   1.100   1.079
  101SOL    HW1  983   1.627   1.163   1.151
  101SOL    HW2  984   1.551   1.115   1.029
  102SOL     OW  985   0.904   0.130   1.390
  102SOL    HW1  986   0.927   0.085   1.309
  102SOL    HW2  987   0.988   0.142   1.435
  103SOL     OW  988   0.984   1.114   1.722
  103SOL    HW1  989   0.891   1.129   1.741
  103SOL    HW2  990   0.985   1.037   1.666
  104SOL     OW  991   0.709   1.059   0.373
  104SOL    HW1  992   0.695   1.046   0.467
  104SOL    HW2  993   0.786   1.005   0.353
  105SOL     OW  994   0.428   0.822   1.238
  105SOL    HW1  995   0.496   0.833   1.304
  105SOL    HW2  996   0.369   0.757   1.276
  106SOL     OW  997   1.270   0.377   1.271
  106SOL    HW1  998   1.301   0.455   1.317
  106SOL    HW2  999   1.181   0.400   1.242
  107SOL     OW 1000   0.061   1.575   1.339
  107SOL    HW1 1001   0.033   1.663   1.313
  107SOL    HW2 1002   0.156   1.582   1.345
  108SOL     OW 1003   0.353   1.111   0.499
  108SOL    HW1 1004   0.356   1.185   0.438
  108SOL    HW2 1005   0.348   1.034   0.442
  109SOL     OW 1006   0.564   0.530   0.856
  109SOL    HW1 1007   0.578   0.590   0.782
  109SOL    HW2 1008   0.621   0.564   0.925
  110SOL     OW 1009   1.247   1.346   0.393
  110SOL    HW1 1010   1.303   1.419   0.421
  110SOL    HW2 1011   1.160   1.368   0.425
  111SOL     OW 1012   1.276   1.455   1.146
  111SOL    HW1 1013   1.331   1.458   1.224
  111SOL    HW2 1014   1.221   1.378   1.157
  112SOL     OW 1015   1.586   0.628   0.474
  112SOL    HW1 1016   1.539   0.677   0.542
  112SOL    HW2 1017   1.624   0.696   0.418
  113SOL     OW 1018   0.349   1.527   1.318
  113SOL    HW1 1019   0.333   1.481   1.236
  113SOL    HW2 1020   0.444   1.538   1.323
  114SOL     OW 1021   0.475   0.760   1.662
  114SOL    HW1 1022   0.501   0.800   1.579
  114SOL    HW2 1023   0.506   0.669   1.655
  115SOL     OW 1024   1.597   0.776   1.678
  115SOL    HW1 1025   1.511   0.817   1.671
  115SOL    HW2 1026   1.649   0.819   1.610
  116SOL     OW 1027   1.007   0.087   1.728
  116SOL    HW1 1028   1.028   0.172   1.688
  116SOL    HW2 1029   1.034   0.023   1.663
  117SOL     OW 1030   0.497   0.047   1.749
  117SOL    HW1 1031   0.477   4.497   1.669
  117SOL    HW2 1032   0.429   0.114   1.752
  118SOL     OW 1033   0.587   0.873   1.024
  118SOL    HW1 1034   0.616   0.964   1.025
  118SOL    HW2 1035   0.531   0.865   1.101
  119SOL     OW 1036   1.361   0.859   1.034
  119SOL    HW1 1037   1.280   0.853   0.983
  119SOL    HW2 1038   1.398   0.770   1.031
  120SOL     OW 1039   1.204   0.531   0.268
  120SOL    HW1 1040   1.212   0.452   0.322
  120SOL    HW2 1041   1.163   0.596   0.326
  121SOL     OW 1042   0.285   0.220   1.234
  121SOL    HW1 1043   0.251   0.238   1.322
  121SOL    HW2 1044   0.320   0.132   1.239
  122SOL     OW 1045   0.048   1.313   1.283
  122SOL    HW1 1046   0.078   1.266   1.362
  122SOL    HW2 1047   0.050   1.405   1.309
  123SOL     OW 1048   0.726   0.632   1.061
  123SOL    HW1 1049   0.798   0.611   1.001
  123SOL    HW2 1050   0.700   0.721   1.036
  124SOL     OW 1051   1.733   0.958   1.851
  124SOL    HW1 1052   1.684   0.906   1.788
  124SOL    HW2 1053   1.673   0.970   1.924
  125SOL     OW 1054   0.315   0.076   0.630
  125SOL    HW1 1055   0.300   0.163   0.665
  125SOL    HW2 1056   0.305   0.018   0.705
  126SOL     OW 1057   1.612   0.373   0.367
  126SOL    HW1 1058   1.643   0.310   0.433
  126SOL    HW2 1059   1.589   0.451   0.418
  127SOL     OW 1060   1.027   0.761   0.962
  127SOL    HW1 1061   1.027   0.777   1.057
  127SOL    HW2 1062   0.999   0.669   0.954
  128SOL     OW 1063   0.983   1.566   1.714
  128SOL    HW1 1064   0.967   1.611   1.631
  128SOL    HW2 1065   1.025   1.484   1.689
  129SOL     OW 1066   1.857   1.508   1.605
  129SOL    HW1 1067   1.870   1.537   1.515
  129SOL    HW2 1068   1.938   1.533   1.650
  130SOL     OW 1069   0.347   0.929   1.818
  130SOL    HW1 1070   0.422   0.957   1.871
  130SOL    HW2 1071   0.384   0.864   1.758
  131SOL     OW 1072   1.537   0.290   0.115
  131SOL    HW1 1073   1.477   0.217   0.128
  131SOL    HW2 1074   1.566   0.314   0.203
  132SOL     OW 1075   1.291   0.825   0.033
  132SOL    HW1 1076   1.334   0.740   0.043
  132SOL    HW2 1077   1.322   0.859  11.049
  133SOL     OW 1078   1.065   1.334   0.852
  133SOL    HW1 1079   1.068   1.262   0.790
  133SOL    HW2 1080   1.128   1.398   0.818
  134SOL     OW 1081   0.317   0.813   0.950
  134SOL    HW1 1082   0.411   0.831   0.945
  134SOL    HW2 1083   0.311   0.723   0.982
  135SOL     OW 1084   0.337   0.526   0.995
  135SOL    HW1 1085   0.293   0.444   0.975
  135SOL    HW2 1086   0.414   0.527   0.937
  136SOL     OW 1087   1.135   0.376   1.691
  136SOL    HW1 1088   1.088   0.440   1.745
  136SOL    HW2 1089   1.222   0.414   1.678
  137SOL     OW 1090   1.160   0.211   1.474
  137SOL    HW1 1091   1.152   0.275   1.544
  137SOL    HW2 1092   1.195   0.261   1.400
  138SOL     OW 1093   4.495   1.324   0.197
  138SOL    HW1 1094   4.401   1.341   0.187
  138SOL    HW2 1095   0.001   1.233   0.224
  139SOL     OW 1096   0.094   1.782   0.939
  139SOL    HW1 1097   0.056   1.721   0.876
  139SOL    HW2 1098   0.182   1.801   0.905
  140SOL     OW 1099   0.499   1.573   0.906
  140SOL    HW1 1100   0.567   1.636   0.930
  140SOL    HW2 1101   0.544   1.508   0.852
  141SOL     OW 1102   0.989   0.795   1.229
  141SOL    HW1 1103   1.041   0.769   1.305
  141SOL    HW2 1104   0.902   0.759   1.246
  142SOL     OW 1105   0.039   0.564   1.109
  142SOL    HW1 1106   0.116   0.521   1.071
  142SOL    HW2 1107   0.027   0.522   1.194
  143SOL     OW 1108   0.180   0.517   1.710
  143SOL    HW1 1109   0.265   0.501   1.670
  143SOL    HW2 1110   0.150   0.598   1.670
  144SOL     OW 1111   1.376   0.942   1.660
  144SOL    HW1 1112   1.396   1.035   1.660
  144SOL    HW2 1113   1.374   0.918   1.567
  145SOL     OW 1114   0.812   0.574   0.356
  145SOL    HW1 1115   0.818   0.498   0.298
  145SOL    HW2 1116   0.737   0.623   0.322
  146SOL     OW 1117   1.642   0.601   1.190
  146SOL    HW1 1118   1.631   0.541   1.264
  146SOL    HW2 1119   1.729   0.580   1.155
  147SOL     OW 1120   0.270   1.562   1.742
  147SOL    HW1 1121   0.218   1.614   1.802
  147SOL    HW2 1122   0.250   1.471   1.764
  148SOL     OW 1123   0.681   0.464   1.268
  148SOL    HW1 1124   0.646   0.383   1.231
  148SOL    HW2 1125   0.691   0.522   1.193
  149SOL     OW 1126   0.931   1.678   1.466
  149SOL    HW1 1127   0.904   1.649   1.379
  149SOL    HW2 1128   0.931   1.774   1.460
  150SOL     OW 1129   0.476   0.486   0.186
  150SOL    HW1 1130   0.532   0.561   0.206
  150SOL    HW2 1131   0.390   0.524   0.170
  151SOL     OW 1132   0.161   1.141   1.464
  151SOL    HW1 1133   0.149   1.092   1.545
  151SOL    HW2 1134   0.170   1.073   1.396
  152SOL     OW 1135   1.330   1.049   1.225
  152SOL    HW1 1136   1.354   0.987   1.157
  152SOL    HW2 1137   1.257   1.098   1.188
  153SOL     OW 1138   1.307   0.852   0.310
  153SOL    HW1 1139   1.229   0.824   0.357
  153SOL    HW2 1140   1.285   0.841   0.217
  154SOL     OW 1141   1.762   1.746   1.146
  154SOL    HW1 1142   1.825   1.774   1.079
  154SOL    HW2 1143   1.744   1.655   1.125
  155SOL     OW 1144   1.242   1.732   1.117
  155SOL    HW1 1145   1.324   1.751   1.071
  155SOL    HW2 1146   1.244   1.638   1.134
  156SOL     OW 1147   0.069   1.189   1.048
  156SOL    HW1 1148   0.074   1.224   1.137
  156SOL    HW2 1149   0.011   1.250   1.001
  157SOL     OW 1150   0.679   1.663   1.724
  157SOL    HW1 1151   0.627   1.743   1.721
  157SOL    HW2 1152   0.740   1.672   1.651
  158SOL     OW 1153   0.880   0.062   0.124
  158SOL    HW1 1154   0.964   0.092   0.087
  158SOL    HW2 1155   0.904   0.019   0.206
  159SOL     OW 1156   1.720   0.133   0.502
  159SOL    HW1 1157   1.794   0.134   0.441
  159SOL    HW2 1158   1.732   0.053   0.553
  160SOL     OW 1159   1.389   1.568   0.482
  160SOL    HW1 1160   1.451   1.598   0.416
  160SOL    HW2 1161   1.343   1.647   0.510
  161SOL     OW 1162   0.120   1.808   1.848
  161SOL    HW1 1163   0.082   1.733   1.894
  161SOL    HW2 1164   0.184   1.844   1.909
  162SOL     OW 1165   1.278   0.926   0.672
  162SOL    HW1 1166   1.350   0.863   0.675
  162SOL    HW2 1167   1.311   0.998   0.620
  163SOL     OW 1168   0.819   1.272   1.432
  163SOL    HW1 1169   0.793   1.310   1.515
  163SOL    HW2 1170   0.747   1.294   1.372
  164SOL     OW 1171   0.676   1.617   0.165
  164SOL    HW1 1172   0.681   1.627   0.070
  164SOL    HW2 1173   0.618   1.541   0.178
  165SOL     OW 1174   1.632   1.726   1.391
  165SOL    HW1 1175   1.680   1.735   1.309
  165SOL    HW2 1176   1.619   1.816   1.421
  166SOL     OW 1177   1.839   0.156   0.967
  166SOL    HW1 1178   1.867   0.079   0.917
  166SOL    HW2 1179   1.753   0.177   0.932
  167SOL     OW 1180   0.267   0.325   0.725
  167SOL    HW1 1181   0.186   0.362   0.691
  167SOL    HW2 1182   0.253   0.318   0.819
  168SOL     OW 1183   1.221   1.604   0.049
  168SOL    HW1 1184   1.208   1.512   0.071
  168SOL    HW2 1185   1.154   1.623  11.084
  169SOL     OW 1186   0.825   1.006   1.371
  169SOL    HW1 1187   0.867   1.004   1.285
  169SOL    HW2 1188   0.826   1.099   1.396
  170SOL     OW 1189   0.914   0.908   0.283
  170SOL    HW1 1190   0.982   0.946   0.227
  170SOL    HW2 1191   0.960   0.840   0.333
  171SOL     OW 1192   1.500   1.622   0.045
  171SOL    HW1 1193   1.405   1.620   0.041
  171SOL    HW2 1194   1.528   1.635  11.055
  172SOL     OW 1195   0.372   1.304   1.491
  172SOL    HW1 1196   0.356   1.383   1.440
  172SOL    HW2 1197   0.296   1.249   1.475
  173SOL     OW 1198   1.612   1.283   1.281
  173SOL    HW1 1199   1.672   1.277   1.356
  173SOL    HW2 1200   1.551   1.354   1.305
  174SOL     OW 1201   1.047   1.105   0.704
  174SOL    HW1 1202   0.978   1.053   0.745
  174SOL    HW2 1203   1.109   1.039   0.671
  175SOL     OW 1204   1.012   0.239   0.989
  175SOL    HW1 1205   1.015   0.202   0.900
  175SOL    HW2 1206   1.004   0.163   1.046
  176SOL     OW 1207   0.601   1.490   0.484
  176SOL    HW1 1208   0.638   1.439   0.412
  176SOL    HW2 1209   0.532   1.543   0.443
  177SOL     OW 1210   1.719   0.392   1.378
  177SOL    HW1 1211   1.790   0.456   1.377
  177SOL    HW2 1212   1.749   0.321   1.322
  178SOL     OW 1213   0.260   1.333   0.284
  178SOL    HW1 1214   0.172   1.347   0.249
  178SOL    HW2 1215   0.258   1.373   0.371
  179SOL     OW 1216   0.117   1.007   1.697
  179SOL    HW1 1217   0.052   1.044   1.756
  179SOL    HW2 1218   0.195   0.995   1.752
  180SOL     OW 1219   0.660   0.207   1.495
  180SOL    HW1 1220   0.740   0.181   1.449
  180SOL    HW2 1221   0.687   0.221   1.586
  181SOL     OW 1222   0.054   0.338   0.012
  181SOL    HW1 1223   4.462   0.334   0.037
  181SOL    HW2 1224   0.075   0.432   0.012
  182SOL     OW 1225   1.432   0.858   1.401
  182SOL    HW1 1226   1.384   0.917   1.344
  182SOL    HW2 1227   1.522   0.862   1.369
  183SOL     OW 1228   0.080   0.186   0.299
  183SOL    HW1 1229   0.085   0.262   0.241
  183SOL    HW2 1230   0.156   0.133   0.276
  184SOL     OW 1231   1.181   1.343   0.121
  184SOL    HW1 1232   1.088   1.319   0.118
  184SOL    HW2 1233   1.204   1.336   0.214
  185SOL     OW 1234   0.620   0.831   1.428
  185SOL    HW1 1235   0.674   0.909   1.416
  185SOL    HW2 1236   0.683   0.760   1.438
  186SOL     OW 1237   1.487   1.773   0.974
  186SOL    HW1 1238   1.513   1.832   0.903
  186SOL    HW2 1239   1.566   1.761   1.026
  187SOL     OW 1240   0.715   0.561   1.705
  187SOL    HW1 1241   0.746   0.629   1.766
  187SOL    HW2 1242   0.757   0.481   1.736
  188SOL     OW 1243   1.468   1.203   1.633
  188SOL    HW1 1244   1.456   1.217   1.727
  188SOL    HW2 1245   1.562   1.216   1.619
  189SOL     OW 1246   0.383   1.743   1.563
  189SOL    HW1 1247   0.297   1.782   1.549
  189SOL    HW2 1248   0.364   1.660   1.609
  190SOL     OW 1249   1.673   0.882   1.255
  190SOL    HW1 1250   1.662   0.797   1.212
  190SOL    HW2 1251   1.663   0.946   1.185
  191SOL     OW 1252   1.219   0.326   0.447
  191SOL    HW1 1253   1.284   0.256   0.439
  191SOL    HW2 1254   1.243   0.372   0.528
  192SOL     OW 1255   0.588   0.741   0.668
  192SOL    HW1 1256   0.630   0.825   0.651
  192SOL    HW2 1257   0.519   0.735   0.602
  193SOL     OW 1258   1.767   0.360   1.643
  193SOL    HW1 1259   1.750   0.374   1.549
  193SOL    HW2 1260   1.688   0.316   1.675
  194SOL     OW 1261   1.743   0.933   1.513
  194SOL    HW1 1262   1.747   1.028   1.526
  194SOL    HW2 1263   1.728   0.923   1.419
  195SOL     OW 1264   0.894   1.358   0.058
  195SOL    HW1 1265   0.825   1.363   0.124
  195SOL    HW2 1266   0.890   1.443   0.013
  196SOL     OW 1267   0.659   1.794   0.949
  196SOL    HW1 1268   0.636   1.884   0.923
  196SOL    HW2 1269   0.754   1.790   0.940
  197SOL     OW 1270   0.866   0.965   0.856
  197SOL    HW1 1271   0.916   0.894   0.896
  197SOL    HW2 1272   0.833   1.016   0.929
  198SOL     OW 1273   1.081   0.990   0.087
  198SOL    HW1 1274   1.057   1.026   0.001
  198SOL    HW2 1275   1.157   0.935   0.069
  199SOL     OW 1276   1.859   1.555   0.844
  199SOL    HW1 1277   1.780   1.547   0.790
  199SOL    HW2 1278   1.847   1.491   0.914
  200SOL     OW 1279   0.228   1.307   1.856
  200SOL    HW1 1280   0.159   1.245   1.831
  200SOL    HW2 1281   0.218   1.317   1.951
  201SOL     OW 1282   0.098   1.237   0.665
  201SOL    HW1 1283   0.106   1.188   0.747
  201SOL    HW2 1284   0.164   1.199   0.607
  202SOL     OW 1285   0.680   1.400   1.626
  202SOL    HW1 1286   0.600   1.356   1.654
  202SOL    HW2 1287   0.674   1.488   1.662
  203SOL     OW 1288   1.812   0.184   1.239
  203SOL    HW1 1289   1.810   0.091   1.260
  203SOL    HW2 1290   1.826   0.187   1.144
  204SOL     OW 1291   0.437   0.431   0.528
  204SOL    HW1 1292   0.459   0.360   0.468
  204SOL    HW2 1293   0.381   0.391   0.594
  205SOL     OW 1294   1.704   1.489   1.097
  205SOL    HW1 1295   1.620   1.464   1.057
  205SOL    HW2 1296   1.718   1.423   1.166
  206SOL     OW 1297   0.313   0.503   1.258
  206SOL    HW1 1298   0.385   0.457   1.301
  206SOL    HW2 1299   0.341   0.512   1.167
  207SOL     OW 1300   0.825   1.577   0.680
  207SOL    HW1 1301   0.819   1.622   0.595
  207SOL    HW2 1302   0.746   1.524   0.684
  208SOL     OW 1303   1.432   0.216   1.118
  208SOL    HW1 1304   1.469   0.146   1.171
  208SOL    HW2 1305   1.381   0.269   1.179
  209SOL     OW 1306   0.997   0.015   1.147
  209SOL    HW1 1307   0.951   4.433   1.136
  209SOL    HW2 1308   1.089   4.490   1.160
  210SOL     OW 1309   0.767   1.329   0.312
  210SOL    HW1 1310   0.737   1.239   0.324
  210SOL    HW2 1311   0.852   1.331   0.356
  211SOL     OW 1312   0.621   1.559   1.284
  211SOL    HW1 1313   0.623   1.640   1.335
  211SOL    HW2 1314   0.708   1.552   1.245
  212SOL     OW 1315   1.347   0.059   0.168
  212SOL    HW1 1316   1.384   0.006   0.097
  212SOL    HW2 1317   1.269   0.012   0.196
  213SOL     OW 1318   1.315   0.463   0.682
  213SOL    HW1 1319   1.251   0.534   0.682
  213SOL    HW2 1320   1.302   0.419   0.766
  214SOL     OW 1321   1.587   0.204   0.869
  214SOL    HW1 1322   1.524   0.217   0.939
  214SOL    HW2 1323   1.589   0.287   0.822
  215SOL     OW 1324   0.039   1.048   0.282
  215SOL    HW1 1325   0.135   1.052   0.286
  215SOL    HW2 1326   0.013   1.011   0.366
  216SOL     OW 1327   0.882   1.650   0.347
  216SOL    HW1 1328   0.811   1.629   0.286
  216SOL    HW2 1329   0.850   1.725   0.397
  217SOL     OW 1330   0.247   0.625   1.980
  217SOL    HW1 1331   0.171   0.613   2.036
  217SOL    HW2 1332   0.215   0.608   1.892
  218SOL     OW 1333   0.198   0.292   2.851
  218SOL    HW1 1334   0.235   0.269   2.937
  218SOL    HW2 1335   0.132   0.224   2.835
  219SOL     OW 1336   0.007   0.376   2.505
  219SOL    HW1 1337   4.428   0.414   2.543
  219SOL    HW2 1338   4.476   0.305   2.449
  220SOL     OW 1339   0.567   1.281   3.034
  220SOL    HW1 1340   0.479   1.286   2.996
  220SOL    HW2 1341   0.582   1.369   3.069
  221SOL     OW 1342   1.557   1.512   2.567
  221SOL    HW1 1343   1.513   1.495   2.651
  221SOL    HW2 1344   1.486   1.517   2.503
  222SOL     OW 1345   1.131   0.700   2.564
  222SOL    HW1 1346   1.180   0.781   2.552
  222SOL    HW2 1347   1.082   0.713   2.646
  223SOL     OW 1348   1.764   0.609   2.092
  223SOL    HW1 1349   1.745   0.598   1.999
  223SOL    HW2 1350   1.732   0.528   2.133
  224SOL     OW 1351   0.759   1.145   2.899
  224SOL    HW1 1352   0.689   1.178   2.955
  224SOL    HW2 1353   0.793   1.222   2.854
  225SOL     OW 1354   0.862   0.781   3.683
  225SOL    HW1 1355   0.849   0.852   3.745
  225SOL    HW2 1356   0.885   0.824   3.600
  226SOL     OW 1357   0.686   1.008   2.512
  226SOL    HW1 1358   0.750   0.992   2.581
  226SOL    HW2 1359   0.616   1.057   2.554
  227SOL     OW 1360   0.707   1.152   3.671
  227SOL    HW1 1361   0.755   1.231   3.694
  227SOL    HW2 1362   0.623   1.183   3.637
  228SOL     OW 1363   0.337   1.424   2.932
  228SOL    HW1 1364   0.256   1.404   2.884
  228SOL    HW2 1365   0.387   1.479   2.871
  229SOL     OW 1366   1.462   1.498   3.211
  229SOL    HW1 1367   1.505   1.583   3.221
  229SOL    HW2 1368   1.410   1.488   3.291
  230SOL     OW 1369   0.436   0.396   3.357
  230SOL    HW1 1370   0.524   0.359   3.358
  230SOL    HW2 1371   0.377   0.322   3.370
  231SOL     OW 1372   1.613   0.448   2.599
  231SOL    HW1 1373   1.533   0.473   2.554
  231SOL    HW2 1374   1.635   0.525   2.652
  232SOL     OW 1375   0.245   1.692   2.342
  232SOL    HW1 1376   0.234   1.777   2.385
  232SOL    HW2 1377   0.306   1.710   2.270
  233SOL     OW 1378   1.135   1.341   3.553
  233SOL    HW1 1379   1.175   1.337   3.640
  233SOL    HW2 1380   1.082   1.261   3.548
  234SOL     OW 1381   0.243   1.428   2.390
  234SOL    HW1 1382   0.236   1.523   2.396
  234SOL    HW2 1383   0.178   1.395   2.453
  235SOL     OW 1384   0.244   1.081   2.744
  235SOL    HW1 1385   0.263   0.994   2.780
  235SOL    HW2 1386   0.188   1.122   2.809
  236SOL     OW 1387   0.617   1.790   3.295
  236SOL    HW1 1388   0.533   1.773   3.337
  236SOL    HW2 1389   0.637   1.881   3.318
  237SOL     OW 1390   0.585   0.983   1.996
  237SOL    HW1 1391   0.629   1.031   1.926
  237SOL    HW2 1392   0.631   1.009   2.076
  238SOL     OW 1393   1.586   0.114   3.336
  238SOL    HW1 1394   1.595   0.183   3.270
  238SOL    HW2 1395   1.576   0.162   3.419
  239SOL     OW 1396   0.136   0.642   2.437
  239SOL    HW1 1397   0.082   0.564   2.450
  239SOL    HW2 1398   0.107   0.702   2.505
  240SOL     OW 1399   1.840   1.762   2.198
  240SOL    HW1 1400   1.898   1.733   2.268
  240SOL    HW2 1401   1.868   1.852   2.180
  241SOL     OW 1402   0.033   1.600   1.997
  241SOL    HW1 1403   0.021   1.505   1.999
  241SOL    HW2 1404   0.009   1.630   2.084
  242SOL     OW 1405   1.691   0.920   2.499
  242SOL    HW1 1406   1.776   0.880   2.480
  242SOL    HW2 1407   1.669   0.969   2.420
  243SOL     OW 1408   1.645   1.108   2.292
  243SOL    HW1 1409   1.730   1.117   2.249
  243SOL    HW2 1410   1.650   1.168   2.366
  244SOL     OW 1411   0.107   0.760   3.451
  244SOL    HW1 1412   0.201   0.759   3.438
  244SOL    HW2 1413   0.083   0.853   3.454
  245SOL     OW 1414   0.612   1.381   2.597
  245SOL    HW1 1415   0.566   1.298   2.606
  245SOL    HW2 1416   0.596   1.409   2.507
  246SOL     OW 1417   1.290   1.238   3.287
  246SOL    HW1 1418   1.323   1.171   3.227
  246SOL    HW2 1419   1.346   1.231   3.364
  247SOL     OW 1420   0.816   0.011   2.407
  247SOL    HW1 1421   0.850   0.097   2.384
  247SOL    HW2 1422   0.721   0.018   2.397
  248SOL     OW 1423   0.184   0.945   3.141
  248SOL    HW1 1424   0.275   0.927   3.117
  248SOL    HW2 1425   0.133   0.919   3.064
  249SOL     OW 1426   1.532   0.991   2.058
  249SOL    HW1 1427   1.462   0.933   2.088
  249SOL    HW2 1428   1.571   1.025   2.139
  250SOL     OW 1429   1.184   1.803   3.482
  250SOL    HW1 1430   1.202   1.860   3.407
  250SOL    HW2 1431   1.200   1.715   3.448
  251SOL     OW 1432   0.318   0.260   3.635
  251SOL    HW1 1433   0.386   0.313   3.676
  251SOL    HW2 1434   0.242   0.269   3.693
  252SOL     OW 1435   1.465   1.419   2.815
  252SOL    HW1 1436   1.397   1.434   2.881
  252SOL    HW2 1437   1.454   1.328   2.788
  253SOL     OW 1438   1.663   1.731   2.439
  253SOL    HW1 1439   1.637   1.703   2.351
  253SOL    HW2 1440   1.636   1.659   2.496
  254SOL     OW 1441   0.596   0.723   2.126
  254SOL    HW1 1442   0.602   0.803   2.074
  254SOL    HW2 1443   0.530   0.744   2.193
  255SOL     OW 1444   1.289   0.357   2.797
  255SOL    HW1 1445   1.201   0.325   2.781
  255SOL    HW2 1446   1.327   0.295   2.859
  256SOL     OW 1447   1.581   1.668   2.171
  256SOL    HW1 1448   1.670   1.703   2.165
  256SOL    HW2 1449   1.556   1.650   2.080
  257SOL     OW 1450   0.797   0.616   3.317
  257SOL    HW1 1451   0.769   0.594   3.405
  257SOL    HW2 1452   0.751   0.554   3.260
  258SOL     OW 1453   1.389   0.477   3.538
  258SOL    HW1 1454   1.391   0.521   3.623
  258SOL    HW2 1455   1.457   0.410   3.545
  259SOL     OW 1456   0.958   0.889   3.442
  259SOL    HW1 1457   1.012   0.817   3.409
  259SOL    HW2 1458   0.911   0.922   3.366
  260SOL     OW 1459   0.996   0.416   3.100
  260SOL    HW1 1460   0.911   0.431   3.143
  260SOL    HW2 1461   0.975   0.365   3.022
  261SOL     OW 1462   1.049   0.698   2.290
  261SOL    HW1 1463   1.064   0.691   2.384
  261SOL    HW2 1464   0.967   0.651   2.275
  262SOL     OW 1465   0.099   0.822   2.645
  262SOL    HW1 1466   0.185   0.802   2.681
  262SOL    HW2 1467   0.054   0.873   2.713
  263SOL     OW 1468   0.125   1.853   3.438
  263SOL    HW1 1469   0.119   1.828   3.530
  263SOL    HW2 1470   0.045   1.818   3.399
  264SOL     OW 1471   0.853   0.367   2.038
  264SOL    HW1 1472   0.929   0.404   1.994
  264SOL    HW2 1473   0.872   0.274   2.046
  265SOL     OW 1474   1.707   0.576   3.690
  265SOL    HW1 1475   1.672   0.654   3.646
  265SOL    HW2 1476   1.739   0.520   3.619
  266SOL     OW 1477   1.375   1.143   2.404
  266SOL    HW1 1478   1.453   1.128   2.351
  266SOL    HW2 1479   1.322   1.205   2.353
  267SOL     OW 1480   0.544   0.201   2.763
  267SOL    HW1 1481   0.562   0.220   2.855
  267SOL    HW2 1482   0.534   0.287   2.722
  268SOL     OW 1483   1.009   1.446   2.336
  268SOL    HW1 1484   0.968   1.517   2.287
  268SOL    HW2 1485   0.995   1.469   2.428
  269SOL     OW 1486   0.354   1.807   2.718
  269SOL    HW1 1487   0.398   1.722   2.728
  269SOL    HW2 1488   0.424   1.871   2.731
  270SOL     OW 1489   1.798   1.060   2.729
  270SOL    HW1 1490   1.741   1.044   2.654
  270SOL    HW2 1491   1.739   1.065   2.804
  271SOL     OW 1492   1.227   1.540   3.375
  271SOL    HW1 1493   1.214   1.466   3.434
  271SOL    HW2 1494   1.168   1.523   3.302
  272SOL     OW 1495   0.318   0.954   2.110
  272SOL    HW1 1496   0.402   0.976   2.071
  272SOL    HW2 1497   0.300   0.865   2.080
  273SOL     OW 1498   1.476   0.739   2.588
  273SOL    HW1 1499   1.462   0.692   2.670
  273SOL    HW2 1500   1.552   0.795   2.605
  274SOL     OW 1501   0.465   1.261   3.597
  274SOL    HW1 1502   0.437   1.267   3.506
  274SOL    HW2 1503   0.384   1.266   3.648
  275SOL     OW 1504   1.121   1.777   2.094
  275SOL    HW1 1505   1.049   1.734   2.141
  275SOL    HW2 1506   1.141   1.718   2.022
  276SOL     OW 1507   0.168   0.262   3.370
  276SOL    HW1 1508   0.135   0.348   3.344
  276SOL    HW2 1509   0.199   0.274   3.460
  277SOL     OW 1510   1.629   1.379   1.949
  277SOL    HW1 1511   1.588   1.464   1.933
  277SOL    HW2 1512   1.560   1.315   1.930
  278SOL     OW 1513   0.469   1.744   2.177
  278SOL    HW1 1514   0.508   1.796   2.247
  278SOL    HW2 1515   0.544   1.714   2.125
  279SOL     OW 1516   1.415   0.130   2.281
  279SOL    HW1 1517   1.397   0.084   2.199
  279SOL    HW2 1518   1.511   0.129   2.289
  280SOL     OW 1519   0.257   1.791   3.098
  280SOL    HW1 1520   0.306   1.719   3.137
  280SOL    HW2 1521   0.229   1.758   3.013
  281SOL     OW 1522   0.938   1.698   2.763
  281SOL    HW1 1523   1.015   1.645   2.783
  281SOL    HW2 1524   0.892   1.649   2.694
  282SOL     OW 1525   0.391   0.695   2.337
  282SOL    HW1 1526   0.418   0.603   2.347
  282SOL    HW2 1527   0.299   0.696   2.363
  283SOL     OW 1528   1.527   0.232   3.584
  283SOL    HW1 1529   1.525   0.257   3.676
  283SOL    HW2 1530   1.452   0.173   3.573
  284SOL     OW 1531   0.621   0.124   1.978
  284SOL    HW1 1532   0.709   0.089   1.991
  284SOL    HW2 1533   0.593   0.087   1.894
  285SOL     OW 1534   0.769   0.268   3.614
  285SOL    HW1 1535   0.835   0.201   3.632
  285SOL    HW2 1536   0.724   0.280   3.697
  286SOL     OW 1537   0.877   1.521   3.055
  286SOL    HW1 1538   0.862   1.485   2.968
  286SOL    HW2 1539   0.946   1.465   3.092
  287SOL     OW 1540   1.342   0.589   3.292
  287SOL    HW1 1541   1.370   0.559   3.378
  287SOL    HW2 1542   1.377   0.678   3.285
  288SOL     OW 1543   0.813   1.398   2.797
  288SOL    HW1 1544   0.896   1.389   2.752
  288SOL    HW2 1545   0.747   1.396   2.727
  289SOL     OW 1546   0.922   0.514   2.765
  289SOL    HW1 1547   0.905   0.512   2.670
  289SOL    HW2 1548   0.964   0.430   2.783
  290SOL     OW 1549   0.557   0.067   2.372
  290SOL    HW1 1550   0.469   0.054   2.407
  290SOL    HW2 1551   0.548   0.140   2.311
  291SOL     OW 1552   1.429   1.197   1.903
  291SOL    HW1 1553   1.459   1.122   1.953
  291SOL    HW2 1554   1.343   1.217   1.940
  292SOL     OW 1555   0.302   0.077   2.045
  292SOL    HW1 1556   0.386   0.123   2.040
  292SOL    HW2 1557   0.321   4.500   2.099
  293SOL     OW 1558   0.949   0.241   2.336
  293SOL    HW1 1559   0.897   0.287   2.270
  293SOL    HW2 1560   1.038   0.275   2.325
  294SOL     OW 1561   1.080   0.679   3.323
  294SOL    HW1 1562   1.008   0.616   3.325
  294SOL    HW2 1563   1.159   0.626   3.311
  295SOL     OW 1564   1.225   1.569   2.655
  295SOL    HW1 1565   1.243   1.637   2.591
  295SOL    HW2 1566   1.292   1.581   2.722
  296SOL     OW 1567   0.464   1.147   2.600
  296SOL    HW1 1568   0.392   1.129   2.660
  296SOL    HW2 1569   0.428   1.131   2.513
  297SOL     OW 1570   1.271   1.795   2.467
  297SOL    HW1 1571   1.315   1.857   2.408
  297SOL    HW2 1572   1.208   1.848   2.514
  298SOL     OW 1573   1.031   0.549   1.876
  298SOL    HW1 1574   0.983   0.631   1.860
  298SOL    HW2 1575   1.089   0.570   1.949
  299SOL     OW 1576   0.090   0.526   3.273
  299SOL    HW1 1577   0.152   0.537   3.201
  299SOL    HW2 1578   0.062   0.615   3.294
  300SOL     OW 1579   0.564   0.241   3.027
  300SOL    HW1 1580   0.594   0.156   3.058
  300SOL    HW2 1581   0.470   0.243   3.047
  301SOL     OW 1582   0.866   0.500   2.488
  301SOL    HW1 1583   0.814   0.542   2.420
  301SOL    HW2 1584   0.854   0.406   2.474
  302SOL     OW 1585   0.972   0.033   2.636
  302SOL    HW1 1586   0.923   0.028   2.554
  302SOL    HW2 1587   0.981   4.442   2.664
  303SOL     OW 1588   1.436   1.163   2.720
  303SOL    HW1 1589   1.368   1.095   2.718
  303SOL    HW2 1590   1.458   1.178   2.628
  304SOL     OW 1591   1.468   0.602   2.842
  304SOL    HW1 1592   1.418   0.520   2.846
  304SOL    HW2 1593   1.527   0.597   2.917
  305SOL     OW 1594   1.848   0.820   2.243
  305SOL    HW1 1595   1.903   0.767   2.301
  305SOL    HW2 1596   1.818   0.759   2.176
  306SOL     OW 1597   0.493   1.412   2.025
  306SOL    HW1 1598   0.416   1.383   2.074
  306SOL    HW2 1599   0.470   1.395   1.933
  307SOL     OW 1600   1.668   1.266   2.511
  307SOL    HW1 1601   1.763   1.272   2.524
  307SOL    HW2 1602   1.635   1.353   2.532
  308SOL     OW 1603   1.394   0.569   1.932
  308SOL    HW1 1604   1.334   0.554   2.005
  308SOL    HW2 1605   1.480   0.548   1.967
  309SOL     OW 1606   0.523   0.264   2.185
  309SOL    HW1 1607   0.567   0.213   2.117
  309SOL    HW2 1608   0.510   0.350   2.145
  310SOL     OW 1609   1.754   1.235   3.440
  310SOL    HW1 1610   1.842   1.197   3.436
  310SOL    HW2 1611   1.768   1.325   3.468
  311SOL     OW 1612   1.061   1.353   3.197
  311SOL    HW1 1613   0.986   1.322   3.248
  311SOL    HW2 1614   1.137   1.312   3.238
  312SOL     OW 1615   1.605   1.624   3.512
  312SOL    HW1 1616   1.603   1.660   3.423
  312SOL    HW2 1617   1.689   1.579   3.518
  313SOL     OW 1618   1.125   1.201   2.969
  313SOL    HW1 1619   1.067   1.240   3.035
  313SOL    HW2 1620   1.090   1.232   2.886
  314SOL     OW 1621   1.632   1.100   2.941
  314SOL    HW1 1622   1.628   1.162   3.013
  314SOL    HW2 1623   1.551   1.115   2.892
  315SOL     OW 1624   0.904   0.130   3.252
  315SOL    HW1 1625   0.927   0.086   3.171
  315SOL    HW2 1626   0.988   0.142   3.297
  316SOL     OW 1627   0.984   1.114   3.584
  316SOL    HW1 1628   0.891   1.129   3.603
  316SOL    HW2 1629   0.985   1.037   3.528
  317SOL     OW 1630   0.708   1.059   2.235
  317SOL    HW1 1631   0.696   1.046   2.329
  317SOL    HW2 1632   0.784   1.006   2.213
  318SOL     OW 1633   0.428   0.822   3.100
  318SOL    HW1 1634   0.496   0.833   3.167
  318SOL    HW2 1635   0.369   0.756   3.137
  319SOL     OW 1636   1.270   0.377   3.133
  319SOL    HW1 1637   1.301   0.455   3.179
  319SOL    HW2 1638   1.181   0.400   3.104
  320SOL     OW 1639   0.061   1.575   3.201
  320SOL    HW1 1640   0.033   1.663   3.175
  320SOL    HW2 1641   0.156   1.582   3.207
  321SOL     OW 1642   0.351   1.106   2.356
  321SOL    HW1 1643   0.360   1.179   2.295
  321SOL    HW2 1644   0.355   1.028   2.300
  322SOL     OW 1645   0.564   0.530   2.718
  322SOL    HW1 1646   0.577   0.590   2.645
  322SOL    HW2 1647   0.621   0.564   2.787
  323SOL     OW 1648   1.248   1.348   2.251
  323SOL    HW1 1649   1.303   1.420   2.282
  323SOL    HW2 1650   1.161   1.368   2.285
  324SOL     OW 1651   1.276   1.455   3.008
  324SOL    HW1 1652   1.331   1.458   3.086
  324SOL    HW2 1653   1.221   1.378   3.019
  325SOL     OW 1654   1.583   0.626   2.337
  325SOL    HW1 1655   1.539   0.680   2.402
  325SOL    HW2 1656   1.628   0.688   2.280
  326SOL     OW 1657   0.349   1.527   3.180
  326SOL    HW1 1658   0.333   1.481   3.098
  326SOL    HW2 1659   0.444   1.538   3.185
  327SOL     OW 1660   0.476   0.760   3.524
  327SOL    HW1 1661   0.501   0.800   3.441
  327SOL    HW2 1662   0.505   0.669   3.517
  328SOL     OW 1663   1.597   0.776   3.540
  328SOL    HW1 1664   1.510   0.817   3.533
  328SOL    HW2 1665   1.649   0.819   3.472
  329SOL     OW 1666   1.007   0.087   3.590
  329SOL    HW1 1667   1.028   0.172   3.550
  329SOL    HW2 1668   1.034   0.023   3.525
  330SOL     OW 1669   0.497   0.047   3.611
  330SOL    HW1 1670   0.478   4.498   3.531
  330SOL    HW2 1671   0.429   0.114   3.614
  331SOL     OW 1672   0.587   0.873   2.886
  331SOL    HW1 1673   0.616   0.965   2.888
  331SOL    HW2 1674   0.531   0.865   2.963
  332SOL     OW 1675   1.361   0.859   2.896
  332SOL    HW1 1676   1.280   0.853   2.845
  332SOL    HW2 1677   1.398   0.770   2.893
  333SOL     OW 1678   1.207   0.534   2.129
  333SOL    HW1 1679   1.213   0.453   2.180
  333SOL    HW2 1680   1.165   0.597   2.188
  334SOL     OW 1681   0.285   0.221   3.096
  334SOL    HW1 1682   0.251   0.238   3.184
  334SOL    HW2 1683   0.319   0.132   3.101
  335SOL     OW 1684   0.049   1.313   3.145
  335SOL    HW1 1685   0.078   1.266   3.224
  335SOL    HW2 1686   0.050   1.405   3.171
  336SOL     OW 1687   0.726   0.632   2.923
  336SOL    HW1 1688   0.798   0.611   2.864
  336SOL    HW2 1689   0.700   0.721   2.898
  337SOL     OW 1690   1.733   0.958   3.713
  337SOL    HW1 1691   1.684   0.906   3.650
  337SOL    HW2 1692   1.673   0.970   3.787
  338SOL     OW 1693   0.317   0.076   2.493
  338SOL    HW1 1694   0.300   0.164   2.527
  338SOL    HW2 1695   0.305   0.018   2.568
  339SOL     OW 1696   1.609   0.373   2.229
  339SOL    HW1 1697   1.642   0.312   2.294
  339SOL    HW2 1698   1.588   0.452   2.279
  340SOL     OW 1699   1.027   0.761   2.825
  340SOL    HW1 1700   1.028   0.778   2.919
  340SOL    HW2 1701   0.999   0.670   2.817
  341SOL     OW 1702   0.983   1.566   3.576
  341SOL    HW1 1703   0.967   1.610   3.492
  341SOL    HW2 1704   1.025   1.484   3.552
  342SOL     OW 1705   1.857   1.508   3.467
  342SOL    HW1 1706   1.871   1.536   3.377
  342SOL    HW2 1707   1.937   1.533   3.513
  343SOL     OW 1708   0.347   0.929   3.680
  343SOL    HW1 1709   0.422   0.957   3.733
  343SOL    HW2 1710   0.384   0.864   3.620
  344SOL     OW 1711   1.533   0.268   1.990
  344SOL    HW1 1712   1.461   0.211   2.017
  344SOL    HW2 1713   1.560   0.312   2.070
  345SOL     OW 1714   1.295   0.827   1.895
  345SOL    HW1 1715   1.337   0.741   1.897
  345SOL    HW2 1716   1.325   0.866   1.813
  346SOL     OW 1717   1.065   1.335   2.714
  346SOL    HW1 1718   1.068   1.261   2.652
  346SOL    HW2 1719   1.128   1.398   2.680
  347SOL     OW 1720   0.317   0.813   2.812
  347SOL    HW1 1721   0.411   0.831   2.807
  347SOL    HW2 1722   0.311   0.723   2.844
  348SOL     OW 1723   0.338   0.526   2.857
  348SOL    HW1 1724   0.292   0.444   2.837
  348SOL    HW2 1725   0.414   0.526   2.799
  349SOL     OW 1726   1.135   0.375   3.554
  349SOL    HW1 1727   1.088   0.440   3.606
  349SOL    HW2 1728   1.222   0.414   3.540
  350SOL     OW 1729   1.160   0.211   3.336
  350SOL    HW1 1730   1.152   0.275   3.406
  350SOL    HW2 1731   1.194   0.261   3.262
  351SOL     OW 1732   4.492   1.323   2.062
  351SOL    HW1 1733   4.399   1.338   2.045
  351SOL    HW2 1734   4.498   1.231   2.087
  352SOL     OW 1735   0.094   1.783   2.801
  352SOL    HW1 1736   0.057   1.721   2.739
  352SOL    HW2 1737   0.182   1.801   2.767
  353SOL     OW 1738   0.499   1.573   2.768
  353SOL    HW1 1739   0.568   1.636   2.792
  353SOL    HW2 1740   0.544   1.508   2.714
  354SOL     OW 1741   0.989   0.795   3.091
  354SOL    HW1 1742   1.041   0.769   3.167
  354SOL    HW2 1743   0.902   0.759   3.107
  355SOL     OW 1744   0.040   0.565   2.972
  355SOL    HW1 1745   0.115   0.520   2.933
  355SOL    HW2 1746   0.027   0.521   3.056
  356SOL     OW 1747   0.180   0.517   3.572
  356SOL    HW1 1748   0.265   0.501   3.532
  356SOL    HW2 1749   0.150   0.598   3.532
  357SOL     OW 1750   1.376   0.942   3.522
  357SOL    HW1 1751   1.396   1.035   3.522
  357SOL    HW2 1752   1.374   0.918   3.429
  358SOL     OW 1753   0.812   0.572   2.214
  358SOL    HW1 1754   0.815   0.500   2.151
  358SOL    HW2 1755   0.738   0.625   2.186
  359SOL     OW 1756   1.642   0.601   3.052
  359SOL    HW1 1757   1.631   0.541   3.126
  359SOL    HW2 1758   1.729   0.580   3.017
  360SOL     OW 1759   0.271   1.562   3.604
  360SOL    HW1 1760   0.217   1.614   3.664
  360SOL    HW2 1761   0.250   1.471   3.626
  361SOL     OW 1762   0.681   0.464   3.130
  361SOL    HW1 1763   0.646   0.383   3.093
  361SOL    HW2 1764   0.691   0.522   3.055
  362SOL     OW 1765   0.930   1.678   3.328
  362SOL    HW1 1766   0.904   1.649   3.241
  362SOL    HW2 1767   0.931   1.774   3.322
  363SOL     OW 1768   0.473   0.491   2.048
  363SOL    HW1 1769   0.532   0.564   2.069
  363SOL    HW2 1770   0.388   0.532   2.036
  364SOL     OW 1771   0.161   1.141   3.326
  364SOL    HW1 1772   0.149   1.092   3.407
  364SOL    HW2 1773   0.170   1.073   3.258
  365SOL     OW 1774   1.330   1.049   3.087
  365SOL    HW1 1775   1.354   0.987   3.019
  365SOL    HW2 1776   1.257   1.098   3.050
  366SOL     OW 1777   1.309   0.855   2.169
  366SOL    HW1 1778   1.232   0.827   2.218
  366SOL    HW2 1779   1.285   0.843   2.077
  367SOL     OW 1780   1.763   1.745   3.010
  367SOL    HW1 1781   1.826   1.774   2.943
  367SOL    HW2 1782   1.745   1.654   2.987
  368SOL     OW 1783   1.242   1.732   2.979
  368SOL    HW1 1784   1.324   1.750   2.933
  368SOL    HW2 1785   1.244   1.638   2.997
  369SOL     OW 1786   0.069   1.189   2.909
  369SOL    HW1 1787   0.074   1.225   2.998
  369SOL    HW2 1788   0.010   1.249   2.864
  370SOL     OW 1789   0.679   1.663   3.586
  370SOL    HW1 1790   0.627   1.743   3.583
  370SOL    HW2 1791   0.741   1.672   3.513
  371SOL     OW 1792   1.718   0.130   2.361
  371SOL    HW1 1793   1.793   0.134   2.301
  371SOL    HW2 1794   1.736   0.055   2.417
  372SOL     OW 1795   1.390   1.568   2.345
  372SOL    HW1 1796   1.450   1.598   2.277
  372SOL    HW2 1797   1.342   1.646   2.372
  373SOL     OW 1798   0.120   1.808   3.710
  373SOL    HW1 1799   0.082   1.733   3.756
  373SOL    HW2 1800   0.184   1.844   3.771
  374SOL     OW 1801   1.278   0.925   2.534
  374SOL    HW1 1802   1.350   0.863   2.537
  374SOL    HW2 1803   1.311   0.998   2.482
  375SOL     OW 1804   0.819   1.272   3.294
  375SOL    HW1 1805   0.793   1.310   3.377
  375SOL    HW2 1806   0.747   1.294   3.234
  376SOL     OW 1807   0.673   1.616   2.017
  376SOL    HW1 1808   0.681   1.627   1.922
  376SOL    HW2 1809   0.620   1.537   2.028
  377SOL     OW 1810   1.632   1.726   3.254
  377SOL    HW1 1811   1.680   1.734   3.172
  377SOL    HW2 1812   1.618   1.816   3.283
  378SOL     OW 1813   1.839   0.156   2.829
  378SOL    HW1 1814   1.868   0.080   2.779
  378SOL    HW2 1815   1.752   0.177   2.794
  379SOL     OW 1816   0.267   0.326   2.587
  379SOL    HW1 1817   0.185   0.361   2.552
  379SOL    HW2 1818   0.252   0.317   2.681
  380SOL     OW 1819   1.205   1.608   1.893
  380SOL    HW1 1820   1.197   1.517   1.920
  380SOL    HW2 1821   1.141   1.618   1.823
  381SOL     OW 1822   0.825   1.006   3.233
  381SOL    HW1 1823   0.867   1.004   3.148
  381SOL    HW2 1824   0.826   1.099   3.258
  382SOL     OW 1825   0.915   0.910   2.151
  382SOL    HW1 1826   0.977   0.942   2.086
  382SOL    HW2 1827   0.961   0.839   2.196
  383SOL     OW 1828   1.496   1.624   1.904
  383SOL    HW1 1829   1.401   1.621   1.893
  383SOL    HW2 1830   1.530   1.630   1.814
  384SOL     OW 1831   0.372   1.304   3.353
  384SOL    HW1 1832   0.356   1.383   3.302
  384SOL    HW2 1833   0.296   1.249   3.337
  385SOL     OW 1834   1.611   1.283   3.143
  385SOL    HW1 1835   1.672   1.278   3.217
  385SOL    HW2 1836   1.551   1.354   3.167
  386SOL     OW 1837   1.047   1.105   2.566
  386SOL    HW1 1838   0.977   1.054   2.607
  386SOL    HW2 1839   1.108   1.039   2.532
  387SOL     OW 1840   1.007   0.241   2.857
  387SOL    HW1 1841   1.015   0.211   2.767
  387SOL    HW2 1842   1.001   0.160   2.909
  388SOL     OW 1843   0.602   1.489   2.345
  388SOL    HW1 1844   0.640   1.439   2.274
  388SOL    HW2 1845   0.533   1.541   2.304
  389SOL     OW 1846   1.719   0.392   3.240
  389SOL    HW1 1847   1.790   0.456   3.239
  389SOL    HW2 1848   1.749   0.321   3.184
  390SOL     OW 1849   0.252   1.345   2.140
  390SOL    HW1 1850   0.158   1.347   2.125
  390SOL    HW2 1851   0.263   1.378   2.229
  391SOL     OW 1852   0.117   1.007   3.559
  391SOL    HW1 1853   0.052   1.044   3.618
  391SOL    HW2 1854   0.195   0.995   3.614
  392SOL     OW 1855   0.660   0.207   3.357
  392SOL    HW1 1856   0.739   0.181   3.311
  392SOL    HW2 1857   0.687   0.221   3.448
  393SOL     OW 1858   0.070   0.321   1.888
  393SOL    HW1 1859   4.475   0.330   1.897
  393SOL    HW2 1860   0.100   0.407   1.857
  394SOL     OW 1861   1.432   0.858   3.263
  394SOL    HW1 1862   1.384   0.917   3.206
  394SOL    HW2 1863   1.522   0.862   3.231
  395SOL     OW 1864   0.083   0.188   2.166
  395SOL    HW1 1865   0.080   0.260   2.102
  395SOL    HW2 1866   0.160   0.138   2.141
  396SOL     OW 1867   1.180   1.342   1.979
  396SOL    HW1 1868   1.089   1.313   1.982
  396SOL    HW2 1869   1.209   1.341   2.070
  397SOL     OW 1870   0.620   0.831   3.290
  397SOL    HW1 1871   0.674   0.909   3.277
  397SOL    HW2 1872   0.683   0.760   3.300
  398SOL     OW 1873   1.486   1.773   2.836
  398SOL    HW1 1874   1.511   1.833   2.766
  398SOL    HW2 1875   1.566   1.762   2.888
  399SOL     OW 1876   0.715   0.561   3.567
  399SOL    HW1 1877   0.746   0.629   3.628
  399SOL    HW2 1878   0.757   0.481   3.598
  400SOL     OW 1879   1.468   1.204   3.495
  400SOL    HW1 1880   1.456   1.217   3.589
  400SOL    HW2 1881   1.562   1.216   3.481
  401SOL     OW 1882   0.383   1.743   3.425
  401SOL    HW1 1883   0.297   1.782   3.411
  401SOL    HW2 1884   0.364   1.660   3.471
  402SOL     OW 1885   1.673   0.882   3.117
  402SOL    HW1 1886   1.662   0.797   3.074
  402SOL    HW2 1887   1.663   0.946   3.047
  403SOL     OW 1888   1.218   0.327   2.310
  403SOL    HW1 1889   1.283   0.257   2.301
  403SOL    HW2 1890   1.245   0.374   2.389
  404SOL     OW 1891   0.589   0.740   2.530
  404SOL    HW1 1892   0.630   0.825   2.512
  404SOL    HW2 1893   0.519   0.734   2.464
  405SOL     OW 1894   1.767   0.359   3.505
  405SOL    HW1 1895   1.750   0.374   3.412
  405SOL    HW2 1896   1.687   0.317   3.537
  406SOL     OW 1897   1.743   0.933   3.375
  406SOL    HW1 1898   1.747   1.028   3.388
  406SOL    HW2 1899   1.728   0.923   3.281
  407SOL     OW 1900   0.863   1.369   1.892
  407SOL    HW1 1901   0.823   1.394   1.974
  407SOL    HW2 1902   0.882   1.451   1.847
  408SOL     OW 1903   0.659   1.795   2.811
  408SOL    HW1 1904   0.637   1.884   2.785
  408SOL    HW2 1905   0.754   1.790   2.802
  409SOL     OW 1906   0.866   0.965   2.718
  409SOL    HW1 1907   0.916   0.894   2.758
  409SOL    HW2 1908   0.833   1.016   2.792
  410SOL     OW 1909   1.080   0.988   1.951
  410SOL    HW1 1910   1.058   1.038   1.872
  410SOL    HW2 1911   1.156   0.935   1.925
  411SOL     OW 1912   1.858   1.554   2.705
  411SOL    HW1 1913   1.778   1.545   2.653
  411SOL    HW2 1914   1.847   1.491   2.776
  412SOL     OW 1915   0.228   1.307   3.718
  412SOL    HW1 1916   0.159   1.245   3.693
  412SOL    HW2 1917   0.218   1.317   3.813
  413SOL     OW 1918   0.101   1.240   2.528
  413SOL    HW1 1919   0.104   1.188   2.608
  413SOL    HW2 1920   0.162   1.196   2.469
  414SOL     OW 1921   0.680   1.400   3.488
  414SOL    HW1 1922   0.600   1.356   3.516
  414SOL    HW2 1923   0.674   1.488   3.524
  415SOL     OW 1924   1.812   0.184   3.101
  415SOL    HW1 1925   1.810   0.091   3.122
  415SOL    HW2 1926   1.826   0.187   3.006
  416SOL     OW 1927   0.437   0.431   2.390
  416SOL    HW1 1928   0.458   0.360   2.330
  416SOL    HW2 1929   0.381   0.391   2.456
  417SOL     OW 1930   1.704   1.488   2.958
  417SOL    HW1 1931   1.620   1.464   2.919
  417SOL    HW2 1932   1.718   1.424   3.027
  418SOL     OW 1933   0.313   0.504   3.120
  418SOL    HW1 1934   0.385   0.457   3.163
  418SOL    HW2 1935   0.341   0.512   3.029
  419SOL     OW 1936   0.825   1.578   2.542
  419SOL    HW1 1937   0.820   1.622   2.457
  419SOL    HW2 1938   0.746   1.524   2.546
  420SOL     OW 1939   1.432   0.215   2.980
  420SOL    HW1 1940   1.469   0.146   3.034
  420SOL    HW2 1941   1.381   0.268   3.041
  421SOL     OW 1942   0.997   0.014   3.010
  421SOL    HW1 1943   0.951   4.431   2.998
  421SOL    HW2 1944   1.089   4.488   3.023
  422SOL     OW 1945   0.771   1.332   2.171
  422SOL    HW1 1946   0.737   1.243   2.179
  422SOL    HW2 1947   0.854   1.330   2.220
  423SOL     OW 1948   0.621   1.559   3.146
  423SOL    HW1 1949   0.624   1.640   3.197
  423SOL    HW2 1950   0.708   1.552   3.107
  424SOL     OW 1951   1.343   0.054   2.014
  424SOL    HW1 1952   1.383   4.480   1.968
  424SOL    HW2 1953   1.268   0.016   2.059
  425SOL     OW 1954   1.314   0.462   2.543
  425SOL    HW1 1955   1.251   0.535   2.544
  425SOL    HW2 1956   1.302   0.419   2.628
  426SOL     OW 1957   1.586   0.203   2.730
  426SOL    HW1 1958   1.524   0.217   2.801
  426SOL    HW2 1959   1.589   0.287   2.684
  427SOL     OW 1960   0.041   1.054   2.148
  427SOL    HW1 1961   0.136   1.044   2.142
  427SOL    HW2 1962   0.018   1.012   2.231
  428SOL     OW 1963   0.881   1.649   2.207
  428SOL    HW1 1964   0.810   1.631   2.145
  428SOL    HW2 1965   0.851   1.725   2.256
  429SOL     OW 1966   0.247   0.625   3.842
  429SOL    HW1 1967   0.171   0.613   3.898
  429SOL    HW2 1968   0.215   0.608   3.754
  430SOL     OW 1969   0.197   0.292   4.713
  430SOL    HW1 1970   0.235   0.269   4.799
  430SOL    HW2 1971   0.132   0.224   4.697
  431SOL     OW 1972   0.007   0.376   4.367
  431SOL    HW1 1973   4.428   0.414   4.405
  431SOL    HW2 1974   4.476   0.305   4.311
  432SOL     OW 1975   0.567   1.281   4.896
  432SOL    HW1 1976   0.479   1.285   4.858
  432SOL    HW2 1977   0.582   1.369   4.931
  433SOL     OW 1978   1.554   1.515   4.428
  433SOL    HW1 1979   1.510   1.488   4.509
  433SOL    HW2 1980   1.485   1.516   4.363
  434SOL     OW 1981   1.131   0.700   4.426
  434SOL    HW1 1982   1.180   0.781   4.414
  434SOL    HW2 1983   1.082   0.713   4.508
  435SOL     OW 1984   1.763   0.609   3.954
  435SOL    HW1 1985   1.745   0.598   3.861
  435SOL    HW2 1986   1.732   0.528   3.994
  436SOL     OW 1987   0.760   1.145   4.762
  436SOL    HW1 1988   0.689   1.178   4.817
  436SOL    HW2 1989   0.793   1.222   4.716
  437SOL     OW 1990   0.862   0.780   5.545
  437SOL    HW1 1991   0.848   0.852   5.607
  437SOL    HW2 1992   0.885   0.824   5.463
  438SOL     OW 1993   0.686   1.008   4.373
  438SOL    HW1 1994   0.750   0.992   4.443
  438SOL    HW2 1995   0.616   1.057   4.416
  439SOL     OW 1996   0.708   1.152   5.533
  439SOL    HW1 1997   0.755   1.232   5.556
  439SOL    HW2 1998   0.623   1.182   5.499
  440SOL     OW 1999   0.337   1.424   4.794
  440SOL    HW1 2000   0.256   1.404   4.747
  440SOL    HW2 2001   0.387   1.479   4.733
  441SOL     OW 2002   1.466   1.501   5.079
  441SOL    HW1 2003   1.472   1.596   5.086
  441SOL    HW2 2004   1.410   1.475   5.153
  442SOL     OW 2005   0.436   0.396   5.218
  442SOL    HW1 2006   0.524   0.359   5.220
  442SOL    HW2 2007   0.377   0.322   5.232
  443SOL     OW 2008   1.613   0.448   4.462
  443SOL    HW1 2009   1.533   0.473   4.415
  443SOL    HW2 2010   1.636   0.526   4.513
  444SOL     OW 2011   0.245   1.692   4.204
  444SOL    HW1 2012   0.233   1.777   4.247
  444SOL    HW2 2013   0.306   1.710   4.132
  445SOL     OW 2014   1.136   1.341   5.414
  445SOL    HW1 2015   1.175   1.338   5.502
  445SOL    HW2 2016   1.082   1.262   5.409
  446SOL     OW 2017   0.243   1.428   4.252
  446SOL    HW1 2018   0.236   1.523   4.258
  446SOL    HW2 2019   0.178   1.395   4.314
  447SOL     OW 2020   0.244   1.081   4.606
  447SOL    HW1 2021   0.262   0.994   4.642
  447SOL    HW2 2022   0.188   1.122   4.671
  448SOL     OW 2023   0.617   1.790   5.158
  448SOL    HW1 2024   0.533   1.773   5.199
  448SOL    HW2 2025   0.637   1.881   5.180
  449SOL     OW 2026   0.585   0.983   3.858
  449SOL    HW1 2027   0.629   1.031   3.788
  449SOL    HW2 2028   0.631   1.009   3.938
  450SOL     OW 2029   1.586   0.114   5.198
  450SOL    HW1 2030   1.596   0.182   5.132
  450SOL    HW2 2031   1.576   0.162   5.281
  451SOL     OW 2032   0.136   0.642   4.299
  451SOL    HW1 2033   0.082   0.564   4.311
  451SOL    HW2 2034   0.107   0.702   4.367
  452SOL     OW 2035   1.841   1.762   4.060
  452SOL    HW1 2036   1.898   1.731   4.130
  452SOL    HW2 2037   1.870   1.852   4.044
  453SOL     OW 2038   0.033   1.600   3.859
  453SOL    HW1 2039   0.021   1.505   3.861
  453SOL    HW2 2040   0.009   1.630   3.946
  454SOL     OW 2041   1.689   0.919   4.360
  454SOL    HW1 2042   1.776   0.882   4.344
  454SOL    HW2 2043   1.670   0.970   4.281
  455SOL     OW 2044   1.645   1.110   4.155
  455SOL    HW1 2045   1.730   1.117   4.111
  455SOL    HW2 2046   1.651   1.169   4.229
  456SOL     OW 2047   0.106   0.760   5.313
  456SOL    HW1 2048   0.201   0.759   5.301
  456SOL    HW2 2049   0.083   0.853   5.316
  457SOL     OW 2050   0.612   1.381   4.460
  457SOL    HW1 2051   0.566   1.298   4.468
  457SOL    HW2 2052   0.596   1.409   4.369
  458SOL     OW 2053   1.294   1.242   5.146
  458SOL    HW1 2054   1.324   1.172   5.088
  458SOL    HW2 2055   1.345   1.231   5.226
  459SOL     OW 2056   0.816   0.011   4.269
  459SOL    HW1 2057   0.850   0.097   4.246
  459SOL    HW2 2058   0.721   0.018   4.259
  460SOL     OW 2059   0.184   0.945   5.003
  460SOL    HW1 2060   0.275   0.927   4.979
  460SOL    HW2 2061   0.133   0.920   4.926
  461SOL     OW 2062   1.532   0.991   3.920
  461SOL    HW1 2063   1.462   0.933   3.950
  461SOL    HW2 2064   1.571   1.025   4.001
  462SOL     OW 2065   1.180   1.801   5.343
  462SOL    HW1 2066   1.206   1.861   5.272
  462SOL    HW2 2067   1.199   1.714   5.309
  463SOL     OW 2068   0.318   0.260   5.497
  463SOL    HW1 2069   0.386   0.313   5.538
  463SOL    HW2 2070   0.242   0.269   5.555
  464SOL     OW 2071   1.457   1.425   4.673
  464SOL    HW1 2072   1.393   1.432   4.744
  464SOL    HW2 2073   1.453   1.333   4.647
  465SOL     OW 2074   1.661   1.731   4.294
  465SOL    HW1 2075   1.636   1.703   4.206
  465SOL    HW2 2076   1.637   1.657   4.350
  466SOL     OW 2077   0.596   0.724   3.988
  466SOL    HW1 2078   0.602   0.803   3.935
  466SOL    HW2 2079   0.530   0.744   4.054
  467SOL     OW 2080   1.289   0.357   4.659
  467SOL    HW1 2081   1.201   0.325   4.643
  467SOL    HW2 2082   1.327   0.295   4.721
  468SOL     OW 2083   1.581   1.667   4.031
  468SOL    HW1 2084   1.670   1.702   4.025
  468SOL    HW2 2085   1.556   1.650   3.941
  469SOL     OW 2086   0.797   0.616   5.179
  469SOL    HW1 2087   0.769   0.594   5.267
  469SOL    HW2 2088   0.752   0.554   5.122
  470SOL     OW 2089   1.389   0.478   5.400
  470SOL    HW1 2090   1.391   0.521   5.486
  470SOL    HW2 2091   1.456   0.409   5.407
  471SOL     OW 2092   0.959   0.889   5.304
  471SOL    HW1 2093   1.012   0.817   5.271
  471SOL    HW2 2094   0.911   0.922   5.228
  472SOL     OW 2095   0.996   0.417   4.962
  472SOL    HW1 2096   0.911   0.431   5.005
  472SOL    HW2 2097   0.975   0.365   4.884
  473SOL     OW 2098   1.049   0.698   4.152
  473SOL    HW1 2099   1.064   0.691   4.246
  473SOL    HW2 2100   0.967   0.651   4.137
  474SOL     OW 2101   0.099   0.822   4.507
  474SOL    HW1 2102   0.185   0.803   4.543
  474SOL    HW2 2103   0.054   0.872   4.575
  475SOL     OW 2104   0.125   1.853   5.300
  475SOL    HW1 2105   0.119   1.828   5.392
  475SOL    HW2 2106   0.045   1.818   5.261
  476SOL     OW 2107   0.853   0.367   3.900
  476SOL    HW1 2108   0.929   0.404   3.856
  476SOL    HW2 2109   0.872   0.274   3.908
  477SOL     OW 2110   1.707   0.576   5.552
  477SOL    HW1 2111   1.672   0.653   5.507
  477SOL    HW2 2112   1.739   0.520   5.482
  478SOL     OW 2113   1.375   1.143   4.266
  478SOL    HW1 2114   1.454   1.128   4.214
  478SOL    HW2 2115   1.323   1.205   4.214
  479SOL     OW 2116   0.544   0.201   4.625
  479SOL    HW1 2117   0.562   0.220   4.717
  479SOL    HW2 2118   0.534   0.287   4.584
  480SOL     OW 2119   1.010   1.447   4.199
  480SOL    HW1 2120   0.968   1.517   4.149
  480SOL    HW2 2121   0.993   1.469   4.290
  481SOL     OW 2122   0.354   1.807   4.580
  481SOL    HW1 2123   0.398   1.722   4.590
  481SOL    HW2 2124   0.424   1.871   4.592
  482SOL     OW 2125   1.798   1.057   4.591
  482SOL    HW1 2126   1.741   1.046   4.515
  482SOL    HW2 2127   1.738   1.064   4.666
  483SOL     OW 2128   1.229   1.539   5.232
  483SOL    HW1 2129   1.217   1.469   5.296
  483SOL    HW2 2130   1.163   1.523   5.165
  484SOL     OW 2131   0.318   0.954   3.972
  484SOL    HW1 2132   0.402   0.976   3.933
  484SOL    HW2 2133   0.299   0.865   3.942
  485SOL     OW 2134   1.475   0.739   4.450
  485SOL    HW1 2135   1.463   0.692   4.533
  485SOL    HW2 2136   1.552   0.794   4.466
  486SOL     OW 2137   0.465   1.261   5.459
  486SOL    HW1 2138   0.437   1.267   5.368
  486SOL    HW2 2139   0.384   1.266   5.510
  487SOL     OW 2140   1.121   1.777   3.957
  487SOL    HW1 2141   1.049   1.733   4.003
  487SOL    HW2 2142   1.142   1.718   3.884
  488SOL     OW 2143   0.168   0.262   5.232
  488SOL    HW1 2144   0.135   0.348   5.206
  488SOL    HW2 2145   0.199   0.274   5.322
  489SOL     OW 2146   1.629   1.379   3.811
  489SOL    HW1 2147   1.588   1.464   3.795
  489SOL    HW2 2148   1.560   1.315   3.792
  490SOL     OW 2149   0.469   1.744   4.038
  490SOL    HW1 2150   0.508   1.796   4.109
  490SOL    HW2 2151   0.544   1.714   3.987
  491SOL     OW 2152   1.415   0.130   4.143
  491SOL    HW1 2153   1.397   0.084   4.061
  491SOL    HW2 2154   1.511   0.130   4.151
  492SOL     OW 2155   0.257   1.791   4.960
  492SOL    HW1 2156   0.305   1.719   4.999
  492SOL    HW2 2157   0.229   1.758   4.875
  493SOL     OW 2158   0.938   1.697   4.624
  493SOL    HW1 2159   1.015   1.643   4.642
  493SOL    HW2 2160   0.891   1.650   4.556
  494SOL     OW 2161   0.392   0.695   4.199
  494SOL    HW1 2162   0.418   0.603   4.209
  494SOL    HW2 2163   0.300   0.696   4.225
  495SOL     OW 2164   1.527   0.232   5.446
  495SOL    HW1 2165   1.525   0.257   5.538
  495SOL    HW2 2166   1.452   0.173   5.435
  496SOL     OW 2167   0.621   0.123   3.840
  496SOL    HW1 2168   0.709   0.089   3.853
  496SOL    HW2 2169   0.593   0.087   3.756
  497SOL     OW 2170   0.770   0.269   5.476
  497SOL    HW1 2171   0.835   0.201   5.494
  497SOL    HW2 2172   0.723   0.279   5.559
  498SOL     OW 2173   0.878   1.522   4.916
  498SOL    HW1 2174   0.862   1.485   4.830
  498SOL    HW2 2175   0.945   1.465   4.955
  499SOL     OW 2176   1.342   0.589   5.154
  499SOL    HW1 2177   1.370   0.558   5.240
  499SOL    HW2 2178   1.377   0.678   5.148
  500SOL     OW 2179   0.813   1.399   4.659
  500SOL    HW1 2180   0.896   1.389   4.614
  500SOL    HW2 2181   0.747   1.396   4.590
  501SOL     OW 2182   0.922   0.514   4.626
  501SOL    HW1 2183   0.905   0.512   4.532
  501SOL    HW2 2184   0.964   0.430   4.645
  502SOL     OW 2185   0.557   0.067   4.234
  502SOL    HW1 2186   0.470   0.054   4.269
  502SOL    HW2 2187   0.548   0.140   4.173
  503SOL     OW 2188   1.429   1.197   3.765
  503SOL    HW1 2189   1.460   1.122   3.815
  503SOL    HW2 2190   1.342   1.217   3.802
  504SOL     OW 2191   0.302   0.077   3.907
  504SOL    HW1 2192   0.386   0.123   3.902
  504SOL    HW2 2193   0.321   4.500   3.961
  505SOL     OW 2194   0.949   0.241   4.198
  505SOL    HW1 2195   0.897   0.287   4.132
  505SOL    HW2 2196   1.038   0.275   4.187
  506SOL     OW 2197   1.080   0.679   5.185
  506SOL    HW1 2198   1.008   0.616   5.187
  506SOL    HW2 2199   1.158   0.626   5.173
  507SOL     OW 2200   1.219   1.571   4.518
  507SOL    HW1 2201   1.241   1.637   4.452
  507SOL    HW2 2202   1.295   1.568   4.576
  508SOL     OW 2203   0.465   1.147   4.462
  508SOL    HW1 2204   0.392   1.129   4.522
  508SOL    HW2 2205   0.428   1.131   4.375
  509SOL     OW 2206   1.272   1.795   4.331
  509SOL    HW1 2207   1.316   1.856   4.271
  509SOL    HW2 2208   1.206   1.849   4.375
  510SOL     OW 2209   1.031   0.549   3.738
  510SOL    HW1 2210   0.983   0.631   3.722
  510SOL    HW2 2211   1.089   0.570   3.811
  511SOL     OW 2212   0.090   0.526   5.135
  511SOL    HW1 2213   0.152   0.537   5.063
  511SOL    HW2 2214   0.062   0.615   5.156
  512SOL     OW 2215   0.564   0.242   4.889
  512SOL    HW1 2216   0.594   0.156   4.920
  512SOL    HW2 2217   0.470   0.243   4.909
  513SOL     OW 2218   0.866   0.500   4.350
  513SOL    HW1 2219   0.814   0.542   4.282
  513SOL    HW2 2220   0.854   0.406   4.336
  514SOL     OW 2221   0.972   0.033   4.498
  514SOL    HW1 2222   0.923   0.028   4.416
  514SOL    HW2 2223   0.981   4.441   4.526
  515SOL     OW 2224   1.436   1.166   4.582
  515SOL    HW1 2225   1.370   1.097   4.580
  515SOL    HW2 2226   1.461   1.178   4.491
  516SOL     OW 2227   1.468   0.602   4.704
  516SOL    HW1 2228   1.418   0.521   4.708
  516SOL    HW2 2229   1.527   0.597   4.779
  517SOL     OW 2230   1.847   0.820   4.105
  517SOL    HW1 2231   1.903   0.767   4.163
  517SOL    HW2 2232   1.818   0.758   4.038
  518SOL     OW 2233   0.493   1.413   3.887
  518SOL    HW1 2234   0.416   1.383   3.936
  518SOL    HW2 2235   0.470   1.394   3.795
  519SOL     OW 2236   1.668   1.268   4.376
  519SOL    HW1 2237   1.764   1.271   4.386
  519SOL    HW2 2238   1.640   1.357   4.396
  520SOL     OW 2239   1.394   0.570   3.794
  520SOL    HW1 2240   1.334   0.554   3.867
  520SOL    HW2 2241   1.480   0.548   3.829
  521SOL     OW 2242   0.523   0.264   4.047
  521SOL    HW1 2243   0.567   0.213   3.979
  521SOL    HW2 2244   0.510   0.350   4.007
  522SOL     OW 2245   1.753   1.228   5.298
  522SOL    HW1 2246   1.842   1.192   5.294
  522SOL    HW2 2247   1.761   1.304   5.356
  523SOL     OW 2248   1.061   1.355   5.060
  523SOL    HW1 2249   0.986   1.323   5.111
  523SOL    HW2 2250   1.136   1.313   5.101
  524SOL     OW 2251   1.590   1.626   5.353
  524SOL    HW1 2252   1.609   1.681   5.277
  524SOL    HW2 2253   1.676   1.593   5.380
  525SOL     OW 2254   1.127   1.205   4.831
  525SOL    HW1 2255   1.065   1.238   4.896
  525SOL    HW2 2256   1.090   1.231   4.747
  526SOL     OW 2257   1.631   1.100   4.803
  526SOL    HW1 2258   1.624   1.161   4.876
  526SOL    HW2 2259   1.550   1.114   4.752
  527SOL     OW 2260   0.904   0.130   5.114
  527SOL    HW1 2261   0.927   0.085   5.033
  527SOL    HW2 2262   0.988   0.142   5.159
  528SOL     OW 2263   0.984   1.115   5.445
  528SOL    HW1 2264   0.891   1.129   5.465
  528SOL    HW2 2265   0.985   1.037   5.390
  529SOL     OW 2266   0.708   1.060   4.097
  529SOL    HW1 2267   0.696   1.046   4.191
  529SOL    HW2 2268   0.784   1.006   4.075
  530SOL     OW 2269   0.428   0.822   4.962
  530SOL    HW1 2270   0.496   0.833   5.029
  530SOL    HW2 2271   0.369   0.756   4.999
  531SOL     OW 2272   1.270   0.377   4.995
  531SOL    HW1 2273   1.301   0.455   5.041
  531SOL    HW2 2274   1.181   0.400   4.966
  532SOL     OW 2275   0.061   1.575   5.063
  532SOL    HW1 2276   0.032   1.663   5.037
  532SOL    HW2 2277   0.156   1.582   5.070
  533SOL     OW 2278   0.352   1.106   4.218
  533SOL    HW1 2279   0.360   1.179   4.157
  533SOL    HW2 2280   0.355   1.028   4.162
  534SOL     OW 2281   0.564   0.530   4.580
  534SOL    HW1 2282   0.577   0.590   4.507
  534SOL    HW2 2283   0.622   0.564   4.649
  535SOL     OW 2284   1.248   1.347   4.113
  535SOL    HW1 2285   1.303   1.420   4.144
  535SOL    HW2 2286   1.160   1.368   4.147
  536SOL     OW 2287   1.277   1.455   4.873
  536SOL    HW1 2288   1.328   1.451   4.954
  536SOL    HW2 2289   1.220   1.378   4.876
  537SOL     OW 2290   1.583   0.626   4.199
  537SOL    HW1 2291   1.540   0.680   4.264
  537SOL    HW2 2292   1.629   0.688   4.142
  538SOL     OW 2293   0.349   1.528   5.042
  538SOL    HW1 2294   0.333   1.481   4.960
  538SOL    HW2 2295   0.444   1.538   5.047
  539SOL     OW 2296   0.476   0.761   5.386
  539SOL    HW1 2297   0.501   0.800   5.303
  539SOL    HW2 2298   0.504   0.669   5.379
  540SOL     OW 2299   1.597   0.777   5.403
  540SOL    HW1 2300   1.511   0.817   5.395
  540SOL    HW2 2301   1.649   0.819   5.335
  541SOL     OW 2302   1.008   0.088   5.452
  541SOL    HW1 2303   1.028   0.172   5.412
  541SOL    HW2 2304   1.034   0.023   5.387
  542SOL     OW 2305   0.497   0.047   5.473
  542SOL    HW1 2306   0.477   4.497   5.393
  542SOL    HW2 2307   0.429   0.114   5.476
  543SOL     OW 2308   0.587   0.873   4.748
  543SOL    HW1 2309   0.615   0.965   4.749
  543SOL    HW2 2310   0.531   0.864   4.825
  544SOL     OW 2311   1.361   0.859   4.759
  544SOL    HW1 2312   1.281   0.853   4.707
  544SOL    HW2 2313   1.398   0.771   4.755
  545SOL     OW 2314   1.207   0.534   3.991
  545SOL    HW1 2315   1.213   0.453   4.042
  545SOL    HW2 2316   1.165   0.597   4.050
  546SOL     OW 2317   0.285   0.221   4.959
  546SOL    HW1 2318   0.251   0.238   5.046
  546SOL    HW2 2319   0.319   0.132   4.963
  547SOL     OW 2320   0.049   1.313   5.007
  547SOL    HW1 2321   0.078   1.266   5.086
  547SOL    HW2 2322   0.050   1.405   5.033
  548SOL     OW 2323   0.726   0.633   4.785
  548SOL    HW1 2324   0.798   0.611   4.725
  548SOL    HW2 2325   0.700   0.721   4.760
  549SOL     OW 2326   1.731   0.961   5.572
  549SOL    HW1 2327   1.683   0.903   5.513
  549SOL    HW2 2328   1.673   0.970   5.648
  550SOL     OW 2329   0.317   0.076   4.355
  550SOL    HW1 2330   0.300   0.164   4.389
  550SOL    HW2 2331   0.305   0.018   4.430
  551SOL     OW 2332   1.609   0.373   4.091
  551SOL    HW1 2333   1.642   0.312   4.157
  551SOL    HW2 2334   1.588   0.452   4.141
  552SOL     OW 2335   1.027   0.761   4.687
  552SOL    HW1 2336   1.027   0.777   4.781
  552SOL    HW2 2337   0.999   0.670   4.678
  553SOL     OW 2338   0.983   1.566   5.438
  553SOL    HW1 2339   0.967   1.611   5.354
  553SOL    HW2 2340   1.024   1.483   5.413
  554SOL     OW 2341   0.348   0.930   5.542
  554SOL    HW1 2342   0.422   0.957   5.595
  554SOL    HW2 2343   0.384   0.864   5.482
  555SOL     OW 2344   1.533   0.268   3.852
  555SOL    HW1 2345   1.461   0.211   3.879
  555SOL    HW2 2346   1.560   0.312   3.932
  556SOL     OW 2347   1.295   0.827   3.757
  556SOL    HW1 2348   1.337   0.741   3.759
  556SOL    HW2 2349   1.325   0.866   3.675
  557SOL     OW 2350   1.065   1.334   4.577
  557SOL    HW1 2351   1.067   1.260   4.515
  557SOL    HW2 2352   1.126   1.398   4.540
  558SOL     OW 2353   0.317   0.813   4.674
  558SOL    HW1 2354   0.411   0.831   4.669
  558SOL    HW2 2355   0.311   0.723   4.706
  559SOL     OW 2356   0.338   0.526   4.719
  559SOL    HW1 2357   0.292   0.444   4.699
  559SOL    HW2 2358   0.414   0.526   4.661
  560SOL     OW 2359   1.135   0.376   5.415
  560SOL    HW1 2360   1.088   0.440   5.468
  560SOL    HW2 2361   1.222   0.414   5.402
  561SOL     OW 2362   1.160   0.211   5.198
  561SOL    HW1 2363   1.152   0.275   5.268
  561SOL    HW2 2364   1.194   0.261   5.124
  562SOL     OW 2365   4.492   1.323   3.924
  562SOL    HW1 2366   4.399   1.338   3.907
  562SOL    HW2 2367   4.498   1.231   3.949
  563SOL     OW 2368   0.094   1.782   4.664
  563SOL    HW1 2369   0.056   1.721   4.601
  563SOL    HW2 2370   0.182   1.801   4.629
  564SOL     OW 2371   0.499   1.573   4.630
  564SOL    HW1 2372   0.568   1.635   4.654
  564SOL    HW2 2373   0.544   1.508   4.576
  565SOL     OW 2374   0.989   0.796   4.953
  565SOL    HW1 2375   1.040   0.769   5.030
  565SOL    HW2 2376   0.902   0.758   4.968
  566SOL     OW 2377   0.040   0.565   4.834
  566SOL    HW1 2378   0.115   0.520   4.795
  566SOL    HW2 2379   0.027   0.521   4.918
  567SOL     OW 2380   0.180   0.517   5.434
  567SOL    HW1 2381   0.265   0.500   5.393
  567SOL    HW2 2382   0.149   0.598   5.394
  568SOL     OW 2383   1.376   0.941   5.384
  568SOL    HW1 2384   1.395   1.035   5.384
  568SOL    HW2 2385   1.374   0.918   5.291
  569SOL     OW 2386   0.812   0.572   4.076
  569SOL    HW1 2387   0.815   0.500   4.013
  569SOL    HW2 2388   0.738   0.625   4.048
  570SOL     OW 2389   1.643   0.601   4.914
  570SOL    HW1 2390   1.631   0.541   4.987
  570SOL    HW2 2391   1.729   0.580   4.879
  571SOL     OW 2392   0.271   1.562   5.466
  571SOL    HW1 2393   0.217   1.614   5.526
  571SOL    HW2 2394   0.250   1.471   5.488
  572SOL     OW 2395   0.682   0.464   4.992
  572SOL    HW1 2396   0.646   0.383   4.955
  572SOL    HW2 2397   0.691   0.522   4.917
  573SOL     OW 2398   0.933   1.677   5.188
  573SOL    HW1 2399   0.902   1.649   5.102
  573SOL    HW2 2400   0.932   1.772   5.185
  574SOL     OW 2401   0.473   0.491   3.910
  574SOL    HW1 2402   0.532   0.564   3.931
  574SOL    HW2 2403   0.388   0.532   3.898
  575SOL     OW 2404   0.162   1.141   5.188
  575SOL    HW1 2405   0.149   1.092   5.269
  575SOL    HW2 2406   0.171   1.073   5.120
  576SOL     OW 2407   1.329   1.050   4.950
  576SOL    HW1 2408   1.354   0.986   4.882
  576SOL    HW2 2409   1.257   1.099   4.912
  577SOL     OW 2410   1.309   0.856   4.031
  577SOL    HW1 2411   1.231   0.827   4.080
  577SOL    HW2 2412   1.285   0.843   3.939
  578SOL     OW 2413   1.238   1.730   4.848
  578SOL    HW1 2414   1.323   1.745   4.806
  578SOL    HW2 2415   1.235   1.636   4.862
  579SOL     OW 2416   0.069   1.189   4.771
  579SOL    HW1 2417   0.074   1.225   4.860
  579SOL    HW2 2418   0.009   1.249   4.726
  580SOL     OW 2419   0.679   1.663   5.448
  580SOL    HW1 2420   0.626   1.743   5.446
  580SOL    HW2 2421   0.740   1.673   5.375
  581SOL     OW 2422   1.718   0.130   4.223
  581SOL    HW1 2423   1.793   0.134   4.163
  581SOL    HW2 2424   1.736   0.055   4.279
  582SOL     OW 2425   1.389   1.568   4.206
  582SOL    HW1 2426   1.450   1.597   4.138
  582SOL    HW2 2427   1.343   1.647   4.233
  583SOL     OW 2428   0.121   1.807   5.571
  583SOL    HW1 2429   0.082   1.733   5.618
  583SOL    HW2 2430   0.184   1.844   5.634
  584SOL     OW 2431   1.278   0.926   4.396
  584SOL    HW1 2432   1.350   0.863   4.399
  584SOL    HW2 2433   1.312   0.998   4.344
  585SOL     OW 2434   0.819   1.272   5.155
  585SOL    HW1 2435   0.793   1.310   5.239
  585SOL    HW2 2436   0.746   1.293   5.096
  586SOL     OW 2437   0.673   1.616   3.879
  586SOL    HW1 2438   0.681   1.627   3.784
  586SOL    HW2 2439   0.620   1.537   3.890
  587SOL     OW 2440   1.839   0.156   4.691
  587SOL    HW1 2441   1.868   0.080   4.640
  587SOL    HW2 2442   1.752   0.176   4.656
  588SOL     OW 2443   0.267   0.326   4.449
  588SOL    HW1 2444   0.185   0.361   4.414
  588SOL    HW2 2445   0.251   0.317   4.543
  589SOL     OW 2446   1.205   1.608   3.755
  589SOL    HW1 2447   1.197   1.517   3.782
  589SOL    HW2 2448   1.141   1.618   3.685
  590SOL     OW 2449   0.825   1.006   5.096
  590SOL    HW1 2450   0.866   1.003   5.010
  590SOL    HW2 2451   0.826   1.099   5.120
  591SOL     OW 2452   0.915   0.910   4.013
  591SOL    HW1 2453   0.977   0.942   3.948
  591SOL    HW2 2454   0.961   0.839   4.058
  592SOL     OW 2455   1.496   1.624   3.766
  592SOL    HW1 2456   1.401   1.621   3.754
  592SOL    HW2 2457   1.530   1.630   3.677
  593SOL     OW 2458   0.373   1.304   5.215
  593SOL    HW1 2459   0.356   1.383   5.164
  593SOL    HW2 2460   0.297   1.248   5.199
  594SOL     OW 2461   1.608   1.279   5.010
  594SOL    HW1 2462   1.671   1.272   5.081
  594SOL    HW2 2463   1.552   1.352   5.034
  595SOL     OW 2464   1.047   1.105   4.429
  595SOL    HW1 2465   0.977   1.053   4.469
  595SOL    HW2 2466   1.108   1.040   4.394
  596SOL     OW 2467   1.007   0.241   4.720
  596SOL    HW1 2468   1.015   0.211   4.629
  596SOL    HW2 2469   1.001   0.160   4.771
  597SOL     OW 2470   0.602   1.490   4.208
  597SOL    HW1 2471   0.640   1.439   4.136
  597SOL    HW2 2472   0.533   1.541   4.166
  598SOL     OW 2473   1.719   0.393   5.102
  598SOL    HW1 2474   1.791   0.456   5.101
  598SOL    HW2 2475   1.749   0.321   5.046
  599SOL     OW 2476   0.252   1.345   4.002
  599SOL    HW1 2477   0.158   1.347   3.987
  599SOL    HW2 2478   0.263   1.379   4.091
  600SOL     OW 2479   0.117   1.007   5.421
  600SOL    HW1 2480   0.051   1.044   5.480
  600SOL    HW2 2481   0.195   0.995   5.476
  601SOL     OW 2482   0.660   0.207   5.219
  601SOL    HW1 2483   0.740   0.181   5.173
  601SOL    HW2 2484   0.687   0.221   5.310
  602SOL     OW 2485   0.070   0.321   3.750
  602SOL    HW1 2486   4.475   0.330   3.759
  602SOL    HW2 2487   0.100   0.407   3.719
  603SOL     OW 2488   1.433   0.859   5.126
  603SOL    HW1 2489   1.383   0.917   5.068
  603SOL    HW2 2490   1.522   0.861   5.092
  604SOL     OW 2491   0.083   0.188   4.028
  604SOL    HW1 2492   0.080   0.260   3.964
  604SOL    HW2 2493   0.160   0.138   4.003
  605SOL     OW 2494   1.180   1.342   3.841
  605SOL    HW1 2495   1.089   1.312   3.844
  605SOL    HW2 2496   1.209   1.341   3.932
  606SOL     OW 2497   0.620   0.831   5.151
  606SOL    HW1 2498   0.674   0.909   5.139
  606SOL    HW2 2499   0.683   0.760   5.162
  607SOL     OW 2500   0.716   0.561   5.429
  607SOL    HW1 2501   0.746   0.629   5.490
  607SOL    HW2 2502   0.757   0.481   5.460
  608SOL     OW 2503   1.465   1.204   5.357
  608SOL    HW1 2504   1.455   1.217   5.452
  608SOL    HW2 2505   1.560   1.210   5.343
  609SOL     OW 2506   0.383   1.742   5.287
  609SOL    HW1 2507   0.297   1.782   5.273
  609SOL    HW2 2508   0.364   1.660   5.333
  610SOL     OW 2509   1.672   0.882   4.979
  610SOL    HW1 2510   1.663   0.796   4.937
  610SOL    HW2 2511   1.664   0.945   4.908
  611SOL     OW 2512   1.218   0.327   4.172
  611SOL    HW1 2513   1.284   0.257   4.163
  611SOL    HW2 2514   1.245   0.374   4.251
  612SOL     OW 2515   0.589   0.741   4.392
  612SOL    HW1 2516   0.630   0.825   4.374
  612SOL    HW2 2517   0.519   0.734   4.327
  613SOL     OW 2518   1.766   0.360   5.367
  613SOL    HW1 2519   1.750   0.374   5.274
  613SOL    HW2 2520   1.687   0.316   5.399
  614SOL     OW 2521   1.743   0.933   5.236
  614SOL    HW1 2522   1.746   1.028   5.248
  614SOL    HW2 2523   1.728   0.921   5.142
  615SOL     OW 2524   0.863   1.369   3.754
  615SOL    HW1 2525   0.822   1.395   3.836
  615SOL    HW2 2526   0.882   1.451   3.709
  616SOL     OW 2527   0.659   1.795   4.674
  616SOL    HW1 2528   0.636   1.884   4.648
  616SOL    HW2 2529   0.754   1.790   4.663
  617SOL     OW 2530   0.866   0.965   4.580
  617SOL    HW1 2531   0.916   0.894   4.620
  617SOL    HW2 2532   0.833   1.016   4.654
  618SOL     OW 2533   1.080   0.988   3.813
  618SOL    HW1 2534   1.058   1.038   3.734
  618SOL    HW2 2535   1.156   0.935   3.787
  619SOL     OW 2536   1.868   1.509   4.531
  619SOL    HW1 2537   1.784   1.550   4.513
  619SOL    HW2 2538   1.870   1.497   4.626
  620SOL     OW 2539   0.228   1.307   5.580
  620SOL    HW1 2540   0.159   1.245   5.555
  620SOL    HW2 2541   0.218   1.317   5.674
  621SOL     OW 2542   0.101   1.241   4.390
  621SOL    HW1 2543   0.102   1.188   4.470
  621SOL    HW2 2544   0.162   1.196   4.331
  622SOL     OW 2545   0.680   1.400   5.350
  622SOL    HW1 2546   0.600   1.356   5.378
  622SOL    HW2 2547   0.674   1.488   5.387
  623SOL     OW 2548   1.811   0.184   4.963
  623SOL    HW1 2549   1.810   0.091   4.984
  623SOL    HW2 2550   1.826   0.187   4.868
  624SOL     OW 2551   0.437   0.431   4.252
  624SOL    HW1 2552   0.458   0.360   4.192
  624SOL    HW2 2553   0.381   0.391   4.318
  625SOL     OW 2554   1.708   1.466   4.826
  625SOL    HW1 2555   1.623   1.451   4.784
  625SOL    HW2 2556   1.711   1.400   4.896
  626SOL     OW 2557   0.314   0.505   4.982
  626SOL    HW1 2558   0.385   0.457   5.025
  626SOL    HW2 2559   0.341   0.512   4.891
  627SOL     OW 2560   0.825   1.578   4.404
  627SOL    HW1 2561   0.820   1.622   4.319
  627SOL    HW2 2562   0.746   1.524   4.407
  628SOL     OW 2563   1.432   0.215   4.842
  628SOL    HW1 2564   1.469   0.146   4.896
  628SOL    HW2 2565   1.381   0.268   4.903
  629SOL     OW 2566   0.997   0.014   4.872
  629SOL    HW1 2567   0.951   4.431   4.861
  629SOL    HW2 2568   1.089   4.488   4.885
  630SOL     OW 2569   0.771   1.332   4.034
  630SOL    HW1 2570   0.737   1.243   4.040
  630SOL    HW2 2571   0.854   1.329   4.082
  631SOL     OW 2572   0.621   1.559   5.008
  631SOL    HW1 2573   0.623   1.639   5.059
  631SOL    HW2 2574   0.708   1.552   4.969
  632SOL     OW 2575   1.343   0.054   3.876
  632SOL    HW1 2576   1.383   4.480   3.830
  632SOL    HW2 2577   1.268   0.016   3.921
  633SOL     OW 2578   1.314   0.462   4.405
  633SOL    HW1 2579   1.251   0.535   4.406
  633SOL    HW2 2580   1.302   0.419   4.490
  634SOL     OW 2581   1.586   0.203   4.592
  634SOL    HW1 2582   1.524   0.217   4.663
  634SOL    HW2 2583   1.589   0.287   4.546
  635SOL     OW 2584   0.041   1.054   4.010
  635SOL    HW1 2585   0.136   1.044   4.005
  635SOL    HW2 2586   0.018   1.012   4.093
  636SOL     OW 2587   0.881   1.649   4.069
  636SOL    HW1 2588   0.810   1.631   4.007
  636SOL    HW2 2589   0.851   1.725   4.118
  637SOL     OW 2590   0.247   0.626   5.704
  637SOL    HW1 2591   0.171   0.613   5.760
  637SOL    HW2 2592   0.215   0.608   5.616
  638SOL     OW 2593   0.198   0.292   6.575
  638SOL    HW1 2594   0.235   0.269   6.661
  638SOL    HW2 2595   0.132   0.224   6.559
  639SOL     OW 2596   0.007   0.376   6.229
  639SOL    HW1 2597   4.428   0.414   6.267
  639SOL    HW2 2598   4.476   0.305   6.173
  640SOL     OW 2599   0.567   1.281   6.758
  640SOL    HW1 2600   0.479   1.286   6.720
  640SOL    HW2 2601   0.582   1.369   6.793
  641SOL     OW 2602   1.131   0.700   6.288
  641SOL    HW1 2603   1.180   0.781   6.276
  641SOL    HW2 2604   1.082   0.713   6.370
  642SOL     OW 2605   1.763   0.609   5.816
  642SOL    HW1 2606   1.745   0.597   5.723
  642SOL    HW2 2607   1.732   0.528   5.857
  643SOL     OW 2608   0.759   1.144   6.623
  643SOL    HW1 2609   0.689   1.178   6.679
  643SOL    HW2 2610   0.793   1.222   6.578
  644SOL     OW 2611   0.862   0.780   7.407
  644SOL    HW1 2612   0.849   0.852   7.469
  644SOL    HW2 2613   0.885   0.824   7.325
  645SOL     OW 2614   0.686   1.008   6.235
  645SOL    HW1 2615   0.750   0.992   6.305
  645SOL    HW2 2616   0.616   1.057   6.278
  646SOL     OW 2617   0.707   1.152   7.395
  646SOL    HW1 2618   0.755   1.231   7.419
  646SOL    HW2 2619   0.623   1.183   7.361
  647SOL     OW 2620   0.337   1.424   6.656
  647SOL    HW1 2621   0.256   1.405   6.609
  647SOL    HW2 2622   0.387   1.479   6.595
  648SOL     OW 2623   1.462   1.497   6.936
  648SOL    HW1 2624   1.503   1.583   6.946
  648SOL    HW2 2625   1.408   1.487   7.014
  649SOL     OW 2626   0.436   0.396   7.080
  649SOL    HW1 2627   0.524   0.359   7.082
  649SOL    HW2 2628   0.377   0.322   7.094
  650SOL     OW 2629   1.613   0.448   6.323
  650SOL    HW1 2630   1.532   0.473   6.278
  650SOL    HW2 2631   1.635   0.525   6.376
  651SOL     OW 2632   0.245   1.692   6.066
  651SOL    HW1 2633   0.234   1.776   6.109
  651SOL    HW2 2634   0.305   1.710   5.994
  652SOL     OW 2635   1.136   1.341   7.277
  652SOL    HW1 2636   1.175   1.338   7.364
  652SOL    HW2 2637   1.082   1.261   7.272
  653SOL     OW 2638   0.243   1.428   6.114
  653SOL    HW1 2639   0.236   1.523   6.120
  653SOL    HW2 2640   0.178   1.395   6.177
  654SOL     OW 2641   0.244   1.081   6.468
  654SOL    HW1 2642   0.263   0.994   6.504
  654SOL    HW2 2643   0.188   1.122   6.533
  655SOL     OW 2644   0.617   1.790   7.019
  655SOL    HW1 2645   0.533   1.773   7.061
  655SOL    HW2 2646   0.638   1.881   7.042
  656SOL     OW 2647   0.585   0.983   5.720
  656SOL    HW1 2648   0.629   1.031   5.650
  656SOL    HW2 2649   0.631   1.009   5.800
  657SOL     OW 2650   1.586   0.114   7.061
  657SOL    HW1 2651   1.595   0.183   6.994
  657SOL    HW2 2652   1.576   0.162   7.143
  658SOL     OW 2653   0.136   0.642   6.161
  658SOL    HW1 2654   0.082   0.564   6.174
  658SOL    HW2 2655   0.107   0.702   6.229
  659SOL     OW 2656   0.033   1.600   5.721
  659SOL    HW1 2657   0.021   1.505   5.723
  659SOL    HW2 2658   0.009   1.630   5.808
  660SOL     OW 2659   1.690   0.921   6.222
  660SOL    HW1 2660   1.776   0.882   6.206
  660SOL    HW2 2661   1.670   0.970   6.143
  661SOL     OW 2662   1.645   1.111   6.016
  661SOL    HW1 2663   1.731   1.116   5.975
  661SOL    HW2 2664   1.650   1.173   6.089
  662SOL     OW 2665   0.107   0.760   7.175
  662SOL    HW1 2666   0.201   0.759   7.163
  662SOL    HW2 2667   0.083   0.853   7.178
  663SOL     OW 2668   0.613   1.381   6.321
  663SOL    HW1 2669   0.566   1.298   6.330
  663SOL    HW2 2670   0.596   1.409   6.231
  664SOL     OW 2671   1.290   1.239   7.011
  664SOL    HW1 2672   1.323   1.171   6.951
  664SOL    HW2 2673   1.346   1.231   7.088
  665SOL     OW 2674   0.816   0.011   6.131
  665SOL    HW1 2675   0.850   0.097   6.108
  665SOL    HW2 2676   0.721   0.018   6.121
  666SOL     OW 2677   0.184   0.945   6.865
  666SOL    HW1 2678   0.275   0.927   6.841
  666SOL    HW2 2679   0.133   0.919   6.788
  667SOL     OW 2680   1.532   0.991   5.782
  667SOL    HW1 2681   1.462   0.933   5.812
  667SOL    HW2 2682   1.572   1.024   5.863
  668SOL     OW 2683   1.185   1.803   7.206
  668SOL    HW1 2684   1.201   1.861   7.131
  668SOL    HW2 2685   1.200   1.715   7.172
  669SOL     OW 2686   0.318   0.260   7.359
  669SOL    HW1 2687   0.386   0.313   7.400
  669SOL    HW2 2688   0.243   0.269   7.417
  670SOL     OW 2689   1.475   1.416   6.548
  670SOL    HW1 2690   1.402   1.432   6.607
  670SOL    HW2 2691   1.458   1.329   6.512
  671SOL     OW 2692   0.596   0.724   5.850
  671SOL    HW1 2693   0.602   0.803   5.798
  671SOL    HW2 2694   0.530   0.743   5.917
  672SOL     OW 2695   1.289   0.357   6.521
  672SOL    HW1 2696   1.201   0.325   6.505
  672SOL    HW2 2697   1.327   0.295   6.583
  673SOL     OW 2698   0.797   0.616   7.041
  673SOL    HW1 2699   0.769   0.594   7.129
  673SOL    HW2 2700   0.752   0.554   6.984
  674SOL     OW 2701   1.389   0.477   7.262
  674SOL    HW1 2702   1.391   0.521   7.347
  674SOL    HW2 2703   1.456   0.409   7.269
  675SOL     OW 2704   0.958   0.889   7.166
  675SOL    HW1 2705   1.012   0.817   7.133
  675SOL    HW2 2706   0.912   0.922   7.090
  676SOL     OW 2707   0.996   0.417   6.824
  676SOL    HW1 2708   0.912   0.431   6.867
  676SOL    HW2 2709   0.975   0.365   6.746
  677SOL     OW 2710   1.049   0.698   6.014
  677SOL    HW1 2711   1.064   0.691   6.108
  677SOL    HW2 2712   0.967   0.651   5.999
  678SOL     OW 2713   0.099   0.822   6.369
  678SOL    HW1 2714   0.185   0.802   6.405
  678SOL    HW2 2715   0.054   0.873   6.437
  679SOL     OW 2716   0.125   1.852   7.162
  679SOL    HW1 2717   0.119   1.828   7.254
  679SOL    HW2 2718   0.044   1.818   7.123
  680SOL     OW 2719   0.853   0.367   5.762
  680SOL    HW1 2720   0.930   0.403   5.718
  680SOL    HW2 2721   0.872   0.274   5.770
  681SOL     OW 2722   1.707   0.576   7.414
  681SOL    HW1 2723   1.672   0.654   7.370
  681SOL    HW2 2724   1.738   0.520   7.343
  682SOL     OW 2725   1.375   1.142   6.128
  682SOL    HW1 2726   1.454   1.128   6.076
  682SOL    HW2 2727   1.322   1.202   6.075
  683SOL     OW 2728   0.544   0.201   6.487
  683SOL    HW1 2729   0.562   0.220   6.579
  683SOL    HW2 2730   0.534   0.287   6.446
  684SOL     OW 2731   1.011   1.447   6.061
  684SOL    HW1 2732   0.968   1.517   6.012
  684SOL    HW2 2733   0.995   1.469   6.153
  685SOL     OW 2734   0.354   1.807   6.441
  685SOL    HW1 2735   0.398   1.722   6.452
  685SOL    HW2 2736   0.424   1.872   6.455
  686SOL     OW 2737   1.798   1.056   6.455
  686SOL    HW1 2738   1.741   1.042   6.379
  686SOL    HW2 2739   1.737   1.064   6.529
  687SOL     OW 2740   1.228   1.540   7.098
  687SOL    HW1 2741   1.214   1.467   7.158
  687SOL    HW2 2742   1.168   1.524   7.026
  688SOL     OW 2743   0.318   0.954   5.834
  688SOL    HW1 2744   0.402   0.976   5.795
  688SOL    HW2 2745   0.299   0.865   5.804
  689SOL     OW 2746   1.476   0.739   6.312
  689SOL    HW1 2747   1.462   0.692   6.394
  689SOL    HW2 2748   1.552   0.795   6.329
  690SOL     OW 2749   0.465   1.261   7.321
  690SOL    HW1 2750   0.437   1.267   7.230
  690SOL    HW2 2751   0.384   1.266   7.372
  691SOL     OW 2752   1.116   1.777   5.819
  691SOL    HW1 2753   1.047   1.730   5.865
  691SOL    HW2 2754   1.140   1.720   5.746
  692SOL     OW 2755   0.168   0.262   7.094
  692SOL    HW1 2756   0.135   0.348   7.068
  692SOL    HW2 2757   0.199   0.274   7.184
  693SOL     OW 2758   1.634   1.381   5.665
  693SOL    HW1 2759   1.590   1.466   5.660
  693SOL    HW2 2760   1.563   1.317   5.653
  694SOL     OW 2761   0.469   1.745   5.900
  694SOL    HW1 2762   0.507   1.795   5.971
  694SOL    HW2 2763   0.544   1.713   5.850
  695SOL     OW 2764   1.415   0.130   6.005
  695SOL    HW1 2765   1.398   0.084   5.923
  695SOL    HW2 2766   1.511   0.129   6.013
  696SOL     OW 2767   0.256   1.791   6.822
  696SOL    HW1 2768   0.306   1.719   6.862
  696SOL    HW2 2769   0.229   1.758   6.737
  697SOL     OW 2770   0.939   1.699   6.487
  697SOL    HW1 2771   1.016   1.645   6.506
  697SOL    HW2 2772   0.893   1.650   6.418
  698SOL     OW 2773   0.392   0.695   6.060
  698SOL    HW1 2774   0.418   0.603   6.071
  698SOL    HW2 2775   0.300   0.696   6.087
  699SOL     OW 2776   1.527   0.232   7.308
  699SOL    HW1 2777   1.525   0.257   7.400
  699SOL    HW2 2778   1.452   0.173   7.297
  700SOL     OW 2779   0.621   0.124   5.702
  700SOL    HW1 2780   0.709   0.088   5.715
  700SOL    HW2 2781   0.593   0.087   5.618
  701SOL     OW 2782   0.769   0.268   7.338
  701SOL    HW1 2783   0.835   0.201   7.356
  701SOL    HW2 2784   0.724   0.280   7.421
  702SOL     OW 2785   0.877   1.521   6.779
  702SOL    HW1 2786   0.862   1.485   6.692
  702SOL    HW2 2787   0.946   1.465   6.816
  703SOL     OW 2788   1.343   0.589   7.016
  703SOL    HW1 2789   1.370   0.559   7.102
  703SOL    HW2 2790   1.377   0.678   7.009
  704SOL     OW 2791   0.812   1.399   6.521
  704SOL    HW1 2792   0.896   1.389   6.476
  704SOL    HW2 2793   0.747   1.396   6.451
  705SOL     OW 2794   0.922   0.514   6.488
  705SOL    HW1 2795   0.905   0.512   6.394
  705SOL    HW2 2796   0.964   0.430   6.507
  706SOL     OW 2797   0.557   0.067   6.096
  706SOL    HW1 2798   0.470   0.054   6.131
  706SOL    HW2 2799   0.548   0.140   6.035
  707SOL     OW 2800   1.430   1.198   5.628
  707SOL    HW1 2801   1.460   1.122   5.677
  707SOL    HW2 2802   1.343   1.217   5.663
  708SOL     OW 2803   0.302   0.077   5.769
  708SOL    HW1 2804   0.386   0.123   5.764
  708SOL    HW2 2805   0.321   4.500   5.823
  709SOL     OW 2806   0.949   0.241   6.060
  709SOL    HW1 2807   0.897   0.287   5.994
  709SOL    HW2 2808   1.038   0.275   6.049
  710SOL     OW 2809   1.080   0.679   7.047
  710SOL    HW1 2810   1.008   0.616   7.049
  710SOL    HW2 2811   1.158   0.626   7.035
  711SOL     OW 2812   1.224   1.566   6.377
  711SOL    HW1 2813   1.236   1.637   6.313
  711SOL    HW2 2814   1.298   1.574   6.437
  712SOL     OW 2815   0.465   1.147   6.324
  712SOL    HW1 2816   0.392   1.129   6.384
  712SOL    HW2 2817   0.428   1.131   6.237
  713SOL     OW 2818   1.250   1.788   6.197
  713SOL    HW1 2819   1.305   1.833   6.133
  713SOL    HW2 2820   1.197   1.857   6.236
  714SOL     OW 2821   1.031   0.550   5.600
  714SOL    HW1 2822   0.983   0.631   5.584
  714SOL    HW2 2823   1.089   0.570   5.674
  715SOL     OW 2824   0.090   0.526   6.997
  715SOL    HW1 2825   0.152   0.537   6.925
  715SOL    HW2 2826   0.062   0.615   7.018
  716SOL     OW 2827   0.564   0.241   6.751
  716SOL    HW1 2828   0.594   0.156   6.782
  716SOL    HW2 2829   0.470   0.243   6.771
  717SOL     OW 2830   0.866   0.500   6.212
  717SOL    HW1 2831   0.814   0.542   6.144
  717SOL    HW2 2832   0.854   0.406   6.198
  718SOL     OW 2833   0.972   0.033   6.360
  718SOL    HW1 2834   0.923   0.027   6.278
  718SOL    HW2 2835   0.981   4.442   6.388
  719SOL     OW 2836   1.436   1.163   6.443
  719SOL    HW1 2837   1.368   1.095   6.443
  719SOL    HW2 2838   1.455   1.179   6.350
  720SOL     OW 2839   1.468   0.602   6.566
  720SOL    HW1 2840   1.418   0.520   6.570
  720SOL    HW2 2841   1.527   0.597   6.641
  721SOL     OW 2842   1.847   0.819   5.968
  721SOL    HW1 2843   1.903   0.767   6.025
  721SOL    HW2 2844   1.818   0.757   5.900
  722SOL     OW 2845   0.493   1.412   5.749
  722SOL    HW1 2846   0.416   1.383   5.798
  722SOL    HW2 2847   0.470   1.395   5.657
  723SOL     OW 2848   1.663   1.279   6.231
  723SOL    HW1 2849   1.758   1.270   6.240
  723SOL    HW2 2850   1.642   1.359   6.279
  724SOL     OW 2851   1.394   0.570   5.656
  724SOL    HW1 2852   1.334   0.554   5.729
  724SOL    HW2 2853   1.480   0.547   5.691
  725SOL     OW 2854   0.523   0.264   5.909
  725SOL    HW1 2855   0.568   0.213   5.841
  725SOL    HW2 2856   0.510   0.350   5.869
  726SOL     OW 2857   1.754   1.235   7.162
  726SOL    HW1 2858   1.841   1.196   7.163
  726SOL    HW2 2859   1.768   1.325   7.193
  727SOL     OW 2860   1.061   1.353   6.921
  727SOL    HW1 2861   0.986   1.322   6.972
  727SOL    HW2 2862   1.137   1.312   6.962
  728SOL     OW 2863   1.605   1.624   7.236
  728SOL    HW1 2864   1.604   1.659   7.147
  728SOL    HW2 2865   1.689   1.579   7.243
  729SOL     OW 2866   1.124   1.200   6.693
  729SOL    HW1 2867   1.067   1.240   6.759
  729SOL    HW2 2868   1.090   1.232   6.610
  730SOL     OW 2869   1.631   1.100   6.665
  730SOL    HW1 2870   1.627   1.163   6.737
  730SOL    HW2 2871   1.550   1.116   6.615
  731SOL     OW 2872   0.904   0.130   6.976
  731SOL    HW1 2873   0.927   0.085   6.895
  731SOL    HW2 2874   0.988   0.142   7.021
  732SOL     OW 2875   0.984   1.114   7.308
  732SOL    HW1 2876   0.891   1.129   7.327
  732SOL    HW2 2877   0.985   1.037   7.252
  733SOL     OW 2878   0.708   1.060   5.959
  733SOL    HW1 2879   0.695   1.046   6.053
  733SOL    HW2 2880   0.784   1.006   5.937
  734SOL     OW 2881   0.428   0.822   6.824
  734SOL    HW1 2882   0.496   0.833   6.891
  734SOL    HW2 2883   0.369   0.756   6.861
  735SOL     OW 2884   1.270   0.377   6.857
  735SOL    HW1 2885   1.301   0.455   6.903
  735SOL    HW2 2886   1.181   0.400   6.828
  736SOL     OW 2887   0.061   1.575   6.924
  736SOL    HW1 2888   0.033   1.663   6.899
  736SOL    HW2 2889   0.156   1.582   6.932
  737SOL     OW 2890   0.352   1.106   6.080
  737SOL    HW1 2891   0.359   1.179   6.019
  737SOL    HW2 2892   0.355   1.028   6.024
  738SOL     OW 2893   0.564   0.530   6.442
  738SOL    HW1 2894   0.577   0.590   6.369
  738SOL    HW2 2895   0.621   0.564   6.511
  739SOL     OW 2896   1.247   1.348   5.975
  739SOL    HW1 2897   1.299   1.422   6.005
  739SOL    HW2 2898   1.159   1.365   6.008
  740SOL     OW 2899   1.276   1.455   6.731
  740SOL    HW1 2900   1.331   1.457   6.809
  740SOL    HW2 2901   1.221   1.377   6.743
  741SOL     OW 2902   1.583   0.626   6.061
  741SOL    HW1 2903   1.540   0.680   6.126
  741SOL    HW2 2904   1.629   0.688   6.005
  742SOL     OW 2905   0.349   1.527   6.904
  742SOL    HW1 2906   0.334   1.481   6.822
  742SOL    HW2 2907   0.443   1.538   6.909
  743SOL     OW 2908   0.475   0.760   7.248
  743SOL    HW1 2909   0.501   0.800   7.165
  743SOL    HW2 2910   0.505   0.669   7.241
  744SOL     OW 2911   1.597   0.777   7.264
  744SOL    HW1 2912   1.511   0.817   7.257
  744SOL    HW2 2913   1.649   0.819   7.196
  745SOL     OW 2914   1.008   0.087   7.314
  745SOL    HW1 2915   1.028   0.172   7.274
  745SOL    HW2 2916   1.034   0.023   7.249
  746SOL     OW 2917   0.497   0.047   7.335
  746SOL    HW1 2918   0.478   4.497   7.255
  746SOL    HW2 2919   0.429   0.114   7.338
  747SOL     OW 2920   0.587   0.874   6.610
  747SOL    HW1 2921   0.616   0.965   6.612
  747SOL    HW2 2922   0.531   0.865   6.687
  748SOL     OW 2923   1.361   0.859   6.620
  748SOL    HW1 2924   1.280   0.853   6.570
  748SOL    HW2 2925   1.398   0.770   6.617
  749SOL     OW 2926   1.207   0.534   5.853
  749SOL    HW1 2927   1.213   0.453   5.904
  749SOL    HW2 2928   1.165   0.597   5.912
  750SOL     OW 2929   0.285   0.221   6.820
  750SOL    HW1 2930   0.251   0.238   6.908
  750SOL    HW2 2931   0.319   0.132   6.825
  751SOL     OW 2932   0.048   1.313   6.869
  751SOL    HW1 2933   0.078   1.266   6.948
  751SOL    HW2 2934   0.050   1.405   6.895
  752SOL     OW 2935   0.726   0.632   6.647
  752SOL    HW1 2936   0.798   0.611   6.588
  752SOL    HW2 2937   0.700   0.721   6.622
  753SOL     OW 2938   1.733   0.959   7.436
  753SOL    HW1 2939   1.684   0.905   7.374
  753SOL    HW2 2940   1.673   0.970   7.510
  754SOL     OW 2941   0.317   0.076   6.217
  754SOL    HW1 2942   0.300   0.164   6.252
  754SOL    HW2 2943   0.305   0.018   6.292
  755SOL     OW 2944   1.610   0.374   5.953
  755SOL    HW1 2945   1.642   0.311   6.018
  755SOL    HW2 2946   1.588   0.452   6.003
  756SOL     OW 2947   1.027   0.761   6.549
  756SOL    HW1 2948   1.028   0.778   6.643
  756SOL    HW2 2949   0.999   0.670   6.540
  757SOL     OW 2950   0.983   1.566   7.300
  757SOL    HW1 2951   0.967   1.611   7.217
  757SOL    HW2 2952   1.025   1.484   7.275
  758SOL     OW 2953   1.857   1.508   7.192
  758SOL    HW1 2954   1.871   1.536   7.102
  758SOL    HW2 2955   1.937   1.533   7.238
  759SOL     OW 2956   0.347   0.929   7.404
  759SOL    HW1 2957   0.422   0.957   7.457
  759SOL    HW2 2958   0.384   0.864   7.344
  760SOL     OW 2959   1.532   0.268   5.714
  760SOL    HW1 2960   1.461   0.211   5.741
  760SOL    HW2 2961   1.560   0.312   5.794
  761SOL     OW 2962   1.295   0.827   5.619
  761SOL    HW1 2963   1.336   0.741   5.622
  761SOL    HW2 2964   1.325   0.866   5.537
  762SOL     OW 2965   1.064   1.334   6.438
  762SOL    HW1 2966   1.068   1.262   6.376
  762SOL    HW2 2967   1.127   1.398   6.405
  763SOL     OW 2968   0.317   0.813   6.536
  763SOL    HW1 2969   0.411   0.831   6.532
  763SOL    HW2 2970   0.311   0.723   6.568
  764SOL     OW 2971   0.338   0.526   6.581
  764SOL    HW1 2972   0.292   0.444   6.561
  764SOL    HW2 2973   0.414   0.526   6.523
  765SOL     OW 2974   1.135   0.376   7.277
  765SOL    HW1 2975   1.088   0.440   7.330
  765SOL    HW2 2976   1.222   0.414   7.264
  766SOL     OW 2977   1.161   0.211   7.060
  766SOL    HW1 2978   1.152   0.275   7.130
  766SOL    HW2 2979   1.194   0.261   6.986
  767SOL     OW 2980   4.492   1.323   5.786
  767SOL    HW1 2981   4.399   1.338   5.769
  767SOL    HW2 2982   4.498   1.231   5.811
  768SOL     OW 2983   0.094   1.782   6.525
  768SOL    HW1 2984   0.057   1.720   6.463
  768SOL    HW2 2985   0.182   1.801   6.491
  769SOL     OW 2986   0.499   1.573   6.492
  769SOL    HW1 2987   0.567   1.636   6.516
  769SOL    HW2 2988   0.544   1.507   6.439
  770SOL     OW 2989   0.989   0.795   6.815
  770SOL    HW1 2990   1.041   0.769   6.891
  770SOL    HW2 2991   0.902   0.759   6.831
  771SOL     OW 2992   0.040   0.565   6.696
  771SOL    HW1 2993   0.115   0.520   6.657
  771SOL    HW2 2994   0.027   0.521   6.780
  772SOL     OW 2995   0.180   0.517   7.296
  772SOL    HW1 2996   0.265   0.500   7.256
  772SOL    HW2 2997   0.150   0.598   7.256
  773SOL     OW 2998   1.376   0.941   7.246
  773SOL    HW1 2999   1.396   1.035   7.246
  773SOL    HW2 3000   1.373   0.918   7.153
  774SOL     OW 3001   0.812   0.572   5.938
  774SOL    HW1 3002   0.815   0.500   5.875
  774SOL    HW2 3003   0.738   0.625   5.910
  775SOL     OW 3004   1.642   0.601   6.776
  775SOL    HW1 3005   1.631   0.541   6.849
  775SOL    HW2 3006   1.729   0.580   6.741
  776SOL     OW 3007   0.270   1.562   7.328
  776SOL    HW1 3008   0.218   1.614   7.388
  776SOL    HW2 3009   0.250   1.471   7.350
  777SOL     OW 3010   0.681   0.464   6.854
  777SOL    HW1 3011   0.646   0.383   6.817
  777SOL    HW2 3012   0.691   0.522   6.779
  778SOL     OW 3013   0.931   1.678   7.052
  778SOL    HW1 3014   0.904   1.649   6.965
  778SOL    HW2 3015   0.931   1.774   7.046
  779SOL     OW 3016   0.473   0.491   5.772
  779SOL    HW1 3017   0.532   0.564   5.793
  779SOL    HW2 3018   0.388   0.532   5.760
  780SOL     OW 3019   0.161   1.141   7.050
  780SOL    HW1 3020   0.149   1.092   7.131
  780SOL    HW2 3021   0.170   1.073   6.982
  781SOL     OW 3022   1.330   1.049   6.812
  781SOL    HW1 3023   1.354   0.987   6.743
  781SOL    HW2 3024   1.257   1.098   6.774
  782SOL     OW 3025   1.308   0.857   5.893
  782SOL    HW1 3026   1.232   0.827   5.943
  782SOL    HW2 3027   1.285   0.843   5.802
  783SOL     OW 3028   1.759   1.752   6.731
  783SOL    HW1 3029   1.829   1.773   6.669
  783SOL    HW2 3030   1.740   1.659   6.715
  784SOL     OW 3031   1.241   1.732   6.705
  784SOL    HW1 3032   1.322   1.749   6.658
  784SOL    HW2 3033   1.242   1.637   6.721
  785SOL     OW 3034   0.069   1.189   6.633
  785SOL    HW1 3035   0.074   1.224   6.722
  785SOL    HW2 3036   0.010   1.249   6.588
  786SOL     OW 3037   0.679   1.663   7.310
  786SOL    HW1 3038   0.627   1.744   7.308
  786SOL    HW2 3039   0.740   1.673   7.237
  787SOL     OW 3040   1.718   0.130   6.085
  787SOL    HW1 3041   1.793   0.134   6.025
  787SOL    HW2 3042   1.736   0.055   6.141
  788SOL     OW 3043   0.120   1.808   7.434
  788SOL    HW1 3044   0.082   1.733   7.480
  788SOL    HW2 3045   0.184   1.844   7.495
  789SOL     OW 3046   1.278   0.925   6.258
  789SOL    HW1 3047   1.350   0.863   6.262
  789SOL    HW2 3048   1.312   0.998   6.206
  790SOL     OW 3049   0.819   1.272   7.018
  790SOL    HW1 3050   0.793   1.310   7.101
  790SOL    HW2 3051   0.747   1.294   6.958
  791SOL     OW 3052   0.673   1.616   5.741
  791SOL    HW1 3053   0.681   1.627   5.646
  791SOL    HW2 3054   0.620   1.537   5.752
  792SOL     OW 3055   1.636   1.727   6.979
  792SOL    HW1 3056   1.679   1.737   6.894
  792SOL    HW2 3057   1.620   1.817   7.009
  793SOL     OW 3058   1.839   0.156   6.553
  793SOL    HW1 3059   1.868   0.080   6.503
  793SOL    HW2 3060   1.752   0.176   6.518
  794SOL     OW 3061   0.267   0.326   6.311
  794SOL    HW1 3062   0.185   0.361   6.276
  794SOL    HW2 3063   0.252   0.317   6.405
  795SOL     OW 3064   1.203   1.609   5.619
  795SOL    HW1 3065   1.197   1.517   5.644
  795SOL    HW2 3066   1.139   1.619   5.548
  796SOL     OW 3067   0.825   1.006   6.957
  796SOL    HW1 3068   0.867   1.004   6.872
  796SOL    HW2 3069   0.826   1.099   6.982
  797SOL     OW 3070   0.915   0.910   5.875
  797SOL    HW1 3071   0.978   0.942   5.810
  797SOL    HW2 3072   0.961   0.839   5.920
  798SOL     OW 3073   1.497   1.616   5.619
  798SOL    HW1 3074   1.403   1.626   5.627
  798SOL    HW2 3075   1.515   1.630   5.526
  799SOL     OW 3076   0.372   1.304   7.077
  799SOL    HW1 3077   0.356   1.383   7.026
  799SOL    HW2 3078   0.296   1.249   7.061
  800SOL     OW 3079   1.615   1.284   6.868
  800SOL    HW1 3080   1.669   1.277   6.947
  800SOL    HW2 3081   1.553   1.354   6.889
  801SOL     OW 3082   1.048   1.105   6.289
  801SOL    HW1 3083   0.978   1.054   6.331
  801SOL    HW2 3084   1.109   1.038   6.257
  802SOL     OW 3085   1.007   0.241   6.581
  802SOL    HW1 3086   1.015   0.210   6.491
  802SOL    HW2 3087   1.001   0.160   6.633
  803SOL     OW 3088   0.602   1.490   6.069
  803SOL    HW1 3089   0.640   1.439   5.997
  803SOL    HW2 3090   0.532   1.541   6.029
  804SOL     OW 3091   1.719   0.392   6.964
  804SOL    HW1 3092   1.790   0.456   6.963
  804SOL    HW2 3093   1.749   0.321   6.908
  805SOL     OW 3094   0.252   1.346   5.864
  805SOL    HW1 3095   0.158   1.347   5.849
  805SOL    HW2 3096   0.262   1.379   5.953
  806SOL     OW 3097   0.117   1.007   7.283
  806SOL    HW1 3098   0.052   1.044   7.342
  806SOL    HW2 3099   0.195   0.995   7.338
  807SOL     OW 3100   0.660   0.207   7.081
  807SOL    HW1 3101   0.740   0.181   7.035
  807SOL    HW2 3102   0.687   0.221   7.172
  808SOL     OW 3103   0.070   0.321   5.612
  808SOL    HW1 3104   4.475   0.330   5.621
  808SOL    HW2 3105   0.100   0.407   5.581
  809SOL     OW 3106   1.433   0.858   6.987
  809SOL    HW1 3107   1.383   0.917   6.930
  809SOL    HW2 3108   1.522   0.862   6.954
  810SOL     OW 3109   0.083   0.188   5.890
  810SOL    HW1 3110   0.080   0.260   5.826
  810SOL    HW2 3111   0.160   0.138   5.865
  811SOL     OW 3112   1.180   1.341   5.702
  811SOL    HW1 3113   1.088   1.312   5.704
  811SOL    HW2 3114   1.208   1.340   5.793
  812SOL     OW 3115   0.620   0.831   7.013
  812SOL    HW1 3116   0.674   0.909   7.002
  812SOL    HW2 3117   0.683   0.760   7.024
  813SOL     OW 3118   1.483   1.767   6.567
  813SOL    HW1 3119   1.509   1.828   6.497
  813SOL    HW2 3120   1.562   1.756   6.620
  814SOL     OW 3121   0.715   0.561   7.291
  814SOL    HW1 3122   0.746   0.629   7.352
  814SOL    HW2 3123   0.757   0.481   7.322
  815SOL     OW 3124   1.468   1.203   7.219
  815SOL    HW1 3125   1.456   1.217   7.313
  815SOL    HW2 3126   1.562   1.216   7.205
  816SOL     OW 3127   0.383   1.742   7.149
  816SOL    HW1 3128   0.297   1.782   7.135
  816SOL    HW2 3129   0.364   1.660   7.195
  817SOL     OW 3130   1.673   0.882   6.841
  817SOL    HW1 3131   1.662   0.797   6.799
  817SOL    HW2 3132   1.663   0.946   6.771
  818SOL     OW 3133   1.218   0.327   6.034
  818SOL    HW1 3134   1.283   0.257   6.025
  818SOL    HW2 3135   1.244   0.374   6.113
  819SOL     OW 3136   0.589   0.740   6.254
  819SOL    HW1 3137   0.630   0.825   6.236
  819SOL    HW2 3138   0.519   0.734   6.189
  820SOL     OW 3139   1.767   0.360   7.229
  820SOL    HW1 3140   1.750   0.374   7.135
  820SOL    HW2 3141   1.688   0.316   7.261
  821SOL     OW 3142   1.744   0.934   7.099
  821SOL    HW1 3143   1.745   1.028   7.112
  821SOL    HW2 3144   1.728   0.922   7.005
  822SOL     OW 3145   0.864   1.369   5.616
  822SOL    HW1 3146   0.823   1.394   5.698
  822SOL    HW2 3147   0.882   1.452   5.572
  823SOL     OW 3148   0.659   1.794   6.534
  823SOL    HW1 3149   0.637   1.884   6.510
  823SOL    HW2 3150   0.754   1.790   6.527
  824SOL     OW 3151   0.866   0.965   6.442
  824SOL    HW1 3152   0.916   0.894   6.482
  824SOL    HW2 3153   0.833   1.017   6.516
  825SOL     OW 3154   1.081   0.989   5.675
  825SOL    HW1 3155   1.058   1.038   5.596
  825SOL    HW2 3156   1.156   0.935   5.649
  826SOL     OW 3157   0.228   1.307   7.442
  826SOL    HW1 3158   0.159   1.245   7.417
  826SOL    HW2 3159   0.218   1.317   7.537
  827SOL     OW 3160   0.101   1.240   6.252
  827SOL    HW1 3161   0.103   1.188   6.332
  827SOL    HW2 3162   0.162   1.196   6.193
  828SOL     OW 3163   0.680   1.400   7.212
  828SOL    HW1 3164   0.600   1.356   7.240
  828SOL    HW2 3165   0.674   1.488   7.248
  829SOL     OW 3166   1.812   0.184   6.825
  829SOL    HW1 3167   1.810   0.091   6.846
  829SOL    HW2 3168   1.826   0.187   6.730
  830SOL     OW 3169   0.437   0.431   6.114
  830SOL    HW1 3170   0.458   0.360   6.054
  830SOL    HW2 3171   0.381   0.391   6.180
  831SOL     OW 3172   1.701   1.496   6.688
  831SOL    HW1 3173   1.624   1.469   6.639
  831SOL    HW2 3174   1.716   1.425   6.751
  832SOL     OW 3175   0.313   0.504   6.844
  832SOL    HW1 3176   0.385   0.457   6.887
  832SOL    HW2 3177   0.341   0.512   6.753
  833SOL     OW 3178   0.825   1.577   6.266
  833SOL    HW1 3179   0.820   1.621   6.181
  833SOL    HW2 3180   0.746   1.524   6.270
  834SOL     OW 3181   1.432   0.215   6.704
  834SOL    HW1 3182   1.469   0.145   6.758
  834SOL    HW2 3183   1.381   0.268   6.765
  835SOL     OW 3184   0.998   0.013   6.734
  835SOL    HW1 3185   0.951   4.431   6.723
  835SOL    HW2 3186   1.089   4.488   6.747
  836SOL     OW 3187   0.772   1.331   5.895
  836SOL    HW1 3188   0.737   1.243   5.902
  836SOL    HW2 3189   0.853   1.329   5.944
  837SOL     OW 3190   0.620   1.559   6.870
  837SOL    HW1 3191   0.623   1.640   6.921
  837SOL    HW2 3192   0.708   1.552   6.831
  838SOL     OW 3193   1.343   0.054   5.737
  838SOL    HW1 3194   1.383   4.480   5.692
  838SOL    HW2 3195   1.268   0.016   5.783
  839SOL     OW 3196   1.314   0.462   6.267
  839SOL    HW1 3197   1.251   0.534   6.268
  839SOL    HW2 3198   1.302   0.419   6.352
  840SOL     OW 3199   1.586   0.203   6.454
  840SOL    HW1 3200   1.524   0.217   6.526
  840SOL    HW2 3201   1.589   0.287   6.408
  841SOL     OW 3202   0.041   1.054   5.872
  841SOL    HW1 3203   0.136   1.044   5.867
  841SOL    HW2 3204   0.018   1.012   5.955
  842SOL     OW 3205   0.880   1.648   5.931
  842SOL    HW1 3206   0.809   1.630   5.870
  842SOL    HW2 3207   0.850   1.725   5.980
  843SOL     OW 3208   0.247   0.626   7.566
  843SOL    HW1 3209   0.171   0.613   7.622
  843SOL    HW2 3210   0.215   0.608   7.478
  844SOL     OW 3211   0.197   0.292   8.437
  844SOL    HW1 3212   0.235   0.269   8.523
  844SOL    HW2 3213   0.132   0.224   8.421
  845SOL     OW 3214   0.007   0.376   8.091
  845SOL    HW1 3215   4.428   0.414   8.129
  845SOL    HW2 3216   4.476   0.305   8.035
  846SOL     OW 3217   0.567   1.281   8.620
  846SOL    HW1 3218   0.479   1.286   8.582
  846SOL    HW2 3219   0.582   1.369   8.655
  847SOL     OW 3220   1.557   1.511   8.153
  847SOL    HW1 3221   1.513   1.495   8.237
  847SOL    HW2 3222   1.486   1.517   8.089
  848SOL     OW 3223   1.131   0.700   8.150
  848SOL    HW1 3224   1.180   0.781   8.138
  848SOL    HW2 3225   1.082   0.713   8.232
  849SOL     OW 3226   1.764   0.609   7.678
  849SOL    HW1 3227   1.745   0.597   7.585
  849SOL    HW2 3228   1.732   0.528   7.719
  850SOL     OW 3229   0.759   1.144   8.485
  850SOL    HW1 3230   0.689   1.178   8.541
  850SOL    HW2 3231   0.793   1.222   8.440
  851SOL     OW 3232   0.862   0.781   9.269
  851SOL    HW1 3233   0.849   0.852   9.331
  851SOL    HW2 3234   0.885   0.824   9.187
  852SOL     OW 3235   0.686   1.008   8.098
  852SOL    HW1 3236   0.750   0.992   8.167
  852SOL    HW2 3237   0.616   1.057   8.140
  853SOL     OW 3238   0.707   1.152   9.257
  853SOL    HW1 3239   0.755   1.231   9.281
  853SOL    HW2 3240   0.623   1.183   9.223
  854SOL     OW 3241   0.337   1.424   8.518
  854SOL    HW1 3242   0.256   1.404   8.470
  854SOL    HW2 3243   0.387   1.479   8.457
  855SOL     OW 3244   1.462   1.498   8.797
  855SOL    HW1 3245   1.505   1.583   8.807
  855SOL    HW2 3246   1.410   1.489   8.877
  856SOL     OW 3247   0.436   0.396   8.942
  856SOL    HW1 3248   0.524   0.359   8.944
  856SOL    HW2 3249   0.377   0.322   8.956
  857SOL     OW 3250   1.613   0.448   8.185
  857SOL    HW1 3251   1.533   0.473   8.140
  857SOL    HW2 3252   1.635   0.525   8.238
  858SOL     OW 3253   0.245   1.692   7.927
  858SOL    HW1 3254   0.234   1.777   7.971
  858SOL    HW2 3255   0.306   1.710   7.856
  859SOL     OW 3256   1.135   1.341   9.139
  859SOL    HW1 3257   1.175   1.338   9.226
  859SOL    HW2 3258   1.082   1.261   9.134
  860SOL     OW 3259   0.242   1.428   7.976
  860SOL    HW1 3260   0.236   1.523   7.982
  860SOL    HW2 3261   0.178   1.395   8.039
  861SOL     OW 3262   0.243   1.081   8.330
  861SOL    HW1 3263   0.263   0.994   8.365
  861SOL    HW2 3264   0.188   1.122   8.395
  862SOL     OW 3265   0.617   1.790   8.881
  862SOL    HW1 3266   0.533   1.773   8.923
  862SOL    HW2 3267   0.637   1.881   8.904
  863SOL     OW 3268   0.585   0.983   7.582
  863SOL    HW1 3269   0.629   1.031   7.512
  863SOL    HW2 3270   0.631   1.009   7.662
  864SOL     OW 3271   1.586   0.114   8.923
  864SOL    HW1 3272   1.595   0.183   8.856
  864SOL    HW2 3273   1.576   0.162   9.005
  865SOL     OW 3274   0.136   0.642   8.023
  865SOL    HW1 3275   0.082   0.563   8.036
  865SOL    HW2 3276   0.107   0.702   8.091
  866SOL     OW 3277   1.841   1.762   7.784
  866SOL    HW1 3278   1.897   1.732   7.856
  866SOL    HW2 3279   1.869   1.852   7.768
  867SOL     OW 3280   0.033   1.600   7.583
  867SOL    HW1 3281   0.021   1.505   7.586
  867SOL    HW2 3282   0.009   1.630   7.671
  868SOL     OW 3283   1.691   0.920   8.085
  868SOL    HW1 3284   1.776   0.880   8.066
  868SOL    HW2 3285   1.669   0.969   8.006
  869SOL     OW 3286   1.645   1.108   7.878
  869SOL    HW1 3287   1.730   1.117   7.835
  869SOL    HW2 3288   1.649   1.168   7.952
  870SOL     OW 3289   0.107   0.760   9.037
  870SOL    HW1 3290   0.201   0.759   9.024
  870SOL    HW2 3291   0.083   0.853   9.040
  871SOL     OW 3292   0.612   1.381   8.183
  871SOL    HW1 3293   0.566   1.298   8.192
  871SOL    HW2 3294   0.596   1.409   8.093
  872SOL     OW 3295   1.290   1.238   8.873
  872SOL    HW1 3296   1.323   1.171   8.813
  872SOL    HW2 3297   1.346   1.231   8.950
  873SOL     OW 3298   0.816   0.011   7.993
  873SOL    HW1 3299   0.850   0.097   7.970
  873SOL    HW2 3300   0.721   0.018   7.983
  874SOL     OW 3301   0.184   0.945   8.727
  874SOL    HW1 3302   0.275   0.927   8.703
  874SOL    HW2 3303   0.133   0.919   8.650
  875SOL     OW 3304   1.532   0.991   7.644
  875SOL    HW1 3305   1.462   0.933   7.673
  875SOL    HW2 3306   1.571   1.025   7.725
  876SOL     OW 3307   1.184   1.803   9.067
  876SOL    HW1 3308   1.202   1.860   8.993
  876SOL    HW2 3309   1.200   1.715   9.034
  877SOL     OW 3310   0.318   0.260   9.221
  877SOL    HW1 3311   0.386   0.313   9.262
  877SOL    HW2 3312   0.243   0.269   9.279
  878SOL     OW 3313   1.465   1.419   8.401
  878SOL    HW1 3314   1.397   1.434   8.467
  878SOL    HW2 3315   1.454   1.328   8.374
  879SOL     OW 3316   1.664   1.730   8.024
  879SOL    HW1 3317   1.637   1.703   7.937
  879SOL    HW2 3318   1.636   1.659   8.082
  880SOL     OW 3319   0.596   0.723   7.712
  880SOL    HW1 3320   0.602   0.803   7.660
  880SOL    HW2 3321   0.530   0.744   7.779
  881SOL     OW 3322   1.289   0.357   8.383
  881SOL    HW1 3323   1.201   0.325   8.367
  881SOL    HW2 3324   1.327   0.295   8.445
  882SOL     OW 3325   1.582   1.667   7.757
  882SOL    HW1 3326   1.670   1.703   7.751
  882SOL    HW2 3327   1.556   1.650   7.666
  883SOL     OW 3328   0.797   0.616   8.903
  883SOL    HW1 3329   0.769   0.594   8.991
  883SOL    HW2 3330   0.751   0.554   8.846
  884SOL     OW 3331   1.389   0.477   9.124
  884SOL    HW1 3332   1.391   0.521   9.209
  884SOL    HW2 3333   1.457   0.410   9.131
  885SOL     OW 3334   0.958   0.889   9.028
  885SOL    HW1 3335   1.012   0.817   8.995
  885SOL    HW2 3336   0.911   0.922   8.952
  886SOL     OW 3337   0.996   0.417   8.686
  886SOL    HW1 3338   0.911   0.431   8.729
  886SOL    HW2 3339   0.975   0.365   8.608
  887SOL     OW 3340   1.049   0.698   7.876
  887SOL    HW1 3341   1.064   0.691   7.970
  887SOL    HW2 3342   0.967   0.651   7.861
  888SOL     OW 3343   0.099   0.822   8.231
  888SOL    HW1 3344   0.185   0.802   8.267
  888SOL    HW2 3345   0.055   0.873   8.299
  889SOL     OW 3346   0.125   1.852   9.024
  889SOL    HW1 3347   0.119   1.828   9.116
  889SOL    HW2 3348   0.045   1.818   8.985
  890SOL     OW 3349   0.853   0.367   7.624
  890SOL    HW1 3350   0.929   0.404   7.580
  890SOL    HW2 3351   0.872   0.274   7.632
  891SOL     OW 3352   1.707   0.576   9.276
  891SOL    HW1 3353   1.672   0.654   9.232
  891SOL    HW2 3354   1.738   0.520   9.205
  892SOL     OW 3355   1.374   1.143   7.990
  892SOL    HW1 3356   1.453   1.128   7.937
  892SOL    HW2 3357   1.322   1.205   7.940
  893SOL     OW 3358   0.544   0.201   8.349
  893SOL    HW1 3359   0.562   0.220   8.441
  893SOL    HW2 3360   0.534   0.287   8.308
  894SOL     OW 3361   1.009   1.446   7.922
  894SOL    HW1 3362   0.968   1.517   7.873
  894SOL    HW2 3363   0.995   1.469   8.014
  895SOL     OW 3364   0.354   1.807   8.304
  895SOL    HW1 3365   0.398   1.722   8.314
  895SOL    HW2 3366   0.424   1.872   8.317
  896SOL     OW 3367   1.798   1.060   8.315
  896SOL    HW1 3368   1.741   1.044   8.240
  896SOL    HW2 3369   1.739   1.065   8.390
  897SOL     OW 3370   1.228   1.540   8.960
  897SOL    HW1 3371   1.214   1.466   9.020
  897SOL    HW2 3372   1.168   1.523   8.888
  898SOL     OW 3373   0.318   0.954   7.696
  898SOL    HW1 3374   0.402   0.976   7.657
  898SOL    HW2 3375   0.300   0.865   7.666
  899SOL     OW 3376   1.476   0.739   8.174
  899SOL    HW1 3377   1.462   0.692   8.256
  899SOL    HW2 3378   1.552   0.795   8.191
  900SOL     OW 3379   0.465   1.261   9.184
  900SOL    HW1 3380   0.437   1.267   9.092
  900SOL    HW2 3381   0.384   1.266   9.234
  901SOL     OW 3382   1.120   1.777   7.680
  901SOL    HW1 3383   1.049   1.733   7.727
  901SOL    HW2 3384   1.141   1.718   7.608
  902SOL     OW 3385   0.168   0.262   8.956
  902SOL    HW1 3386   0.135   0.348   8.930
  902SOL    HW2 3387   0.199   0.274   9.046
  903SOL     OW 3388   1.630   1.379   7.534
  903SOL    HW1 3389   1.589   1.464   7.520
  903SOL    HW2 3390   1.560   1.315   7.516
  904SOL     OW 3391   0.469   1.744   7.763
  904SOL    HW1 3392   0.508   1.796   7.833
  904SOL    HW2 3393   0.544   1.714   7.711
  905SOL     OW 3394   1.415   0.130   7.867
  905SOL    HW1 3395   1.397   0.084   7.785
  905SOL    HW2 3396   1.511   0.129   7.875
  906SOL     OW 3397   0.256   1.791   8.684
  906SOL    HW1 3398   0.306   1.719   8.724
  906SOL    HW2 3399   0.230   1.758   8.599
  907SOL     OW 3400   0.938   1.698   8.349
  907SOL    HW1 3401   1.015   1.645   8.369
  907SOL    HW2 3402   0.892   1.649   8.280
  908SOL     OW 3403   0.391   0.695   7.923
  908SOL    HW1 3404   0.418   0.603   7.933
  908SOL    HW2 3405   0.299   0.696   7.949
  909SOL     OW 3406   1.527   0.232   9.170
  909SOL    HW1 3407   1.525   0.257   9.262
  909SOL    HW2 3408   1.452   0.173   9.159
  910SOL     OW 3409   0.621   0.124   7.564
  910SOL    HW1 3410   0.709   0.089   7.577
  910SOL    HW2 3411   0.593   0.087   7.480
  911SOL     OW 3412   0.769   0.268   9.200
  911SOL    HW1 3413   0.835   0.201   9.218
  911SOL    HW2 3414   0.724   0.280   9.284
  912SOL     OW 3415   0.877   1.521   8.641
  912SOL    HW1 3416   0.862   1.485   8.554
  912SOL    HW2 3417   0.946   1.465   8.678
  913SOL     OW 3418   1.343   0.589   8.878
  913SOL    HW1 3419   1.370   0.559   8.964
  913SOL    HW2 3420   1.377   0.678   8.871
  914SOL     OW 3421   0.813   1.398   8.383
  914SOL    HW1 3422   0.896   1.389   8.338
  914SOL    HW2 3423   0.747   1.396   8.313
  915SOL     OW 3424   0.922   0.514   8.351
  915SOL    HW1 3425   0.905   0.512   8.256
  915SOL    HW2 3426   0.964   0.430   8.369
  916SOL     OW 3427   0.557   0.067   7.958
  916SOL    HW1 3428   0.469   0.054   7.993
  916SOL    HW2 3429   0.548   0.140   7.897
  917SOL     OW 3430   1.429   1.197   7.489
  917SOL    HW1 3431   1.459   1.122   7.540
  917SOL    HW2 3432   1.343   1.217   7.526
  918SOL     OW 3433   0.302   0.077   7.631
  918SOL    HW1 3434   0.386   0.123   7.626
  918SOL    HW2 3435   0.321   4.500   7.685
  919SOL     OW 3436   0.949   0.241   7.922
  919SOL    HW1 3437   0.897   0.287   7.856
  919SOL    HW2 3438   1.038   0.275   7.911
  920SOL     OW 3439   1.080   0.679   8.909
  920SOL    HW1 3440   1.008   0.616   8.911
  920SOL    HW2 3441   1.159   0.626   8.897
  921SOL     OW 3442   1.225   1.569   8.241
  921SOL    HW1 3443   1.243   1.637   8.177
  921SOL    HW2 3444   1.292   1.581   8.308
  922SOL     OW 3445   0.464   1.147   8.186
  922SOL    HW1 3446   0.392   1.129   8.246
  922SOL    HW2 3447   0.428   1.131   8.099
  923SOL     OW 3448   1.271   1.795   8.053
  923SOL    HW1 3449   1.315   1.857   7.994
  923SOL    HW2 3450   1.207   1.848   8.100
  924SOL     OW 3451   1.031   0.550   7.462
  924SOL    HW1 3452   0.983   0.631   7.446
  924SOL    HW2 3453   1.089   0.570   7.535
  925SOL     OW 3454   0.090   0.526   8.859
  925SOL    HW1 3455   0.152   0.537   8.787
  925SOL    HW2 3456   0.062   0.615   8.880
  926SOL     OW 3457   0.564   0.241   8.613
  926SOL    HW1 3458   0.594   0.156   8.644
  926SOL    HW2 3459   0.470   0.243   8.633
  927SOL     OW 3460   0.866   0.500   8.074
  927SOL    HW1 3461   0.814   0.542   8.006
  927SOL    HW2 3462   0.854   0.406   8.060
  928SOL     OW 3463   0.972   0.033   8.222
  928SOL    HW1 3464   0.923   0.028   8.140
  928SOL    HW2 3465   0.981   4.442   8.250
  929SOL     OW 3466   1.436   1.163   8.306
  929SOL    HW1 3467   1.368   1.095   8.304
  929SOL    HW2 3468   1.458   1.178   8.214
  930SOL     OW 3469   1.468   0.602   8.428
  930SOL    HW1 3470   1.418   0.520   8.432
  930SOL    HW2 3471   1.527   0.597   8.503
  931SOL     OW 3472   1.848   0.819   7.829
  931SOL    HW1 3473   1.903   0.767   7.887
  931SOL    HW2 3474   1.818   0.758   7.762
  932SOL     OW 3475   0.493   1.412   7.611
  932SOL    HW1 3476   0.416   1.383   7.660
  932SOL    HW2 3477   0.470   1.395   7.519
  933SOL     OW 3478   1.668   1.266   8.097
  933SOL    HW1 3479   1.763   1.272   8.110
  933SOL    HW2 3480   1.635   1.353   8.118
  934SOL     OW 3481   1.394   0.570   7.518
  934SOL    HW1 3482   1.333   0.554   7.591
  934SOL    HW2 3483   1.480   0.548   7.553
  935SOL     OW 3484   0.523   0.264   7.771
  935SOL    HW1 3485   0.568   0.213   7.703
  935SOL    HW2 3486   0.510   0.350   7.731
  936SOL     OW 3487   1.754   1.235   9.026
  936SOL    HW1 3488   1.842   1.197   9.021
  936SOL    HW2 3489   1.768   1.325   9.054
  937SOL     OW 3490   1.061   1.353   8.783
  937SOL    HW1 3491   0.986   1.322   8.834
  937SOL    HW2 3492   1.137   1.312   8.824
  938SOL     OW 3493   1.605   1.624   9.098
  938SOL    HW1 3494   1.603   1.660   9.009
  938SOL    HW2 3495   1.689   1.579   9.104
  939SOL     OW 3496   1.125   1.201   8.555
  939SOL    HW1 3497   1.067   1.240   8.621
  939SOL    HW2 3498   1.090   1.232   8.472
  940SOL     OW 3499   1.632   1.100   8.527
  940SOL    HW1 3500   1.628   1.163   8.599
  940SOL    HW2 3501   1.551   1.115   8.478
  941SOL     OW 3502   0.904   0.130   8.838
  941SOL    HW1 3503   0.927   0.085   8.757
  941SOL    HW2 3504   0.988   0.142   8.883
  942SOL     OW 3505   0.984   1.114   9.170
  942SOL    HW1 3506   0.891   1.129   9.189
  942SOL    HW2 3507   0.985   1.037   9.114
  943SOL     OW 3508   0.708   1.059   7.821
  943SOL    HW1 3509   0.696   1.046   7.915
  943SOL    HW2 3510   0.784   1.006   7.799
  944SOL     OW 3511   0.428   0.822   8.686
  944SOL    HW1 3512   0.496   0.833   8.753
  944SOL    HW2 3513   0.369   0.756   8.723
  945SOL     OW 3514   1.270   0.377   8.719
  945SOL    HW1 3515   1.301   0.455   8.765
  945SOL    HW2 3516   1.181   0.400   8.690
  946SOL     OW 3517   0.061   1.575   8.787
  946SOL    HW1 3518   0.033   1.663   8.761
  946SOL    HW2 3519   0.156   1.582   8.794
  947SOL     OW 3520   0.351   1.106   7.942
  947SOL    HW1 3521   0.360   1.179   7.881
  947SOL    HW2 3522   0.355   1.028   7.886
  948SOL     OW 3523   0.564   0.530   8.304
  948SOL    HW1 3524   0.577   0.590   8.231
  948SOL    HW2 3525   0.621   0.564   8.373
  949SOL     OW 3526   1.248   1.348   7.837
  949SOL    HW1 3527   1.303   1.420   7.868
  949SOL    HW2 3528   1.161   1.368   7.871
  950SOL     OW 3529   1.276   1.455   8.594
  950SOL    HW1 3530   1.331   1.458   8.672
  950SOL    HW2 3531   1.221   1.378   8.606
  951SOL     OW 3532   1.583   0.626   7.923
  951SOL    HW1 3533   1.539   0.680   7.988
  951SOL    HW2 3534   1.628   0.688   7.866
  952SOL     OW 3535   0.349   1.527   8.766
  952SOL    HW1 3536   0.334   1.481   8.684
  952SOL    HW2 3537   0.444   1.538   8.771
  953SOL     OW 3538   0.475   0.760   9.110
  953SOL    HW1 3539   0.501   0.800   9.027
  953SOL    HW2 3540   0.505   0.669   9.103
  954SOL     OW 3541   1.597   0.776   9.126
  954SOL    HW1 3542   1.511   0.817   9.119
  954SOL    HW2 3543   1.649   0.819   9.058
  955SOL     OW 3544   1.007   0.087   9.176
  955SOL    HW1 3545   1.028   0.172   9.136
  955SOL    HW2 3546   1.034   0.023   9.111
  956SOL     OW 3547   0.497   0.047   9.197
  956SOL    HW1 3548   0.478   4.497   9.117
  956SOL    HW2 3549   0.429   0.114   9.200
  957SOL     OW 3550   0.587   0.873   8.472
  957SOL    HW1 3551   0.616   0.965   8.474
  957SOL    HW2 3552   0.531   0.865   8.549
  958SOL     OW 3553   1.361   0.859   8.482
  958SOL    HW1 3554   1.280   0.853   8.431
  958SOL    HW2 3555   1.398   0.770   8.479
  959SOL     OW 3556   1.208   0.534   7.715
  959SOL    HW1 3557   1.213   0.453   7.766
  959SOL    HW2 3558   1.165   0.597   7.774
  960SOL     OW 3559   0.285   0.221   8.682
  960SOL    HW1 3560   0.251   0.238   8.770
  960SOL    HW2 3561   0.319   0.132   8.687
  961SOL     OW 3562   0.048   1.313   8.731
  961SOL    HW1 3563   0.078   1.266   8.809
  961SOL    HW2 3564   0.050   1.405   8.757
  962SOL     OW 3565   0.726   0.632   8.509
  962SOL    HW1 3566   0.798   0.611   8.450
  962SOL    HW2 3567   0.700   0.721   8.484
  963SOL     OW 3568   1.733   0.958   9.299
  963SOL    HW1 3569   1.684   0.906   9.236
  963SOL    HW2 3570   1.673   0.970   9.372
  964SOL     OW 3571   0.317   0.076   8.079
  964SOL    HW1 3572   0.300   0.164   8.113
  964SOL    HW2 3573   0.305   0.018   8.154
  965SOL     OW 3574   1.610   0.374   7.815
  965SOL    HW1 3575   1.642   0.311   7.880
  965SOL    HW2 3576   1.588   0.452   7.865
  966SOL     OW 3577   1.027   0.761   8.411
  966SOL    HW1 3578   1.028   0.778   8.505
  966SOL    HW2 3579   0.999   0.670   8.403
  967SOL     OW 3580   0.982   1.566   9.162
  967SOL    HW1 3581   0.967   1.611   9.079
  967SOL    HW2 3582   1.025   1.484   9.138
  968SOL     OW 3583   1.857   1.508   9.053
  968SOL    HW1 3584   1.871   1.536   8.963
  968SOL    HW2 3585   1.937   1.534   9.099
  969SOL     OW 3586   0.347   0.929   9.266
  969SOL    HW1 3587   0.422   0.957   9.319
  969SOL    HW2 3588   0.384   0.864   9.206
  970SOL     OW 3589   1.533   0.268   7.576
  970SOL    HW1 3590   1.461   0.211   7.603
  970SOL    HW2 3591   1.560   0.312   7.656
  971SOL     OW 3592   1.295   0.827   7.481
  971SOL    HW1 3593   1.336   0.741   7.484
  971SOL    HW2 3594   1.325   0.866   7.399
  972SOL     OW 3595   1.065   1.335   8.300
  972SOL    HW1 3596   1.068   1.262   8.238
  972SOL    HW2 3597   1.128   1.398   8.266
  973SOL     OW 3598   0.317   0.813   8.398
  973SOL    HW1 3599   0.411   0.831   8.393
  973SOL    HW2 3600   0.311   0.723   8.430
  974SOL     OW 3601   0.338   0.526   8.443
  974SOL    HW1 3602   0.292   0.444   8.423
  974SOL    HW2 3603   0.414   0.526   8.385
  975SOL     OW 3604   1.135   0.376   9.139
  975SOL    HW1 3605   1.088   0.440   9.192
  975SOL    HW2 3606   1.222   0.414   9.126
  976SOL     OW 3607   1.160   0.211   8.922
  976SOL    HW1 3608   1.152   0.275   8.992
  976SOL    HW2 3609   1.194   0.261   8.848
  977SOL     OW 3610   4.492   1.323   7.648
  977SOL    HW1 3611   4.399   1.338   7.631
  977SOL    HW2 3612   4.498   1.231   7.673
  978SOL     OW 3613   0.094   1.783   8.387
  978SOL    HW1 3614   0.057   1.721   8.324
  978SOL    HW2 3615   0.182   1.801   8.353
  979SOL     OW 3616   0.499   1.573   8.354
  979SOL    HW1 3617   0.567   1.636   8.378
  979SOL    HW2 3618   0.544   1.508   8.300
  980SOL     OW 3619   0.989   0.795   8.677
  980SOL    HW1 3620   1.041   0.769   8.753
  980SOL    HW2 3621   0.902   0.759   8.693
  981SOL     OW 3622   0.040   0.565   8.558
  981SOL    HW1 3623   0.115   0.521   8.519
  981SOL    HW2 3624   0.027   0.521   8.642
  982SOL     OW 3625   0.180   0.517   9.158
  982SOL    HW1 3626   0.265   0.500   9.118
  982SOL    HW2 3627   0.150   0.598   9.118
  983SOL     OW 3628   1.376   0.942   9.108
  983SOL    HW1 3629   1.396   1.035   9.108
  983SOL    HW2 3630   1.374   0.918   9.015
  984SOL     OW 3631   0.812   0.572   7.800
  984SOL    HW1 3632   0.815   0.500   7.737
  984SOL    HW2 3633   0.738   0.625   7.772
  985SOL     OW 3634   1.642   0.601   8.638
  985SOL    HW1 3635   1.631   0.541   8.712
  985SOL    HW2 3636   1.729   0.580   8.603
  986SOL     OW 3637   0.270   1.562   9.190
  986SOL    HW1 3638   0.218   1.614   9.250
  986SOL    HW2 3639   0.250   1.471   9.212
  987SOL     OW 3640   0.681   0.464   8.716
  987SOL    HW1 3641   0.646   0.383   8.679
  987SOL    HW2 3642   0.691   0.522   8.641
  988SOL     OW 3643   0.930   1.678   8.914
  988SOL    HW1 3644   0.904   1.649   8.827
  988SOL    HW2 3645   0.931   1.774   8.908
  989SOL     OW 3646   0.473   0.491   7.634
  989SOL    HW1 3647   0.532   0.564   7.655
  989SOL    HW2 3648   0.387   0.532   7.622
  990SOL     OW 3649   0.161   1.141   8.912
  990SOL    HW1 3650   0.149   1.092   8.993
  990SOL    HW2 3651   0.170   1.073   8.844
  991SOL     OW 3652   1.330   1.049   8.673
  991SOL    HW1 3653   1.354   0.987   8.605
  991SOL    HW2 3654   1.257   1.098   8.636
  992SOL     OW 3655   1.309   0.855   7.755
  992SOL    HW1 3656   1.232   0.827   7.804
  992SOL    HW2 3657   1.285   0.843   7.664
  993SOL     OW 3658   1.760   1.746   8.593
  993SOL    HW1 3659   1.826   1.774   8.528
  993SOL    HW2 3660   1.744   1.654   8.572
  994SOL     OW 3661   1.241   1.732   8.565
  994SOL    HW1 3662   1.324   1.751   8.519
  994SOL    HW2 3663   1.244   1.638   8.582
  995SOL     OW 3664   0.069   1.189   8.495
  995SOL    HW1 3665   0.074   1.224   8.584
  995SOL    HW2 3666   0.010   1.249   8.450
  996SOL     OW 3667   0.679   1.663   9.172
  996SOL    HW1 3668   0.627   1.744   9.169
  996SOL    HW2 3669   0.741   1.672   9.099
  997SOL     OW 3670   1.718   0.130   7.947
  997SOL    HW1 3671   1.793   0.134   7.887
  997SOL    HW2 3672   1.736   0.055   8.003
  998SOL     OW 3673   1.390   1.568   7.930
  998SOL    HW1 3674   1.450   1.599   7.863
  998SOL    HW2 3675   1.343   1.646   7.958
  999SOL     OW 3676   0.120   1.808   9.296
  999SOL    HW1 3677   0.082   1.733   9.342
  999SOL    HW2 3678   0.184   1.844   9.357
 1000SOL     OW 3679   1.278   0.925   8.120
 1000SOL    HW1 3680   1.351   0.863   8.123
 1000SOL    HW2 3681   1.311   0.998   8.068
 1001SOL     OW 3682   0.819   1.272   8.880
 1001SOL    HW1 3683   0.793   1.310   8.963
 1001SOL    HW2 3684   0.747   1.294   8.820
 1002SOL     OW 3685   0.673   1.616   7.603
 1002SOL    HW1 3686   0.681   1.627   7.508
 1002SOL    HW2 3687   0.620   1.537   7.614
 1003SOL     OW 3688   1.632   1.726   8.839
 1003SOL    HW1 3689   1.680   1.735   8.757
 1003SOL    HW2 3690   1.619   1.816   8.869
 1004SOL     OW 3691   1.839   0.156   8.415
 1004SOL    HW1 3692   1.868   0.080   8.365
 1004SOL    HW2 3693   1.752   0.177   8.380
 1005SOL     OW 3694   0.267   0.326   8.173
 1005SOL    HW1 3695   0.185   0.361   8.138
 1005SOL    HW2 3696   0.252   0.317   8.267
 1006SOL     OW 3697   1.205   1.608   7.479
 1006SOL    HW1 3698   1.197   1.517   7.506
 1006SOL    HW2 3699   1.141   1.618   7.409
 1007SOL     OW 3700   0.825   1.006   8.819
 1007SOL    HW1 3701   0.867   1.004   8.734
 1007SOL    HW2 3702   0.826   1.099   8.844
 1008SOL     OW 3703   0.915   0.910   7.737
 1008SOL    HW1 3704   0.977   0.942   7.672
 1008SOL    HW2 3705   0.961   0.839   7.782
 1009SOL     OW 3706   1.496   1.623   7.490
 1009SOL    HW1 3707   1.401   1.621   7.480
 1009SOL    HW2 3708   1.529   1.630   7.401
 1010SOL     OW 3709   0.372   1.304   8.939
 1010SOL    HW1 3710   0.356   1.383   8.888
 1010SOL    HW2 3711   0.296   1.249   8.923
 1011SOL     OW 3712   1.612   1.283   8.729
 1011SOL    HW1 3713   1.672   1.278   8.803
 1011SOL    HW2 3714   1.551   1.354   8.753
 1012SOL     OW 3715   1.047   1.105   8.152
 1012SOL    HW1 3716   0.977   1.054   8.193
 1012SOL    HW2 3717   1.108   1.039   8.118
 1013SOL     OW 3718   1.007   0.241   8.443
 1013SOL    HW1 3719   1.015   0.211   8.353
 1013SOL    HW2 3720   1.001   0.160   8.495
 1014SOL     OW 3721   0.602   1.489   7.931
 1014SOL    HW1 3722   0.640   1.439   7.860
 1014SOL    HW2 3723   0.533   1.541   7.890
 1015SOL     OW 3724   1.719   0.392   8.826
 1015SOL    HW1 3725   1.790   0.456   8.825
 1015SOL    HW2 3726   1.749   0.321   8.770
 1016SOL     OW 3727   0.252   1.345   7.726
 1016SOL    HW1 3728   0.158   1.347   7.711
 1016SOL    HW2 3729   0.263   1.378   7.815
 1017SOL     OW 3730   0.117   1.007   9.145
 1017SOL    HW1 3731   0.052   1.044   9.204
 1017SOL    HW2 3732   0.195   0.995   9.200
 1018SOL     OW 3733   0.660   0.207   8.943
 1018SOL    HW1 3734   0.740   0.181   8.897
 1018SOL    HW2 3735   0.687   0.221   9.034
 1019SOL     OW 3736   0.070   0.321   7.474
 1019SOL    HW1 3737   4.475   0.330   7.483
 1019SOL    HW2 3738   0.100   0.407   7.443
 1020SOL     OW 3739   1.432   0.858   8.849
 1020SOL    HW1 3740   1.384   0.917   8.792
 1020SOL    HW2 3741   1.522   0.862   8.817
 1021SOL     OW 3742   0.083   0.188   7.752
 1021SOL    HW1 3743   0.080   0.260   7.688
 1021SOL    HW2 3744   0.160   0.138   7.728
 1022SOL     OW 3745   1.180   1.342   7.565
 1022SOL    HW1 3746   1.089   1.313   7.568
 1022SOL    HW2 3747   1.209   1.341   7.656
 1023SOL     OW 3748   0.620   0.831   8.876
 1023SOL    HW1 3749   0.674   0.909   8.863
 1023SOL    HW2 3750   0.683   0.760   8.886
 1024SOL     OW 3751   1.487   1.772   8.422
 1024SOL    HW1 3752   1.513   1.832   8.352
 1024SOL    HW2 3753   1.566   1.761   8.475
 1025SOL     OW 3754   0.715   0.561   9.153
 1025SOL    HW1 3755   0.746   0.629   9.214
 1025SOL    HW2 3756   0.757   0.481   9.184
 1026SOL     OW 3757   1.468   1.203   9.081
 1026SOL    HW1 3758   1.456   1.217   9.175
 1026SOL    HW2 3759   1.562   1.216   9.067
 1027SOL     OW 3760   0.383   1.743   9.011
 1027SOL    HW1 3761   0.297   1.782   8.997
 1027SOL    HW2 3762   0.364   1.660   9.057
 1028SOL     OW 3763   1.673   0.882   8.703
 1028SOL    HW1 3764   1.662   0.797   8.660
 1028SOL    HW2 3765   1.663   0.946   8.633
 1029SOL     OW 3766   1.218   0.327   7.896
 1029SOL    HW1 3767   1.283   0.257   7.887
 1029SOL    HW2 3768   1.244   0.374   7.975
 1030SOL     OW 3769   0.589   0.740   8.116
 1030SOL    HW1 3770   0.630   0.825   8.098
 1030SOL    HW2 3771   0.519   0.734   8.050
 1031SOL     OW 3772   1.767   0.360   9.091
 1031SOL    HW1 3773   1.750   0.374   8.997
 1031SOL    HW2 3774   1.688   0.316   9.123
 1032SOL     OW 3775   1.743   0.933   8.961
 1032SOL    HW1 3776   1.747   1.028   8.974
 1032SOL    HW2 3777   1.728   0.923   8.867
 1033SOL     OW 3778   0.863   1.369   7.478
 1033SOL    HW1 3779   0.823   1.394   7.560
 1033SOL    HW2 3780   0.882   1.452   7.433
 1034SOL     OW 3781   0.659   1.795   8.397
 1034SOL    HW1 3782   0.637   1.884   8.371
 1034SOL    HW2 3783   0.754   1.790   8.388
 1035SOL     OW 3784   0.866   0.965   8.304
 1035SOL    HW1 3785   0.916   0.894   8.344
 1035SOL    HW2 3786   0.833   1.016   8.378
 1036SOL     OW 3787   1.080   0.988   7.537
 1036SOL    HW1 3788   1.058   1.038   7.458
 1036SOL    HW2 3789   1.156   0.935   7.511
 1037SOL     OW 3790   1.859   1.555   8.292
 1037SOL    HW1 3791   1.780   1.547   8.239
 1037SOL    HW2 3792   1.847   1.492   8.363
 1038SOL     OW 3793   0.228   1.307   9.304
 1038SOL    HW1 3794   0.159   1.245   9.279
 1038SOL    HW2 3795   0.218   1.317   9.399
 1039SOL     OW 3796   0.101   1.240   8.114
 1039SOL    HW1 3797   0.104   1.188   8.194
 1039SOL    HW2 3798   0.162   1.196   8.055
 1040SOL     OW 3799   0.680   1.400   9.074
 1040SOL    HW1 3800   0.600   1.356   9.102
 1040SOL    HW2 3801   0.674   1.488   9.110
 1041SOL     OW 3802   1.812   0.184   8.687
 1041SOL    HW1 3803   1.810   0.091   8.708
 1041SOL    HW2 3804   1.826   0.187   8.592
 1042SOL     OW 3805   0.437   0.431   7.976
 1042SOL    HW1 3806   0.458   0.360   7.916
 1042SOL    HW2 3807   0.381   0.391   8.042
 1043SOL     OW 3808   1.704   1.488   8.544
 1043SOL    HW1 3809   1.620   1.464   8.505
 1043SOL    HW2 3810   1.718   1.424   8.614
 1044SOL     OW 3811   0.313   0.504   8.706
 1044SOL    HW1 3812   0.385   0.457   8.749
 1044SOL    HW2 3813   0.341   0.512   8.615
 1045SOL     OW 3814   0.825   1.578   8.128
 1045SOL    HW1 3815   0.820   1.622   8.043
 1045SOL    HW2 3816   0.746   1.524   8.132
 1046SOL     OW 3817   1.432   0.215   8.566
 1046SOL    HW1 3818   1.469   0.145   8.620
 1046SOL    HW2 3819   1.381   0.268   8.627
 1047SOL     OW 3820   0.997   0.014   8.596
 1047SOL    HW1 3821   0.951   4.431   8.585
 1047SOL    HW2 3822   1.089   4.488   8.609
 1048SOL     OW 3823   0.771   1.332   7.757
 1048SOL    HW1 3824   0.737   1.243   7.765
 1048SOL    HW2 3825   0.854   1.330   7.806
 1049SOL     OW 3826   0.620   1.559   8.732
 1049SOL    HW1 3827   0.623   1.640   8.783
 1049SOL    HW2 3828   0.708   1.552   8.693
 1050SOL     OW 3829   1.343   0.054   7.600
 1050SOL    HW1 3830   1.383   4.480   7.554
 1050SOL    HW2 3831   1.268   0.016   7.645
 1051SOL     OW 3832   1.314   0.462   8.129
 1051SOL    HW1 3833   1.251   0.535   8.130
 1051SOL    HW2 3834   1.302   0.419   8.214
 1052SOL     OW 3835   1.586   0.204   8.316
 1052SOL    HW1 3836   1.524   0.217   8.387
 1052SOL    HW2 3837   1.589   0.287   8.270
 1053SOL     OW 3838   0.041   1.054   7.734
 1053SOL    HW1 3839   0.136   1.044   7.728
 1053SOL    HW2 3840   0.018   1.012   7.817
 1054SOL     OW 3841   0.881   1.649   7.793
 1054SOL    HW1 3842   0.810   1.631   7.731
 1054SOL    HW2 3843   0.851   1.725   7.842
 1055SOL     OW 3844   0.247   0.626   9.428
 1055SOL    HW1 3845   0.171   0.613   9.484
 1055SOL    HW2 3846   0.216   0.608   9.340
 1056SOL     OW 3847   0.199   0.292  10.300
 1056SOL    HW1 3848   0.237   0.270  10.385
 1056SOL    HW2 3849   0.134   0.224  10.285
 1057SOL     OW 3850   0.007   0.377   9.953
 1057SOL    HW1 3851   4.428   0.414   9.991
 1057SOL    HW2 3852   4.476   0.305   9.897
 1058SOL     OW 3853   0.567   1.281  10.482
 1058SOL    HW1 3854   0.479   1.285  10.444
 1058SOL    HW2 3855   0.582   1.369  10.517
 1059SOL     OW 3856   1.557   1.512  10.015
 1059SOL    HW1 3857   1.513   1.494  10.098
 1059SOL    HW2 3858   1.486   1.517   9.951
 1060SOL     OW 3859   1.131   0.700  10.012
 1060SOL    HW1 3860   1.180   0.781  10.000
 1060SOL    HW2 3861   1.082   0.713  10.094
 1061SOL     OW 3862   1.764   0.609   9.540
 1061SOL    HW1 3863   1.745   0.598   9.447
 1061SOL    HW2 3864   1.732   0.528   9.581
 1062SOL     OW 3865   0.760   1.145  10.348
 1062SOL    HW1 3866   0.689   1.178  10.403
 1062SOL    HW2 3867   0.793   1.222  10.302
 1063SOL     OW 3868   0.849   0.783   0.020
 1063SOL    HW1 3869   0.858   0.840   0.096
 1063SOL    HW2 3870   0.883   0.834  11.047
 1064SOL     OW 3871   0.686   1.008   9.959
 1064SOL    HW1 3872   0.750   0.992  10.029
 1064SOL    HW2 3873   0.616   1.057  10.002
 1065SOL     OW 3874   0.337   1.424  10.379
 1065SOL    HW1 3875   0.256   1.404  10.332
 1065SOL    HW2 3876   0.387   1.479  10.318
 1066SOL     OW 3877   1.463   1.500  10.656
 1066SOL    HW1 3878   1.513   1.581  10.667
 1066SOL    HW2 3879   1.420   1.487  10.741
 1067SOL     OW 3880   0.440   0.394  10.789
 1067SOL    HW1 3881   0.526   0.354  10.798
 1067SOL    HW2 3882   0.381   0.335  10.837
 1068SOL     OW 3883   1.613   0.448  10.047
 1068SOL    HW1 3884   1.533   0.473  10.002
 1068SOL    HW2 3885   1.635   0.525  10.100
 1069SOL     OW 3886   0.245   1.692   9.789
 1069SOL    HW1 3887   0.234   1.777   9.833
 1069SOL    HW2 3888   0.306   1.710   9.718
 1070SOL     OW 3889   0.243   1.428   9.838
 1070SOL    HW1 3890   0.236   1.523   9.844
 1070SOL    HW2 3891   0.178   1.395   9.901
 1071SOL     OW 3892   0.244   1.081  10.192
 1071SOL    HW1 3893   0.263   0.994  10.228
 1071SOL    HW2 3894   0.188   1.122  10.258
 1072SOL     OW 3895   0.615   1.790  10.741
 1072SOL    HW1 3896   0.534   1.771  10.787
 1072SOL    HW2 3897   0.637   1.880  10.765
 1073SOL     OW 3898   0.585   0.983   9.444
 1073SOL    HW1 3899   0.629   1.031   9.374
 1073SOL    HW2 3900   0.631   1.009   9.524
 1074SOL     OW 3901   1.558   0.130  10.781
 1074SOL    HW1 3902   1.603   0.191  10.722
 1074SOL    HW2 3903   1.609   0.132  10.862
 1075SOL     OW 3904   0.136   0.642   9.885
 1075SOL    HW1 3905   0.083   0.563   9.898
 1075SOL    HW2 3906   0.107   0.702   9.953
 1076SOL     OW 3907   1.840   1.762   9.646
 1076SOL    HW1 3908   1.899   1.731   9.715
 1076SOL    HW2 3909   1.869   1.852   9.629
 1077SOL     OW 3910   0.033   1.600   9.445
 1077SOL    HW1 3911   0.021   1.505   9.447
 1077SOL    HW2 3912   0.009   1.630   9.533
 1078SOL     OW 3913   1.691   0.920   9.947
 1078SOL    HW1 3914   1.776   0.880   9.928
 1078SOL    HW2 3915   1.669   0.969   9.868
 1079SOL     OW 3916   1.645   1.108   9.740
 1079SOL    HW1 3917   1.730   1.117   9.696
 1079SOL    HW2 3918   1.649   1.168   9.814
 1080SOL     OW 3919   0.097   0.756  10.910
 1080SOL    HW1 3920   0.190   0.740  10.899
 1080SOL    HW2 3921   0.087   0.850  10.896
 1081SOL     OW 3922   0.612   1.381  10.046
 1081SOL    HW1 3923   0.566   1.298  10.054
 1081SOL    HW2 3924   0.596   1.409   9.955
 1082SOL     OW 3925   1.297   1.238  10.750
 1082SOL    HW1 3926   1.321   1.176  10.681
 1082SOL    HW2 3927   1.352   1.213  10.824
 1083SOL     OW 3928   0.816   0.010   9.854
 1083SOL    HW1 3929   0.850   0.097   9.832
 1083SOL    HW2 3930   0.721   0.018   9.846
 1084SOL     OW 3931   0.183   0.945  10.589
 1084SOL    HW1 3932   0.274   0.926  10.566
 1084SOL    HW2 3933   0.133   0.918  10.512
 1085SOL     OW 3934   1.532   0.991   9.506
 1085SOL    HW1 3935   1.462   0.933   9.536
 1085SOL    HW2 3936   1.571   1.025   9.587
 1086SOL     OW 3937   1.194   1.804  10.926
 1086SOL    HW1 3938   1.199   1.866  10.853
 1086SOL    HW2 3939   1.202   1.718  10.885
 1087SOL     OW 3940   0.327   0.286  11.070
 1087SOL    HW1 3941   0.390   0.331   0.026
 1087SOL    HW2 3942   0.247   0.282   0.022
 1088SOL     OW 3943   1.466   1.419  10.263
 1088SOL    HW1 3944   1.397   1.434  10.328
 1088SOL    HW2 3945   1.454   1.329  10.235
 1089SOL     OW 3946   1.663   1.731   9.887
 1089SOL    HW1 3947   1.637   1.704   9.799
 1089SOL    HW2 3948   1.636   1.659   9.943
 1090SOL     OW 3949   0.596   0.723   9.574
 1090SOL    HW1 3950   0.602   0.803   9.521
 1090SOL    HW2 3951   0.530   0.744   9.640
 1091SOL     OW 3952   1.289   0.357  10.245
 1091SOL    HW1 3953   1.201   0.325  10.229
 1091SOL    HW2 3954   1.327   0.294  10.307
 1092SOL     OW 3955   1.581   1.667   9.619
 1092SOL    HW1 3956   1.670   1.703   9.613
 1092SOL    HW2 3957   1.556   1.650   9.528
 1093SOL     OW 3958   0.797   0.616  10.765
 1093SOL    HW1 3959   0.768   0.593  10.853
 1093SOL    HW2 3960   0.753   0.553  10.708
 1094SOL     OW 3961   0.966   0.897  10.898
 1094SOL    HW1 3962   1.014   0.823  10.860
 1094SOL    HW2 3963   0.916   0.933  10.825
 1095SOL     OW 3964   0.996   0.418  10.548
 1095SOL    HW1 3965   0.911   0.431  10.591
 1095SOL    HW2 3966   0.976   0.365  10.471
 1096SOL     OW 3967   1.049   0.698   9.738
 1096SOL    HW1 3968   1.064   0.691   9.832
 1096SOL    HW2 3969   0.967   0.651   9.723
 1097SOL     OW 3970   0.099   0.822  10.092
 1097SOL    HW1 3971   0.185   0.802  10.129
 1097SOL    HW2 3972   0.055   0.873  10.161
 1098SOL     OW 3973   0.118   1.852  10.899
 1098SOL    HW1 3974   0.117   1.791  10.973
 1098SOL    HW2 3975   0.051   1.819  10.839
 1099SOL     OW 3976   0.853   0.367   9.486
 1099SOL    HW1 3977   0.929   0.404   9.442
 1099SOL    HW2 3978   0.872   0.274   9.494
 1100SOL     OW 3979   1.375   1.143   9.852
 1100SOL    HW1 3980   1.453   1.128   9.799
 1100SOL    HW2 3981   1.322   1.205   9.801
 1101SOL     OW 3982   0.544   0.202  10.211
 1101SOL    HW1 3983   0.561   0.220  10.303
 1101SOL    HW2 3984   0.534   0.288  10.170
 1102SOL     OW 3985   1.009   1.446   9.784
 1102SOL    HW1 3986   0.968   1.517   9.735
 1102SOL    HW2 3987   0.995   1.469   9.876
 1103SOL     OW 3988   0.354   1.807  10.166
 1103SOL    HW1 3989   0.398   1.722  10.176
 1103SOL    HW2 3990   0.424   1.872  10.179
 1104SOL     OW 3991   1.798   1.060  10.177
 1104SOL    HW1 3992   1.741   1.044  10.102
 1104SOL    HW2 3993   1.739   1.065  10.252
 1105SOL     OW 3994   1.225   1.541  10.825
 1105SOL    HW1 3995   1.235   1.455  10.865
 1105SOL    HW2 3996   1.169   1.527  10.749
 1106SOL     OW 3997   0.318   0.954   9.558
 1106SOL    HW1 3998   0.402   0.976   9.519
 1106SOL    HW2 3999   0.300   0.865   9.528
 1107SOL     OW 4000   1.476   0.739  10.036
 1107SOL    HW1 4001   1.462   0.692  10.118
 1107SOL    HW2 4002   1.552   0.794  10.053
 1108SOL     OW 4003   0.455   1.269  11.051
 1108SOL    HW1 4004   0.427   1.276  10.960
 1108SOL    HW2 4005   0.386   1.219  11.094
 1109SOL     OW 4006   1.120   1.777   9.542
 1109SOL    HW1 4007   1.049   1.733   9.589
 1109SOL    HW2 4008   1.141   1.718   9.470
 1110SOL     OW 4009   0.169   0.261  10.818
 1110SOL    HW1 4010   0.141   0.350  10.797
 1110SOL    HW2 4011   0.205   0.267  10.906
 1111SOL     OW 4012   1.629   1.379   9.397
 1111SOL    HW1 4013   1.589   1.464   9.381
 1111SOL    HW2 4014   1.560   1.315   9.378
 1112SOL     OW 4015   0.469   1.744   9.625
 1112SOL    HW1 4016   0.508   1.796   9.695
 1112SOL    HW2 4017   0.544   1.714   9.573
 1113SOL     OW 4018   1.415   0.130   9.729
 1113SOL    HW1 4019   1.397   0.084   9.647
 1113SOL    HW2 4020   1.511   0.129   9.737
 1114SOL     OW 4021   0.254   1.791  10.548
 1114SOL    HW1 4022   0.306   1.722  10.588
 1114SOL    HW2 4023   0.231   1.757  10.461
 1115SOL     OW 4024   0.938   1.698  10.211
 1115SOL    HW1 4025   1.016   1.645  10.230
 1115SOL    HW2 4026   0.892   1.650  10.142
 1116SOL     OW 4027   0.391   0.695   9.785
 1116SOL    HW1 4028   0.418   0.603   9.795
 1116SOL    HW2 4029   0.299   0.696   9.811
 1117SOL     OW 4030   0.621   0.124   9.426
 1117SOL    HW1 4031   0.709   0.089   9.439
 1117SOL    HW2 4032   0.593   0.087   9.342
 1118SOL     OW 4033   0.770   0.270  11.043
 1118SOL    HW1 4034   0.831   0.205  11.077
 1118SOL    HW2 4035   0.712   0.290   0.017
 1119SOL     OW 4036   0.876   1.520  10.503
 1119SOL    HW1 4037   0.862   1.486  10.415
 1119SOL    HW2 4038   0.947   1.467  10.539
 1120SOL     OW 4039   1.344   0.589  10.752
 1120SOL    HW1 4040   1.392   0.570  10.833
 1120SOL    HW2 4041   1.371   0.677  10.728
 1121SOL     OW 4042   0.813   1.398  10.245
 1121SOL    HW1 4043   0.896   1.389  10.200
 1121SOL    HW2 4044   0.747   1.396  10.176
 1122SOL     OW 4045   0.922   0.514  10.212
 1122SOL    HW1 4046   0.905   0.512  10.118
 1122SOL    HW2 4047   0.963   0.430  10.231
 1123SOL     OW 4048   0.557   0.067   9.820
 1123SOL    HW1 4049   0.469   0.054   9.855
 1123SOL    HW2 4050   0.548   0.140   9.759
 1124SOL     OW 4051   1.429   1.197   9.351
 1124SOL    HW1 4052   1.459   1.122   9.401
 1124SOL    HW2 4053   1.343   1.217   9.388
 1125SOL     OW 4054   0.302   0.077   9.493
 1125SOL    HW1 4055   0.386   0.123   9.488
 1125SOL    HW2 4056   0.321   4.500   9.547
 1126SOL     OW 4057   0.949   0.241   9.784
 1126SOL    HW1 4058   0.897   0.287   9.718
 1126SOL    HW2 4059   1.038   0.275   9.773
 1127SOL     OW 4060   1.079   0.682  10.773
 1127SOL    HW1 4061   1.006   0.620  10.773
 1127SOL    HW2 4062   1.157   0.627  10.764
 1128SOL     OW 4063   1.225   1.569  10.104
 1128SOL    HW1 4064   1.243   1.637  10.039
 1128SOL    HW2 4065   1.293   1.581  10.170
 1129SOL     OW 4066   0.465   1.147  10.048
 1129SOL    HW1 4067   0.392   1.128  10.108
 1129SOL    HW2 4068   0.428   1.131   9.961
 1130SOL     OW 4069   1.271   1.795   9.915
 1130SOL    HW1 4070   1.315   1.856   9.856
 1130SOL    HW2 4071   1.207   1.849   9.962
 1131SOL     OW 4072   1.031   0.549   9.324
 1131SOL    HW1 4073   0.983   0.631   9.308
 1131SOL    HW2 4074   1.089   0.570   9.397
 1132SOL     OW 4075   0.083   0.527  10.719
 1132SOL    HW1 4076   0.152   0.537  10.653
 1132SOL    HW2 4077   0.065   0.616  10.749
 1133SOL     OW 4078   0.563   0.242  10.475
 1133SOL    HW1 4079   0.592   0.155  10.501
 1133SOL    HW2 4080   0.470   0.245  10.497
 1134SOL     OW 4081   0.866   0.500   9.936
 1134SOL    HW1 4082   0.814   0.542   9.868
 1134SOL    HW2 4083   0.854   0.406   9.922
 1135SOL     OW 4084   0.972   0.033  10.083
 1135SOL    HW1 4085   0.923   0.027  10.002
 1135SOL    HW2 4086   0.981   4.442  10.112
 1136SOL     OW 4087   1.435   1.164  10.168
 1136SOL    HW1 4088   1.369   1.095  10.166
 1136SOL    HW2 4089   1.458   1.178  10.076
 1137SOL     OW 4090   1.468   0.602  10.290
 1137SOL    HW1 4091   1.418   0.521  10.293
 1137SOL    HW2 4092   1.527   0.597  10.364
 1138SOL     OW 4093   1.848   0.819   9.691
 1138SOL    HW1 4094   1.903   0.767   9.749
 1138SOL    HW2 4095   1.818   0.758   9.624
 1139SOL     OW 4096   0.493   1.412   9.473
 1139SOL    HW1 4097   0.416   1.383   9.522
 1139SOL    HW2 4098   0.470   1.395   9.381
 1140SOL     OW 4099   1.668   1.266   9.959
 1140SOL    HW1 4100   1.762   1.272   9.972
 1140SOL    HW2 4101   1.635   1.353   9.980
 1141SOL     OW 4102   1.394   0.570   9.380
 1141SOL    HW1 4103   1.334   0.554   9.453
 1141SOL    HW2 4104   1.480   0.548   9.415
 1142SOL     OW 4105   0.523   0.264   9.633
 1142SOL    HW1 4106   0.568   0.213   9.565
 1142SOL    HW2 4107   0.510   0.350   9.593
 1143SOL     OW 4108   1.760   1.228  10.875
 1143SOL    HW1 4109   1.851   1.199  10.879
 1143SOL    HW2 4110   1.762   1.316  10.915
 1144SOL     OW 4111   1.065   1.353  10.650
 1144SOL    HW1 4112   0.987   1.321  10.695
 1144SOL    HW2 4113   1.138   1.306  10.690
 1145SOL     OW 4114   1.125   1.203  10.418
 1145SOL    HW1 4115   1.062   1.240  10.480
 1145SOL    HW2 4116   1.092   1.231  10.332
 1146SOL     OW 4117   1.632   1.101  10.389
 1146SOL    HW1 4118   1.628   1.163  10.461
 1146SOL    HW2 4119   1.551   1.116  10.340
 1147SOL     OW 4120   0.901   0.128  10.699
 1147SOL    HW1 4121   0.928   0.086  10.618
 1147SOL    HW2 4122   0.983   0.139  10.748
 1148SOL     OW 4123   0.708   1.060   9.683
 1148SOL    HW1 4124   0.696   1.046   9.777
 1148SOL    HW2 4125   0.784   1.006   9.661
 1149SOL     OW 4126   0.427   0.821  10.549
 1149SOL    HW1 4127   0.495   0.831  10.615
 1149SOL    HW2 4128   0.368   0.755  10.585
 1150SOL     OW 4129   1.271   0.381  10.580
 1150SOL    HW1 4130   1.300   0.459  10.627
 1150SOL    HW2 4131   1.182   0.403  10.550
 1151SOL     OW 4132   0.062   1.577  10.652
 1151SOL    HW1 4133   0.035   1.662  10.618
 1151SOL    HW2 4134   0.157   1.580  10.655
 1152SOL     OW 4135   0.352   1.106   9.804
 1152SOL    HW1 4136   0.360   1.179   9.743
 1152SOL    HW2 4137   0.355   1.028   9.748
 1153SOL     OW 4138   0.564   0.530  10.166
 1153SOL    HW1 4139   0.578   0.590  10.093
 1153SOL    HW2 4140   0.621   0.563  10.235
 1154SOL     OW 4141   1.248   1.348   9.699
 1154SOL    HW1 4142   1.303   1.420   9.730
 1154SOL    HW2 4143   1.161   1.368   9.733
 1155SOL     OW 4144   1.275   1.456  10.454
 1155SOL    HW1 4145   1.331   1.459  10.532
 1155SOL    HW2 4146   1.222   1.377  10.466
 1156SOL     OW 4147   1.584   0.626   9.785
 1156SOL    HW1 4148   1.539   0.680   9.850
 1156SOL    HW2 4149   1.628   0.688   9.728
 1157SOL     OW 4150   0.348   1.524  10.628
 1157SOL    HW1 4151   0.334   1.479  10.545
 1157SOL    HW2 4152   0.442   1.538  10.633
 1158SOL     OW 4153   0.480   0.749  10.966
 1158SOL    HW1 4154   0.510   0.788  10.883
 1158SOL    HW2 4155   0.506   0.657  10.960
 1159SOL     OW 4156   1.590   0.763  10.971
 1159SOL    HW1 4157   1.513   0.819  10.967
 1159SOL    HW2 4158   1.659   0.813  10.927
 1160SOL     OW 4159   0.587   0.873  10.334
 1160SOL    HW1 4160   0.615   0.965  10.336
 1160SOL    HW2 4161   0.530   0.864  10.411
 1161SOL     OW 4162   1.361   0.860  10.346
 1161SOL    HW1 4163   1.281   0.854  10.294
 1161SOL    HW2 4164   1.398   0.772  10.343
 1162SOL     OW 4165   1.208   0.534   9.577
 1162SOL    HW1 4166   1.213   0.453   9.628
 1162SOL    HW2 4167   1.165   0.597   9.636
 1163SOL     OW 4168   0.287   0.220  10.545
 1163SOL    HW1 4169   0.255   0.238  10.634
 1163SOL    HW2 4170   0.313   0.128  10.547
 1164SOL     OW 4171   0.049   1.314  10.593
 1164SOL    HW1 4172   0.077   1.266  10.671
 1164SOL    HW2 4173   0.049   1.406  10.621
 1165SOL     OW 4174   0.726   0.633  10.371
 1165SOL    HW1 4175   0.797   0.611  10.311
 1165SOL    HW2 4176   0.700   0.721  10.345
 1166SOL     OW 4177   0.317   0.076   9.941
 1166SOL    HW1 4178   0.300   0.164   9.976
 1166SOL    HW2 4179   0.305   0.018  10.017
 1167SOL     OW 4180   1.609   0.374   9.677
 1167SOL    HW1 4181   1.642   0.311   9.742
 1167SOL    HW2 4182   1.588   0.452   9.727
 1168SOL     OW 4183   1.027   0.761  10.273
 1168SOL    HW1 4184   1.027   0.777  10.367
 1168SOL    HW2 4185   0.999   0.670  10.264
 1169SOL     OW 4186   0.974   1.571  11.004
 1169SOL    HW1 4187   0.960   1.621  10.924
 1169SOL    HW2 4188   1.008   1.487  10.975
 1170SOL     OW 4189   1.860   1.497  10.912
 1170SOL    HW1 4190   1.872   1.531  10.823
 1170SOL    HW2 4191   1.927   1.542  10.964
 1171SOL     OW 4192   0.349   0.931  11.097
 1171SOL    HW1 4193   0.424   0.959   0.049
 1171SOL    HW2 4194   0.381   0.860  11.043
 1172SOL     OW 4195   1.533   0.268   9.438
 1172SOL    HW1 4196   1.461   0.211   9.465
 1172SOL    HW2 4197   1.560   0.312   9.518
 1173SOL     OW 4198   1.295   0.827   9.343
 1173SOL    HW1 4199   1.337   0.741   9.345
 1173SOL    HW2 4200   1.325   0.866   9.261
 1174SOL     OW 4201   1.065   1.334  10.163
 1174SOL    HW1 4202   1.068   1.261  10.100
 1174SOL    HW2 4203   1.128   1.398  10.128
 1175SOL     OW 4204   0.317   0.813  10.261
 1175SOL    HW1 4205   0.411   0.831  10.255
 1175SOL    HW2 4206   0.311   0.723  10.292
 1176SOL     OW 4207   0.337   0.527  10.305
 1176SOL    HW1 4208   0.293   0.444  10.286
 1176SOL    HW2 4209   0.414   0.526  10.247
 1177SOL     OW 4210   1.156   0.216  10.773
 1177SOL    HW1 4211   1.165   0.272  10.850
 1177SOL    HW2 4212   1.190   0.269  10.701
 1178SOL     OW 4213   4.492   1.323   9.510
 1178SOL    HW1 4214   4.399   1.338   9.493
 1178SOL    HW2 4215   4.498   1.231   9.535
 1179SOL     OW 4216   0.094   1.782  10.249
 1179SOL    HW1 4217   0.057   1.720  10.186
 1179SOL    HW2 4218   0.181   1.801  10.215
 1180SOL     OW 4219   0.499   1.573  10.216
 1180SOL    HW1 4220   0.568   1.636  10.239
 1180SOL    HW2 4221   0.544   1.508  10.162
 1181SOL     OW 4222   0.989   0.796  10.539
 1181SOL    HW1 4223   1.040   0.771  10.616
 1181SOL    HW2 4224   0.902   0.758  10.554
 1182SOL     OW 4225   0.037   0.562  10.418
 1182SOL    HW1 4226   0.116   0.521  10.382
 1182SOL    HW2 4227   0.030   0.526  10.506
 1183SOL     OW 4228   0.812   0.572   9.662
 1183SOL    HW1 4229   0.815   0.500   9.599
 1183SOL    HW2 4230   0.738   0.625   9.634
 1184SOL     OW 4231   1.642   0.601  10.499
 1184SOL    HW1 4232   1.632   0.541  10.573
 1184SOL    HW2 4233   1.729   0.581  10.464
 1185SOL     OW 4234   0.264   1.571  11.058
 1185SOL    HW1 4235   0.212   1.603   0.032
 1185SOL    HW2 4236   0.242   1.478  11.052
 1186SOL     OW 4237   0.687   0.462  10.577
 1186SOL    HW1 4238   0.646   0.383  10.543
 1186SOL    HW2 4239   0.693   0.521  10.502
 1187SOL     OW 4240   0.941   1.681  10.761
 1187SOL    HW1 4241   0.902   1.652  10.679
 1187SOL    HW2 4242   0.930   1.777  10.760
 1188SOL     OW 4243   0.473   0.491   9.496
 1188SOL    HW1 4244   0.532   0.564   9.517
 1188SOL    HW2 4245   0.387   0.532   9.484
 1189SOL     OW 4246   0.162   1.141  10.772
 1189SOL    HW1 4247   0.143   1.096  10.854
 1189SOL    HW2 4248   0.170   1.072  10.707
 1190SOL     OW 4249   1.328   1.054  10.539
 1190SOL    HW1 4250   1.355   0.989  10.473
 1190SOL    HW2 4251   1.255   1.100  10.498
 1191SOL     OW 4252   1.309   0.856   9.617
 1191SOL    HW1 4253   1.232   0.827   9.666
 1191SOL    HW2 4254   1.285   0.843   9.526
 1192SOL     OW 4255   1.764   1.748  10.458
 1192SOL    HW1 4256   1.826   1.775  10.391
 1192SOL    HW2 4257   1.744   1.657  10.438
 1193SOL     OW 4258   1.242   1.733  10.427
 1193SOL    HW1 4259   1.324   1.751  10.381
 1193SOL    HW2 4260   1.244   1.639  10.444
 1194SOL     OW 4261   0.069   1.190  10.358
 1194SOL    HW1 4262   0.075   1.225  10.446
 1194SOL    HW2 4263   0.009   1.249  10.312
 1195SOL     OW 4264   1.718   0.130   9.809
 1195SOL    HW1 4265   1.793   0.134   9.749
 1195SOL    HW2 4266   1.736   0.055   9.865
 1196SOL     OW 4267   1.390   1.568   9.792
 1196SOL    HW1 4268   1.450   1.598   9.725
 1196SOL    HW2 4269   1.343   1.646   9.820
 1197SOL     OW 4270   1.278   0.926   9.982
 1197SOL    HW1 4271   1.350   0.863   9.985
 1197SOL    HW2 4272   1.311   0.998   9.930
 1198SOL     OW 4273   0.822   1.272  10.739
 1198SOL    HW1 4274   0.793   1.306  10.824
 1198SOL    HW2 4275   0.751   1.293  10.679
 1199SOL     OW 4276   0.673   1.616   9.465
 1199SOL    HW1 4277   0.681   1.627   9.370
 1199SOL    HW2 4278   0.620   1.537   9.476
 1200SOL     OW 4279   1.628   1.719  10.701
 1200SOL    HW1 4280   1.679   1.734  10.621
 1200SOL    HW2 4281   1.613   1.807  10.736
 1201SOL     OW 4282   1.839   0.156  10.277
 1201SOL    HW1 4283   1.868   0.079  10.228
 1201SOL    HW2 4284   1.752   0.177  10.242
 1202SOL     OW 4285   0.267   0.326  10.035
 1202SOL    HW1 4286   0.185   0.361  10.001
 1202SOL    HW2 4287   0.252   0.318  10.129
 1203SOL     OW 4288   1.205   1.608   9.341
 1203SOL    HW1 4289   1.197   1.517   9.368
 1203SOL    HW2 4290   1.141   1.618   9.271
 1204SOL     OW 4291   0.825   1.006  10.684
 1204SOL    HW1 4292   0.867   1.001  10.598
 1204SOL    HW2 4293   0.827   1.099  10.707
 1205SOL     OW 4294   0.915   0.910   9.599
 1205SOL    HW1 4295   0.977   0.942   9.534
 1205SOL    HW2 4296   0.961   0.839   9.644
 1206SOL     OW 4297   1.496   1.624   9.352
 1206SOL    HW1 4298   1.401   1.621   9.341
 1206SOL    HW2 4299   1.530   1.630   9.263
 1207SOL     OW 4300   0.369   1.306  10.805
 1207SOL    HW1 4301   0.356   1.382  10.748
 1207SOL    HW2 4302   0.295   1.249  10.785
 1208SOL     OW 4303   1.612   1.283  10.593
 1208SOL    HW1 4304   1.670   1.274  10.669
 1208SOL    HW2 4305   1.555   1.357  10.614
 1209SOL     OW 4306   1.048   1.105  10.015
 1209SOL    HW1 4307   0.977   1.053  10.055
 1209SOL    HW2 4308   1.108   1.040   9.980
 1210SOL     OW 4309   1.007   0.241  10.305
 1210SOL    HW1 4310   1.015   0.211  10.215
 1210SOL    HW2 4311   1.001   0.161  10.357
 1211SOL     OW 4312   0.602   1.489   9.794
 1211SOL    HW1 4313   0.640   1.439   9.722
 1211SOL    HW2 4314   0.533   1.541   9.752
 1212SOL     OW 4315   1.716   0.393  10.688
 1212SOL    HW1 4316   1.788   0.457  10.689
 1212SOL    HW2 4317   1.747   0.323  10.630
 1213SOL     OW 4318   0.252   1.345   9.588
 1213SOL    HW1 4319   0.158   1.347   9.573
 1213SOL    HW2 4320   0.263   1.378   9.677
 1214SOL     OW 4321   0.110   1.017  11.007
 1214SOL    HW1 4322   0.049   1.017  11.080
 1214SOL    HW2 4323   0.195   1.000  11.047
 1215SOL     OW 4324   0.657   0.198  10.803
 1215SOL    HW1 4325   0.736   0.174  10.755
 1215SOL    HW2 4326   0.689   0.224  10.890
 1216SOL     OW 4327   0.070   0.321   9.336
 1216SOL    HW1 4328   4.475   0.330   9.345
 1216SOL    HW2 4329   0.100   0.407   9.305
 1217SOL     OW 4330   1.431   0.849  10.709
 1217SOL    HW1 4331   1.383   0.915  10.660
 1217SOL    HW2 4332   1.522   0.859  10.681
 1218SOL     OW 4333   0.083   0.188   9.614
 1218SOL    HW1 4334   0.081   0.260   9.550
 1218SOL    HW2 4335   0.160   0.138   9.590
 1219SOL     OW 4336   1.180   1.342   9.427
 1219SOL    HW1 4337   1.089   1.312   9.430
 1219SOL    HW2 4338   1.209   1.341   9.518
 1220SOL     OW 4339   0.621   0.830  10.737
 1220SOL    HW1 4340   0.675   0.908  10.724
 1220SOL    HW2 4341   0.683   0.759  10.747
 1221SOL     OW 4342   1.486   1.773  10.284
 1221SOL    HW1 4343   1.513   1.832  10.213
 1221SOL    HW2 4344   1.566   1.760  10.336
 1222SOL     OW 4345   0.715   0.561  11.015
 1222SOL    HW1 4346   0.744   0.633  11.071
 1222SOL    HW2 4347   0.768   0.486  11.044
 1223SOL     OW 4348   0.384   1.735  10.869
 1223SOL    HW1 4349   0.306   1.791  10.865
 1223SOL    HW2 4350   0.359   1.662  10.926
 1224SOL     OW 4351   1.674   0.883  10.566
 1224SOL    HW1 4352   1.662   0.798  10.524
 1224SOL    HW2 4353   1.664   0.947  10.495
 1225SOL     OW 4354   1.218   0.327   9.758
 1225SOL    HW1 4355   1.283   0.257   9.749
 1225SOL    HW2 4356   1.244   0.374   9.837
 1226SOL     OW 4357   0.589   0.741   9.978
 1226SOL    HW1 4358   0.630   0.825   9.960
 1226SOL    HW2 4359   0.519   0.734   9.913
 1227SOL     OW 4360   1.757   0.317  10.948
 1227SOL    HW1 4361   1.738   0.357  10.863
 1227SOL    HW2 4362   1.677   0.329  10.999
 1228SOL     OW 4363   1.748   0.935  10.825
 1228SOL    HW1 4364   1.743   1.030  10.839
 1228SOL    HW2 4365   1.730   0.924  10.732
 1229SOL     OW 4366   0.863   1.369   9.340
 1229SOL    HW1 4367   0.823   1.395   9.422
 1229SOL    HW2 4368   0.882   1.451   9.295
 1230SOL     OW 4369   0.659   1.794  10.259
 1230SOL    HW1 4370   0.636   1.884  10.234
 1230SOL    HW2 4371   0.754   1.790  10.249
 1231SOL     OW 4372   0.866   0.965  10.166
 1231SOL    HW1 4373   0.916   0.894  10.206
 1231SOL    HW2 4374   0.833   1.016  10.240
 1232SOL     OW 4375   1.080   0.988   9.399
 1232SOL    HW1 4376   1.058   1.038   9.320
 1232SOL    HW2 4377   1.156   0.935   9.373
 1233SOL     OW 4378   1.859   1.556  10.154
 1233SOL    HW1 4379   1.780   1.546  10.101
 1233SOL    HW2 4380   1.848   1.491  10.224
 1234SOL     OW 4381   0.101   1.240   9.976
 1234SOL    HW1 4382   0.103   1.188  10.056
 1234SOL    HW2 4383   0.162   1.196   9.917
 1235SOL     OW 4384   0.678   1.394  10.934
 1235SOL    HW1 4385   0.605   1.344  10.970
 1235SOL    HW2 4386   0.652   1.485  10.943
 1236SOL     OW 4387   1.807   0.183  10.549
 1236SOL    HW1 4388   1.816   0.090  10.570
 1236SOL    HW2 4389   1.824   0.188  10.455
 1237SOL     OW 4390   0.437   0.431   9.838
 1237SOL    HW1 4391   0.458   0.360   9.778
 1237SOL    HW2 4392   0.381   0.391   9.904
 1238SOL     OW 4393   1.703   1.490  10.408
 1238SOL    HW1 4394   1.621   1.464  10.368
 1238SOL    HW2 4395   1.720   1.424  10.476
 1239SOL     OW 4396   0.309   0.505  10.569
 1239SOL    HW1 4397   0.377   0.457  10.616
 1239SOL    HW2 4398   0.342   0.510  10.479
 1240SOL     OW 4399   0.825   1.578   9.990
 1240SOL    HW1 4400   0.820   1.622   9.905
 1240SOL    HW2 4401   0.746   1.524   9.993
 1241SOL     OW 4402   1.431   0.214  10.429
 1241SOL    HW1 4403   1.471   0.147  10.483
 1241SOL    HW2 4404   1.381   0.268  10.490
 1242SOL     OW 4405   0.997   0.014  10.457
 1242SOL    HW1 4406   0.950   4.431  10.446
 1242SOL    HW2 4407   1.088   4.488  10.473
 1243SOL     OW 4408   0.771   1.332   9.620
 1243SOL    HW1 4409   0.737   1.243   9.626
 1243SOL    HW2 4410   0.854   1.330   9.668
 1244SOL     OW 4411   0.620   1.558  10.595
 1244SOL    HW1 4412   0.622   1.640  10.644
 1244SOL    HW2 4413   0.707   1.552  10.555
 1245SOL     OW 4414   1.343   0.054   9.462
 1245SOL    HW1 4415   1.383   4.480   9.416
 1245SOL    HW2 4416   1.268   0.016   9.507
 1246SOL     OW 4417   1.314   0.462   9.992
 1246SOL    HW1 4418   1.251   0.534   9.992
 1246SOL    HW2 4419   1.302   0.419  10.076
 1247SOL     OW 4420   1.586   0.203  10.178
 1247SOL    HW1 4421   1.524   0.217  10.250
 1247SOL    HW2 4422   1.589   0.287  10.132
 1248SOL     OW 4423   0.041   1.054   9.596
 1248SOL    HW1 4424   0.136   1.044   9.590
 1248SOL    HW2 4425   0.018   1.012   9.679
 1249SOL     OW 4426   0.881   1.649   9.655
 1249SOL    HW1 4427   0.810   1.631   9.593
 1249SOL    HW2 4428   0.851   1.725   9.704
 1250SOL     OW 4429   0.244   2.461   0.109
 1250SOL    HW1 4430   0.170   2.466   0.170
 1250SOL    HW2 4431   0.209   2.492   0.025
 1251SOL     OW 4432   0.213   2.138   0.992
 1251SOL    HW1 4433   0.250   2.112   1.076
 1251SOL    HW2 4434   0.137   2.081   0.980
 1252SOL     OW 4435   0.010   2.249   0.638
 1252SOL    HW1 4436   4.430   2.277   0.682
 1252SOL    HW2 4437   4.485   2.167   0.595
 1253SOL     OW 4438   0.567   3.143   1.172
 1253SOL    HW1 4439   0.479   3.147   1.134
 1253SOL    HW2 4440   0.582   3.231   1.207
 1254SOL     OW 4441   1.557   3.373   0.705
 1254SOL    HW1 4442   1.512   3.355   0.788
 1254SOL    HW2 4443   1.486   3.378   0.640
 1255SOL     OW 4444   1.129   2.561   0.704
 1255SOL    HW1 4445   1.180   2.641   0.690
 1255SOL    HW2 4446   1.083   2.577   0.787
 1256SOL     OW 4447   1.767   2.468   0.227
 1256SOL    HW1 4448   1.736   2.459   0.137
 1256SOL    HW2 4449   1.731   2.391   0.272
 1257SOL     OW 4450   0.760   3.007   1.037
 1257SOL    HW1 4451   0.689   3.040   1.093
 1257SOL    HW2 4452   0.793   3.084   0.992
 1258SOL     OW 4453   0.862   2.643   1.821
 1258SOL    HW1 4454   0.849   2.715   1.883
 1258SOL    HW2 4455   0.885   2.686   1.738
 1259SOL     OW 4456   0.686   2.870   0.649
 1259SOL    HW1 4457   0.750   2.854   0.719
 1259SOL    HW2 4458   0.616   2.919   0.692
 1260SOL     OW 4459   0.707   3.014   1.809
 1260SOL    HW1 4460   0.755   3.093   1.832
 1260SOL    HW2 4461   0.623   3.045   1.775
 1261SOL     OW 4462   0.337   3.286   1.070
 1261SOL    HW1 4463   0.256   3.266   1.023
 1261SOL    HW2 4464   0.387   3.341   1.009
 1262SOL     OW 4465   1.462   3.360   1.350
 1262SOL    HW1 4466   1.504   3.445   1.361
 1262SOL    HW2 4467   1.408   3.349   1.428
 1263SOL     OW 4468   0.442   2.266   1.496
 1263SOL    HW1 4469   0.522   2.213   1.498
 1263SOL    HW2 4470   0.371   2.202   1.499
 1264SOL     OW 4471   1.612   2.311   0.741
 1264SOL    HW1 4472   1.537   2.337   0.688
 1264SOL    HW2 4473   1.635   2.389   0.791
 1265SOL     OW 4474   0.245   3.554   0.484
 1265SOL    HW1 4475   0.234   3.640   0.524
 1265SOL    HW2 4476   0.298   3.570   0.406
 1266SOL     OW 4477   1.136   3.203   1.691
 1266SOL    HW1 4478   1.175   3.200   1.778
 1266SOL    HW2 4479   1.082   3.123   1.685
 1267SOL     OW 4480   0.242   3.290   0.529
 1267SOL    HW1 4481   0.237   3.385   0.533
 1267SOL    HW2 4482   0.175   3.260   0.591
 1268SOL     OW 4483   0.244   2.943   0.882
 1268SOL    HW1 4484   0.262   2.856   0.917
 1268SOL    HW2 4485   0.188   2.984   0.947
 1269SOL     OW 4486   0.617   3.652   1.433
 1269SOL    HW1 4487   0.533   3.635   1.475
 1269SOL    HW2 4488   0.637   3.743   1.457
 1270SOL     OW 4489   0.578   2.852   0.142
 1270SOL    HW1 4490   0.621   2.900   0.071
 1270SOL    HW2 4491   0.629   2.874   0.220
 1271SOL     OW 4492   1.591   1.981   1.470
 1271SOL    HW1 4493   1.597   2.060   1.415
 1271SOL    HW2 4494   1.585   2.015   1.559
 1272SOL     OW 4495   0.137   2.506   0.575
 1272SOL    HW1 4496   0.086   2.426   0.587
 1272SOL    HW2 4497   0.106   2.564   0.645
 1273SOL     OW 4498   1.841   3.624   0.337
 1273SOL    HW1 4499   1.900   3.593   0.406
 1273SOL    HW2 4500   1.871   3.713   0.318
 1274SOL     OW 4501   0.069   3.456   0.150
 1274SOL    HW1 4502   0.033   3.367   0.151
 1274SOL    HW2 4503   0.011   3.505   0.209
 1275SOL     OW 4504   1.690   2.781   0.637
 1275SOL    HW1 4505   1.775   2.742   0.617
 1275SOL    HW2 4506   1.668   2.832   0.559
 1276SOL     OW 4507   1.645   2.969   0.432
 1276SOL    HW1 4508   1.727   2.982   0.384
 1276SOL    HW2 4509   1.650   3.030   0.505
 1277SOL     OW 4510   0.110   2.620   1.590
 1277SOL    HW1 4511   0.205   2.621   1.579
 1277SOL    HW2 4512   0.085   2.713   1.591
 1278SOL     OW 4513   0.613   3.243   0.735
 1278SOL    HW1 4514   0.566   3.160   0.744
 1278SOL    HW2 4515   0.596   3.271   0.645
 1279SOL     OW 4516   1.291   3.101   1.424
 1279SOL    HW1 4517   1.323   3.033   1.365
 1279SOL    HW2 4518   1.346   3.093   1.502
 1280SOL     OW 4519   0.812   1.861   0.504
 1280SOL    HW1 4520   0.852   1.947   0.491
 1280SOL    HW2 4521   0.719   1.878   0.515
 1281SOL     OW 4522   0.184   2.807   1.279
 1281SOL    HW1 4523   0.275   2.789   1.255
 1281SOL    HW2 4524   0.133   2.780   1.203
 1282SOL     OW 4525   1.521   2.861   0.199
 1282SOL    HW1 4526   1.458   2.796   0.230
 1282SOL    HW2 4527   1.568   2.889   0.278
 1283SOL     OW 4528   1.186   3.665   1.620
 1283SOL    HW1 4529   1.201   3.722   1.544
 1283SOL    HW2 4530   1.200   3.577   1.587
 1284SOL     OW 4531   0.328   2.117   1.795
 1284SOL    HW1 4532   0.381   2.190   1.827
 1284SOL    HW2 4533   0.243   2.129   1.838
 1285SOL     OW 4534   1.466   3.282   0.954
 1285SOL    HW1 4535   1.397   3.295   1.019
 1285SOL    HW2 4536   1.454   3.191   0.926
 1286SOL     OW 4537   1.661   3.594   0.579
 1286SOL    HW1 4538   1.639   3.568   0.490
 1286SOL    HW2 4539   1.635   3.520   0.633
 1287SOL     OW 4540   0.596   2.583   0.263
 1287SOL    HW1 4541   0.603   2.662   0.210
 1287SOL    HW2 4542   0.532   2.605   0.331
 1288SOL     OW 4543   1.280   2.210   0.932
 1288SOL    HW1 4544   1.191   2.176   0.940
 1288SOL    HW2 4545   1.330   2.158   0.995
 1289SOL     OW 4546   1.582   3.530   0.311
 1289SOL    HW1 4547   1.671   3.564   0.305
 1289SOL    HW2 4548   1.557   3.511   0.220
 1290SOL     OW 4549   0.795   2.478   1.453
 1290SOL    HW1 4550   0.768   2.456   1.542
 1290SOL    HW2 4551   0.750   2.414   1.398
 1291SOL     OW 4552   1.393   2.336   1.678
 1291SOL    HW1 4553   1.394   2.379   1.763
 1291SOL    HW2 4554   1.459   2.266   1.686
 1292SOL     OW 4555   0.959   2.751   1.580
 1292SOL    HW1 4556   1.012   2.679   1.546
 1292SOL    HW2 4557   0.911   2.784   1.504
 1293SOL     OW 4558   0.993   2.276   1.240
 1293SOL    HW1 4559   0.911   2.299   1.282
 1293SOL    HW2 4560   0.967   2.227   1.162
 1294SOL     OW 4561   1.049   2.563   0.428
 1294SOL    HW1 4562   1.064   2.555   0.522
 1294SOL    HW2 4563   0.967   2.515   0.412
 1295SOL     OW 4564   0.098   2.685   0.783
 1295SOL    HW1 4565   0.184   2.664   0.820
 1295SOL    HW2 4566   0.054   2.736   0.852
 1296SOL     OW 4567   0.126   3.711   1.575
 1296SOL    HW1 4568   0.119   3.689   1.668
 1296SOL    HW2 4569   0.044   3.681   1.537
 1297SOL     OW 4570   0.884   2.216   0.206
 1297SOL    HW1 4571   0.934   2.269   0.144
 1297SOL    HW2 4572   0.898   2.126   0.177
 1298SOL     OW 4573   1.713   2.443   1.829
 1298SOL    HW1 4574   1.676   2.518   1.783
 1298SOL    HW2 4575   1.730   2.379   1.760
 1299SOL     OW 4576   1.375   3.004   0.542
 1299SOL    HW1 4577   1.452   2.989   0.489
 1299SOL    HW2 4578   1.323   3.066   0.491
 1300SOL     OW 4579   0.550   2.047   0.892
 1300SOL    HW1 4580   0.553   2.074   0.984
 1300SOL    HW2 4581   0.552   2.128   0.843
 1301SOL     OW 4582   1.009   3.309   0.475
 1301SOL    HW1 4583   0.967   3.379   0.426
 1301SOL    HW2 4584   0.994   3.331   0.567
 1302SOL     OW 4585   0.354   3.669   0.857
 1302SOL    HW1 4586   0.397   3.584   0.866
 1302SOL    HW2 4587   0.424   3.733   0.867
 1303SOL     OW 4588   1.798   2.921   0.867
 1303SOL    HW1 4589   1.741   2.907   0.792
 1303SOL    HW2 4590   1.739   2.927   0.942
 1304SOL     OW 4591   1.228   3.402   1.512
 1304SOL    HW1 4592   1.214   3.329   1.572
 1304SOL    HW2 4593   1.167   3.385   1.440
 1305SOL     OW 4594   0.315   2.818   0.275
 1305SOL    HW1 4595   0.399   2.845   0.236
 1305SOL    HW2 4596   0.303   2.728   0.245
 1306SOL     OW 4597   1.475   2.600   0.728
 1306SOL    HW1 4598   1.463   2.554   0.811
 1306SOL    HW2 4599   1.551   2.656   0.741
 1307SOL     OW 4600   0.465   3.123   1.735
 1307SOL    HW1 4601   0.437   3.129   1.644
 1307SOL    HW2 4602   0.384   3.128   1.786
 1308SOL     OW 4603   1.107   3.640   0.227
 1308SOL    HW1 4604   1.050   3.587   0.282
 1308SOL    HW2 4605   1.147   3.577   0.166
 1309SOL     OW 4606   0.195   2.140   1.488
 1309SOL    HW1 4607   0.131   2.211   1.492
 1309SOL    HW2 4608   0.186   2.095   1.572
 1310SOL     OW 4609   1.629   3.237   0.088
 1310SOL    HW1 4610   1.587   3.322   0.076
 1310SOL    HW2 4611   1.562   3.173   0.062
 1311SOL     OW 4612   0.470   3.604   0.316
 1311SOL    HW1 4613   0.506   3.658   0.387
 1311SOL    HW2 4614   0.547   3.579   0.265
 1312SOL     OW 4615   1.401   1.970   0.429
 1312SOL    HW1 4616   1.391   1.946   0.337
 1312SOL    HW2 4617   1.496   1.978   0.441
 1313SOL     OW 4618   0.260   3.656   1.234
 1313SOL    HW1 4619   0.306   3.583   1.275
 1313SOL    HW2 4620   0.229   3.621   1.150
 1314SOL     OW 4621   0.939   3.560   0.900
 1314SOL    HW1 4622   1.015   3.506   0.921
 1314SOL    HW2 4623   0.892   3.512   0.832
 1315SOL     OW 4624   0.391   2.557   0.473
 1315SOL    HW1 4625   0.417   2.465   0.484
 1315SOL    HW2 4626   0.300   2.559   0.502
 1316SOL     OW 4627   1.538   2.087   1.726
 1316SOL    HW1 4628   1.544   2.108   1.820
 1316SOL    HW2 4629   1.470   2.019   1.721
 1317SOL     OW 4630   0.613   1.970   0.122
 1317SOL    HW1 4631   0.704   1.942   0.123
 1317SOL    HW2 4632   0.584   1.955   0.032
 1318SOL     OW 4633   0.769   2.137   1.752
 1318SOL    HW1 4634   0.841   2.075   1.760
 1318SOL    HW2 4635   0.718   2.125   1.832
 1319SOL     OW 4636   0.878   3.383   1.193
 1319SOL    HW1 4637   0.862   3.347   1.106
 1319SOL    HW2 4638   0.946   3.327   1.230
 1320SOL     OW 4639   1.341   2.451   1.432
 1320SOL    HW1 4640   1.372   2.418   1.516
 1320SOL    HW2 4641   1.378   2.539   1.426
 1321SOL     OW 4642   0.813   3.261   0.935
 1321SOL    HW1 4643   0.896   3.251   0.890
 1321SOL    HW2 4644   0.747   3.258   0.866
 1322SOL     OW 4645   0.926   2.371   0.904
 1322SOL    HW1 4646   0.904   2.363   0.812
 1322SOL    HW2 4647   0.960   2.285   0.928
 1323SOL     OW 4648   0.550   1.923   0.507
 1323SOL    HW1 4649   0.468   1.922   0.556
 1323SOL    HW2 4650   0.545   2.002   0.452
 1324SOL     OW 4651   1.427   3.058   0.032
 1324SOL    HW1 4652   1.461   2.986   0.084
 1324SOL    HW2 4653   1.343   3.080   0.073
 1325SOL     OW 4654   0.287   1.910   0.192
 1325SOL    HW1 4655   0.338   1.962   0.129
 1325SOL    HW2 4656   0.348   1.844   0.223
 1326SOL     OW 4657   0.937   2.104   0.464
 1326SOL    HW1 4658   0.907   2.152   0.387
 1326SOL    HW2 4659   1.032   2.119   0.466
 1327SOL     OW 4660   1.080   2.541   1.460
 1327SOL    HW1 4661   1.009   2.477   1.466
 1327SOL    HW2 4662   1.160   2.489   1.452
 1328SOL     OW 4663   1.225   3.431   0.794
 1328SOL    HW1 4664   1.243   3.499   0.728
 1328SOL    HW2 4665   1.293   3.442   0.860
 1329SOL     OW 4666   0.466   3.009   0.741
 1329SOL    HW1 4667   0.393   2.991   0.800
 1329SOL    HW2 4668   0.430   2.994   0.653
 1330SOL     OW 4669   1.271   3.657   0.604
 1330SOL    HW1 4670   1.316   3.719   0.546
 1330SOL    HW2 4671   1.208   3.711   0.651
 1331SOL     OW 4672   1.015   2.401   0.033
 1331SOL    HW1 4673   0.984   2.488   0.008
 1331SOL    HW2 4674   1.093   2.419   0.086
 1332SOL     OW 4675   0.080   2.396   1.406
 1332SOL    HW1 4676   0.150   2.398   1.341
 1332SOL    HW2 4677   0.068   2.488   1.431
 1333SOL     OW 4678   0.562   2.089   1.164
 1333SOL    HW1 4679   0.601   2.008   1.196
 1333SOL    HW2 4680   0.470   2.084   1.191
 1334SOL     OW 4681   0.870   2.322   0.640
 1334SOL    HW1 4682   0.823   2.376   0.576
 1334SOL    HW2 4683   0.888   2.240   0.594
 1335SOL     OW 4684   1.014   1.914   0.754
 1335SOL    HW1 4685   0.955   1.906   0.679
 1335SOL    HW2 4686   0.994   1.838   0.808
 1336SOL     OW 4687   1.436   3.026   0.858
 1336SOL    HW1 4688   1.368   2.958   0.856
 1336SOL    HW2 4689   1.458   3.040   0.766
 1337SOL     OW 4690   1.467   2.464   0.982
 1337SOL    HW1 4691   1.421   2.380   0.985
 1337SOL    HW2 4692   1.528   2.461   1.056
 1338SOL     OW 4693   1.850   2.679   0.382
 1338SOL    HW1 4694   1.904   2.625   0.439
 1338SOL    HW2 4695   1.820   2.619   0.314
 1339SOL     OW 4696   0.494   3.283   0.175
 1339SOL    HW1 4697   0.415   3.256   0.223
 1339SOL    HW2 4698   0.486   3.240   0.090
 1340SOL     OW 4699   1.668   3.127   0.651
 1340SOL    HW1 4700   1.763   3.134   0.661
 1340SOL    HW2 4701   1.635   3.215   0.670
 1341SOL     OW 4702   1.391   2.442   0.079
 1341SOL    HW1 4703   1.332   2.417   0.151
 1341SOL    HW2 4704   1.464   2.381   0.086
 1342SOL     OW 4705   0.529   2.124   0.328
 1342SOL    HW1 4706   0.555   2.066   0.257
 1342SOL    HW2 4707   0.513   2.209   0.285
 1343SOL     OW 4708   1.754   3.098   1.577
 1343SOL    HW1 4709   1.841   3.059   1.575
 1343SOL    HW2 4710   1.768   3.187   1.607
 1344SOL     OW 4711   1.061   3.216   1.335
 1344SOL    HW1 4712   0.986   3.184   1.386
 1344SOL    HW2 4713   1.137   3.174   1.376
 1345SOL     OW 4714   1.605   3.487   1.651
 1345SOL    HW1 4715   1.603   3.521   1.561
 1345SOL    HW2 4716   1.689   3.441   1.657
 1346SOL     OW 4717   1.125   3.063   1.107
 1346SOL    HW1 4718   1.067   3.101   1.173
 1346SOL    HW2 4719   1.090   3.094   1.024
 1347SOL     OW 4720   1.632   2.963   1.078
 1347SOL    HW1 4721   1.627   3.025   1.151
 1347SOL    HW2 4722   1.551   2.977   1.030
 1348SOL     OW 4723   0.917   1.961   1.399
 1348SOL    HW1 4724   0.940   1.941   1.309
 1348SOL    HW2 4725   0.997   2.000   1.436
 1349SOL     OW 4726   0.984   2.976   1.722
 1349SOL    HW1 4727   0.891   2.991   1.741
 1349SOL    HW2 4728   0.985   2.899   1.666
 1350SOL     OW 4729   0.709   2.921   0.373
 1350SOL    HW1 4730   0.695   2.908   0.467
 1350SOL    HW2 4731   0.786   2.868   0.353
 1351SOL     OW 4732   0.429   2.683   1.238
 1351SOL    HW1 4733   0.497   2.696   1.304
 1351SOL    HW2 4734   0.369   2.619   1.277
 1352SOL     OW 4735   1.268   2.241   1.272
 1352SOL    HW1 4736   1.300   2.318   1.319
 1352SOL    HW2 4737   1.178   2.263   1.246
 1353SOL     OW 4738   0.061   3.437   1.338
 1353SOL    HW1 4739   0.032   3.525   1.314
 1353SOL    HW2 4740   0.156   3.444   1.346
 1354SOL     OW 4741   0.354   2.973   0.498
 1354SOL    HW1 4742   0.356   3.047   0.437
 1354SOL    HW2 4743   0.348   2.896   0.442
 1355SOL     OW 4744   0.562   2.398   0.858
 1355SOL    HW1 4745   0.577   2.457   0.784
 1355SOL    HW2 4746   0.620   2.430   0.926
 1356SOL     OW 4747   1.247   3.208   0.393
 1356SOL    HW1 4748   1.303   3.281   0.421
 1356SOL    HW2 4749   1.160   3.231   0.425
 1357SOL     OW 4750   1.276   3.317   1.145
 1357SOL    HW1 4751   1.331   3.319   1.224
 1357SOL    HW2 4752   1.221   3.240   1.156
 1358SOL     OW 4753   1.585   2.489   0.476
 1358SOL    HW1 4754   1.539   2.543   0.541
 1358SOL    HW2 4755   1.624   2.553   0.416
 1359SOL     OW 4756   0.348   3.390   1.318
 1359SOL    HW1 4757   0.333   3.343   1.236
 1359SOL    HW2 4758   0.443   3.400   1.323
 1360SOL     OW 4759   0.471   2.621   1.659
 1360SOL    HW1 4760   0.501   2.661   1.577
 1360SOL    HW2 4761   0.502   2.531   1.654
 1361SOL     OW 4762   1.597   2.640   1.680
 1361SOL    HW1 4763   1.510   2.680   1.671
 1361SOL    HW2 4764   1.649   2.682   1.611
 1362SOL     OW 4765   0.997   1.979   1.757
 1362SOL    HW1 4766   1.047   2.053   1.723
 1362SOL    HW2 4767   1.046   1.901   1.730
 1363SOL     OW 4768   0.498   1.907   1.745
 1363SOL    HW1 4769   0.459   1.850   1.679
 1363SOL    HW2 4770   0.436   1.979   1.755
 1364SOL     OW 4771   0.588   2.735   1.024
 1364SOL    HW1 4772   0.615   2.826   1.026
 1364SOL    HW2 4773   0.531   2.726   1.100
 1365SOL     OW 4774   1.361   2.721   1.034
 1365SOL    HW1 4775   1.280   2.715   0.983
 1365SOL    HW2 4776   1.397   2.632   1.032
 1366SOL     OW 4777   1.206   2.389   0.272
 1366SOL    HW1 4778   1.214   2.311   0.327
 1366SOL    HW2 4779   1.164   2.454   0.328
 1367SOL     OW 4780   0.303   2.057   1.241
 1367SOL    HW1 4781   0.265   2.091   1.322
 1367SOL    HW2 4782   0.285   1.963   1.244
 1368SOL     OW 4783   0.048   3.174   1.283
 1368SOL    HW1 4784   0.078   3.128   1.362
 1368SOL    HW2 4785   0.050   3.267   1.309
 1369SOL     OW 4786   0.727   2.495   1.061
 1369SOL    HW1 4787   0.799   2.475   1.001
 1369SOL    HW2 4788   0.700   2.583   1.038
 1370SOL     OW 4789   1.732   2.822   1.850
 1370SOL    HW1 4790   1.685   2.765   1.789
 1370SOL    HW2 4791   1.673   2.832   1.924
 1371SOL     OW 4792   0.308   1.933   0.620
 1371SOL    HW1 4793   0.287   2.021   0.649
 1371SOL    HW2 4794   0.302   1.879   0.699
 1372SOL     OW 4795   1.612   2.233   0.370
 1372SOL    HW1 4796   1.641   2.171   0.436
 1372SOL    HW2 4797   1.590   2.312   0.419
 1373SOL     OW 4798   1.027   2.622   0.962
 1373SOL    HW1 4799   1.027   2.640   1.057
 1373SOL    HW2 4800   1.000   2.530   0.955
 1374SOL     OW 4801   0.983   3.429   1.714
 1374SOL    HW1 4802   0.967   3.472   1.630
 1374SOL    HW2 4803   1.025   3.346   1.690
 1375SOL     OW 4804   1.856   3.372   1.606
 1375SOL    HW1 4805   1.873   3.397   1.515
 1375SOL    HW2 4806   1.938   3.393   1.652
 1376SOL     OW 4807   0.348   2.791   1.818
 1376SOL    HW1 4808   0.423   2.818   1.871
 1376SOL    HW2 4809   0.383   2.726   1.758
 1377SOL     OW 4810   1.536   2.146   0.119
 1377SOL    HW1 4811   1.475   2.074   0.137
 1377SOL    HW2 4812   1.567   2.174   0.205
 1378SOL     OW 4813   1.290   2.688   0.034
 1378SOL    HW1 4814   1.334   2.604   0.045
 1378SOL    HW2 4815   1.323   2.720  11.049
 1379SOL     OW 4816   1.065   3.197   0.852
 1379SOL    HW1 4817   1.068   3.123   0.790
 1379SOL    HW2 4818   1.128   3.260   0.817
 1380SOL     OW 4819   0.316   2.675   0.950
 1380SOL    HW1 4820   0.410   2.692   0.946
 1380SOL    HW2 4821   0.310   2.584   0.981
 1381SOL     OW 4822   0.334   2.384   0.994
 1381SOL    HW1 4823   0.295   2.299   0.978
 1381SOL    HW2 4824   0.411   2.387   0.938
 1382SOL     OW 4825   1.135   2.241   1.679
 1382SOL    HW1 4826   1.089   2.296   1.743
 1382SOL    HW2 4827   1.223   2.277   1.675
 1383SOL     OW 4828   1.159   2.067   1.470
 1383SOL    HW1 4829   1.151   2.129   1.542
 1383SOL    HW2 4830   1.198   2.117   1.398
 1384SOL     OW 4831   4.495   3.186   0.197
 1384SOL    HW1 4832   4.401   3.203   0.187
 1384SOL    HW2 4833   0.001   3.095   0.224
 1385SOL     OW 4834   0.094   3.645   0.940
 1385SOL    HW1 4835   0.056   3.583   0.877
 1385SOL    HW2 4836   0.182   3.663   0.905
 1386SOL     OW 4837   0.499   3.435   0.906
 1386SOL    HW1 4838   0.568   3.497   0.930
 1386SOL    HW2 4839   0.544   3.370   0.852
 1387SOL     OW 4840   0.989   2.657   1.229
 1387SOL    HW1 4841   1.041   2.631   1.305
 1387SOL    HW2 4842   0.902   2.621   1.246
 1388SOL     OW 4843   0.037   2.423   1.106
 1388SOL    HW1 4844   0.119   2.386   1.074
 1388SOL    HW2 4845   0.029   2.388   1.195
 1389SOL     OW 4846   0.179   2.376   1.713
 1389SOL    HW1 4847   0.258   2.349   1.666
 1389SOL    HW2 4848   0.153   2.458   1.670
 1390SOL     OW 4849   1.375   2.804   1.660
 1390SOL    HW1 4850   1.396   2.897   1.660
 1390SOL    HW2 4851   1.374   2.780   1.567
 1391SOL     OW 4852   0.815   2.435   0.359
 1391SOL    HW1 4853   0.822   2.360   0.301
 1391SOL    HW2 4854   0.739   2.484   0.326
 1392SOL     OW 4855   1.642   2.464   1.191
 1392SOL    HW1 4856   1.632   2.401   1.262
 1392SOL    HW2 4857   1.729   2.447   1.156
 1393SOL     OW 4858   0.272   3.423   1.742
 1393SOL    HW1 4859   0.218   3.476   1.801
 1393SOL    HW2 4860   0.250   3.333   1.765
 1394SOL     OW 4861   0.685   2.319   1.265
 1394SOL    HW1 4862   0.644   2.240   1.229
 1394SOL    HW2 4863   0.690   2.379   1.191
 1395SOL     OW 4864   0.931   3.541   1.466
 1395SOL    HW1 4865   0.904   3.510   1.379
 1395SOL    HW2 4866   0.930   3.636   1.459
 1396SOL     OW 4867   0.476   2.348   0.186
 1396SOL    HW1 4868   0.532   2.423   0.207
 1396SOL    HW2 4869   0.389   2.386   0.172
 1397SOL     OW 4870   0.161   3.003   1.464
 1397SOL    HW1 4871   0.149   2.954   1.545
 1397SOL    HW2 4872   0.171   2.936   1.396
 1398SOL     OW 4873   1.330   2.912   1.225
 1398SOL    HW1 4874   1.354   2.849   1.157
 1398SOL    HW2 4875   1.257   2.961   1.188
 1399SOL     OW 4876   1.306   2.715   0.310
 1399SOL    HW1 4877   1.228   2.684   0.356
 1399SOL    HW2 4878   1.286   2.702   0.218
 1400SOL     OW 4879   1.767   3.609   1.148
 1400SOL    HW1 4880   1.828   3.635   1.078
 1400SOL    HW2 4881   1.744   3.519   1.128
 1401SOL     OW 4882   1.242   3.595   1.118
 1401SOL    HW1 4883   1.323   3.612   1.070
 1401SOL    HW2 4884   1.244   3.501   1.135
 1402SOL     OW 4885   0.069   3.051   1.047
 1402SOL    HW1 4886   0.074   3.086   1.136
 1402SOL    HW2 4887   0.011   3.112   1.001
 1403SOL     OW 4888   0.679   3.526   1.724
 1403SOL    HW1 4889   0.626   3.605   1.721
 1403SOL    HW2 4890   0.740   3.535   1.651
 1404SOL     OW 4891   0.916   1.954   0.113
 1404SOL    HW1 4892   0.968   1.920   0.040
 1404SOL    HW2 4893   0.952   1.910   0.191
 1405SOL     OW 4894   1.719   2.003   0.513
 1405SOL    HW1 4895   1.791   1.989   0.453
 1405SOL    HW2 4896   1.703   1.918   0.553
 1406SOL     OW 4897   1.389   3.430   0.483
 1406SOL    HW1 4898   1.451   3.460   0.416
 1406SOL    HW2 4899   1.344   3.509   0.510
 1407SOL     OW 4900   0.121   3.669   1.847
 1407SOL    HW1 4901   0.082   3.595   1.894
 1407SOL    HW2 4902   0.184   3.706   1.909
 1408SOL     OW 4903   1.277   2.786   0.671
 1408SOL    HW1 4904   1.350   2.724   0.675
 1408SOL    HW2 4905   1.310   2.860   0.619
 1409SOL     OW 4906   0.819   3.134   1.431
 1409SOL    HW1 4907   0.793   3.173   1.515
 1409SOL    HW2 4908   0.747   3.156   1.372
 1410SOL     OW 4909   0.676   3.479   0.164
 1410SOL    HW1 4910   0.680   3.489   0.069
 1410SOL    HW2 4911   0.618   3.403   0.178
 1411SOL     OW 4912   1.634   3.588   1.393
 1411SOL    HW1 4913   1.681   3.596   1.309
 1411SOL    HW2 4914   1.620   3.679   1.421
 1412SOL     OW 4915   1.845   2.044   0.966
 1412SOL    HW1 4916   1.878   1.958   0.940
 1412SOL    HW2 4917   1.758   2.049   0.927
 1413SOL     OW 4918   0.267   2.183   0.720
 1413SOL    HW1 4919   0.185   2.222   0.691
 1413SOL    HW2 4920   0.255   2.170   0.814
 1414SOL     OW 4921   1.221   3.466   0.049
 1414SOL    HW1 4922   1.208   3.374   0.071
 1414SOL    HW2 4923   1.154   3.485  11.084
 1415SOL     OW 4924   0.825   2.868   1.372
 1415SOL    HW1 4925   0.867   2.866   1.286
 1415SOL    HW2 4926   0.826   2.961   1.396
 1416SOL     OW 4927   0.914   2.770   0.283
 1416SOL    HW1 4928   0.982   2.808   0.227
 1416SOL    HW2 4929   0.960   2.702   0.333
 1417SOL     OW 4930   1.500   3.484   0.046
 1417SOL    HW1 4931   1.404   3.482   0.041
 1417SOL    HW2 4932   1.528   3.496  11.055
 1418SOL     OW 4933   0.373   3.166   1.491
 1418SOL    HW1 4934   0.356   3.245   1.440
 1418SOL    HW2 4935   0.297   3.110   1.475
 1419SOL     OW 4936   1.613   3.146   1.281
 1419SOL    HW1 4937   1.670   3.138   1.357
 1419SOL    HW2 4938   1.551   3.215   1.305
 1420SOL     OW 4939   1.047   2.967   0.704
 1420SOL    HW1 4940   0.978   2.915   0.745
 1420SOL    HW2 4941   1.109   2.902   0.670
 1421SOL     OW 4942   1.019   2.102   0.966
 1421SOL    HW1 4943   1.014   2.054   0.883
 1421SOL    HW2 4944   1.014   2.034   1.033
 1422SOL     OW 4945   0.602   3.353   0.484
 1422SOL    HW1 4946   0.638   3.301   0.412
 1422SOL    HW2 4947   0.532   3.404   0.444
 1423SOL     OW 4948   1.716   2.255   1.379
 1423SOL    HW1 4949   1.791   2.315   1.381
 1423SOL    HW2 4950   1.746   2.181   1.327
 1424SOL     OW 4951   0.261   3.195   0.284
 1424SOL    HW1 4952   0.172   3.209   0.249
 1424SOL    HW2 4953   0.258   3.235   0.371
 1425SOL     OW 4954   0.118   2.870   1.696
 1425SOL    HW1 4955   0.051   2.905   1.756
 1425SOL    HW2 4956   0.195   2.857   1.751
 1426SOL     OW 4957   0.672   2.061   1.498
 1426SOL    HW1 4958   0.755   2.041   1.455
 1426SOL    HW2 4959   0.696   2.086   1.587
 1427SOL     OW 4960   0.061   2.201   0.007
 1427SOL    HW1 4961   4.469   2.196   0.036
 1427SOL    HW2 4962   0.081   2.295   0.009
 1428SOL     OW 4963   1.433   2.721   1.402
 1428SOL    HW1 4964   1.384   2.780   1.344
 1428SOL    HW2 4965   1.523   2.724   1.369
 1429SOL     OW 4966   0.079   2.035   0.307
 1429SOL    HW1 4967   0.082   2.115   0.254
 1429SOL    HW2 4968   0.154   1.984   0.280
 1430SOL     OW 4969   1.181   3.205   0.121
 1430SOL    HW1 4970   1.088   3.181   0.118
 1430SOL    HW2 4971   1.204   3.198   0.214
 1431SOL     OW 4972   0.620   2.694   1.428
 1431SOL    HW1 4973   0.675   2.771   1.416
 1431SOL    HW2 4974   0.682   2.621   1.438
 1432SOL     OW 4975   1.485   3.636   0.974
 1432SOL    HW1 4976   1.512   3.692   0.902
 1432SOL    HW2 4977   1.566   3.621   1.024
 1433SOL     OW 4978   0.716   2.425   1.705
 1433SOL    HW1 4979   0.749   2.490   1.766
 1433SOL    HW2 4980   0.755   2.343   1.735
 1434SOL     OW 4981   1.468   3.066   1.633
 1434SOL    HW1 4982   1.456   3.078   1.728
 1434SOL    HW2 4983   1.562   3.077   1.619
 1435SOL     OW 4984   0.383   3.604   1.563
 1435SOL    HW1 4985   0.297   3.644   1.549
 1435SOL    HW2 4986   0.365   3.522   1.609
 1436SOL     OW 4987   1.673   2.744   1.255
 1436SOL    HW1 4988   1.662   2.659   1.214
 1436SOL    HW2 4989   1.663   2.807   1.184
 1437SOL     OW 4990   1.218   2.180   0.458
 1437SOL    HW1 4991   1.283   2.111   0.448
 1437SOL    HW2 4992   1.247   2.229   0.536
 1438SOL     OW 4993   0.591   2.602   0.666
 1438SOL    HW1 4994   0.630   2.688   0.650
 1438SOL    HW2 4995   0.520   2.595   0.603
 1439SOL     OW 4996   1.755   2.233   1.656
 1439SOL    HW1 4997   1.755   2.232   1.561
 1439SOL    HW2 4998   1.688   2.170   1.681
 1440SOL     OW 4999   1.743   2.796   1.513
 1440SOL    HW1 5000   1.746   2.890   1.525
 1440SOL    HW2 5001   1.728   2.785   1.419
 1441SOL     OW 5002   0.894   3.221   0.058
 1441SOL    HW1 5003   0.825   3.225   0.124
 1441SOL    HW2 5004   0.890   3.305   0.013
 1442SOL     OW 5005   0.659   3.656   0.950
 1442SOL    HW1 5006   0.636   3.745   0.923
 1442SOL    HW2 5007   0.754   3.652   0.939
 1443SOL     OW 5008   0.866   2.827   0.856
 1443SOL    HW1 5009   0.916   2.756   0.897
 1443SOL    HW2 5010   0.833   2.879   0.929
 1444SOL     OW 5011   1.080   2.852   0.086
 1444SOL    HW1 5012   1.057   2.887   0.000
 1444SOL    HW2 5013   1.157   2.797   0.070
 1445SOL     OW 5014   1.857   3.419   0.846
 1445SOL    HW1 5015   1.781   3.408   0.789
 1445SOL    HW2 5016   1.847   3.350   0.912
 1446SOL     OW 5017   0.228   3.169   1.856
 1446SOL    HW1 5018   0.159   3.107   1.831
 1446SOL    HW2 5019   0.217   3.179   1.950
 1447SOL     OW 5020   0.099   3.100   0.666
 1447SOL    HW1 5021   0.105   3.049   0.747
 1447SOL    HW2 5022   0.164   3.060   0.608
 1448SOL     OW 5023   0.680   3.262   1.626
 1448SOL    HW1 5024   0.600   3.218   1.654
 1448SOL    HW2 5025   0.673   3.350   1.663
 1449SOL     OW 5026   1.806   2.054   1.232
 1449SOL    HW1 5027   1.838   1.969   1.261
 1449SOL    HW2 5028   1.822   2.054   1.137
 1450SOL     OW 5029   0.433   2.296   0.525
 1450SOL    HW1 5030   0.460   2.223   0.469
 1450SOL    HW2 5031   0.384   2.254   0.596
 1451SOL     OW 5032   1.701   3.353   1.101
 1451SOL    HW1 5033   1.620   3.327   1.057
 1451SOL    HW2 5034   1.716   3.285   1.167
 1452SOL     OW 5035   0.306   2.352   1.258
 1452SOL    HW1 5036   0.380   2.312   1.304
 1452SOL    HW2 5037   0.339   2.365   1.169
 1453SOL     OW 5038   0.825   3.440   0.680
 1453SOL    HW1 5039   0.819   3.483   0.595
 1453SOL    HW2 5040   0.746   3.386   0.685
 1454SOL     OW 5041   1.432   2.085   1.118
 1454SOL    HW1 5042   1.467   2.010   1.167
 1454SOL    HW2 5043   1.380   2.133   1.182
 1455SOL     OW 5044   1.008   1.883   1.146
 1455SOL    HW1 5045   0.953   1.814   1.108
 1455SOL    HW2 5046   1.096   1.846   1.148
 1456SOL     OW 5047   0.768   3.191   0.312
 1456SOL    HW1 5048   0.736   3.101   0.324
 1456SOL    HW2 5049   0.853   3.193   0.355
 1457SOL     OW 5050   0.621   3.421   1.284
 1457SOL    HW1 5051   0.624   3.502   1.335
 1457SOL    HW2 5052   0.708   3.414   1.245
 1458SOL     OW 5053   1.351   1.915   0.165
 1458SOL    HW1 5054   1.373   1.867   0.084
 1458SOL    HW2 5055   1.265   1.881   0.189
 1459SOL     OW 5056   1.297   2.322   0.683
 1459SOL    HW1 5057   1.243   2.400   0.692
 1459SOL    HW2 5058   1.295   2.281   0.770
 1460SOL     OW 5059   1.588   2.066   0.877
 1460SOL    HW1 5060   1.524   2.084   0.945
 1460SOL    HW2 5061   1.588   2.145   0.823
 1461SOL     OW 5062   0.039   2.911   0.282
 1461SOL    HW1 5063   0.135   2.913   0.286
 1461SOL    HW2 5064   0.012   2.873   0.366
 1462SOL     OW 5065   0.882   3.512   0.347
 1462SOL    HW1 5066   0.811   3.491   0.286
 1462SOL    HW2 5067   0.849   3.587   0.397
 1463SOL     OW 5068   0.248   2.489   1.980
 1463SOL    HW1 5069   0.172   2.476   2.036
 1463SOL    HW2 5070   0.217   2.467   1.892
 1464SOL     OW 5071   0.213   2.138   2.854
 1464SOL    HW1 5072   0.250   2.112   2.938
 1464SOL    HW2 5073   0.137   2.081   2.842
 1465SOL     OW 5074   0.010   2.248   2.501
 1465SOL    HW1 5075   4.430   2.278   2.544
 1465SOL    HW2 5076   4.484   2.168   2.455
 1466SOL     OW 5077   0.567   3.143   3.034
 1466SOL    HW1 5078   0.479   3.147   2.996
 1466SOL    HW2 5079   0.582   3.231   3.069
 1467SOL     OW 5080   1.557   3.373   2.567
 1467SOL    HW1 5081   1.512   3.356   2.650
 1467SOL    HW2 5082   1.486   3.379   2.503
 1468SOL     OW 5083   1.129   2.561   2.567
 1468SOL    HW1 5084   1.180   2.641   2.552
 1468SOL    HW2 5085   1.082   2.577   2.649
 1469SOL     OW 5086   1.766   2.469   2.092
 1469SOL    HW1 5087   1.745   2.460   1.999
 1469SOL    HW2 5088   1.729   2.390   2.133
 1470SOL     OW 5089   0.760   3.007   2.899
 1470SOL    HW1 5090   0.689   3.040   2.955
 1470SOL    HW2 5091   0.793   3.085   2.854
 1471SOL     OW 5092   0.862   2.643   3.683
 1471SOL    HW1 5093   0.849   2.715   3.745
 1471SOL    HW2 5094   0.885   2.686   3.600
 1472SOL     OW 5095   0.686   2.870   2.512
 1472SOL    HW1 5096   0.750   2.854   2.581
 1472SOL    HW2 5097   0.616   2.919   2.554
 1473SOL     OW 5098   0.707   3.014   3.671
 1473SOL    HW1 5099   0.755   3.094   3.694
 1473SOL    HW2 5100   0.623   3.045   3.637
 1474SOL     OW 5101   0.337   3.286   2.932
 1474SOL    HW1 5102   0.256   3.266   2.885
 1474SOL    HW2 5103   0.387   3.341   2.871
 1475SOL     OW 5104   1.462   3.360   3.212
 1475SOL    HW1 5105   1.504   3.445   3.223
 1475SOL    HW2 5106   1.408   3.349   3.290
 1476SOL     OW 5107   0.442   2.266   3.358
 1476SOL    HW1 5108   0.522   2.213   3.360
 1476SOL    HW2 5109   0.371   2.202   3.361
 1477SOL     OW 5110   1.611   2.312   2.603
 1477SOL    HW1 5111   1.536   2.339   2.550
 1477SOL    HW2 5112   1.636   2.391   2.651
 1478SOL     OW 5113   0.246   3.554   2.342
 1478SOL    HW1 5114   0.234   3.638   2.385
 1478SOL    HW2 5115   0.305   3.572   2.269
 1479SOL     OW 5116   1.136   3.203   3.553
 1479SOL    HW1 5117   1.175   3.200   3.640
 1479SOL    HW2 5118   1.082   3.123   3.547
 1480SOL     OW 5119   0.243   3.290   2.390
 1480SOL    HW1 5120   0.236   3.385   2.396
 1480SOL    HW2 5121   0.178   3.257   2.453
 1481SOL     OW 5122   0.244   2.943   2.744
 1481SOL    HW1 5123   0.262   2.856   2.780
 1481SOL    HW2 5124   0.188   2.984   2.810
 1482SOL     OW 5125   0.617   3.652   3.295
 1482SOL    HW1 5126   0.533   3.635   3.337
 1482SOL    HW2 5127   0.637   3.743   3.319
 1483SOL     OW 5128   0.585   2.844   1.996
 1483SOL    HW1 5129   0.629   2.893   1.926
 1483SOL    HW2 5130   0.631   2.871   2.076
 1484SOL     OW 5131   1.590   1.981   3.333
 1484SOL    HW1 5132   1.598   2.057   3.276
 1484SOL    HW2 5133   1.585   2.017   3.422
 1485SOL     OW 5134   0.137   2.505   2.437
 1485SOL    HW1 5135   0.085   2.425   2.449
 1485SOL    HW2 5136   0.106   2.564   2.506
 1486SOL     OW 5137   1.841   3.624   2.199
 1486SOL    HW1 5138   1.900   3.594   2.269
 1486SOL    HW2 5139   1.869   3.713   2.181
 1487SOL     OW 5140   0.033   3.462   1.997
 1487SOL    HW1 5141   0.021   3.367   2.000
 1487SOL    HW2 5142   0.008   3.493   2.084
 1488SOL     OW 5143   1.691   2.782   2.499
 1488SOL    HW1 5144   1.775   2.740   2.480
 1488SOL    HW2 5145   1.670   2.831   2.420
 1489SOL     OW 5146   1.644   2.970   2.292
 1489SOL    HW1 5147   1.729   2.979   2.249
 1489SOL    HW2 5148   1.649   3.030   2.366
 1490SOL     OW 5149   0.110   2.620   3.452
 1490SOL    HW1 5150   0.205   2.621   3.441
 1490SOL    HW2 5151   0.085   2.713   3.453
 1491SOL     OW 5152   0.613   3.243   2.597
 1491SOL    HW1 5153   0.566   3.160   2.606
 1491SOL    HW2 5154   0.596   3.271   2.507
 1492SOL     OW 5155   1.291   3.101   3.286
 1492SOL    HW1 5156   1.323   3.033   3.227
 1492SOL    HW2 5157   1.346   3.093   3.364
 1493SOL     OW 5158   0.812   1.860   2.367
 1493SOL    HW1 5159   0.853   1.946   2.352
 1493SOL    HW2 5160   0.719   1.879   2.378
 1494SOL     OW 5161   0.184   2.808   3.141
 1494SOL    HW1 5162   0.275   2.789   3.117
 1494SOL    HW2 5163   0.133   2.780   3.065
 1495SOL     OW 5164   1.532   2.853   2.058
 1495SOL    HW1 5165   1.462   2.795   2.086
 1495SOL    HW2 5166   1.570   2.886   2.139
 1496SOL     OW 5167   1.186   3.665   3.482
 1496SOL    HW1 5168   1.201   3.722   3.406
 1496SOL    HW2 5169   1.200   3.577   3.449
 1497SOL     OW 5170   0.328   2.117   3.657
 1497SOL    HW1 5171   0.381   2.190   3.689
 1497SOL    HW2 5172   0.243   2.129   3.700
 1498SOL     OW 5173   1.466   3.281   2.816
 1498SOL    HW1 5174   1.397   3.295   2.881
 1498SOL    HW2 5175   1.454   3.191   2.788
 1499SOL     OW 5176   1.662   3.594   2.439
 1499SOL    HW1 5177   1.638   3.566   2.351
 1499SOL    HW2 5178   1.635   3.521   2.495
 1500SOL     OW 5179   0.597   2.585   2.126
 1500SOL    HW1 5180   0.603   2.664   2.073
 1500SOL    HW2 5181   0.531   2.605   2.192
 1501SOL     OW 5182   1.279   2.210   2.795
 1501SOL    HW1 5183   1.190   2.176   2.802
 1501SOL    HW2 5184   1.330   2.158   2.857
 1502SOL     OW 5185   1.582   3.530   2.171
 1502SOL    HW1 5186   1.670   3.565   2.165
 1502SOL    HW2 5187   1.557   3.512   2.080
 1503SOL     OW 5188   0.795   2.478   3.315
 1503SOL    HW1 5189   0.768   2.456   3.404
 1503SOL    HW2 5190   0.750   2.414   3.260
 1504SOL     OW 5191   1.394   2.336   3.539
 1504SOL    HW1 5192   1.394   2.379   3.625
 1504SOL    HW2 5193   1.458   2.265   3.548
 1505SOL     OW 5194   0.959   2.751   3.442
 1505SOL    HW1 5195   1.012   2.679   3.408
 1505SOL    HW2 5196   0.911   2.784   3.366
 1506SOL     OW 5197   0.993   2.276   3.102
 1506SOL    HW1 5198   0.910   2.299   3.144
 1506SOL    HW2 5199   0.967   2.227   3.024
 1507SOL     OW 5200   1.049   2.561   2.289
 1507SOL    HW1 5201   1.064   2.554   2.383
 1507SOL    HW2 5202   0.968   2.513   2.274
 1508SOL     OW 5203   0.098   2.685   2.645
 1508SOL    HW1 5204   0.184   2.664   2.681
 1508SOL    HW2 5205   0.055   2.735   2.714
 1509SOL     OW 5206   0.127   3.711   3.437
 1509SOL    HW1 5207   0.119   3.689   3.530
 1509SOL    HW2 5208   0.044   3.682   3.399
 1510SOL     OW 5209   0.885   2.208   2.056
 1510SOL    HW1 5210   0.930   2.269   1.997
 1510SOL    HW2 5211   0.905   2.121   2.020
 1511SOL     OW 5212   1.712   2.442   3.691
 1511SOL    HW1 5213   1.675   2.518   3.645
 1511SOL    HW2 5214   1.731   2.379   3.622
 1512SOL     OW 5215   1.375   3.005   2.405
 1512SOL    HW1 5216   1.452   2.989   2.351
 1512SOL    HW2 5217   1.322   3.067   2.354
 1513SOL     OW 5218   0.550   2.047   2.754
 1513SOL    HW1 5219   0.553   2.074   2.846
 1513SOL    HW2 5220   0.552   2.129   2.705
 1514SOL     OW 5221   1.009   3.308   2.336
 1514SOL    HW1 5222   0.968   3.379   2.287
 1514SOL    HW2 5223   0.994   3.331   2.428
 1515SOL     OW 5224   0.354   3.669   2.718
 1515SOL    HW1 5225   0.397   3.584   2.728
 1515SOL    HW2 5226   0.424   3.733   2.730
 1516SOL     OW 5227   1.799   2.922   2.729
 1516SOL    HW1 5228   1.742   2.905   2.653
 1516SOL    HW2 5229   1.739   2.927   2.803
 1517SOL     OW 5230   1.228   3.402   3.374
 1517SOL    HW1 5231   1.214   3.329   3.434
 1517SOL    HW2 5232   1.167   3.385   3.302
 1518SOL     OW 5233   0.318   2.816   2.110
 1518SOL    HW1 5234   0.402   2.838   2.071
 1518SOL    HW2 5235   0.299   2.727   2.080
 1519SOL     OW 5236   1.475   2.600   2.590
 1519SOL    HW1 5237   1.463   2.554   2.672
 1519SOL    HW2 5238   1.552   2.656   2.605
 1520SOL     OW 5239   0.465   3.123   3.597
 1520SOL    HW1 5240   0.437   3.129   3.506
 1520SOL    HW2 5241   0.384   3.128   3.648
 1521SOL     OW 5242   1.120   3.639   2.094
 1521SOL    HW1 5243   1.049   3.595   2.141
 1521SOL    HW2 5244   1.141   3.580   2.022
 1522SOL     OW 5245   0.195   2.140   3.350
 1522SOL    HW1 5246   0.131   2.211   3.354
 1522SOL    HW2 5247   0.186   2.095   3.434
 1523SOL     OW 5248   1.630   3.241   1.949
 1523SOL    HW1 5249   1.588   3.326   1.933
 1523SOL    HW2 5250   1.560   3.177   1.930
 1524SOL     OW 5251   0.469   3.607   2.176
 1524SOL    HW1 5252   0.508   3.658   2.247
 1524SOL    HW2 5253   0.544   3.575   2.126
 1525SOL     OW 5254   1.401   1.970   2.292
 1525SOL    HW1 5255   1.389   1.944   2.200
 1525SOL    HW2 5256   1.495   1.978   2.302
 1526SOL     OW 5257   0.260   3.656   3.096
 1526SOL    HW1 5258   0.306   3.583   3.137
 1526SOL    HW2 5259   0.229   3.621   3.013
 1527SOL     OW 5260   0.939   3.560   2.762
 1527SOL    HW1 5261   1.015   3.506   2.783
 1527SOL    HW2 5262   0.892   3.512   2.694
 1528SOL     OW 5263   0.392   2.558   2.337
 1528SOL    HW1 5264   0.417   2.466   2.346
 1528SOL    HW2 5265   0.300   2.560   2.363
 1529SOL     OW 5266   1.539   2.089   3.589
 1529SOL    HW1 5267   1.544   2.109   3.682
 1529SOL    HW2 5268   1.472   2.020   3.583
 1530SOL     OW 5269   0.628   1.989   1.968
 1530SOL    HW1 5270   0.704   1.931   1.981
 1530SOL    HW2 5271   0.585   1.954   1.890
 1531SOL     OW 5272   0.769   2.137   3.614
 1531SOL    HW1 5273   0.841   2.075   3.622
 1531SOL    HW2 5274   0.718   2.125   3.694
 1532SOL     OW 5275   0.878   3.383   3.055
 1532SOL    HW1 5276   0.862   3.347   2.968
 1532SOL    HW2 5277   0.946   3.327   3.092
 1533SOL     OW 5278   1.342   2.451   3.294
 1533SOL    HW1 5279   1.372   2.418   3.378
 1533SOL    HW2 5280   1.378   2.539   3.288
 1534SOL     OW 5281   0.813   3.261   2.797
 1534SOL    HW1 5282   0.896   3.251   2.752
 1534SOL    HW2 5283   0.747   3.258   2.728
 1535SOL     OW 5284   0.926   2.371   2.766
 1535SOL    HW1 5285   0.904   2.363   2.674
 1535SOL    HW2 5286   0.960   2.285   2.790
 1536SOL     OW 5287   0.550   1.924   2.367
 1536SOL    HW1 5288   0.469   1.923   2.418
 1536SOL    HW2 5289   0.543   2.003   2.313
 1537SOL     OW 5290   1.429   3.060   1.903
 1537SOL    HW1 5291   1.460   2.984   1.953
 1537SOL    HW2 5292   1.342   3.079   1.940
 1538SOL     OW 5293   0.295   1.908   2.040
 1538SOL    HW1 5294   0.356   1.976   2.013
 1538SOL    HW2 5295   0.349   1.842   2.084
 1539SOL     OW 5296   0.936   2.105   2.327
 1539SOL    HW1 5297   0.906   2.149   2.246
 1539SOL    HW2 5298   1.031   2.117   2.327
 1540SOL     OW 5299   1.080   2.541   3.322
 1540SOL    HW1 5300   1.009   2.477   3.328
 1540SOL    HW2 5301   1.159   2.489   3.314
 1541SOL     OW 5302   1.225   3.431   2.655
 1541SOL    HW1 5303   1.243   3.499   2.591
 1541SOL    HW2 5304   1.293   3.443   2.722
 1542SOL     OW 5305   0.465   3.009   2.600
 1542SOL    HW1 5306   0.393   2.991   2.660
 1542SOL    HW2 5307   0.428   2.993   2.513
 1543SOL     OW 5308   1.272   3.657   2.467
 1543SOL    HW1 5309   1.315   3.718   2.408
 1543SOL    HW2 5310   1.207   3.710   2.514
 1544SOL     OW 5311   1.026   2.408   1.881
 1544SOL    HW1 5312   0.984   2.491   1.860
 1544SOL    HW2 5313   1.090   2.429   1.949
 1545SOL     OW 5314   0.080   2.396   3.268
 1545SOL    HW1 5315   0.150   2.398   3.203
 1545SOL    HW2 5316   0.068   2.488   3.293
 1546SOL     OW 5317   0.562   2.089   3.026
 1546SOL    HW1 5318   0.601   2.008   3.058
 1546SOL    HW2 5319   0.470   2.084   3.053
 1547SOL     OW 5320   0.870   2.322   2.502
 1547SOL    HW1 5321   0.823   2.375   2.439
 1547SOL    HW2 5322   0.889   2.240   2.455
 1548SOL     OW 5323   1.014   1.914   2.616
 1548SOL    HW1 5324   0.955   1.906   2.541
 1548SOL    HW2 5325   0.994   1.838   2.670
 1549SOL     OW 5326   1.436   3.026   2.720
 1549SOL    HW1 5327   1.368   2.958   2.718
 1549SOL    HW2 5328   1.457   3.040   2.628
 1550SOL     OW 5329   1.467   2.464   2.845
 1550SOL    HW1 5330   1.421   2.381   2.848
 1550SOL    HW2 5331   1.528   2.460   2.918
 1551SOL     OW 5332   1.849   2.681   2.244
 1551SOL    HW1 5333   1.903   2.627   2.302
 1551SOL    HW2 5334   1.820   2.620   2.176
 1552SOL     OW 5335   0.493   3.275   2.025
 1552SOL    HW1 5336   0.416   3.245   2.074
 1552SOL    HW2 5337   0.470   3.257   1.933
 1553SOL     OW 5338   1.668   3.128   2.511
 1553SOL    HW1 5339   1.763   3.134   2.523
 1553SOL    HW2 5340   1.635   3.215   2.532
 1554SOL     OW 5341   1.394   2.434   1.933
 1554SOL    HW1 5342   1.334   2.415   2.006
 1554SOL    HW2 5343   1.478   2.400   1.963
 1555SOL     OW 5344   0.525   2.123   2.183
 1555SOL    HW1 5345   0.566   2.074   2.112
 1555SOL    HW2 5346   0.509   2.210   2.147
 1556SOL     OW 5347   1.754   3.098   3.438
 1556SOL    HW1 5348   1.841   3.058   3.437
 1556SOL    HW2 5349   1.768   3.187   3.469
 1557SOL     OW 5350   1.061   3.216   3.197
 1557SOL    HW1 5351   0.986   3.185   3.248
 1557SOL    HW2 5352   1.137   3.174   3.238
 1558SOL     OW 5353   1.605   3.487   3.513
 1558SOL    HW1 5354   1.603   3.521   3.423
 1558SOL    HW2 5355   1.689   3.441   3.519
 1559SOL     OW 5356   1.125   3.063   2.969
 1559SOL    HW1 5357   1.067   3.101   3.035
 1559SOL    HW2 5358   1.090   3.093   2.886
 1560SOL     OW 5359   1.632   2.963   2.940
 1560SOL    HW1 5360   1.627   3.025   3.013
 1560SOL    HW2 5361   1.551   2.976   2.892
 1561SOL     OW 5362   0.917   1.961   3.261
 1561SOL    HW1 5363   0.940   1.941   3.171
 1561SOL    HW2 5364   0.997   2.000   3.298
 1562SOL     OW 5365   0.984   2.976   3.584
 1562SOL    HW1 5366   0.891   2.991   3.603
 1562SOL    HW2 5367   0.985   2.899   3.528
 1563SOL     OW 5368   0.708   2.922   2.235
 1563SOL    HW1 5369   0.695   2.908   2.329
 1563SOL    HW2 5370   0.784   2.869   2.213
 1564SOL     OW 5371   0.429   2.683   3.100
 1564SOL    HW1 5372   0.497   2.696   3.166
 1564SOL    HW2 5373   0.369   2.619   3.139
 1565SOL     OW 5374   1.268   2.241   3.134
 1565SOL    HW1 5375   1.299   2.318   3.181
 1565SOL    HW2 5376   1.179   2.263   3.108
 1566SOL     OW 5377   0.061   3.437   3.199
 1566SOL    HW1 5378   0.032   3.525   3.177
 1566SOL    HW2 5379   0.156   3.444   3.208
 1567SOL     OW 5380   0.352   2.968   2.356
 1567SOL    HW1 5381   0.359   3.041   2.295
 1567SOL    HW2 5382   0.354   2.890   2.300
 1568SOL     OW 5383   0.562   2.397   2.720
 1568SOL    HW1 5384   0.576   2.457   2.646
 1568SOL    HW2 5385   0.620   2.430   2.788
 1569SOL     OW 5386   1.248   3.210   2.252
 1569SOL    HW1 5387   1.303   3.282   2.282
 1569SOL    HW2 5388   1.161   3.230   2.285
 1570SOL     OW 5389   1.276   3.317   3.007
 1570SOL    HW1 5390   1.330   3.319   3.086
 1570SOL    HW2 5391   1.221   3.240   3.018
 1571SOL     OW 5392   1.582   2.488   2.337
 1571SOL    HW1 5393   1.539   2.544   2.401
 1571SOL    HW2 5394   1.629   2.548   2.280
 1572SOL     OW 5395   0.348   3.390   3.180
 1572SOL    HW1 5396   0.333   3.343   3.098
 1572SOL    HW2 5397   0.443   3.400   3.185
 1573SOL     OW 5398   0.471   2.621   3.521
 1573SOL    HW1 5399   0.501   2.661   3.439
 1573SOL    HW2 5400   0.502   2.531   3.516
 1574SOL     OW 5401   1.597   2.640   3.542
 1574SOL    HW1 5402   1.511   2.679   3.533
 1574SOL    HW2 5403   1.649   2.682   3.473
 1575SOL     OW 5404   0.997   1.979   3.619
 1575SOL    HW1 5405   1.047   2.053   3.585
 1575SOL    HW2 5406   1.046   1.901   3.592
 1576SOL     OW 5407   0.498   1.907   3.607
 1576SOL    HW1 5408   0.459   1.850   3.541
 1576SOL    HW2 5409   0.436   1.979   3.617
 1577SOL     OW 5410   0.588   2.735   2.886
 1577SOL    HW1 5411   0.615   2.826   2.888
 1577SOL    HW2 5412   0.531   2.726   2.962
 1578SOL     OW 5413   1.361   2.721   2.896
 1578SOL    HW1 5414   1.280   2.715   2.845
 1578SOL    HW2 5415   1.397   2.633   2.894
 1579SOL     OW 5416   1.208   2.391   2.132
 1579SOL    HW1 5417   1.215   2.313   2.186
 1579SOL    HW2 5418   1.166   2.455   2.189
 1580SOL     OW 5419   0.303   2.057   3.103
 1580SOL    HW1 5420   0.265   2.091   3.184
 1580SOL    HW2 5421   0.285   1.963   3.106
 1581SOL     OW 5422   0.048   3.174   3.145
 1581SOL    HW1 5423   0.078   3.128   3.224
 1581SOL    HW2 5424   0.050   3.267   3.170
 1582SOL     OW 5425   0.727   2.495   2.923
 1582SOL    HW1 5426   0.799   2.475   2.863
 1582SOL    HW2 5427   0.700   2.583   2.900
 1583SOL     OW 5428   1.732   2.822   3.712
 1583SOL    HW1 5429   1.686   2.765   3.651
 1583SOL    HW2 5430   1.672   2.833   3.786
 1584SOL     OW 5431   0.307   1.932   2.481
 1584SOL    HW1 5432   0.287   2.021   2.511
 1584SOL    HW2 5433   0.303   1.879   2.561
 1585SOL     OW 5434   1.613   2.233   2.232
 1585SOL    HW1 5435   1.640   2.171   2.299
 1585SOL    HW2 5436   1.590   2.313   2.281
 1586SOL     OW 5437   1.027   2.622   2.825
 1586SOL    HW1 5438   1.027   2.640   2.919
 1586SOL    HW2 5439   1.000   2.530   2.817
 1587SOL     OW 5440   0.983   3.429   3.576
 1587SOL    HW1 5441   0.967   3.473   3.492
 1587SOL    HW2 5442   1.025   3.346   3.552
 1588SOL     OW 5443   1.856   3.372   3.468
 1588SOL    HW1 5444   1.872   3.397   3.377
 1588SOL    HW2 5445   1.938   3.393   3.514
 1589SOL     OW 5446   0.348   2.791   3.680
 1589SOL    HW1 5447   0.423   2.818   3.733
 1589SOL    HW2 5448   0.383   2.726   3.620
 1590SOL     OW 5449   1.531   2.136   1.990
 1590SOL    HW1 5450   1.467   2.070   2.016
 1590SOL    HW2 5451   1.563   2.172   2.072
 1591SOL     OW 5452   1.295   2.690   1.896
 1591SOL    HW1 5453   1.337   2.604   1.899
 1591SOL    HW2 5454   1.325   2.728   1.813
 1592SOL     OW 5455   1.065   3.197   2.714
 1592SOL    HW1 5456   1.067   3.123   2.653
 1592SOL    HW2 5457   1.128   3.260   2.679
 1593SOL     OW 5458   0.316   2.675   2.813
 1593SOL    HW1 5459   0.410   2.692   2.808
 1593SOL    HW2 5460   0.310   2.584   2.843
 1594SOL     OW 5461   0.334   2.384   2.856
 1594SOL    HW1 5462   0.295   2.299   2.840
 1594SOL    HW2 5463   0.411   2.387   2.800
 1595SOL     OW 5464   1.135   2.241   3.541
 1595SOL    HW1 5465   1.089   2.296   3.605
 1595SOL    HW2 5466   1.223   2.277   3.537
 1596SOL     OW 5467   1.159   2.067   3.332
 1596SOL    HW1 5468   1.151   2.129   3.404
 1596SOL    HW2 5469   1.198   2.117   3.260
 1597SOL     OW 5470   4.492   3.185   2.062
 1597SOL    HW1 5471   4.399   3.199   2.045
 1597SOL    HW2 5472   4.499   3.093   2.087
 1598SOL     OW 5473   0.094   3.644   2.802
 1598SOL    HW1 5474   0.056   3.583   2.739
 1598SOL    HW2 5475   0.182   3.663   2.767
 1599SOL     OW 5476   0.499   3.435   2.768
 1599SOL    HW1 5477   0.568   3.497   2.792
 1599SOL    HW2 5478   0.544   3.369   2.714
 1600SOL     OW 5479   0.989   2.657   3.091
 1600SOL    HW1 5480   1.041   2.631   3.167
 1600SOL    HW2 5481   0.902   2.621   3.107
 1601SOL     OW 5482   0.037   2.423   2.969
 1601SOL    HW1 5483   0.119   2.386   2.936
 1601SOL    HW2 5484   0.029   2.388   3.057
 1602SOL     OW 5485   0.179   2.376   3.575
 1602SOL    HW1 5486   0.258   2.349   3.528
 1602SOL    HW2 5487   0.153   2.458   3.532
 1603SOL     OW 5488   1.375   2.804   3.522
 1603SOL    HW1 5489   1.396   2.897   3.522
 1603SOL    HW2 5490   1.374   2.780   3.429
 1604SOL     OW 5491   0.816   2.431   2.216
 1604SOL    HW1 5492   0.818   2.355   2.157
 1604SOL    HW2 5493   0.741   2.482   2.186
 1605SOL     OW 5494   1.646   2.464   3.051
 1605SOL    HW1 5495   1.635   2.402   3.123
 1605SOL    HW2 5496   1.733   2.445   3.016
 1606SOL     OW 5497   0.272   3.423   3.604
 1606SOL    HW1 5498   0.218   3.476   3.663
 1606SOL    HW2 5499   0.250   3.333   3.627
 1607SOL     OW 5500   0.685   2.319   3.127
 1607SOL    HW1 5501   0.644   2.240   3.091
 1607SOL    HW2 5502   0.690   2.379   3.053
 1608SOL     OW 5503   0.932   3.541   3.328
 1608SOL    HW1 5504   0.903   3.510   3.241
 1608SOL    HW2 5505   0.930   3.636   3.321
 1609SOL     OW 5506   0.473   2.353   2.051
 1609SOL    HW1 5507   0.531   2.426   2.071
 1609SOL    HW2 5508   0.387   2.393   2.037
 1610SOL     OW 5509   0.161   3.003   3.326
 1610SOL    HW1 5510   0.149   2.954   3.407
 1610SOL    HW2 5511   0.171   2.936   3.258
 1611SOL     OW 5512   1.330   2.912   3.087
 1611SOL    HW1 5513   1.354   2.849   3.019
 1611SOL    HW2 5514   1.257   2.961   3.050
 1612SOL     OW 5515   1.308   2.718   2.170
 1612SOL    HW1 5516   1.231   2.688   2.217
 1612SOL    HW2 5517   1.286   2.705   2.078
 1613SOL     OW 5518   1.767   3.609   3.010
 1613SOL    HW1 5519   1.828   3.635   2.940
 1613SOL    HW2 5520   1.744   3.519   2.990
 1614SOL     OW 5521   1.242   3.595   2.980
 1614SOL    HW1 5522   1.323   3.612   2.932
 1614SOL    HW2 5523   1.244   3.501   2.997
 1615SOL     OW 5524   0.069   3.052   2.909
 1615SOL    HW1 5525   0.074   3.086   2.998
 1615SOL    HW2 5526   0.010   3.111   2.863
 1616SOL     OW 5527   0.679   3.526   3.586
 1616SOL    HW1 5528   0.626   3.605   3.583
 1616SOL    HW2 5529   0.740   3.535   3.513
 1617SOL     OW 5530   1.719   2.003   2.376
 1617SOL    HW1 5531   1.790   1.986   2.315
 1617SOL    HW2 5532   1.701   1.917   2.416
 1618SOL     OW 5533   1.390   3.430   2.345
 1618SOL    HW1 5534   1.450   3.460   2.277
 1618SOL    HW2 5535   1.343   3.508   2.372
 1619SOL     OW 5536   0.121   3.669   3.709
 1619SOL    HW1 5537   0.082   3.595   3.756
 1619SOL    HW2 5538   0.184   3.706   3.771
 1620SOL     OW 5539   1.277   2.786   2.533
 1620SOL    HW1 5540   1.350   2.724   2.537
 1620SOL    HW2 5541   1.311   2.859   2.481
 1621SOL     OW 5542   0.819   3.134   3.293
 1621SOL    HW1 5543   0.793   3.173   3.377
 1621SOL    HW2 5544   0.747   3.156   3.234
 1622SOL     OW 5545   0.673   3.478   2.017
 1622SOL    HW1 5546   0.681   3.489   1.922
 1622SOL    HW2 5547   0.620   3.399   2.028
 1623SOL     OW 5548   1.634   3.588   3.255
 1623SOL    HW1 5549   1.681   3.596   3.171
 1623SOL    HW2 5550   1.620   3.679   3.283
 1624SOL     OW 5551   1.806   2.006   2.831
 1624SOL    HW1 5552   1.845   1.930   2.787
 1624SOL    HW2 5553   1.726   2.023   2.782
 1625SOL     OW 5554   0.267   2.182   2.582
 1625SOL    HW1 5555   0.185   2.221   2.552
 1625SOL    HW2 5556   0.255   2.170   2.676
 1626SOL     OW 5557   1.205   3.470   1.893
 1626SOL    HW1 5558   1.197   3.379   1.921
 1626SOL    HW2 5559   1.140   3.480   1.823
 1627SOL     OW 5560   0.825   2.868   3.234
 1627SOL    HW1 5561   0.867   2.866   3.148
 1627SOL    HW2 5562   0.826   2.961   3.258
 1628SOL     OW 5563   0.915   2.773   2.151
 1628SOL    HW1 5564   0.977   2.804   2.085
 1628SOL    HW2 5565   0.961   2.701   2.195
 1629SOL     OW 5566   1.495   3.486   1.904
 1629SOL    HW1 5567   1.400   3.483   1.893
 1629SOL    HW2 5568   1.530   3.492   1.815
 1630SOL     OW 5569   0.373   3.166   3.353
 1630SOL    HW1 5570   0.356   3.245   3.302
 1630SOL    HW2 5571   0.297   3.110   3.337
 1631SOL     OW 5572   1.613   3.146   3.143
 1631SOL    HW1 5573   1.670   3.138   3.220
 1631SOL    HW2 5574   1.551   3.215   3.167
 1632SOL     OW 5575   1.048   2.967   2.567
 1632SOL    HW1 5576   0.977   2.916   2.607
 1632SOL    HW2 5577   1.108   2.901   2.532
 1633SOL     OW 5578   1.019   2.102   2.828
 1633SOL    HW1 5579   1.014   2.054   2.745
 1633SOL    HW2 5580   1.014   2.034   2.895
 1634SOL     OW 5581   0.603   3.352   2.345
 1634SOL    HW1 5582   0.640   3.301   2.274
 1634SOL    HW2 5583   0.532   3.403   2.305
 1635SOL     OW 5584   1.717   2.257   3.246
 1635SOL    HW1 5585   1.791   2.317   3.241
 1635SOL    HW2 5586   1.744   2.182   3.192
 1636SOL     OW 5587   0.252   3.207   2.140
 1636SOL    HW1 5588   0.158   3.209   2.125
 1636SOL    HW2 5589   0.262   3.240   2.229
 1637SOL     OW 5590   0.118   2.870   3.558
 1637SOL    HW1 5591   0.051   2.905   3.617
 1637SOL    HW2 5592   0.195   2.857   3.613
 1638SOL     OW 5593   0.672   2.061   3.360
 1638SOL    HW1 5594   0.755   2.041   3.317
 1638SOL    HW2 5595   0.696   2.086   3.449
 1639SOL     OW 5596   0.073   2.189   1.896
 1639SOL    HW1 5597   4.477   2.197   1.891
 1639SOL    HW2 5598   0.105   2.271   1.857
 1640SOL     OW 5599   1.433   2.721   3.264
 1640SOL    HW1 5600   1.384   2.779   3.206
 1640SOL    HW2 5601   1.523   2.724   3.231
 1641SOL     OW 5602   0.084   2.040   2.169
 1641SOL    HW1 5603   0.077   2.111   2.106
 1641SOL    HW2 5604   0.160   1.989   2.142
 1642SOL     OW 5605   1.180   3.204   1.979
 1642SOL    HW1 5606   1.089   3.174   1.982
 1642SOL    HW2 5607   1.209   3.203   2.070
 1643SOL     OW 5608   0.620   2.694   3.290
 1643SOL    HW1 5609   0.675   2.771   3.278
 1643SOL    HW2 5610   0.682   2.621   3.300
 1644SOL     OW 5611   1.485   3.636   2.836
 1644SOL    HW1 5612   1.512   3.693   2.764
 1644SOL    HW2 5613   1.566   3.621   2.886
 1645SOL     OW 5614   0.716   2.425   3.567
 1645SOL    HW1 5615   0.749   2.490   3.628
 1645SOL    HW2 5616   0.755   2.342   3.597
 1646SOL     OW 5617   1.468   3.066   3.495
 1646SOL    HW1 5618   1.456   3.079   3.589
 1646SOL    HW2 5619   1.562   3.077   3.481
 1647SOL     OW 5620   0.383   3.604   3.425
 1647SOL    HW1 5621   0.297   3.644   3.411
 1647SOL    HW2 5622   0.365   3.522   3.471
 1648SOL     OW 5623   1.673   2.744   3.117
 1648SOL    HW1 5624   1.663   2.659   3.076
 1648SOL    HW2 5625   1.663   2.807   3.046
 1649SOL     OW 5626   1.219   2.182   2.319
 1649SOL    HW1 5627   1.282   2.111   2.310
 1649SOL    HW2 5628   1.247   2.230   2.397
 1650SOL     OW 5629   0.591   2.602   2.529
 1650SOL    HW1 5630   0.630   2.688   2.511
 1650SOL    HW2 5631   0.520   2.595   2.465
 1651SOL     OW 5632   1.763   2.228   3.517
 1651SOL    HW1 5633   1.749   2.237   3.422
 1651SOL    HW2 5634   1.693   2.170   3.546
 1652SOL     OW 5635   1.743   2.796   3.375
 1652SOL    HW1 5636   1.746   2.891   3.387
 1652SOL    HW2 5637   1.728   2.784   3.281
 1653SOL     OW 5638   0.864   3.231   1.892
 1653SOL    HW1 5639   0.822   3.256   1.974
 1653SOL    HW2 5640   0.882   3.314   1.848
 1654SOL     OW 5641   0.659   3.656   2.812
 1654SOL    HW1 5642   0.636   3.746   2.786
 1654SOL    HW2 5643   0.754   3.652   2.801
 1655SOL     OW 5644   0.866   2.827   2.718
 1655SOL    HW1 5645   0.916   2.756   2.759
 1655SOL    HW2 5646   0.833   2.879   2.792
 1656SOL     OW 5647   1.080   2.850   1.951
 1656SOL    HW1 5648   1.058   2.900   1.872
 1656SOL    HW2 5649   1.156   2.797   1.925
 1657SOL     OW 5650   1.857   3.419   2.707
 1657SOL    HW1 5651   1.780   3.408   2.651
 1657SOL    HW2 5652   1.847   3.351   2.774
 1658SOL     OW 5653   0.228   3.169   3.718
 1658SOL    HW1 5654   0.159   3.107   3.693
 1658SOL    HW2 5655   0.217   3.179   3.812
 1659SOL     OW 5656   0.101   3.102   2.528
 1659SOL    HW1 5657   0.104   3.050   2.608
 1659SOL    HW2 5658   0.162   3.058   2.469
 1660SOL     OW 5659   0.680   3.262   3.488
 1660SOL    HW1 5660   0.600   3.218   3.516
 1660SOL    HW2 5661   0.673   3.350   3.525
 1661SOL     OW 5662   1.788   2.045   3.103
 1661SOL    HW1 5663   1.834   1.967   3.132
 1661SOL    HW2 5664   1.798   2.045   3.008
 1662SOL     OW 5665   0.434   2.295   2.387
 1662SOL    HW1 5666   0.458   2.221   2.330
 1662SOL    HW2 5667   0.384   2.255   2.458
 1663SOL     OW 5668   1.702   3.353   2.962
 1663SOL    HW1 5669   1.620   3.327   2.919
 1663SOL    HW2 5670   1.716   3.285   3.029
 1664SOL     OW 5671   0.306   2.352   3.120
 1664SOL    HW1 5672   0.380   2.312   3.166
 1664SOL    HW2 5673   0.339   2.365   3.031
 1665SOL     OW 5674   0.825   3.440   2.542
 1665SOL    HW1 5675   0.819   3.484   2.457
 1665SOL    HW2 5676   0.746   3.386   2.546
 1666SOL     OW 5677   1.433   2.086   2.979
 1666SOL    HW1 5678   1.467   2.010   3.028
 1666SOL    HW2 5679   1.381   2.134   3.043
 1667SOL     OW 5680   1.008   1.883   3.008
 1667SOL    HW1 5681   0.953   1.814   2.970
 1667SOL    HW2 5682   1.096   1.846   3.010
 1668SOL     OW 5683   0.771   3.194   2.171
 1668SOL    HW1 5684   0.737   3.105   2.178
 1668SOL    HW2 5685   0.854   3.191   2.220
 1669SOL     OW 5686   0.621   3.421   3.146
 1669SOL    HW1 5687   0.623   3.502   3.197
 1669SOL    HW2 5688   0.708   3.414   3.107
 1670SOL     OW 5689   1.352   1.915   2.026
 1670SOL    HW1 5690   1.377   1.858   1.954
 1670SOL    HW2 5691   1.266   1.884   2.053
 1671SOL     OW 5692   1.298   2.322   2.545
 1671SOL    HW1 5693   1.243   2.400   2.554
 1671SOL    HW2 5694   1.295   2.281   2.632
 1672SOL     OW 5695   1.570   2.066   2.726
 1672SOL    HW1 5696   1.515   2.087   2.802
 1672SOL    HW2 5697   1.577   2.149   2.679
 1673SOL     OW 5698   0.041   2.916   2.149
 1673SOL    HW1 5699   0.136   2.906   2.142
 1673SOL    HW2 5700   0.018   2.874   2.231
 1674SOL     OW 5701   0.881   3.511   2.207
 1674SOL    HW1 5702   0.810   3.492   2.145
 1674SOL    HW2 5703   0.851   3.587   2.256
 1675SOL     OW 5704   0.248   2.489   3.842
 1675SOL    HW1 5705   0.172   2.476   3.898
 1675SOL    HW2 5706   0.217   2.467   3.754
 1676SOL     OW 5707   0.213   2.138   4.716
 1676SOL    HW1 5708   0.250   2.111   4.800
 1676SOL    HW2 5709   0.137   2.082   4.704
 1677SOL     OW 5710   0.010   2.248   4.363
 1677SOL    HW1 5711   4.430   2.278   4.406
 1677SOL    HW2 5712   4.484   2.168   4.317
 1678SOL     OW 5713   0.567   3.143   4.896
 1678SOL    HW1 5714   0.479   3.147   4.858
 1678SOL    HW2 5715   0.582   3.231   4.931
 1679SOL     OW 5716   1.556   3.374   4.429
 1679SOL    HW1 5717   1.512   3.357   4.512
 1679SOL    HW2 5718   1.486   3.379   4.365
 1680SOL     OW 5719   1.130   2.561   4.431
 1680SOL    HW1 5720   1.179   2.642   4.415
 1680SOL    HW2 5721   1.083   2.578   4.512
 1681SOL     OW 5722   1.770   2.467   3.954
 1681SOL    HW1 5723   1.747   2.459   3.861
 1681SOL    HW2 5724   1.729   2.391   3.995
 1682SOL     OW 5725   0.759   3.007   4.761
 1682SOL    HW1 5726   0.689   3.040   4.817
 1682SOL    HW2 5727   0.793   3.084   4.716
 1683SOL     OW 5728   0.864   2.642   5.546
 1683SOL    HW1 5729   0.847   2.714   5.607
 1683SOL    HW2 5730   0.885   2.686   5.463
 1684SOL     OW 5731   0.686   2.870   4.374
 1684SOL    HW1 5732   0.750   2.855   4.443
 1684SOL    HW2 5733   0.616   2.919   4.416
 1685SOL     OW 5734   0.708   3.014   5.533
 1685SOL    HW1 5735   0.754   3.094   5.557
 1685SOL    HW2 5736   0.623   3.044   5.499
 1686SOL     OW 5737   0.337   3.286   4.794
 1686SOL    HW1 5738   0.256   3.267   4.747
 1686SOL    HW2 5739   0.387   3.341   4.733
 1687SOL     OW 5740   1.459   3.366   5.074
 1687SOL    HW1 5741   1.503   3.450   5.089
 1687SOL    HW2 5742   1.408   3.352   5.154
 1688SOL     OW 5743   0.442   2.266   5.220
 1688SOL    HW1 5744   0.522   2.212   5.222
 1688SOL    HW2 5745   0.371   2.202   5.223
 1689SOL     OW 5746   1.628   2.328   4.433
 1689SOL    HW1 5747   1.539   2.343   4.399
 1689SOL    HW2 5748   1.635   2.387   4.508
 1690SOL     OW 5749   0.246   3.554   4.204
 1690SOL    HW1 5750   0.234   3.638   4.247
 1690SOL    HW2 5751   0.305   3.572   4.131
 1691SOL     OW 5752   1.135   3.203   5.415
 1691SOL    HW1 5753   1.174   3.200   5.503
 1691SOL    HW2 5754   1.082   3.123   5.410
 1692SOL     OW 5755   0.243   3.290   4.252
 1692SOL    HW1 5756   0.236   3.385   4.258
 1692SOL    HW2 5757   0.178   3.257   4.315
 1693SOL     OW 5758   0.244   2.943   4.606
 1693SOL    HW1 5759   0.262   2.856   4.642
 1693SOL    HW2 5760   0.188   2.984   4.671
 1694SOL     OW 5761   0.617   3.652   5.157
 1694SOL    HW1 5762   0.533   3.635   5.199
 1694SOL    HW2 5763   0.637   3.743   5.181
 1695SOL     OW 5764   0.585   2.844   3.858
 1695SOL    HW1 5765   0.629   2.893   3.788
 1695SOL    HW2 5766   0.631   2.871   3.938
 1696SOL     OW 5767   0.137   2.505   4.299
 1696SOL    HW1 5768   0.085   2.425   4.311
 1696SOL    HW2 5769   0.106   2.564   4.368
 1697SOL     OW 5770   1.841   3.624   4.061
 1697SOL    HW1 5771   1.900   3.595   4.131
 1697SOL    HW2 5772   1.869   3.713   4.043
 1698SOL     OW 5773   0.033   3.462   3.859
 1698SOL    HW1 5774   0.021   3.367   3.862
 1698SOL    HW2 5775   0.008   3.493   3.946
 1699SOL     OW 5776   1.689   2.781   4.359
 1699SOL    HW1 5777   1.774   2.741   4.339
 1699SOL    HW2 5778   1.667   2.830   4.279
 1700SOL     OW 5779   1.645   2.970   4.154
 1700SOL    HW1 5780   1.729   2.980   4.110
 1700SOL    HW2 5781   1.649   3.031   4.228
 1701SOL     OW 5782   0.110   2.620   5.313
 1701SOL    HW1 5783   0.205   2.621   5.304
 1701SOL    HW2 5784   0.085   2.713   5.315
 1702SOL     OW 5785   0.613   3.243   4.459
 1702SOL    HW1 5786   0.566   3.160   4.468
 1702SOL    HW2 5787   0.596   3.271   4.369
 1703SOL     OW 5788   1.290   3.105   5.152
 1703SOL    HW1 5789   1.313   3.035   5.091
 1703SOL    HW2 5790   1.349   3.093   5.227
 1704SOL     OW 5791   0.812   1.860   4.229
 1704SOL    HW1 5792   0.853   1.946   4.214
 1704SOL    HW2 5793   0.719   1.879   4.240
 1705SOL     OW 5794   0.184   2.807   5.003
 1705SOL    HW1 5795   0.275   2.789   4.979
 1705SOL    HW2 5796   0.133   2.781   4.927
 1706SOL     OW 5797   1.533   2.853   3.920
 1706SOL    HW1 5798   1.462   2.795   3.948
 1706SOL    HW2 5799   1.570   2.886   4.001
 1707SOL     OW 5800   1.186   3.666   5.344
 1707SOL    HW1 5801   1.201   3.722   5.268
 1707SOL    HW2 5802   1.199   3.577   5.311
 1708SOL     OW 5803   0.328   2.117   5.520
 1708SOL    HW1 5804   0.380   2.191   5.551
 1708SOL    HW2 5805   0.243   2.129   5.562
 1709SOL     OW 5806   1.466   3.283   4.677
 1709SOL    HW1 5807   1.399   3.297   4.744
 1709SOL    HW2 5808   1.450   3.193   4.646
 1710SOL     OW 5809   1.664   3.592   4.302
 1710SOL    HW1 5810   1.638   3.567   4.213
 1710SOL    HW2 5811   1.634   3.520   4.357
 1711SOL     OW 5812   0.597   2.585   3.988
 1711SOL    HW1 5813   0.603   2.664   3.935
 1711SOL    HW2 5814   0.531   2.605   4.054
 1712SOL     OW 5815   1.272   2.185   4.637
 1712SOL    HW1 5816   1.185   2.154   4.663
 1712SOL    HW2 5817   1.331   2.149   4.702
 1713SOL     OW 5818   1.582   3.530   4.033
 1713SOL    HW1 5819   1.670   3.565   4.027
 1713SOL    HW2 5820   1.556   3.512   3.942
 1714SOL     OW 5821   0.799   2.478   5.177
 1714SOL    HW1 5822   0.770   2.457   5.266
 1714SOL    HW2 5823   0.753   2.415   5.122
 1715SOL     OW 5824   1.381   2.322   5.411
 1715SOL    HW1 5825   1.398   2.365   5.495
 1715SOL    HW2 5826   1.467   2.297   5.379
 1716SOL     OW 5827   0.960   2.750   5.304
 1716SOL    HW1 5828   1.014   2.679   5.269
 1716SOL    HW2 5829   0.913   2.783   5.227
 1717SOL     OW 5830   0.985   2.265   4.979
 1717SOL    HW1 5831   0.898   2.295   5.008
 1717SOL    HW2 5832   0.970   2.229   4.891
 1718SOL     OW 5833   1.049   2.561   4.151
 1718SOL    HW1 5834   1.063   2.554   4.246
 1718SOL    HW2 5835   0.968   2.514   4.136
 1719SOL     OW 5836   0.098   2.685   4.507
 1719SOL    HW1 5837   0.184   2.664   4.543
 1719SOL    HW2 5838   0.054   2.735   4.576
 1720SOL     OW 5839   0.127   3.710   5.299
 1720SOL    HW1 5840   0.119   3.689   5.392
 1720SOL    HW2 5841   0.044   3.682   5.261
 1721SOL     OW 5842   0.886   2.208   3.918
 1721SOL    HW1 5843   0.930   2.269   3.859
 1721SOL    HW2 5844   0.904   2.121   3.882
 1722SOL     OW 5845   1.376   3.006   4.266
 1722SOL    HW1 5846   1.452   2.990   4.212
 1722SOL    HW2 5847   1.322   3.067   4.216
 1723SOL     OW 5848   0.551   2.047   4.616
 1723SOL    HW1 5849   0.553   2.074   4.708
 1723SOL    HW2 5850   0.552   2.128   4.567
 1724SOL     OW 5851   1.010   3.309   4.198
 1724SOL    HW1 5852   0.968   3.379   4.149
 1724SOL    HW2 5853   0.994   3.331   4.290
 1725SOL     OW 5854   0.354   3.669   4.580
 1725SOL    HW1 5855   0.397   3.584   4.590
 1725SOL    HW2 5856   0.424   3.733   4.592
 1726SOL     OW 5857   1.798   2.921   4.577
 1726SOL    HW1 5858   1.734   2.901   4.508
 1726SOL    HW2 5859   1.745   2.935   4.655
 1727SOL     OW 5860   1.226   3.403   5.238
 1727SOL    HW1 5861   1.214   3.328   5.296
 1727SOL    HW2 5862   1.168   3.385   5.164
 1728SOL     OW 5863   0.318   2.816   3.972
 1728SOL    HW1 5864   0.402   2.838   3.933
 1728SOL    HW2 5865   0.299   2.727   3.942
 1729SOL     OW 5866   1.474   2.606   4.443
 1729SOL    HW1 5867   1.456   2.558   4.523
 1729SOL    HW2 5868   1.553   2.656   4.462
 1730SOL     OW 5869   0.465   3.122   5.459
 1730SOL    HW1 5870   0.437   3.129   5.368
 1730SOL    HW2 5871   0.384   3.128   5.510
 1731SOL     OW 5872   1.121   3.639   3.956
 1731SOL    HW1 5873   1.049   3.596   4.003
 1731SOL    HW2 5874   1.141   3.580   3.884
 1732SOL     OW 5875   0.195   2.140   5.212
 1732SOL    HW1 5876   0.131   2.211   5.215
 1732SOL    HW2 5877   0.185   2.094   5.296
 1733SOL     OW 5878   1.630   3.241   3.811
 1733SOL    HW1 5879   1.589   3.326   3.795
 1733SOL    HW2 5880   1.560   3.177   3.792
 1734SOL     OW 5881   0.469   3.607   4.038
 1734SOL    HW1 5882   0.508   3.658   4.109
 1734SOL    HW2 5883   0.544   3.576   3.988
 1735SOL     OW 5884   1.400   1.969   4.154
 1735SOL    HW1 5885   1.389   1.944   4.062
 1735SOL    HW2 5886   1.495   1.977   4.165
 1736SOL     OW 5887   0.260   3.656   4.958
 1736SOL    HW1 5888   0.306   3.583   4.999
 1736SOL    HW2 5889   0.229   3.621   4.875
 1737SOL     OW 5890   0.939   3.560   4.624
 1737SOL    HW1 5891   1.014   3.506   4.645
 1737SOL    HW2 5892   0.892   3.512   4.556
 1738SOL     OW 5893   0.392   2.557   4.199
 1738SOL    HW1 5894   0.417   2.466   4.208
 1738SOL    HW2 5895   0.300   2.560   4.225
 1739SOL     OW 5896   0.629   1.989   3.830
 1739SOL    HW1 5897   0.704   1.931   3.843
 1739SOL    HW2 5898   0.585   1.954   3.752
 1740SOL     OW 5899   0.769   2.139   5.478
 1740SOL    HW1 5900   0.841   2.075   5.484
 1740SOL    HW2 5901   0.716   2.121   5.555
 1741SOL     OW 5902   0.878   3.383   4.917
 1741SOL    HW1 5903   0.862   3.347   4.830
 1741SOL    HW2 5904   0.946   3.327   4.954
 1742SOL     OW 5905   0.813   3.261   4.659
 1742SOL    HW1 5906   0.896   3.251   4.614
 1742SOL    HW2 5907   0.747   3.257   4.590
 1743SOL     OW 5908   0.927   2.369   4.629
 1743SOL    HW1 5909   0.904   2.362   4.536
 1743SOL    HW2 5910   0.961   2.282   4.652
 1744SOL     OW 5911   0.550   1.924   4.229
 1744SOL    HW1 5912   0.469   1.923   4.280
 1744SOL    HW2 5913   0.544   2.002   4.175
 1745SOL     OW 5914   1.429   3.060   3.765
 1745SOL    HW1 5915   1.459   2.984   3.815
 1745SOL    HW2 5916   1.342   3.079   3.802
 1746SOL     OW 5917   0.295   1.908   3.902
 1746SOL    HW1 5918   0.356   1.976   3.875
 1746SOL    HW2 5919   0.349   1.842   3.946
 1747SOL     OW 5920   0.936   2.105   4.189
 1747SOL    HW1 5921   0.906   2.148   4.108
 1747SOL    HW2 5922   1.031   2.118   4.189
 1748SOL     OW 5923   1.080   2.535   5.185
 1748SOL    HW1 5924   0.998   2.487   5.190
 1748SOL    HW2 5925   1.147   2.467   5.173
 1749SOL     OW 5926   1.226   3.430   4.517
 1749SOL    HW1 5927   1.243   3.499   4.453
 1749SOL    HW2 5928   1.292   3.443   4.584
 1750SOL     OW 5929   0.465   3.009   4.462
 1750SOL    HW1 5930   0.393   2.991   4.522
 1750SOL    HW2 5931   0.428   2.993   4.375
 1751SOL     OW 5932   1.272   3.657   4.329
 1751SOL    HW1 5933   1.315   3.719   4.270
 1751SOL    HW2 5934   1.207   3.710   4.376
 1752SOL     OW 5935   1.026   2.408   3.743
 1752SOL    HW1 5936   0.984   2.491   3.722
 1752SOL    HW2 5937   1.090   2.429   3.811
 1753SOL     OW 5938   0.080   2.396   5.131
 1753SOL    HW1 5939   0.150   2.398   5.065
 1753SOL    HW2 5940   0.067   2.488   5.155
 1754SOL     OW 5941   0.562   2.090   4.888
 1754SOL    HW1 5942   0.601   2.008   4.920
 1754SOL    HW2 5943   0.470   2.084   4.915
 1755SOL     OW 5944   0.870   2.321   4.364
 1755SOL    HW1 5945   0.823   2.376   4.301
 1755SOL    HW2 5946   0.888   2.240   4.317
 1756SOL     OW 5947   1.014   1.914   4.478
 1756SOL    HW1 5948   0.956   1.907   4.403
 1756SOL    HW2 5949   0.993   1.837   4.532
 1757SOL     OW 5950   1.422   3.030   4.575
 1757SOL    HW1 5951   1.355   2.962   4.569
 1757SOL    HW2 5952   1.452   3.043   4.485
 1758SOL     OW 5953   1.847   2.680   4.108
 1758SOL    HW1 5954   1.904   2.626   4.162
 1758SOL    HW2 5955   1.819   2.622   4.037
 1759SOL     OW 5956   0.493   3.275   3.887
 1759SOL    HW1 5957   0.416   3.245   3.936
 1759SOL    HW2 5958   0.470   3.257   3.795
 1760SOL     OW 5959   1.669   3.129   4.372
 1760SOL    HW1 5960   1.763   3.138   4.387
 1760SOL    HW2 5961   1.632   3.215   4.393
 1761SOL     OW 5962   1.394   2.434   3.796
 1761SOL    HW1 5963   1.334   2.415   3.868
 1761SOL    HW2 5964   1.478   2.399   3.825
 1762SOL     OW 5965   0.525   2.122   4.045
 1762SOL    HW1 5966   0.566   2.074   3.974
 1762SOL    HW2 5967   0.509   2.210   4.009
 1763SOL     OW 5968   1.754   3.119   5.353
 1763SOL    HW1 5969   1.834   3.067   5.346
 1763SOL    HW2 5970   1.784   3.210   5.345
 1764SOL     OW 5971   1.061   3.215   5.058
 1764SOL    HW1 5972   0.986   3.184   5.109
 1764SOL    HW2 5973   1.137   3.175   5.100
 1765SOL     OW 5974   1.605   3.488   5.375
 1765SOL    HW1 5975   1.603   3.521   5.285
 1765SOL    HW2 5976   1.688   3.440   5.381
 1766SOL     OW 5977   1.120   3.063   4.827
 1766SOL    HW1 5978   1.065   3.103   4.894
 1766SOL    HW2 5979   1.085   3.097   4.744
 1767SOL     OW 5980   1.600   2.969   4.778
 1767SOL    HW1 5981   1.602   3.023   4.857
 1767SOL    HW2 5982   1.526   3.003   4.727
 1768SOL     OW 5983   0.916   1.959   5.125
 1768SOL    HW1 5984   0.939   1.942   5.033
 1768SOL    HW2 5985   0.996   1.997   5.162
 1769SOL     OW 5986   0.984   2.975   5.446
 1769SOL    HW1 5987   0.891   2.992   5.465
 1769SOL    HW2 5988   0.984   2.898   5.390
 1770SOL     OW 5989   0.708   2.922   4.097
 1770SOL    HW1 5990   0.695   2.908   4.191
 1770SOL    HW2 5991   0.784   2.869   4.075
 1771SOL     OW 5992   0.428   2.683   4.962
 1771SOL    HW1 5993   0.497   2.696   5.028
 1771SOL    HW2 5994   0.369   2.619   5.001
 1772SOL     OW 5995   0.061   3.437   5.061
 1772SOL    HW1 5996   0.032   3.525   5.039
 1772SOL    HW2 5997   0.156   3.444   5.070
 1773SOL     OW 5998   0.352   2.968   4.218
 1773SOL    HW1 5999   0.359   3.041   4.157
 1773SOL    HW2 6000   0.354   2.890   4.162
 1774SOL     OW 6001   0.563   2.397   4.582
 1774SOL    HW1 6002   0.576   2.457   4.508
 1774SOL    HW2 6003   0.621   2.430   4.650
 1775SOL     OW 6004   1.248   3.210   4.114
 1775SOL    HW1 6005   1.303   3.282   4.144
 1775SOL    HW2 6006   1.161   3.230   4.147
 1776SOL     OW 6007   1.277   3.317   4.869
 1776SOL    HW1 6008   1.331   3.320   4.948
 1776SOL    HW2 6009   1.221   3.240   4.881
 1777SOL     OW 6010   1.578   2.493   4.189
 1777SOL    HW1 6011   1.539   2.546   4.259
 1777SOL    HW2 6012   1.628   2.556   4.137
 1778SOL     OW 6013   0.348   3.390   5.042
 1778SOL    HW1 6014   0.333   3.343   4.960
 1778SOL    HW2 6015   0.443   3.400   5.047
 1779SOL     OW 6016   0.472   2.622   5.383
 1779SOL    HW1 6017   0.500   2.661   5.301
 1779SOL    HW2 6018   0.500   2.530   5.377
 1780SOL     OW 6019   0.995   1.978   5.480
 1780SOL    HW1 6020   1.046   2.052   5.448
 1780SOL    HW2 6021   1.045   1.901   5.454
 1781SOL     OW 6022   0.498   1.907   5.469
 1781SOL    HW1 6023   0.459   1.850   5.403
 1781SOL    HW2 6024   0.436   1.979   5.479
 1782SOL     OW 6025   0.588   2.735   4.748
 1782SOL    HW1 6026   0.615   2.826   4.749
 1782SOL    HW2 6027   0.531   2.726   4.824
 1783SOL     OW 6028   1.208   2.391   3.994
 1783SOL    HW1 6029   1.215   2.313   4.048
 1783SOL    HW2 6030   1.166   2.455   4.051
 1784SOL     OW 6031   0.304   2.057   4.965
 1784SOL    HW1 6032   0.265   2.092   5.046
 1784SOL    HW2 6033   0.285   1.963   4.968
 1785SOL     OW 6034   0.049   3.174   5.007
 1785SOL    HW1 6035   0.078   3.128   5.086
 1785SOL    HW2 6036   0.050   3.267   5.032
 1786SOL     OW 6037   0.727   2.495   4.785
 1786SOL    HW1 6038   0.799   2.476   4.725
 1786SOL    HW2 6039   0.699   2.584   4.762
 1787SOL     OW 6040   1.722   2.834   5.570
 1787SOL    HW1 6041   1.664   2.811   5.498
 1787SOL    HW2 6042   1.664   2.845   5.645
 1788SOL     OW 6043   0.308   1.932   4.343
 1788SOL    HW1 6044   0.287   2.021   4.373
 1788SOL    HW2 6045   0.302   1.879   4.423
 1789SOL     OW 6046   1.613   2.234   4.095
 1789SOL    HW1 6047   1.641   2.172   4.163
 1789SOL    HW2 6048   1.590   2.313   4.143
 1790SOL     OW 6049   1.019   2.622   4.684
 1790SOL    HW1 6050   1.027   2.640   4.778
 1790SOL    HW2 6051   0.997   2.529   4.680
 1791SOL     OW 6052   0.983   3.429   5.438
 1791SOL    HW1 6053   0.967   3.473   5.354
 1791SOL    HW2 6054   1.025   3.346   5.414
 1792SOL     OW 6055   1.858   3.380   5.331
 1792SOL    HW1 6056   1.874   3.400   5.238
 1792SOL    HW2 6057   1.942   3.396   5.374
 1793SOL     OW 6058   0.348   2.791   5.542
 1793SOL    HW1 6059   0.423   2.819   5.595
 1793SOL    HW2 6060   0.384   2.726   5.482
 1794SOL     OW 6061   1.531   2.136   3.852
 1794SOL    HW1 6062   1.467   2.070   3.878
 1794SOL    HW2 6063   1.563   2.172   3.935
 1795SOL     OW 6064   1.296   2.690   3.758
 1795SOL    HW1 6065   1.337   2.603   3.761
 1795SOL    HW2 6066   1.325   2.728   3.675
 1796SOL     OW 6067   1.064   3.197   4.576
 1796SOL    HW1 6068   1.067   3.123   4.514
 1796SOL    HW2 6069   1.128   3.260   4.541
 1797SOL     OW 6070   0.316   2.675   4.675
 1797SOL    HW1 6071   0.410   2.692   4.669
 1797SOL    HW2 6072   0.310   2.584   4.705
 1798SOL     OW 6073   0.334   2.384   4.718
 1798SOL    HW1 6074   0.295   2.298   4.702
 1798SOL    HW2 6075   0.411   2.386   4.661
 1799SOL     OW 6076   1.126   2.240   5.400
 1799SOL    HW1 6077   1.083   2.295   5.464
 1799SOL    HW2 6078   1.217   2.268   5.401
 1800SOL     OW 6079   1.161   2.066   5.193
 1800SOL    HW1 6080   1.150   2.125   5.268
 1800SOL    HW2 6081   1.169   2.124   5.118
 1801SOL     OW 6082   4.492   3.185   3.924
 1801SOL    HW1 6083   4.399   3.199   3.907
 1801SOL    HW2 6084   4.499   3.093   3.949
 1802SOL     OW 6085   0.094   3.644   4.664
 1802SOL    HW1 6086   0.056   3.583   4.601
 1802SOL    HW2 6087   0.182   3.663   4.629
 1803SOL     OW 6088   0.499   3.435   4.630
 1803SOL    HW1 6089   0.568   3.497   4.654
 1803SOL    HW2 6090   0.544   3.369   4.576
 1804SOL     OW 6091   0.990   2.656   4.953
 1804SOL    HW1 6092   1.041   2.630   5.030
 1804SOL    HW2 6093   0.903   2.621   4.969
 1805SOL     OW 6094   0.038   2.423   4.831
 1805SOL    HW1 6095   0.119   2.386   4.798
 1805SOL    HW2 6096   0.028   2.387   4.919
 1806SOL     OW 6097   0.180   2.377   5.437
 1806SOL    HW1 6098   0.257   2.349   5.389
 1806SOL    HW2 6099   0.152   2.458   5.394
 1807SOL     OW 6100   1.387   2.804   5.387
 1807SOL    HW1 6101   1.405   2.898   5.388
 1807SOL    HW2 6102   1.363   2.785   5.296
 1808SOL     OW 6103   0.816   2.431   4.078
 1808SOL    HW1 6104   0.818   2.355   4.019
 1808SOL    HW2 6105   0.741   2.482   4.048
 1809SOL     OW 6106   0.272   3.423   5.466
 1809SOL    HW1 6107   0.218   3.477   5.525
 1809SOL    HW2 6108   0.250   3.333   5.489
 1810SOL     OW 6109   0.687   2.319   4.989
 1810SOL    HW1 6110   0.644   2.241   4.954
 1810SOL    HW2 6111   0.690   2.380   4.915
 1811SOL     OW 6112   0.931   3.541   5.190
 1811SOL    HW1 6113   0.903   3.511   5.103
 1811SOL    HW2 6114   0.930   3.636   5.183
 1812SOL     OW 6115   0.473   2.353   3.913
 1812SOL    HW1 6116   0.531   2.426   3.933
 1812SOL    HW2 6117   0.387   2.393   3.899
 1813SOL     OW 6118   0.162   3.003   5.188
 1813SOL    HW1 6119   0.149   2.954   5.269
 1813SOL    HW2 6120   0.171   2.936   5.120
 1814SOL     OW 6121   1.310   2.918   4.955
 1814SOL    HW1 6122   1.356   2.862   4.893
 1814SOL    HW2 6123   1.241   2.959   4.904
 1815SOL     OW 6124   1.308   2.719   4.032
 1815SOL    HW1 6125   1.231   2.688   4.080
 1815SOL    HW2 6126   1.286   2.705   3.940
 1816SOL     OW 6127   1.767   3.610   4.871
 1816SOL    HW1 6128   1.827   3.636   4.802
 1816SOL    HW2 6129   1.746   3.518   4.852
 1817SOL     OW 6130   1.242   3.595   4.842
 1817SOL    HW1 6131   1.324   3.612   4.794
 1817SOL    HW2 6132   1.244   3.501   4.859
 1818SOL     OW 6133   0.069   3.052   4.771
 1818SOL    HW1 6134   0.074   3.086   4.860
 1818SOL    HW2 6135   0.010   3.111   4.726
 1819SOL     OW 6136   0.679   3.525   5.448
 1819SOL    HW1 6137   0.626   3.605   5.446
 1819SOL    HW2 6138   0.740   3.535   5.375
 1820SOL     OW 6139   1.720   2.002   4.238
 1820SOL    HW1 6140   1.792   1.988   4.177
 1820SOL    HW2 6141   1.702   1.915   4.275
 1821SOL     OW 6142   1.391   3.430   4.207
 1821SOL    HW1 6143   1.450   3.461   4.139
 1821SOL    HW2 6144   1.343   3.508   4.234
 1822SOL     OW 6145   0.122   3.668   5.571
 1822SOL    HW1 6146   0.082   3.595   5.618
 1822SOL    HW2 6147   0.184   3.706   5.633
 1823SOL     OW 6148   1.276   2.788   4.393
 1823SOL    HW1 6149   1.348   2.726   4.396
 1823SOL    HW2 6150   1.310   2.861   4.341
 1824SOL     OW 6151   0.819   3.134   5.156
 1824SOL    HW1 6152   0.793   3.173   5.239
 1824SOL    HW2 6153   0.747   3.156   5.096
 1825SOL     OW 6154   0.673   3.478   3.879
 1825SOL    HW1 6155   0.681   3.489   3.784
 1825SOL    HW2 6156   0.620   3.399   3.890
 1826SOL     OW 6157   1.632   3.589   5.116
 1826SOL    HW1 6158   1.681   3.596   5.034
 1826SOL    HW2 6159   1.619   3.679   5.145
 1827SOL     OW 6160   0.267   2.182   4.444
 1827SOL    HW1 6161   0.185   2.221   4.414
 1827SOL    HW2 6162   0.255   2.170   4.538
 1828SOL     OW 6163   1.205   3.470   3.755
 1828SOL    HW1 6164   1.197   3.379   3.783
 1828SOL    HW2 6165   1.141   3.480   3.685
 1829SOL     OW 6166   0.826   2.868   5.096
 1829SOL    HW1 6167   0.867   2.866   5.009
 1829SOL    HW2 6168   0.826   2.961   5.120
 1830SOL     OW 6169   0.915   2.773   4.013
 1830SOL    HW1 6170   0.977   2.804   3.947
 1830SOL    HW2 6171   0.962   2.701   4.057
 1831SOL     OW 6172   1.495   3.486   3.766
 1831SOL    HW1 6173   1.400   3.483   3.755
 1831SOL    HW2 6174   1.530   3.492   3.677
 1832SOL     OW 6175   0.373   3.166   5.215
 1832SOL    HW1 6176   0.356   3.245   5.164
 1832SOL    HW2 6177   0.297   3.110   5.199
 1833SOL     OW 6178   1.602   3.157   4.985
 1833SOL    HW1 6179   1.679   3.155   5.042
 1833SOL    HW2 6180   1.546   3.225   5.023
 1834SOL     OW 6181   1.048   2.967   4.428
 1834SOL    HW1 6182   0.978   2.916   4.469
 1834SOL    HW2 6183   1.108   2.901   4.394
 1835SOL     OW 6184   1.016   2.099   4.693
 1835SOL    HW1 6185   1.011   2.053   4.609
 1835SOL    HW2 6186   1.008   2.031   4.759
 1836SOL     OW 6187   0.603   3.352   4.207
 1836SOL    HW1 6188   0.640   3.301   4.136
 1836SOL    HW2 6189   0.532   3.403   4.167
 1837SOL     OW 6190   0.252   3.207   4.002
 1837SOL    HW1 6191   0.158   3.209   3.987
 1837SOL    HW2 6192   0.262   3.241   4.092
 1838SOL     OW 6193   0.117   2.869   5.420
 1838SOL    HW1 6194   0.051   2.906   5.479
 1838SOL    HW2 6195   0.195   2.857   5.476
 1839SOL     OW 6196   0.672   2.061   5.222
 1839SOL    HW1 6197   0.755   2.041   5.180
 1839SOL    HW2 6198   0.696   2.087   5.311
 1840SOL     OW 6199   0.073   2.189   3.758
 1840SOL    HW1 6200   4.477   2.196   3.754
 1840SOL    HW2 6201   0.104   2.271   3.719
 1841SOL     OW 6202   0.084   2.040   4.032
 1841SOL    HW1 6203   0.077   2.111   3.968
 1841SOL    HW2 6204   0.160   1.989   4.004
 1842SOL     OW 6205   1.180   3.204   3.841
 1842SOL    HW1 6206   1.089   3.175   3.844
 1842SOL    HW2 6207   1.209   3.203   3.932
 1843SOL     OW 6208   0.620   2.694   5.151
 1843SOL    HW1 6209   0.675   2.771   5.139
 1843SOL    HW2 6210   0.683   2.622   5.162
 1844SOL     OW 6211   1.486   3.634   4.697
 1844SOL    HW1 6212   1.512   3.694   4.626
 1844SOL    HW2 6213   1.566   3.624   4.749
 1845SOL     OW 6214   0.718   2.424   5.428
 1845SOL    HW1 6215   0.748   2.489   5.491
 1845SOL    HW2 6216   0.754   2.342   5.458
 1846SOL     OW 6217   1.468   3.070   5.364
 1846SOL    HW1 6218   1.452   3.083   5.457
 1846SOL    HW2 6219   1.560   3.091   5.352
 1847SOL     OW 6220   0.383   3.604   5.287
 1847SOL    HW1 6221   0.297   3.644   5.273
 1847SOL    HW2 6222   0.365   3.522   5.333
 1848SOL     OW 6223   1.220   2.183   4.182
 1848SOL    HW1 6224   1.283   2.111   4.172
 1848SOL    HW2 6225   1.250   2.231   4.259
 1849SOL     OW 6226   0.591   2.602   4.391
 1849SOL    HW1 6227   0.630   2.688   4.373
 1849SOL    HW2 6228   0.520   2.595   4.327
 1850SOL     OW 6229   0.864   3.231   3.754
 1850SOL    HW1 6230   0.822   3.256   3.836
 1850SOL    HW2 6231   0.882   3.314   3.710
 1851SOL     OW 6232   0.659   3.656   4.673
 1851SOL    HW1 6233   0.636   3.746   4.648
 1851SOL    HW2 6234   0.754   3.652   4.663
 1852SOL     OW 6235   0.865   2.828   4.579
 1852SOL    HW1 6236   0.915   2.756   4.619
 1852SOL    HW2 6237   0.833   2.879   4.654
 1853SOL     OW 6238   1.080   2.850   3.813
 1853SOL    HW1 6239   1.058   2.900   3.734
 1853SOL    HW2 6240   1.156   2.797   3.787
 1854SOL     OW 6241   1.858   3.412   4.571
 1854SOL    HW1 6242   1.785   3.413   4.509
 1854SOL    HW2 6243   1.825   3.362   4.646
 1855SOL     OW 6244   0.228   3.169   5.580
 1855SOL    HW1 6245   0.159   3.107   5.555
 1855SOL    HW2 6246   0.217   3.179   5.674
 1856SOL     OW 6247   0.101   3.102   4.390
 1856SOL    HW1 6248   0.103   3.050   4.470
 1856SOL    HW2 6249   0.162   3.058   4.331
 1857SOL     OW 6250   0.680   3.262   5.350
 1857SOL    HW1 6251   0.600   3.218   5.378
 1857SOL    HW2 6252   0.674   3.350   5.387
 1858SOL     OW 6253   0.435   2.295   4.249
 1858SOL    HW1 6254   0.458   2.221   4.192
 1858SOL    HW2 6255   0.384   2.255   4.320
 1859SOL     OW 6256   1.711   3.351   4.814
 1859SOL    HW1 6257   1.625   3.329   4.777
 1859SOL    HW2 6258   1.719   3.292   4.890
 1860SOL     OW 6259   0.307   2.353   4.982
 1860SOL    HW1 6260   0.380   2.311   5.028
 1860SOL    HW2 6261   0.339   2.366   4.893
 1861SOL     OW 6262   0.825   3.440   4.404
 1861SOL    HW1 6263   0.819   3.484   4.319
 1861SOL    HW2 6264   0.746   3.386   4.408
 1862SOL     OW 6265   1.007   1.883   4.870
 1862SOL    HW1 6266   0.951   1.815   4.833
 1862SOL    HW2 6267   1.094   1.843   4.873
 1863SOL     OW 6268   0.771   3.194   4.033
 1863SOL    HW1 6269   0.737   3.105   4.040
 1863SOL    HW2 6270   0.854   3.191   4.082
 1864SOL     OW 6271   0.621   3.421   5.008
 1864SOL    HW1 6272   0.623   3.502   5.059
 1864SOL    HW2 6273   0.708   3.414   4.969
 1865SOL     OW 6274   1.352   1.915   3.888
 1865SOL    HW1 6275   1.377   1.858   3.816
 1865SOL    HW2 6276   1.266   1.884   3.915
 1866SOL     OW 6277   1.305   2.327   4.409
 1866SOL    HW1 6278   1.243   2.399   4.417
 1866SOL    HW2 6279   1.293   2.276   4.489
 1867SOL     OW 6280   0.041   2.916   4.011
 1867SOL    HW1 6281   0.136   2.906   4.004
 1867SOL    HW2 6282   0.018   2.874   4.093
 1868SOL     OW 6283   0.881   3.511   4.069
 1868SOL    HW1 6284   0.810   3.492   4.007
 1868SOL    HW2 6285   0.851   3.587   4.118
 1869SOL     OW 6286   0.249   2.488   5.704
 1869SOL    HW1 6287   0.173   2.475   5.760
 1869SOL    HW2 6288   0.217   2.468   5.616
 1870SOL     OW 6289   0.214   2.138   6.577
 1870SOL    HW1 6290   0.251   2.112   6.662
 1870SOL    HW2 6291   0.137   2.082   6.566
 1871SOL     OW 6292   0.010   2.248   6.225
 1871SOL    HW1 6293   4.430   2.278   6.268
 1871SOL    HW2 6294   4.484   2.168   6.179
 1872SOL     OW 6295   0.567   3.143   6.758
 1872SOL    HW1 6296   0.479   3.148   6.720
 1872SOL    HW2 6297   0.582   3.231   6.793
 1873SOL     OW 6298   1.556   3.375   6.291
 1873SOL    HW1 6299   1.513   3.356   6.375
 1873SOL    HW2 6300   1.484   3.380   6.228
 1874SOL     OW 6301   1.110   2.578   6.280
 1874SOL    HW1 6302   1.173   2.650   6.279
 1874SOL    HW2 6303   1.078   2.576   6.370
 1875SOL     OW 6304   0.759   3.007   6.623
 1875SOL    HW1 6305   0.689   3.040   6.679
 1875SOL    HW2 6306   0.793   3.085   6.578
 1876SOL     OW 6307   0.861   2.643   7.406
 1876SOL    HW1 6308   0.849   2.715   7.468
 1876SOL    HW2 6309   0.885   2.686   7.324
 1877SOL     OW 6310   0.686   2.870   6.236
 1877SOL    HW1 6311   0.750   2.854   6.305
 1877SOL    HW2 6312   0.616   2.919   6.279
 1878SOL     OW 6313   0.707   3.014   7.395
 1878SOL    HW1 6314   0.755   3.093   7.418
 1878SOL    HW2 6315   0.623   3.045   7.361
 1879SOL     OW 6316   0.337   3.286   6.656
 1879SOL    HW1 6317   0.256   3.266   6.609
 1879SOL    HW2 6318   0.387   3.341   6.595
 1880SOL     OW 6319   1.460   3.361   6.936
 1880SOL    HW1 6320   1.503   3.446   6.948
 1880SOL    HW2 6321   1.408   3.349   7.015
 1881SOL     OW 6322   0.441   2.266   7.082
 1881SOL    HW1 6323   0.522   2.214   7.084
 1881SOL    HW2 6324   0.371   2.201   7.085
 1882SOL     OW 6325   0.246   3.554   6.066
 1882SOL    HW1 6326   0.234   3.638   6.109
 1882SOL    HW2 6327   0.305   3.572   5.993
 1883SOL     OW 6328   1.135   3.203   7.277
 1883SOL    HW1 6329   1.175   3.199   7.364
 1883SOL    HW2 6330   1.082   3.123   7.271
 1884SOL     OW 6331   0.243   3.290   6.114
 1884SOL    HW1 6332   0.236   3.385   6.120
 1884SOL    HW2 6333   0.178   3.257   6.177
 1885SOL     OW 6334   0.244   2.943   6.468
 1885SOL    HW1 6335   0.263   2.856   6.503
 1885SOL    HW2 6336   0.188   2.984   6.533
 1886SOL     OW 6337   0.617   3.652   7.019
 1886SOL    HW1 6338   0.533   3.635   7.061
 1886SOL    HW2 6339   0.637   3.743   7.043
 1887SOL     OW 6340   0.586   2.844   5.720
 1887SOL    HW1 6341   0.629   2.893   5.651
 1887SOL    HW2 6342   0.631   2.871   5.800
 1888SOL     OW 6343   1.595   1.982   7.056
 1888SOL    HW1 6344   1.593   2.062   7.002
 1888SOL    HW2 6345   1.585   2.014   7.146
 1889SOL     OW 6346   0.137   2.505   6.161
 1889SOL    HW1 6347   0.085   2.425   6.173
 1889SOL    HW2 6348   0.106   2.564   6.230
 1890SOL     OW 6349   1.841   3.623   5.922
 1890SOL    HW1 6350   1.899   3.594   5.993
 1890SOL    HW2 6351   1.869   3.713   5.904
 1891SOL     OW 6352   0.033   3.462   5.721
 1891SOL    HW1 6353   0.021   3.367   5.724
 1891SOL    HW2 6354   0.008   3.493   5.808
 1892SOL     OW 6355   0.111   2.620   7.176
 1892SOL    HW1 6356   0.206   2.621   7.165
 1892SOL    HW2 6357   0.085   2.712   7.177
 1893SOL     OW 6358   0.613   3.243   6.321
 1893SOL    HW1 6359   0.566   3.160   6.330
 1893SOL    HW2 6360   0.596   3.271   6.231
 1894SOL     OW 6361   1.291   3.102   7.010
 1894SOL    HW1 6362   1.322   3.034   6.951
 1894SOL    HW2 6363   1.346   3.092   7.088
 1895SOL     OW 6364   0.810   1.860   6.090
 1895SOL    HW1 6365   0.848   1.947   6.078
 1895SOL    HW2 6366   0.717   1.876   6.103
 1896SOL     OW 6367   0.185   2.808   6.865
 1896SOL    HW1 6368   0.275   2.789   6.841
 1896SOL    HW2 6369   0.134   2.780   6.789
 1897SOL     OW 6370   1.525   2.845   5.778
 1897SOL    HW1 6371   1.454   2.787   5.805
 1897SOL    HW2 6372   1.579   2.854   5.856
 1898SOL     OW 6373   1.186   3.665   7.206
 1898SOL    HW1 6374   1.201   3.722   7.130
 1898SOL    HW2 6375   1.199   3.577   7.173
 1899SOL     OW 6376   0.328   2.117   7.380
 1899SOL    HW1 6377   0.382   2.190   7.413
 1899SOL    HW2 6378   0.243   2.129   7.424
 1900SOL     OW 6379   1.465   3.286   6.540
 1900SOL    HW1 6380   1.397   3.299   6.606
 1900SOL    HW2 6381   1.454   3.195   6.512
 1901SOL     OW 6382   1.663   3.594   6.163
 1901SOL    HW1 6383   1.637   3.566   6.075
 1901SOL    HW2 6384   1.636   3.522   6.220
 1902SOL     OW 6385   0.597   2.585   5.850
 1902SOL    HW1 6386   0.603   2.665   5.798
 1902SOL    HW2 6387   0.531   2.604   5.917
 1903SOL     OW 6388   1.278   2.202   6.518
 1903SOL    HW1 6389   1.189   2.169   6.532
 1903SOL    HW2 6390   1.332   2.150   6.577
 1904SOL     OW 6391   1.582   3.529   5.895
 1904SOL    HW1 6392   1.670   3.566   5.889
 1904SOL    HW2 6393   1.557   3.513   5.804
 1905SOL     OW 6394   0.793   2.478   7.039
 1905SOL    HW1 6395   0.767   2.456   7.128
 1905SOL    HW2 6396   0.749   2.413   6.984
 1906SOL     OW 6397   1.393   2.335   7.264
 1906SOL    HW1 6398   1.394   2.380   7.349
 1906SOL    HW2 6399   1.459   2.266   7.273
 1907SOL     OW 6400   0.958   2.751   7.166
 1907SOL    HW1 6401   1.012   2.679   7.132
 1907SOL    HW2 6402   0.911   2.783   7.090
 1908SOL     OW 6403   0.992   2.274   6.826
 1908SOL    HW1 6404   0.909   2.298   6.867
 1908SOL    HW2 6405   0.967   2.228   6.746
 1909SOL     OW 6406   1.051   2.559   6.013
 1909SOL    HW1 6407   1.063   2.560   6.108
 1909SOL    HW2 6408   0.967   2.514   6.000
 1910SOL     OW 6409   0.098   2.685   6.369
 1910SOL    HW1 6410   0.184   2.664   6.405
 1910SOL    HW2 6411   0.054   2.735   6.438
 1911SOL     OW 6412   0.126   3.711   7.161
 1911SOL    HW1 6413   0.119   3.689   7.254
 1911SOL    HW2 6414   0.044   3.681   7.123
 1912SOL     OW 6415   0.891   2.205   5.783
 1912SOL    HW1 6416   0.930   2.267   5.722
 1912SOL    HW2 6417   0.899   2.120   5.740
 1913SOL     OW 6418   1.709   2.441   7.415
 1913SOL    HW1 6419   1.674   2.517   7.368
 1913SOL    HW2 6420   1.734   2.380   7.346
 1914SOL     OW 6421   1.370   3.000   6.126
 1914SOL    HW1 6422   1.456   3.008   6.083
 1914SOL    HW2 6423   1.316   3.064   6.080
 1915SOL     OW 6424   0.550   2.047   6.478
 1915SOL    HW1 6425   0.553   2.073   6.570
 1915SOL    HW2 6426   0.553   2.129   6.429
 1916SOL     OW 6427   1.009   3.308   6.060
 1916SOL    HW1 6428   0.968   3.379   6.011
 1916SOL    HW2 6429   0.995   3.330   6.152
 1917SOL     OW 6430   0.354   3.669   6.442
 1917SOL    HW1 6431   0.397   3.584   6.452
 1917SOL    HW2 6432   0.424   3.733   6.454
 1918SOL     OW 6433   1.227   3.403   7.099
 1918SOL    HW1 6434   1.214   3.329   7.158
 1918SOL    HW2 6435   1.168   3.384   7.025
 1919SOL     OW 6436   0.317   2.817   5.834
 1919SOL    HW1 6437   0.402   2.838   5.795
 1919SOL    HW2 6438   0.299   2.727   5.804
 1920SOL     OW 6439   0.465   3.123   7.321
 1920SOL    HW1 6440   0.437   3.129   7.230
 1920SOL    HW2 6441   0.384   3.128   7.372
 1921SOL     OW 6442   1.120   3.639   5.818
 1921SOL    HW1 6443   1.049   3.596   5.865
 1921SOL    HW2 6444   1.141   3.580   5.746
 1922SOL     OW 6445   0.194   2.139   7.074
 1922SOL    HW1 6446   0.131   2.211   7.078
 1922SOL    HW2 6447   0.186   2.095   7.158
 1923SOL     OW 6448   1.639   3.250   5.678
 1923SOL    HW1 6449   1.592   3.331   5.658
 1923SOL    HW2 6450   1.577   3.180   5.656
 1924SOL     OW 6451   0.469   3.607   5.900
 1924SOL    HW1 6452   0.507   3.658   5.971
 1924SOL    HW2 6453   0.545   3.576   5.850
 1925SOL     OW 6454   0.260   3.656   6.820
 1925SOL    HW1 6455   0.306   3.583   6.862
 1925SOL    HW2 6456   0.229   3.621   6.737
 1926SOL     OW 6457   0.939   3.560   6.486
 1926SOL    HW1 6458   1.014   3.506   6.508
 1926SOL    HW2 6459   0.892   3.512   6.418
 1927SOL     OW 6460   0.392   2.557   6.060
 1927SOL    HW1 6461   0.417   2.466   6.070
 1927SOL    HW2 6462   0.300   2.560   6.087
 1928SOL     OW 6463   1.539   2.087   7.311
 1928SOL    HW1 6464   1.546   2.109   7.404
 1928SOL    HW2 6465   1.469   2.022   7.308
 1929SOL     OW 6466   0.631   1.990   5.690
 1929SOL    HW1 6467   0.703   1.928   5.706
 1929SOL    HW2 6468   0.585   1.955   5.614
 1930SOL     OW 6469   0.768   2.136   7.338
 1930SOL    HW1 6470   0.841   2.075   7.346
 1930SOL    HW2 6471   0.719   2.126   7.419
 1931SOL     OW 6472   0.878   3.384   6.779
 1931SOL    HW1 6473   0.862   3.347   6.692
 1931SOL    HW2 6474   0.946   3.328   6.817
 1932SOL     OW 6475   1.341   2.451   7.019
 1932SOL    HW1 6476   1.372   2.419   7.103
 1932SOL    HW2 6477   1.378   2.538   7.010
 1933SOL     OW 6478   0.812   3.261   6.521
 1933SOL    HW1 6479   0.896   3.251   6.476
 1933SOL    HW2 6480   0.747   3.257   6.452
 1934SOL     OW 6481   0.925   2.371   6.491
 1934SOL    HW1 6482   0.904   2.363   6.398
 1934SOL    HW2 6483   0.963   2.286   6.515
 1935SOL     OW 6484   0.549   1.923   6.091
 1935SOL    HW1 6485   0.469   1.923   6.143
 1935SOL    HW2 6486   0.543   2.002   6.037
 1936SOL     OW 6487   1.430   3.061   5.631
 1936SOL    HW1 6488   1.455   2.984   5.681
 1936SOL    HW2 6489   1.343   3.084   5.665
 1937SOL     OW 6490   0.295   1.908   5.764
 1937SOL    HW1 6491   0.356   1.976   5.738
 1937SOL    HW2 6492   0.349   1.842   5.808
 1938SOL     OW 6493   0.926   2.105   6.050
 1938SOL    HW1 6494   0.901   2.148   5.969
 1938SOL    HW2 6495   1.021   2.094   6.043
 1939SOL     OW 6496   1.080   2.541   7.046
 1939SOL    HW1 6497   1.010   2.475   7.051
 1939SOL    HW2 6498   1.160   2.490   7.037
 1940SOL     OW 6499   1.225   3.431   6.379
 1940SOL    HW1 6500   1.244   3.500   6.315
 1940SOL    HW2 6501   1.293   3.440   6.446
 1941SOL     OW 6502   0.465   3.010   6.324
 1941SOL    HW1 6503   0.393   2.991   6.384
 1941SOL    HW2 6504   0.428   2.993   6.237
 1942SOL     OW 6505   1.272   3.657   6.191
 1942SOL    HW1 6506   1.315   3.719   6.132
 1942SOL    HW2 6507   1.207   3.710   6.238
 1943SOL     OW 6508   1.029   2.409   5.604
 1943SOL    HW1 6509   0.985   2.492   5.586
 1943SOL    HW2 6510   1.087   2.429   5.678
 1944SOL     OW 6511   0.079   2.396   6.992
 1944SOL    HW1 6512   0.150   2.397   6.927
 1944SOL    HW2 6513   0.069   2.488   7.017
 1945SOL     OW 6514   0.562   2.089   6.749
 1945SOL    HW1 6515   0.601   2.008   6.783
 1945SOL    HW2 6516   0.470   2.084   6.777
 1946SOL     OW 6517   0.870   2.321   6.227
 1946SOL    HW1 6518   0.822   2.378   6.166
 1946SOL    HW2 6519   0.883   2.240   6.178
 1947SOL     OW 6520   1.013   1.915   6.338
 1947SOL    HW1 6521   0.951   1.904   6.265
 1947SOL    HW2 6522   0.997   1.840   6.395
 1948SOL     OW 6523   1.427   3.036   6.446
 1948SOL    HW1 6524   1.368   2.961   6.446
 1948SOL    HW2 6525   1.458   3.042   6.356
 1949SOL     OW 6526   1.430   2.475   6.623
 1949SOL    HW1 6527   1.408   2.387   6.593
 1949SOL    HW2 6528   1.512   2.464   6.672
 1950SOL     OW 6529   0.493   3.274   5.749
 1950SOL    HW1 6530   0.417   3.245   5.799
 1950SOL    HW2 6531   0.469   3.257   5.657
 1951SOL     OW 6532   1.661   3.125   6.244
 1951SOL    HW1 6533   1.756   3.133   6.242
 1951SOL    HW2 6534   1.629   3.214   6.260
 1952SOL     OW 6535   0.525   2.122   5.906
 1952SOL    HW1 6536   0.567   2.074   5.835
 1952SOL    HW2 6537   0.509   2.209   5.871
 1953SOL     OW 6538   1.753   3.098   7.162
 1953SOL    HW1 6539   1.840   3.058   7.160
 1953SOL    HW2 6540   1.769   3.188   7.193
 1954SOL     OW 6541   1.061   3.216   6.922
 1954SOL    HW1 6542   0.986   3.184   6.973
 1954SOL    HW2 6543   1.137   3.174   6.962
 1955SOL     OW 6544   1.605   3.488   7.237
 1955SOL    HW1 6545   1.603   3.521   7.147
 1955SOL    HW2 6546   1.688   3.441   7.243
 1956SOL     OW 6547   1.125   3.064   6.694
 1956SOL    HW1 6548   1.066   3.102   6.759
 1956SOL    HW2 6549   1.089   3.094   6.610
 1957SOL     OW 6550   1.643   2.973   6.670
 1957SOL    HW1 6551   1.631   3.035   6.743
 1957SOL    HW2 6552   1.563   2.982   6.617
 1958SOL     OW 6553   0.917   1.961   6.986
 1958SOL    HW1 6554   0.940   1.941   6.895
 1958SOL    HW2 6555   0.997   2.000   7.022
 1959SOL     OW 6556   0.984   2.976   7.308
 1959SOL    HW1 6557   0.891   2.990   7.326
 1959SOL    HW2 6558   0.985   2.899   7.252
 1960SOL     OW 6559   0.708   2.922   5.959
 1960SOL    HW1 6560   0.695   2.908   6.053
 1960SOL    HW2 6561   0.784   2.868   5.937
 1961SOL     OW 6562   0.429   2.684   6.824
 1961SOL    HW1 6563   0.497   2.696   6.890
 1961SOL    HW2 6564   0.369   2.620   6.863
 1962SOL     OW 6565   1.269   2.238   6.859
 1962SOL    HW1 6566   1.302   2.317   6.903
 1962SOL    HW2 6567   1.181   2.262   6.829
 1963SOL     OW 6568   0.061   3.437   6.923
 1963SOL    HW1 6569   0.032   3.525   6.900
 1963SOL    HW2 6570   0.156   3.444   6.932
 1964SOL     OW 6571   0.352   2.968   6.080
 1964SOL    HW1 6572   0.359   3.041   6.019
 1964SOL    HW2 6573   0.354   2.890   6.024
 1965SOL     OW 6574   0.562   2.398   6.443
 1965SOL    HW1 6575   0.577   2.458   6.370
 1965SOL    HW2 6576   0.621   2.429   6.512
 1966SOL     OW 6577   1.248   3.209   5.977
 1966SOL    HW1 6578   1.303   3.282   6.006
 1966SOL    HW2 6579   1.161   3.230   6.009
 1967SOL     OW 6580   1.276   3.318   6.732
 1967SOL    HW1 6581   1.331   3.319   6.810
 1967SOL    HW2 6582   1.222   3.239   6.741
 1968SOL     OW 6583   0.348   3.390   6.904
 1968SOL    HW1 6584   0.333   3.343   6.822
 1968SOL    HW2 6585   0.443   3.400   6.909
 1969SOL     OW 6586   0.470   2.620   7.244
 1969SOL    HW1 6587   0.501   2.661   7.163
 1969SOL    HW2 6588   0.504   2.531   7.241
 1970SOL     OW 6589   1.597   2.641   7.266
 1970SOL    HW1 6590   1.510   2.680   7.257
 1970SOL    HW2 6591   1.649   2.681   7.197
 1971SOL     OW 6592   0.997   1.979   7.343
 1971SOL    HW1 6593   1.047   2.053   7.309
 1971SOL    HW2 6594   1.046   1.902   7.316
 1972SOL     OW 6595   0.498   1.906   7.331
 1972SOL    HW1 6596   0.459   1.850   7.265
 1972SOL    HW2 6597   0.437   1.979   7.341
 1973SOL     OW 6598   0.587   2.736   6.609
 1973SOL    HW1 6599   0.617   2.826   6.612
 1973SOL    HW2 6600   0.531   2.726   6.686
 1974SOL     OW 6601   1.359   2.731   6.615
 1974SOL    HW1 6602   1.276   2.719   6.569
 1974SOL    HW2 6603   1.394   2.642   6.624
 1975SOL     OW 6604   1.201   2.397   5.846
 1975SOL    HW1 6605   1.223   2.319   5.898
 1975SOL    HW2 6606   1.161   2.457   5.909
 1976SOL     OW 6607   0.303   2.057   6.827
 1976SOL    HW1 6608   0.265   2.092   6.907
 1976SOL    HW2 6609   0.285   1.963   6.830
 1977SOL     OW 6610   0.048   3.174   6.869
 1977SOL    HW1 6611   0.078   3.128   6.947
 1977SOL    HW2 6612   0.050   3.267   6.894
 1978SOL     OW 6613   0.726   2.494   6.647
 1978SOL    HW1 6614   0.799   2.474   6.588
 1978SOL    HW2 6615   0.700   2.583   6.623
 1979SOL     OW 6616   1.732   2.823   7.436
 1979SOL    HW1 6617   1.686   2.765   7.374
 1979SOL    HW2 6618   1.672   2.832   7.510
 1980SOL     OW 6619   0.307   1.932   6.205
 1980SOL    HW1 6620   0.287   2.021   6.235
 1980SOL    HW2 6621   0.303   1.879   6.285
 1981SOL     OW 6622   1.025   2.623   6.549
 1981SOL    HW1 6623   1.029   2.640   6.643
 1981SOL    HW2 6624   1.002   2.530   6.542
 1982SOL     OW 6625   0.983   3.429   7.300
 1982SOL    HW1 6626   0.967   3.472   7.216
 1982SOL    HW2 6627   1.025   3.346   7.276
 1983SOL     OW 6628   1.856   3.373   7.193
 1983SOL    HW1 6629   1.872   3.397   7.101
 1983SOL    HW2 6630   1.938   3.393   7.238
 1984SOL     OW 6631   0.348   2.791   7.404
 1984SOL    HW1 6632   0.423   2.818   7.457
 1984SOL    HW2 6633   0.383   2.726   7.344
 1985SOL     OW 6634   1.292   2.695   5.617
 1985SOL    HW1 6635   1.343   2.614   5.628
 1985SOL    HW2 6636   1.326   2.733   5.536
 1986SOL     OW 6637   1.063   3.197   6.437
 1986SOL    HW1 6638   1.068   3.123   6.376
 1986SOL    HW2 6639   1.128   3.259   6.404
 1987SOL     OW 6640   0.316   2.675   6.536
 1987SOL    HW1 6641   0.410   2.692   6.533
 1987SOL    HW2 6642   0.310   2.584   6.566
 1988SOL     OW 6643   0.334   2.385   6.580
 1988SOL    HW1 6644   0.295   2.299   6.564
 1988SOL    HW2 6645   0.411   2.387   6.524
 1989SOL     OW 6646   1.134   2.240   7.266
 1989SOL    HW1 6647   1.089   2.296   7.329
 1989SOL    HW2 6648   1.223   2.276   7.261
 1990SOL     OW 6649   1.160   2.067   7.056
 1990SOL    HW1 6650   1.151   2.129   7.128
 1990SOL    HW2 6651   1.197   2.118   6.984
 1991SOL     OW 6652   4.492   3.185   5.786
 1991SOL    HW1 6653   4.399   3.199   5.769
 1991SOL    HW2 6654   4.499   3.093   5.811
 1992SOL     OW 6655   0.094   3.645   6.526
 1992SOL    HW1 6656   0.056   3.583   6.463
 1992SOL    HW2 6657   0.182   3.663   6.491
 1993SOL     OW 6658   0.499   3.435   6.492
 1993SOL    HW1 6659   0.568   3.497   6.516
 1993SOL    HW2 6660   0.544   3.369   6.439
 1994SOL     OW 6661   0.988   2.659   6.816
 1994SOL    HW1 6662   1.042   2.632   6.890
 1994SOL    HW2 6663   0.902   2.620   6.833
 1995SOL     OW 6664   0.037   2.422   6.692
 1995SOL    HW1 6665   0.120   2.386   6.660
 1995SOL    HW2 6666   0.029   2.388   6.781
 1996SOL     OW 6667   0.179   2.376   7.299
 1996SOL    HW1 6668   0.258   2.349   7.252
 1996SOL    HW2 6669   0.153   2.458   7.256
 1997SOL     OW 6670   1.374   2.805   7.245
 1997SOL    HW1 6671   1.396   2.898   7.245
 1997SOL    HW2 6672   1.374   2.780   7.153
 1998SOL     OW 6673   0.817   2.432   5.939
 1998SOL    HW1 6674   0.816   2.355   5.881
 1998SOL    HW2 6675   0.741   2.483   5.910
 1999SOL     OW 6676   1.650   2.465   6.781
 1999SOL    HW1 6677   1.637   2.402   6.851
 1999SOL    HW2 6678   1.734   2.441   6.741
 2000SOL     OW 6679   0.271   3.424   7.328
 2000SOL    HW1 6680   0.218   3.476   7.387
 2000SOL    HW2 6681   0.250   3.333   7.351
 2001SOL     OW 6682   0.684   2.319   6.851
 2001SOL    HW1 6683   0.644   2.240   6.815
 2001SOL    HW2 6684   0.690   2.379   6.777
 2002SOL     OW 6685   0.931   3.541   7.052
 2002SOL    HW1 6686   0.904   3.510   6.965
 2002SOL    HW2 6687   0.930   3.636   7.045
 2003SOL     OW 6688   0.473   2.353   5.775
 2003SOL    HW1 6689   0.531   2.427   5.795
 2003SOL    HW2 6690   0.387   2.392   5.761
 2004SOL     OW 6691   0.161   3.003   7.049
 2004SOL    HW1 6692   0.149   2.954   7.131
 2004SOL    HW2 6693   0.171   2.936   6.982
 2005SOL     OW 6694   1.329   2.912   6.812
 2005SOL    HW1 6695   1.355   2.850   6.744
 2005SOL    HW2 6696   1.256   2.961   6.774
 2006SOL     OW 6697   1.305   2.714   5.895
 2006SOL    HW1 6698   1.228   2.688   5.946
 2006SOL    HW2 6699   1.277   2.707   5.804
 2007SOL     OW 6700   1.767   3.610   6.734
 2007SOL    HW1 6701   1.828   3.634   6.664
 2007SOL    HW2 6702   1.743   3.519   6.715
 2008SOL     OW 6703   1.242   3.595   6.704
 2008SOL    HW1 6704   1.323   3.612   6.656
 2008SOL    HW2 6705   1.244   3.501   6.721
 2009SOL     OW 6706   0.069   3.052   6.633
 2009SOL    HW1 6707   0.074   3.086   6.722
 2009SOL    HW2 6708   0.009   3.111   6.588
 2010SOL     OW 6709   0.679   3.526   7.310
 2010SOL    HW1 6710   0.626   3.605   7.307
 2010SOL    HW2 6711   0.740   3.534   7.237
 2011SOL     OW 6712   1.389   3.430   6.067
 2011SOL    HW1 6713   1.450   3.461   6.001
 2011SOL    HW2 6714   1.342   3.508   6.096
 2012SOL     OW 6715   0.121   3.669   7.433
 2012SOL    HW1 6716   0.082   3.595   7.480
 2012SOL    HW2 6717   0.184   3.706   7.495
 2013SOL     OW 6718   1.285   2.784   6.262
 2013SOL    HW1 6719   1.358   2.723   6.254
 2013SOL    HW2 6720   1.311   2.860   6.210
 2014SOL     OW 6721   0.819   3.134   7.017
 2014SOL    HW1 6722   0.794   3.173   7.101
 2014SOL    HW2 6723   0.747   3.155   6.958
 2015SOL     OW 6724   0.673   3.478   5.741
 2015SOL    HW1 6725   0.681   3.488   5.646
 2015SOL    HW2 6726   0.620   3.399   5.752
 2016SOL     OW 6727   1.634   3.588   6.979
 2016SOL    HW1 6728   1.680   3.596   6.896
 2016SOL    HW2 6729   1.620   3.679   7.007
 2017SOL     OW 6730   1.835   2.041   6.554
 2017SOL    HW1 6731   1.875   1.958   6.527
 2017SOL    HW2 6732   1.748   2.039   6.514
 2018SOL     OW 6733   0.267   2.182   6.306
 2018SOL    HW1 6734   0.185   2.222   6.277
 2018SOL    HW2 6735   0.256   2.170   6.400
 2019SOL     OW 6736   1.205   3.470   5.617
 2019SOL    HW1 6737   1.197   3.379   5.644
 2019SOL    HW2 6738   1.141   3.480   5.547
 2020SOL     OW 6739   0.824   2.868   6.958
 2020SOL    HW1 6740   0.869   2.864   6.873
 2020SOL    HW2 6741   0.826   2.961   6.981
 2021SOL     OW 6742   0.915   2.772   5.875
 2021SOL    HW1 6743   0.977   2.804   5.810
 2021SOL    HW2 6744   0.961   2.700   5.919
 2022SOL     OW 6745   1.496   3.487   5.628
 2022SOL    HW1 6746   1.401   3.483   5.617
 2022SOL    HW2 6747   1.530   3.493   5.538
 2023SOL     OW 6748   0.373   3.166   7.077
 2023SOL    HW1 6749   0.356   3.245   7.026
 2023SOL    HW2 6750   0.296   3.110   7.061
 2024SOL     OW 6751   1.614   3.149   6.870
 2024SOL    HW1 6752   1.668   3.139   6.948
 2024SOL    HW2 6753   1.552   3.219   6.894
 2025SOL     OW 6754   1.047   2.966   6.290
 2025SOL    HW1 6755   0.977   2.917   6.332
 2025SOL    HW2 6756   1.107   2.899   6.256
 2026SOL     OW 6757   1.016   2.101   6.554
 2026SOL    HW1 6758   1.012   2.053   6.471
 2026SOL    HW2 6759   1.013   2.032   6.621
 2027SOL     OW 6760   0.603   3.352   6.069
 2027SOL    HW1 6761   0.639   3.301   5.997
 2027SOL    HW2 6762   0.532   3.403   6.029
 2028SOL     OW 6763   1.720   2.254   6.969
 2028SOL    HW1 6764   1.791   2.318   6.967
 2028SOL    HW2 6765   1.750   2.182   6.913
 2029SOL     OW 6766   0.252   3.208   5.864
 2029SOL    HW1 6767   0.158   3.209   5.849
 2029SOL    HW2 6768   0.262   3.241   5.953
 2030SOL     OW 6769   0.118   2.870   7.282
 2030SOL    HW1 6770   0.052   2.905   7.342
 2030SOL    HW2 6771   0.195   2.857   7.337
 2031SOL     OW 6772   0.672   2.060   7.084
 2031SOL    HW1 6773   0.756   2.041   7.041
 2031SOL    HW2 6774   0.696   2.086   7.173
 2032SOL     OW 6775   0.073   2.189   5.619
 2032SOL    HW1 6776   4.477   2.196   5.616
 2032SOL    HW2 6777   0.104   2.271   5.581
 2033SOL     OW 6778   1.433   2.721   6.989
 2033SOL    HW1 6779   1.384   2.778   6.930
 2033SOL    HW2 6780   1.522   2.723   6.954
 2034SOL     OW 6781   0.084   2.040   5.894
 2034SOL    HW1 6782   0.077   2.111   5.830
 2034SOL    HW2 6783   0.160   1.989   5.866
 2035SOL     OW 6784   1.180   3.203   5.703
 2035SOL    HW1 6785   1.089   3.176   5.706
 2035SOL    HW2 6786   1.208   3.203   5.795
 2036SOL     OW 6787   0.620   2.694   7.014
 2036SOL    HW1 6788   0.675   2.771   7.002
 2036SOL    HW2 6789   0.682   2.621   7.024
 2037SOL     OW 6790   1.485   3.637   6.561
 2037SOL    HW1 6791   1.513   3.693   6.489
 2037SOL    HW2 6792   1.565   3.619   6.610
 2038SOL     OW 6793   0.716   2.425   7.291
 2038SOL    HW1 6794   0.749   2.491   7.352
 2038SOL    HW2 6795   0.756   2.343   7.321
 2039SOL     OW 6796   1.468   3.067   7.219
 2039SOL    HW1 6797   1.457   3.078   7.314
 2039SOL    HW2 6798   1.562   3.076   7.205
 2040SOL     OW 6799   0.383   3.604   7.149
 2040SOL    HW1 6800   0.297   3.644   7.135
 2040SOL    HW2 6801   0.365   3.522   7.195
 2041SOL     OW 6802   1.671   2.746   6.842
 2041SOL    HW1 6803   1.663   2.661   6.799
 2041SOL    HW2 6804   1.667   2.809   6.770
 2042SOL     OW 6805   0.592   2.602   6.251
 2042SOL    HW1 6806   0.630   2.688   6.236
 2042SOL    HW2 6807   0.520   2.596   6.188
 2043SOL     OW 6808   1.766   2.222   7.242
 2043SOL    HW1 6809   1.758   2.234   7.147
 2043SOL    HW2 6810   1.692   2.167   7.266
 2044SOL     OW 6811   1.743   2.796   7.099
 2044SOL    HW1 6812   1.747   2.891   7.110
 2044SOL    HW2 6813   1.728   2.783   7.005
 2045SOL     OW 6814   0.865   3.231   5.616
 2045SOL    HW1 6815   0.823   3.256   5.698
 2045SOL    HW2 6816   0.882   3.314   5.572
 2046SOL     OW 6817   0.659   3.656   6.535
 2046SOL    HW1 6818   0.637   3.746   6.509
 2046SOL    HW2 6819   0.754   3.652   6.526
 2047SOL     OW 6820   0.866   2.827   6.442
 2047SOL    HW1 6821   0.916   2.756   6.481
 2047SOL    HW2 6822   0.833   2.878   6.516
 2048SOL     OW 6823   1.079   2.852   5.676
 2048SOL    HW1 6824   1.055   2.902   5.598
 2048SOL    HW2 6825   1.154   2.799   5.648
 2049SOL     OW 6826   1.857   3.419   6.433
 2049SOL    HW1 6827   1.781   3.406   6.376
 2049SOL    HW2 6828   1.850   3.348   6.498
 2050SOL     OW 6829   0.228   3.169   7.442
 2050SOL    HW1 6830   0.160   3.107   7.417
 2050SOL    HW2 6831   0.218   3.179   7.537
 2051SOL     OW 6832   0.101   3.102   6.252
 2051SOL    HW1 6833   0.103   3.050   6.332
 2051SOL    HW2 6834   0.162   3.058   6.193
 2052SOL     OW 6835   0.680   3.262   7.212
 2052SOL    HW1 6836   0.600   3.218   7.240
 2052SOL    HW2 6837   0.674   3.350   7.249
 2053SOL     OW 6838   1.817   2.051   6.824
 2053SOL    HW1 6839   1.830   1.958   6.840
 2053SOL    HW2 6840   1.830   2.061   6.729
 2054SOL     OW 6841   0.434   2.295   6.110
 2054SOL    HW1 6842   0.458   2.221   6.055
 2054SOL    HW2 6843   0.385   2.256   6.182
 2055SOL     OW 6844   1.701   3.355   6.688
 2055SOL    HW1 6845   1.621   3.327   6.644
 2055SOL    HW2 6846   1.719   3.285   6.751
 2056SOL     OW 6847   0.306   2.351   6.844
 2056SOL    HW1 6848   0.380   2.312   6.891
 2056SOL    HW2 6849   0.339   2.365   6.755
 2057SOL     OW 6850   0.825   3.440   6.266
 2057SOL    HW1 6851   0.819   3.483   6.181
 2057SOL    HW2 6852   0.746   3.386   6.271
 2058SOL     OW 6853   1.434   2.080   6.707
 2058SOL    HW1 6854   1.462   2.007   6.762
 2058SOL    HW2 6855   1.381   2.135   6.765
 2059SOL     OW 6856   1.007   1.882   6.732
 2059SOL    HW1 6857   0.954   1.813   6.694
 2059SOL    HW2 6858   1.096   1.846   6.735
 2060SOL     OW 6859   0.772   3.193   5.894
 2060SOL    HW1 6860   0.737   3.105   5.903
 2060SOL    HW2 6861   0.853   3.192   5.944
 2061SOL     OW 6862   0.621   3.421   6.870
 2061SOL    HW1 6863   0.624   3.502   6.921
 2061SOL    HW2 6864   0.708   3.414   6.831
 2062SOL     OW 6865   1.344   1.924   5.755
 2062SOL    HW1 6866   1.377   1.871   5.682
 2062SOL    HW2 6867   1.265   1.879   5.783
 2063SOL     OW 6868   0.041   2.916   5.873
 2063SOL    HW1 6869   0.136   2.906   5.867
 2063SOL    HW2 6870   0.018   2.874   5.955
 2064SOL     OW 6871   0.881   3.511   5.930
 2064SOL    HW1 6872   0.810   3.492   5.869
 2064SOL    HW2 6873   0.851   3.587   5.980
 2065SOL     OW 6874   0.248   2.489   7.566
 2065SOL    HW1 6875   0.172   2.476   7.622
 2065SOL    HW2 6876   0.217   2.467   7.478
 2066SOL     OW 6877   0.213   2.138   8.440
 2066SOL    HW1 6878   0.250   2.112   8.524
 2066SOL    HW2 6879   0.137   2.081   8.428
 2067SOL     OW 6880   0.010   2.248   8.087
 2067SOL    HW1 6881   4.430   2.278   8.130
 2067SOL    HW2 6882   4.484   2.168   8.041
 2068SOL     OW 6883   0.567   3.143   8.620
 2068SOL    HW1 6884   0.479   3.147   8.582
 2068SOL    HW2 6885   0.582   3.231   8.655
 2069SOL     OW 6886   1.557   3.374   8.153
 2069SOL    HW1 6887   1.512   3.356   8.236
 2069SOL    HW2 6888   1.486   3.379   8.089
 2070SOL     OW 6889   1.129   2.561   8.153
 2070SOL    HW1 6890   1.180   2.641   8.138
 2070SOL    HW2 6891   1.083   2.577   8.235
 2071SOL     OW 6892   1.765   2.469   7.678
 2071SOL    HW1 6893   1.745   2.460   7.585
 2071SOL    HW2 6894   1.731   2.389   7.718
 2072SOL     OW 6895   0.760   3.007   8.485
 2072SOL    HW1 6896   0.689   3.040   8.541
 2072SOL    HW2 6897   0.793   3.084   8.440
 2073SOL     OW 6898   0.862   2.643   9.269
 2073SOL    HW1 6899   0.849   2.715   9.331
 2073SOL    HW2 6900   0.885   2.686   9.186
 2074SOL     OW 6901   0.686   2.870   8.098
 2074SOL    HW1 6902   0.750   2.854   8.167
 2074SOL    HW2 6903   0.616   2.919   8.140
 2075SOL     OW 6904   0.707   3.014   9.257
 2075SOL    HW1 6905   0.755   3.093   9.280
 2075SOL    HW2 6906   0.623   3.045   9.223
 2076SOL     OW 6907   0.337   3.286   8.518
 2076SOL    HW1 6908   0.256   3.266   8.471
 2076SOL    HW2 6909   0.387   3.341   8.457
 2077SOL     OW 6910   1.462   3.360   8.798
 2077SOL    HW1 6911   1.504   3.445   8.809
 2077SOL    HW2 6912   1.408   3.349   8.876
 2078SOL     OW 6913   0.442   2.266   8.944
 2078SOL    HW1 6914   0.522   2.213   8.946
 2078SOL    HW2 6915   0.371   2.202   8.947
 2079SOL     OW 6916   1.612   2.310   8.188
 2079SOL    HW1 6917   1.537   2.337   8.135
 2079SOL    HW2 6918   1.636   2.389   8.237
 2080SOL     OW 6919   0.245   3.554   7.928
 2080SOL    HW1 6920   0.234   3.638   7.971
 2080SOL    HW2 6921   0.305   3.572   7.855
 2081SOL     OW 6922   1.136   3.203   9.139
 2081SOL    HW1 6923   1.175   3.200   9.226
 2081SOL    HW2 6924   1.082   3.123   9.133
 2082SOL     OW 6925   0.243   3.290   7.976
 2082SOL    HW1 6926   0.236   3.385   7.982
 2082SOL    HW2 6927   0.178   3.257   8.039
 2083SOL     OW 6928   0.244   2.943   8.330
 2083SOL    HW1 6929   0.263   2.856   8.365
 2083SOL    HW2 6930   0.188   2.984   8.395
 2084SOL     OW 6931   0.617   3.652   8.881
 2084SOL    HW1 6932   0.533   3.635   8.923
 2084SOL    HW2 6933   0.637   3.743   8.905
 2085SOL     OW 6934   0.585   2.844   7.582
 2085SOL    HW1 6935   0.629   2.893   7.512
 2085SOL    HW2 6936   0.631   2.871   7.662
 2086SOL     OW 6937   1.590   1.981   8.918
 2086SOL    HW1 6938   1.598   2.059   8.863
 2086SOL    HW2 6939   1.585   2.016   9.007
 2087SOL     OW 6940   0.137   2.505   8.023
 2087SOL    HW1 6941   0.085   2.425   8.035
 2087SOL    HW2 6942   0.106   2.564   8.092
 2088SOL     OW 6943   1.841   3.624   7.785
 2088SOL    HW1 6944   1.900   3.594   7.855
 2088SOL    HW2 6945   1.869   3.713   7.767
 2089SOL     OW 6946   0.033   3.462   7.583
 2089SOL    HW1 6947   0.021   3.367   7.586
 2089SOL    HW2 6948   0.008   3.493   7.670
 2090SOL     OW 6949   1.692   2.782   8.085
 2090SOL    HW1 6950   1.774   2.739   8.065
 2090SOL    HW2 6951   1.669   2.831   8.006
 2091SOL     OW 6952   1.644   2.970   7.878
 2091SOL    HW1 6953   1.729   2.979   7.834
 2091SOL    HW2 6954   1.649   3.030   7.952
 2092SOL     OW 6955   0.110   2.620   9.038
 2092SOL    HW1 6956   0.205   2.621   9.027
 2092SOL    HW2 6957   0.085   2.713   9.039
 2093SOL     OW 6958   0.613   3.243   8.183
 2093SOL    HW1 6959   0.566   3.160   8.192
 2093SOL    HW2 6960   0.596   3.271   8.093
 2094SOL     OW 6961   1.291   3.101   8.872
 2094SOL    HW1 6962   1.323   3.033   8.813
 2094SOL    HW2 6963   1.346   3.093   8.950
 2095SOL     OW 6964   0.812   1.860   7.952
 2095SOL    HW1 6965   0.853   1.945   7.938
 2095SOL    HW2 6966   0.719   1.879   7.964
 2096SOL     OW 6967   0.184   2.808   8.727
 2096SOL    HW1 6968   0.275   2.789   8.703
 2096SOL    HW2 6969   0.134   2.780   8.651
 2097SOL     OW 6970   1.532   2.854   7.644
 2097SOL    HW1 6971   1.462   2.794   7.672
 2097SOL    HW2 6972   1.570   2.886   7.725
 2098SOL     OW 6973   1.186   3.665   9.068
 2098SOL    HW1 6974   1.201   3.722   8.992
 2098SOL    HW2 6975   1.200   3.577   9.035
 2099SOL     OW 6976   0.328   2.117   9.243
 2099SOL    HW1 6977   0.381   2.190   9.275
 2099SOL    HW2 6978   0.243   2.129   9.286
 2100SOL     OW 6979   1.466   3.282   8.402
 2100SOL    HW1 6980   1.397   3.295   8.467
 2100SOL    HW2 6981   1.454   3.191   8.374
 2101SOL     OW 6982   1.662   3.594   8.025
 2101SOL    HW1 6983   1.638   3.566   7.937
 2101SOL    HW2 6984   1.635   3.521   8.081
 2102SOL     OW 6985   0.597   2.585   7.712
 2102SOL    HW1 6986   0.603   2.664   7.659
 2102SOL    HW2 6987   0.531   2.605   7.778
 2103SOL     OW 6988   1.280   2.210   8.380
 2103SOL    HW1 6989   1.191   2.176   8.388
 2103SOL    HW2 6990   1.330   2.158   8.443
 2104SOL     OW 6991   1.581   3.530   7.757
 2104SOL    HW1 6992   1.670   3.565   7.751
 2104SOL    HW2 6993   1.557   3.512   7.666
 2105SOL     OW 6994   0.794   2.478   8.901
 2105SOL    HW1 6995   0.768   2.456   8.990
 2105SOL    HW2 6996   0.750   2.414   8.846
 2106SOL     OW 6997   1.393   2.336   9.126
 2106SOL    HW1 6998   1.394   2.379   9.211
 2106SOL    HW2 6999   1.458   2.266   9.134
 2107SOL     OW 7000   0.959   2.751   9.028
 2107SOL    HW1 7001   1.012   2.679   8.994
 2107SOL    HW2 7002   0.911   2.784   8.952
 2108SOL     OW 7003   0.993   2.276   8.688
 2108SOL    HW1 7004   0.910   2.299   8.730
 2108SOL    HW2 7005   0.967   2.227   8.609
 2109SOL     OW 7006   1.049   2.561   7.875
 2109SOL    HW1 7007   1.064   2.554   7.969
 2109SOL    HW2 7008   0.967   2.513   7.860
 2110SOL     OW 7009   0.098   2.685   8.231
 2110SOL    HW1 7010   0.184   2.664   8.267
 2110SOL    HW2 7011   0.055   2.736   8.300
 2111SOL     OW 7012   0.127   3.711   9.023
 2111SOL    HW1 7013   0.119   3.689   9.116
 2111SOL    HW2 7014   0.044   3.682   8.985
 2112SOL     OW 7015   0.885   2.208   7.641
 2112SOL    HW1 7016   0.930   2.269   7.583
 2112SOL    HW2 7017   0.905   2.121   7.606
 2113SOL     OW 7018   1.715   2.444   9.276
 2113SOL    HW1 7019   1.676   2.519   9.231
 2113SOL    HW2 7020   1.729   2.379   9.207
 2114SOL     OW 7021   1.375   3.005   7.991
 2114SOL    HW1 7022   1.452   2.989   7.937
 2114SOL    HW2 7023   1.322   3.067   7.939
 2115SOL     OW 7024   0.550   2.047   8.340
 2115SOL    HW1 7025   0.553   2.074   8.432
 2115SOL    HW2 7026   0.552   2.129   8.291
 2116SOL     OW 7027   1.009   3.308   7.922
 2116SOL    HW1 7028   0.968   3.379   7.873
 2116SOL    HW2 7029   0.994   3.331   8.014
 2117SOL     OW 7030   0.354   3.669   8.304
 2117SOL    HW1 7031   0.397   3.584   8.314
 2117SOL    HW2 7032   0.424   3.733   8.316
 2118SOL     OW 7033   1.799   2.922   8.315
 2118SOL    HW1 7034   1.742   2.905   8.239
 2118SOL    HW2 7035   1.739   2.927   8.389
 2119SOL     OW 7036   1.228   3.402   8.960
 2119SOL    HW1 7037   1.215   3.329   9.020
 2119SOL    HW2 7038   1.167   3.385   8.888
 2120SOL     OW 7039   0.317   2.816   7.696
 2120SOL    HW1 7040   0.402   2.838   7.657
 2120SOL    HW2 7041   0.299   2.727   7.666
 2121SOL     OW 7042   1.475   2.601   8.176
 2121SOL    HW1 7043   1.463   2.553   8.258
 2121SOL    HW2 7044   1.552   2.656   8.191
 2122SOL     OW 7045   0.465   3.123   9.183
 2122SOL    HW1 7046   0.437   3.129   9.092
 2122SOL    HW2 7047   0.384   3.128   9.234
 2123SOL     OW 7048   1.120   3.639   7.680
 2123SOL    HW1 7049   1.049   3.595   7.727
 2123SOL    HW2 7050   1.141   3.580   7.608
 2124SOL     OW 7051   0.195   2.140   8.936
 2124SOL    HW1 7052   0.131   2.211   8.940
 2124SOL    HW2 7053   0.186   2.095   9.020
 2125SOL     OW 7054   1.630   3.241   7.535
 2125SOL    HW1 7055   1.588   3.326   7.519
 2125SOL    HW2 7056   1.561   3.177   7.516
 2126SOL     OW 7057   0.469   3.607   7.762
 2126SOL    HW1 7058   0.508   3.658   7.833
 2126SOL    HW2 7059   0.544   3.575   7.711
 2127SOL     OW 7060   1.401   1.970   7.878
 2127SOL    HW1 7061   1.389   1.945   7.786
 2127SOL    HW2 7062   1.496   1.979   7.889
 2128SOL     OW 7063   0.260   3.656   8.682
 2128SOL    HW1 7064   0.306   3.583   8.723
 2128SOL    HW2 7065   0.229   3.621   8.599
 2129SOL     OW 7066   0.939   3.560   8.348
 2129SOL    HW1 7067   1.015   3.506   8.369
 2129SOL    HW2 7068   0.892   3.512   8.280
 2130SOL     OW 7069   0.392   2.558   7.923
 2130SOL    HW1 7070   0.417   2.466   7.932
 2130SOL    HW2 7071   0.300   2.560   7.949
 2131SOL     OW 7072   1.538   2.087   9.174
 2131SOL    HW1 7073   1.544   2.108   9.268
 2131SOL    HW2 7074   1.471   2.019   9.169
 2132SOL     OW 7075   0.628   1.988   7.554
 2132SOL    HW1 7076   0.704   1.932   7.567
 2132SOL    HW2 7077   0.585   1.953   7.476
 2133SOL     OW 7078   0.769   2.137   9.200
 2133SOL    HW1 7079   0.841   2.075   9.208
 2133SOL    HW2 7080   0.718   2.125   9.281
 2134SOL     OW 7081   0.878   3.383   8.641
 2134SOL    HW1 7082   0.862   3.347   8.554
 2134SOL    HW2 7083   0.946   3.327   8.678
 2135SOL     OW 7084   1.341   2.451   8.880
 2135SOL    HW1 7085   1.372   2.418   8.964
 2135SOL    HW2 7086   1.378   2.539   8.874
 2136SOL     OW 7087   0.813   3.261   8.383
 2136SOL    HW1 7088   0.896   3.251   8.338
 2136SOL    HW2 7089   0.747   3.258   8.314
 2137SOL     OW 7090   0.926   2.371   8.352
 2137SOL    HW1 7091   0.904   2.363   8.260
 2137SOL    HW2 7092   0.960   2.285   8.376
 2138SOL     OW 7093   0.550   1.924   7.953
 2138SOL    HW1 7094   0.469   1.923   8.004
 2138SOL    HW2 7095   0.543   2.003   7.899
 2139SOL     OW 7096   1.429   3.060   7.490
 2139SOL    HW1 7097   1.460   2.984   7.539
 2139SOL    HW2 7098   1.343   3.078   7.526
 2140SOL     OW 7099   0.295   1.908   7.626
 2140SOL    HW1 7100   0.357   1.976   7.599
 2140SOL    HW2 7101   0.349   1.842   7.670
 2141SOL     OW 7102   0.936   2.105   7.913
 2141SOL    HW1 7103   0.907   2.149   7.832
 2141SOL    HW2 7104   1.031   2.117   7.913
 2142SOL     OW 7105   1.080   2.541   8.908
 2142SOL    HW1 7106   1.009   2.476   8.914
 2142SOL    HW2 7107   1.160   2.489   8.900
 2143SOL     OW 7108   1.225   3.431   8.241
 2143SOL    HW1 7109   1.243   3.499   8.177
 2143SOL    HW2 7110   1.293   3.443   8.308
 2144SOL     OW 7111   0.465   3.009   8.186
 2144SOL    HW1 7112   0.392   2.991   8.246
 2144SOL    HW2 7113   0.428   2.993   8.099
 2145SOL     OW 7114   1.272   3.657   8.053
 2145SOL    HW1 7115   1.315   3.719   7.994
 2145SOL    HW2 7116   1.207   3.710   8.100
 2146SOL     OW 7117   1.025   2.407   7.467
 2146SOL    HW1 7118   0.984   2.491   7.446
 2146SOL    HW2 7119   1.090   2.429   7.534
 2147SOL     OW 7120   0.080   2.396   8.854
 2147SOL    HW1 7121   0.150   2.398   8.789
 2147SOL    HW2 7122   0.068   2.488   8.879
 2148SOL     OW 7123   0.562   2.089   8.612
 2148SOL    HW1 7124   0.601   2.008   8.644
 2148SOL    HW2 7125   0.470   2.084   8.639
 2149SOL     OW 7126   0.870   2.322   8.088
 2149SOL    HW1 7127   0.823   2.375   8.024
 2149SOL    HW2 7128   0.889   2.240   8.041
 2150SOL     OW 7129   1.014   1.914   8.202
 2150SOL    HW1 7130   0.956   1.906   8.127
 2150SOL    HW2 7131   0.994   1.838   8.256
 2151SOL     OW 7132   1.435   3.026   8.306
 2151SOL    HW1 7133   1.368   2.958   8.304
 2151SOL    HW2 7134   1.458   3.040   8.214
 2152SOL     OW 7135   1.467   2.464   8.430
 2152SOL    HW1 7136   1.421   2.380   8.433
 2152SOL    HW2 7137   1.528   2.461   8.504
 2153SOL     OW 7138   1.849   2.681   7.831
 2153SOL    HW1 7139   1.903   2.627   7.888
 2153SOL    HW2 7140   1.819   2.621   7.762
 2154SOL     OW 7141   0.493   3.275   7.611
 2154SOL    HW1 7142   0.416   3.245   7.660
 2154SOL    HW2 7143   0.471   3.256   7.519
 2155SOL     OW 7144   1.668   3.128   8.097
 2155SOL    HW1 7145   1.763   3.134   8.109
 2155SOL    HW2 7146   1.635   3.215   8.118
 2156SOL     OW 7147   1.393   2.434   7.519
 2156SOL    HW1 7148   1.335   2.415   7.592
 2156SOL    HW2 7149   1.479   2.401   7.548
 2157SOL     OW 7150   0.525   2.123   7.769
 2157SOL    HW1 7151   0.566   2.074   7.698
 2157SOL    HW2 7152   0.509   2.210   7.733
 2158SOL     OW 7153   1.753   3.098   9.024
 2158SOL    HW1 7154   1.841   3.058   9.023
 2158SOL    HW2 7155   1.768   3.187   9.055
 2159SOL     OW 7156   1.061   3.216   8.783
 2159SOL    HW1 7157   0.986   3.184   8.834
 2159SOL    HW2 7158   1.137   3.174   8.824
 2160SOL     OW 7159   1.605   3.487   9.099
 2160SOL    HW1 7160   1.603   3.521   9.009
 2160SOL    HW2 7161   1.688   3.441   9.105
 2161SOL     OW 7162   1.125   3.063   8.555
 2161SOL    HW1 7163   1.066   3.101   8.621
 2161SOL    HW2 7164   1.090   3.093   8.472
 2162SOL     OW 7165   1.632   2.963   8.526
 2162SOL    HW1 7166   1.627   3.025   8.599
 2162SOL    HW2 7167   1.551   2.976   8.478
 2163SOL     OW 7168   0.917   1.961   8.847
 2163SOL    HW1 7169   0.940   1.941   8.756
 2163SOL    HW2 7170   0.996   2.000   8.884
 2164SOL     OW 7171   0.984   2.976   9.170
 2164SOL    HW1 7172   0.891   2.991   9.189
 2164SOL    HW2 7173   0.985   2.899   9.114
 2165SOL     OW 7174   0.708   2.922   7.821
 2165SOL    HW1 7175   0.696   2.908   7.915
 2165SOL    HW2 7176   0.784   2.869   7.799
 2166SOL     OW 7177   0.429   2.684   8.686
 2166SOL    HW1 7178   0.497   2.696   8.752
 2166SOL    HW2 7179   0.369   2.619   8.725
 2167SOL     OW 7180   1.268   2.241   8.720
 2167SOL    HW1 7181   1.300   2.318   8.767
 2167SOL    HW2 7182   1.179   2.263   8.694
 2168SOL     OW 7183   0.061   3.437   8.785
 2168SOL    HW1 7184   0.032   3.525   8.763
 2168SOL    HW2 7185   0.156   3.444   8.794
 2169SOL     OW 7186   0.352   2.968   7.942
 2169SOL    HW1 7187   0.360   3.041   7.881
 2169SOL    HW2 7188   0.355   2.890   7.886
 2170SOL     OW 7189   0.562   2.398   8.306
 2170SOL    HW1 7190   0.576   2.457   8.232
 2170SOL    HW2 7191   0.621   2.430   8.374
 2171SOL     OW 7192   1.248   3.210   7.838
 2171SOL    HW1 7193   1.303   3.282   7.868
 2171SOL    HW2 7194   1.161   3.230   7.871
 2172SOL     OW 7195   1.276   3.317   8.593
 2172SOL    HW1 7196   1.330   3.319   8.672
 2172SOL    HW2 7197   1.221   3.240   8.604
 2173SOL     OW 7198   1.582   2.488   7.923
 2173SOL    HW1 7199   1.539   2.545   7.987
 2173SOL    HW2 7200   1.629   2.547   7.865
 2174SOL     OW 7201   0.348   3.390   8.766
 2174SOL    HW1 7202   0.333   3.343   8.684
 2174SOL    HW2 7203   0.443   3.400   8.771
 2175SOL     OW 7204   0.471   2.621   9.107
 2175SOL    HW1 7205   0.501   2.661   9.025
 2175SOL    HW2 7206   0.503   2.531   9.102
 2176SOL     OW 7207   1.597   2.641   9.128
 2176SOL    HW1 7208   1.510   2.680   9.119
 2176SOL    HW2 7209   1.649   2.682   9.059
 2177SOL     OW 7210   0.997   1.979   9.205
 2177SOL    HW1 7211   1.047   2.053   9.171
 2177SOL    HW2 7212   1.046   1.901   9.178
 2178SOL     OW 7213   0.498   1.907   9.193
 2178SOL    HW1 7214   0.459   1.850   9.127
 2178SOL    HW2 7215   0.436   1.979   9.203
 2179SOL     OW 7216   0.588   2.735   8.472
 2179SOL    HW1 7217   0.616   2.826   8.474
 2179SOL    HW2 7218   0.531   2.726   8.548
 2180SOL     OW 7219   1.361   2.721   8.482
 2180SOL    HW1 7220   1.281   2.715   8.431
 2180SOL    HW2 7221   1.398   2.633   8.480
 2181SOL     OW 7222   1.208   2.391   7.718
 2181SOL    HW1 7223   1.215   2.312   7.772
 2181SOL    HW2 7224   1.166   2.455   7.775
 2182SOL     OW 7225   0.303   2.057   8.689
 2182SOL    HW1 7226   0.265   2.091   8.770
 2182SOL    HW2 7227   0.285   1.963   8.692
 2183SOL     OW 7228   0.048   3.174   8.731
 2183SOL    HW1 7229   0.078   3.128   8.810
 2183SOL    HW2 7230   0.050   3.267   8.756
 2184SOL     OW 7231   0.727   2.495   8.509
 2184SOL    HW1 7232   0.799   2.475   8.449
 2184SOL    HW2 7233   0.700   2.583   8.486
 2185SOL     OW 7234   1.732   2.822   9.298
 2185SOL    HW1 7235   1.685   2.765   9.237
 2185SOL    HW2 7236   1.673   2.833   9.372
 2186SOL     OW 7237   0.307   1.932   8.067
 2186SOL    HW1 7238   0.287   2.021   8.097
 2186SOL    HW2 7239   0.303   1.879   8.147
 2187SOL     OW 7240   1.612   2.233   7.818
 2187SOL    HW1 7241   1.641   2.171   7.885
 2187SOL    HW2 7242   1.590   2.312   7.867
 2188SOL     OW 7243   1.027   2.622   8.411
 2188SOL    HW1 7244   1.027   2.640   8.505
 2188SOL    HW2 7245   1.000   2.530   8.403
 2189SOL     OW 7246   0.983   3.429   9.162
 2189SOL    HW1 7247   0.967   3.472   9.078
 2189SOL    HW2 7248   1.025   3.346   9.138
 2190SOL     OW 7249   1.856   3.372   9.054
 2190SOL    HW1 7250   1.873   3.397   8.963
 2190SOL    HW2 7251   1.938   3.393   9.100
 2191SOL     OW 7252   0.348   2.791   9.266
 2191SOL    HW1 7253   0.423   2.818   9.319
 2191SOL    HW2 7254   0.383   2.726   9.206
 2192SOL     OW 7255   1.531   2.135   7.575
 2192SOL    HW1 7256   1.467   2.070   7.602
 2192SOL    HW2 7257   1.564   2.173   7.657
 2193SOL     OW 7258   1.295   2.690   7.482
 2193SOL    HW1 7259   1.337   2.604   7.485
 2193SOL    HW2 7260   1.325   2.728   7.399
 2194SOL     OW 7261   1.065   3.197   8.300
 2194SOL    HW1 7262   1.067   3.123   8.239
 2194SOL    HW2 7263   1.128   3.260   8.265
 2195SOL     OW 7264   0.316   2.675   8.399
 2195SOL    HW1 7265   0.410   2.692   8.394
 2195SOL    HW2 7266   0.310   2.584   8.429
 2196SOL     OW 7267   0.334   2.385   8.442
 2196SOL    HW1 7268   0.295   2.299   8.426
 2196SOL    HW2 7269   0.411   2.387   8.386
 2197SOL     OW 7270   1.135   2.241   9.127
 2197SOL    HW1 7271   1.089   2.296   9.191
 2197SOL    HW2 7272   1.223   2.277   9.123
 2198SOL     OW 7273   1.159   2.067   8.918
 2198SOL    HW1 7274   1.151   2.129   8.990
 2198SOL    HW2 7275   1.198   2.117   8.846
 2199SOL     OW 7276   4.492   3.185   7.649
 2199SOL    HW1 7277   4.399   3.199   7.631
 2199SOL    HW2 7278   4.499   3.093   7.673
 2200SOL     OW 7279   0.094   3.645   8.388
 2200SOL    HW1 7280   0.056   3.583   8.325
 2200SOL    HW2 7281   0.182   3.663   8.353
 2201SOL     OW 7282   0.499   3.435   8.354
 2201SOL    HW1 7283   0.568   3.497   8.378
 2201SOL    HW2 7284   0.544   3.369   8.300
 2202SOL     OW 7285   0.989   2.657   8.677
 2202SOL    HW1 7286   1.041   2.631   8.753
 2202SOL    HW2 7287   0.902   2.621   8.693
 2203SOL     OW 7288   0.037   2.423   8.555
 2203SOL    HW1 7289   0.119   2.386   8.522
 2203SOL    HW2 7290   0.029   2.388   8.643
 2204SOL     OW 7291   0.179   2.376   9.161
 2204SOL    HW1 7292   0.258   2.349   9.114
 2204SOL    HW2 7293   0.153   2.458   9.118
 2205SOL     OW 7294   1.375   2.804   9.108
 2205SOL    HW1 7295   1.396   2.897   9.108
 2205SOL    HW2 7296   1.374   2.780   9.015
 2206SOL     OW 7297   0.816   2.430   7.802
 2206SOL    HW1 7298   0.818   2.355   7.743
 2206SOL    HW2 7299   0.741   2.482   7.772
 2207SOL     OW 7300   1.642   2.464   8.639
 2207SOL    HW1 7301   1.632   2.401   8.710
 2207SOL    HW2 7302   1.729   2.447   8.603
 2208SOL     OW 7303   0.272   3.423   9.190
 2208SOL    HW1 7304   0.218   3.476   9.249
 2208SOL    HW2 7305   0.250   3.333   9.213
 2209SOL     OW 7306   0.685   2.319   8.713
 2209SOL    HW1 7307   0.644   2.240   8.677
 2209SOL    HW2 7308   0.690   2.379   8.639
 2210SOL     OW 7309   0.931   3.541   8.914
 2210SOL    HW1 7310   0.904   3.510   8.827
 2210SOL    HW2 7311   0.930   3.636   8.907
 2211SOL     OW 7312   0.473   2.353   7.637
 2211SOL    HW1 7313   0.531   2.426   7.657
 2211SOL    HW2 7314   0.387   2.393   7.623
 2212SOL     OW 7315   0.161   3.003   8.912
 2212SOL    HW1 7316   0.149   2.954   8.993
 2212SOL    HW2 7317   0.171   2.936   8.844
 2213SOL     OW 7318   1.330   2.912   8.673
 2213SOL    HW1 7319   1.354   2.849   8.605
 2213SOL    HW2 7320   1.257   2.961   8.636
 2214SOL     OW 7321   1.308   2.719   7.756
 2214SOL    HW1 7322   1.230   2.688   7.803
 2214SOL    HW2 7323   1.286   2.705   7.664
 2215SOL     OW 7324   1.767   3.609   8.596
 2215SOL    HW1 7325   1.828   3.635   8.526
 2215SOL    HW2 7326   1.744   3.519   8.576
 2216SOL     OW 7327   1.242   3.595   8.566
 2216SOL    HW1 7328   1.323   3.612   8.518
 2216SOL    HW2 7329   1.244   3.501   8.583
 2217SOL     OW 7330   0.069   3.052   8.495
 2217SOL    HW1 7331   0.074   3.086   8.584
 2217SOL    HW2 7332   0.010   3.111   8.450
 2218SOL     OW 7333   0.679   3.526   9.172
 2218SOL    HW1 7334   0.626   3.605   9.169
 2218SOL    HW2 7335   0.740   3.535   9.099
 2219SOL     OW 7336   1.717   2.003   7.961
 2219SOL    HW1 7337   1.792   1.989   7.902
 2219SOL    HW2 7338   1.702   1.917   8.001
 2220SOL     OW 7339   1.390   3.430   7.931
 2220SOL    HW1 7340   1.450   3.460   7.863
 2220SOL    HW2 7341   1.343   3.508   7.958
 2221SOL     OW 7342   0.121   3.669   9.295
 2221SOL    HW1 7343   0.082   3.595   9.342
 2221SOL    HW2 7344   0.184   3.706   9.357
 2222SOL     OW 7345   1.277   2.786   8.119
 2222SOL    HW1 7346   1.350   2.724   8.123
 2222SOL    HW2 7347   1.311   2.859   8.067
 2223SOL     OW 7348   0.819   3.134   8.879
 2223SOL    HW1 7349   0.793   3.172   8.963
 2223SOL    HW2 7350   0.747   3.155   8.820
 2224SOL     OW 7351   0.673   3.478   7.603
 2224SOL    HW1 7352   0.681   3.489   7.508
 2224SOL    HW2 7353   0.620   3.399   7.614
 2225SOL     OW 7354   1.634   3.588   8.841
 2225SOL    HW1 7355   1.681   3.596   8.757
 2225SOL    HW2 7356   1.620   3.679   8.869
 2226SOL     OW 7357   1.846   2.044   8.414
 2226SOL    HW1 7358   1.879   1.958   8.388
 2226SOL    HW2 7359   1.759   2.049   8.375
 2227SOL     OW 7360   0.267   2.182   8.168
 2227SOL    HW1 7361   0.185   2.221   8.138
 2227SOL    HW2 7362   0.256   2.170   8.262
 2228SOL     OW 7363   1.205   3.470   7.479
 2228SOL    HW1 7364   1.198   3.379   7.507
 2228SOL    HW2 7365   1.140   3.479   7.409
 2229SOL     OW 7366   0.825   2.868   8.820
 2229SOL    HW1 7367   0.867   2.865   8.734
 2229SOL    HW2 7368   0.826   2.961   8.844
 2230SOL     OW 7369   0.915   2.773   7.737
 2230SOL    HW1 7370   0.977   2.804   7.671
 2230SOL    HW2 7371   0.962   2.701   7.781
 2231SOL     OW 7372   1.495   3.487   7.490
 2231SOL    HW1 7373   1.400   3.483   7.479
 2231SOL    HW2 7374   1.530   3.492   7.401
 2232SOL     OW 7375   0.373   3.166   8.939
 2232SOL    HW1 7376   0.356   3.245   8.888
 2232SOL    HW2 7377   0.297   3.110   8.923
 2233SOL     OW 7378   1.613   3.146   8.729
 2233SOL    HW1 7379   1.670   3.138   8.806
 2233SOL    HW2 7380   1.551   3.215   8.753
 2234SOL     OW 7381   1.048   2.967   8.153
 2234SOL    HW1 7382   0.977   2.916   8.193
 2234SOL    HW2 7383   1.108   2.902   8.118
 2235SOL     OW 7384   1.019   2.102   8.414
 2235SOL    HW1 7385   1.014   2.054   8.331
 2235SOL    HW2 7386   1.014   2.034   8.481
 2236SOL     OW 7387   0.602   3.352   7.931
 2236SOL    HW1 7388   0.640   3.301   7.860
 2236SOL    HW2 7389   0.532   3.403   7.890
 2237SOL     OW 7390   1.716   2.256   8.826
 2237SOL    HW1 7391   1.792   2.314   8.829
 2237SOL    HW2 7392   1.745   2.181   8.775
 2238SOL     OW 7393   0.252   3.207   7.726
 2238SOL    HW1 7394   0.158   3.209   7.711
 2238SOL    HW2 7395   0.262   3.240   7.815
 2239SOL     OW 7396   0.118   2.870   9.144
 2239SOL    HW1 7397   0.052   2.905   9.204
 2239SOL    HW2 7398   0.195   2.857   9.199
 2240SOL     OW 7399   0.672   2.061   8.946
 2240SOL    HW1 7400   0.755   2.041   8.903
 2240SOL    HW2 7401   0.696   2.086   9.035
 2241SOL     OW 7402   0.072   2.189   7.482
 2241SOL    HW1 7403   4.477   2.197   7.477
 2241SOL    HW2 7404   0.105   2.270   7.443
 2242SOL     OW 7405   1.433   2.721   8.850
 2242SOL    HW1 7406   1.384   2.780   8.792
 2242SOL    HW2 7407   1.523   2.723   8.817
 2243SOL     OW 7408   0.083   2.040   7.755
 2243SOL    HW1 7409   0.078   2.111   7.692
 2243SOL    HW2 7410   0.160   1.989   7.728
 2244SOL     OW 7411   1.180   3.204   7.565
 2244SOL    HW1 7412   1.089   3.174   7.568
 2244SOL    HW2 7413   1.209   3.203   7.656
 2245SOL     OW 7414   0.620   2.694   8.876
 2245SOL    HW1 7415   0.675   2.771   8.864
 2245SOL    HW2 7416   0.682   2.621   8.886
 2246SOL     OW 7417   1.485   3.636   8.422
 2246SOL    HW1 7418   1.512   3.693   8.350
 2246SOL    HW2 7419   1.566   3.621   8.472
 2247SOL     OW 7420   0.716   2.425   9.153
 2247SOL    HW1 7421   0.749   2.490   9.214
 2247SOL    HW2 7422   0.755   2.343   9.183
 2248SOL     OW 7423   1.468   3.066   9.081
 2248SOL    HW1 7424   1.456   3.078   9.176
 2248SOL    HW2 7425   1.562   3.077   9.067
 2249SOL     OW 7426   0.383   3.604   9.011
 2249SOL    HW1 7427   0.297   3.644   8.997
 2249SOL    HW2 7428   0.365   3.522   9.057
 2250SOL     OW 7429   1.673   2.744   8.703
 2250SOL    HW1 7430   1.662   2.659   8.662
 2250SOL    HW2 7431   1.663   2.807   8.632
 2251SOL     OW 7432   1.219   2.182   7.905
 2251SOL    HW1 7433   1.283   2.111   7.896
 2251SOL    HW2 7434   1.247   2.230   7.983
 2252SOL     OW 7435   0.591   2.602   8.115
 2252SOL    HW1 7436   0.630   2.688   8.097
 2252SOL    HW2 7437   0.520   2.595   8.051
 2253SOL     OW 7438   1.753   2.235   9.104
 2253SOL    HW1 7439   1.757   2.232   9.008
 2253SOL    HW2 7440   1.686   2.171   9.127
 2254SOL     OW 7441   1.743   2.795   8.960
 2254SOL    HW1 7442   1.746   2.890   8.973
 2254SOL    HW2 7443   1.728   2.784   8.867
 2255SOL     OW 7444   0.863   3.231   7.478
 2255SOL    HW1 7445   0.822   3.257   7.560
 2255SOL    HW2 7446   0.882   3.314   7.433
 2256SOL     OW 7447   0.659   3.656   8.398
 2256SOL    HW1 7448   0.636   3.746   8.371
 2256SOL    HW2 7449   0.754   3.652   8.387
 2257SOL     OW 7450   0.866   2.827   8.304
 2257SOL    HW1 7451   0.916   2.756   8.345
 2257SOL    HW2 7452   0.833   2.878   8.378
 2258SOL     OW 7453   1.080   2.850   7.536
 2258SOL    HW1 7454   1.058   2.900   7.458
 2258SOL    HW2 7455   1.156   2.797   7.511
 2259SOL     OW 7456   1.857   3.419   8.293
 2259SOL    HW1 7457   1.780   3.408   8.237
 2259SOL    HW2 7458   1.848   3.351   8.360
 2260SOL     OW 7459   0.228   3.169   9.304
 2260SOL    HW1 7460   0.159   3.107   9.279
 2260SOL    HW2 7461   0.217   3.179   9.399
 2261SOL     OW 7462   0.101   3.102   8.114
 2261SOL    HW1 7463   0.104   3.050   8.194
 2261SOL    HW2 7464   0.162   3.058   8.055
 2262SOL     OW 7465   0.680   3.262   9.074
 2262SOL    HW1 7466   0.600   3.218   9.102
 2262SOL    HW2 7467   0.673   3.350   9.111
 2263SOL     OW 7468   1.803   2.053   8.679
 2263SOL    HW1 7469   1.841   1.970   8.710
 2263SOL    HW2 7470   1.821   2.054   8.585
 2264SOL     OW 7471   0.434   2.295   7.973
 2264SOL    HW1 7472   0.458   2.221   7.916
 2264SOL    HW2 7473   0.384   2.255   8.044
 2265SOL     OW 7474   1.702   3.353   8.549
 2265SOL    HW1 7475   1.620   3.327   8.505
 2265SOL    HW2 7476   1.716   3.285   8.614
 2266SOL     OW 7477   0.306   2.352   8.706
 2266SOL    HW1 7478   0.380   2.312   8.752
 2266SOL    HW2 7479   0.339   2.365   8.617
 2267SOL     OW 7480   0.825   3.440   8.128
 2267SOL    HW1 7481   0.820   3.483   8.043
 2267SOL    HW2 7482   0.746   3.386   8.132
 2268SOL     OW 7483   1.431   2.084   8.565
 2268SOL    HW1 7484   1.468   2.011   8.615
 2268SOL    HW2 7485   1.380   2.133   8.630
 2269SOL     OW 7486   1.007   1.883   8.594
 2269SOL    HW1 7487   0.953   1.814   8.556
 2269SOL    HW2 7488   1.096   1.846   8.596
 2270SOL     OW 7489   0.771   3.194   7.758
 2270SOL    HW1 7490   0.737   3.105   7.764
 2270SOL    HW2 7491   0.854   3.191   7.806
 2271SOL     OW 7492   0.621   3.421   8.732
 2271SOL    HW1 7493   0.623   3.502   8.783
 2271SOL    HW2 7494   0.708   3.414   8.693
 2272SOL     OW 7495   1.352   1.915   7.612
 2272SOL    HW1 7496   1.376   1.858   7.539
 2272SOL    HW2 7497   1.266   1.883   7.639
 2273SOL     OW 7498   1.297   2.322   8.131
 2273SOL    HW1 7499   1.243   2.400   8.140
 2273SOL    HW2 7500   1.295   2.281   8.218
 2274SOL     OW 7501   1.588   2.066   8.325
 2274SOL    HW1 7502   1.524   2.084   8.393
 2274SOL    HW2 7503   1.588   2.145   8.271
 2275SOL     OW 7504   0.041   2.916   7.735
 2275SOL    HW1 7505   0.136   2.906   7.728
 2275SOL    HW2 7506   0.018   2.874   7.817
 2276SOL     OW 7507   0.881   3.511   7.793
 2276SOL    HW1 7508   0.810   3.492   7.731
 2276SOL    HW2 7509   0.851   3.587   7.842
 2277SOL     OW 7510   0.248   2.489   9.428
 2277SOL    HW1 7511   0.172   2.476   9.484
 2277SOL    HW2 7512   0.217   2.467   9.340
 2278SOL     OW 7513   0.214   2.138  10.301
 2278SOL    HW1 7514   0.250   2.112  10.386
 2278SOL    HW2 7515   0.137   2.082  10.290
 2279SOL     OW 7516   0.010   2.248   9.949
 2279SOL    HW1 7517   4.430   2.278   9.992
 2279SOL    HW2 7518   4.484   2.168   9.903
 2280SOL     OW 7519   0.567   3.143  10.482
 2280SOL    HW1 7520   0.479   3.147  10.444
 2280SOL    HW2 7521   0.582   3.231  10.517
 2281SOL     OW 7522   1.557   3.373  10.015
 2281SOL    HW1 7523   1.513   3.356  10.098
 2281SOL    HW2 7524   1.486   3.379   9.951
 2282SOL     OW 7525   1.129   2.561  10.015
 2282SOL    HW1 7526   1.180   2.641  10.000
 2282SOL    HW2 7527   1.083   2.577  10.097
 2283SOL     OW 7528   1.766   2.469   9.540
 2283SOL    HW1 7529   1.745   2.460   9.447
 2283SOL    HW2 7530   1.730   2.389   9.580
 2284SOL     OW 7531   0.760   3.007  10.348
 2284SOL    HW1 7532   0.689   3.040  10.403
 2284SOL    HW2 7533   0.793   3.085  10.302
 2285SOL     OW 7534   0.848   2.647   0.020
 2285SOL    HW1 7535   0.858   2.704   0.096
 2285SOL    HW2 7536   0.883   2.698  11.047
 2286SOL     OW 7537   0.686   2.870   9.960
 2286SOL    HW1 7538   0.750   2.854  10.029
 2286SOL    HW2 7539   0.616   2.919  10.002
 2287SOL     OW 7540   0.337   3.286  10.379
 2287SOL    HW1 7541   0.256   3.266  10.333
 2287SOL    HW2 7542   0.387   3.341  10.318
 2288SOL     OW 7543   1.463   3.362  10.656
 2288SOL    HW1 7544   1.512   3.443  10.667
 2288SOL    HW2 7545   1.420   3.348  10.740
 2289SOL     OW 7546   0.446   2.264  10.795
 2289SOL    HW1 7547   0.523   2.209  10.804
 2289SOL    HW2 7548   0.372   2.206  10.814
 2290SOL     OW 7549   1.611   2.311  10.051
 2290SOL    HW1 7550   1.537   2.338   9.997
 2290SOL    HW2 7551   1.636   2.389  10.100
 2291SOL     OW 7552   0.246   3.554   9.790
 2291SOL    HW1 7553   0.234   3.638   9.833
 2291SOL    HW2 7554   0.305   3.572   9.717
 2292SOL     OW 7555   0.243   3.290   9.838
 2292SOL    HW1 7556   0.236   3.385   9.844
 2292SOL    HW2 7557   0.178   3.257   9.901
 2293SOL     OW 7558   0.245   2.943  10.192
 2293SOL    HW1 7559   0.262   2.856  10.228
 2293SOL    HW2 7560   0.188   2.984  10.258
 2294SOL     OW 7561   0.616   3.652  10.741
 2294SOL    HW1 7562   0.534   3.633  10.787
 2294SOL    HW2 7563   0.637   3.742  10.765
 2295SOL     OW 7564   0.585   2.844   9.444
 2295SOL    HW1 7565   0.629   2.893   9.374
 2295SOL    HW2 7566   0.631   2.871   9.524
 2296SOL     OW 7567   1.587   1.978  10.781
 2296SOL    HW1 7568   1.596   2.056  10.727
 2296SOL    HW2 7569   1.595   2.010  10.871
 2297SOL     OW 7570   0.137   2.505   9.885
 2297SOL    HW1 7571   0.086   2.425   9.897
 2297SOL    HW2 7572   0.106   2.564   9.954
 2298SOL     OW 7573   1.841   3.624   9.647
 2298SOL    HW1 7574   1.899   3.594   9.717
 2298SOL    HW2 7575   1.869   3.713   9.629
 2299SOL     OW 7576   0.033   3.462   9.445
 2299SOL    HW1 7577   0.021   3.367   9.448
 2299SOL    HW2 7578   0.008   3.493   9.532
 2300SOL     OW 7579   1.691   2.782   9.947
 2300SOL    HW1 7580   1.775   2.740   9.928
 2300SOL    HW2 7581   1.670   2.831   9.868
 2301SOL     OW 7582   1.644   2.970   9.740
 2301SOL    HW1 7583   1.729   2.979   9.697
 2301SOL    HW2 7584   1.649   3.030   9.814
 2302SOL     OW 7585   0.100   2.617  10.910
 2302SOL    HW1 7586   0.194   2.603  10.900
 2302SOL    HW2 7587   0.088   2.711  10.895
 2303SOL     OW 7588   0.613   3.243  10.046
 2303SOL    HW1 7589   0.566   3.160  10.054
 2303SOL    HW2 7590   0.596   3.271   9.955
 2304SOL     OW 7591   1.297   3.100  10.750
 2304SOL    HW1 7592   1.322   3.038  10.681
 2304SOL    HW2 7593   1.351   3.075  10.825
 2305SOL     OW 7594   0.812   1.860   9.815
 2305SOL    HW1 7595   0.853   1.946   9.800
 2305SOL    HW2 7596   0.719   1.879   9.826
 2306SOL     OW 7597   0.184   2.807  10.589
 2306SOL    HW1 7598   0.275   2.788  10.565
 2306SOL    HW2 7599   0.133   2.779  10.513
 2307SOL     OW 7600   1.532   2.853   9.506
 2307SOL    HW1 7601   1.462   2.795   9.534
 2307SOL    HW2 7602   1.570   2.886   9.587
 2308SOL     OW 7603   1.194   3.667  10.926
 2308SOL    HW1 7604   1.198   3.728  10.852
 2308SOL    HW2 7605   1.202   3.580  10.886
 2309SOL     OW 7606   0.338   2.125   0.002
 2309SOL    HW1 7607   0.387   2.198   0.040
 2309SOL    HW2 7608   0.246   2.144   0.024
 2310SOL     OW 7609   1.466   3.281  10.263
 2310SOL    HW1 7610   1.397   3.296  10.328
 2310SOL    HW2 7611   1.454   3.191  10.235
 2311SOL     OW 7612   1.662   3.594   9.887
 2311SOL    HW1 7613   1.638   3.566   9.799
 2311SOL    HW2 7614   1.636   3.521   9.943
 2312SOL     OW 7615   0.597   2.585   9.574
 2312SOL    HW1 7616   0.603   2.664   9.521
 2312SOL    HW2 7617   0.531   2.605   9.640
 2313SOL     OW 7618   1.280   2.210  10.243
 2313SOL    HW1 7619   1.191   2.176  10.249
 2313SOL    HW2 7620   1.330   2.158  10.305
 2314SOL     OW 7621   1.582   3.530   9.619
 2314SOL    HW1 7622   1.670   3.565   9.613
 2314SOL    HW2 7623   1.557   3.512   9.528
 2315SOL     OW 7624   0.795   2.477  10.764
 2315SOL    HW1 7625   0.767   2.455  10.853
 2315SOL    HW2 7626   0.751   2.413  10.708
 2316SOL     OW 7627   0.966   2.759  10.898
 2316SOL    HW1 7628   1.014   2.686  10.860
 2316SOL    HW2 7629   0.916   2.795  10.825
 2317SOL     OW 7630   0.992   2.275  10.551
 2317SOL    HW1 7631   0.909   2.300  10.591
 2317SOL    HW2 7632   0.968   2.227  10.472
 2318SOL     OW 7633   1.049   2.561   9.737
 2318SOL    HW1 7634   1.063   2.554   9.831
 2318SOL    HW2 7635   0.967   2.513   9.722
 2319SOL     OW 7636   0.098   2.685  10.093
 2319SOL    HW1 7637   0.184   2.664  10.129
 2319SOL    HW2 7638   0.054   2.735  10.162
 2320SOL     OW 7639   0.120   3.712  10.898
 2320SOL    HW1 7640   0.116   3.653  10.973
 2320SOL    HW2 7641   0.051   3.681  10.840
 2321SOL     OW 7642   0.885   2.208   9.504
 2321SOL    HW1 7643   0.930   2.269   9.445
 2321SOL    HW2 7644   0.905   2.121   9.468
 2322SOL     OW 7645   1.374   3.005   9.853
 2322SOL    HW1 7646   1.452   2.989   9.799
 2322SOL    HW2 7647   1.322   3.067   9.802
 2323SOL     OW 7648   0.550   2.047  10.202
 2323SOL    HW1 7649   0.552   2.074  10.294
 2323SOL    HW2 7650   0.552   2.129  10.153
 2324SOL     OW 7651   1.009   3.308   9.784
 2324SOL    HW1 7652   0.968   3.379   9.735
 2324SOL    HW2 7653   0.994   3.331   9.876
 2325SOL     OW 7654   0.354   3.669  10.166
 2325SOL    HW1 7655   0.398   3.584  10.176
 2325SOL    HW2 7656   0.424   3.734  10.178
 2326SOL     OW 7657   1.799   2.922  10.176
 2326SOL    HW1 7658   1.741   2.905  10.101
 2326SOL    HW2 7659   1.739   2.927  10.251
 2327SOL     OW 7660   1.226   3.404  10.824
 2327SOL    HW1 7661   1.234   3.317  10.865
 2327SOL    HW2 7662   1.168   3.388  10.749
 2328SOL     OW 7663   0.318   2.816   9.558
 2328SOL    HW1 7664   0.402   2.838   9.519
 2328SOL    HW2 7665   0.299   2.727   9.528
 2329SOL     OW 7666   1.475   2.601  10.038
 2329SOL    HW1 7667   1.463   2.554  10.121
 2329SOL    HW2 7668   1.552   2.656  10.052
 2330SOL     OW 7669   0.455   3.131  11.051
 2330SOL    HW1 7670   0.427   3.138  10.960
 2330SOL    HW2 7671   0.386   3.081  11.094
 2331SOL     OW 7672   1.120   3.639   9.542
 2331SOL    HW1 7673   1.049   3.595   9.589
 2331SOL    HW2 7674   1.141   3.580   9.470
 2332SOL     OW 7675   0.193   2.139  10.797
 2332SOL    HW1 7676   0.135   2.215  10.804
 2332SOL    HW2 7677   0.191   2.099  10.884
 2333SOL     OW 7678   1.630   3.241   9.396
 2333SOL    HW1 7679   1.588   3.326   9.382
 2333SOL    HW2 7680   1.560   3.177   9.378
 2334SOL     OW 7681   0.469   3.607   9.624
 2334SOL    HW1 7682   0.508   3.658   9.695
 2334SOL    HW2 7683   0.544   3.576   9.574
 2335SOL     OW 7684   1.401   1.970   9.740
 2335SOL    HW1 7685   1.389   1.944   9.648
 2335SOL    HW2 7686   1.496   1.978   9.750
 2336SOL     OW 7687   0.256   3.655  10.546
 2336SOL    HW1 7688   0.306   3.584  10.587
 2336SOL    HW2 7689   0.231   3.620  10.461
 2337SOL     OW 7690   0.939   3.560  10.211
 2337SOL    HW1 7691   1.015   3.506  10.230
 2337SOL    HW2 7692   0.892   3.512  10.142
 2338SOL     OW 7693   0.392   2.558   9.785
 2338SOL    HW1 7694   0.417   2.466   9.794
 2338SOL    HW2 7695   0.300   2.560   9.811
 2339SOL     OW 7696   0.628   1.989   9.416
 2339SOL    HW1 7697   0.704   1.931   9.429
 2339SOL    HW2 7698   0.585   1.954   9.338
 2340SOL     OW 7699   0.771   2.131  11.045
 2340SOL    HW1 7700   0.836   2.076  11.088
 2340SOL    HW2 7701   0.711   2.156   0.016
 2341SOL     OW 7702   0.877   3.383  10.503
 2341SOL    HW1 7703   0.862   3.348  10.415
 2341SOL    HW2 7704   0.947   3.329  10.539
 2342SOL     OW 7705   1.343   2.451  10.752
 2342SOL    HW1 7706   1.392   2.428  10.831
 2342SOL    HW2 7707   1.372   2.539  10.730
 2343SOL     OW 7708   0.813   3.260  10.245
 2343SOL    HW1 7709   0.896   3.251  10.200
 2343SOL    HW2 7710   0.747   3.258  10.176
 2344SOL     OW 7711   0.927   2.371  10.214
 2344SOL    HW1 7712   0.904   2.363  10.122
 2344SOL    HW2 7713   0.960   2.285  10.238
 2345SOL     OW 7714   0.550   1.924   9.815
 2345SOL    HW1 7715   0.469   1.923   9.866
 2345SOL    HW2 7716   0.543   2.003   9.761
 2346SOL     OW 7717   1.429   3.060   9.351
 2346SOL    HW1 7718   1.460   2.984   9.401
 2346SOL    HW2 7719   1.342   3.079   9.388
 2347SOL     OW 7720   0.295   1.908   9.488
 2347SOL    HW1 7721   0.357   1.976   9.461
 2347SOL    HW2 7722   0.349   1.842   9.532
 2348SOL     OW 7723   0.936   2.105   9.775
 2348SOL    HW1 7724   0.906   2.149   9.694
 2348SOL    HW2 7725   1.031   2.117   9.775
 2349SOL     OW 7726   1.078   2.544  10.771
 2349SOL    HW1 7727   1.007   2.481  10.776
 2349SOL    HW2 7728   1.158   2.491  10.766
 2350SOL     OW 7729   1.225   3.431  10.104
 2350SOL    HW1 7730   1.243   3.499  10.039
 2350SOL    HW2 7731   1.293   3.443  10.170
 2351SOL     OW 7732   0.465   3.009  10.048
 2351SOL    HW1 7733   0.392   2.991  10.108
 2351SOL    HW2 7734   0.429   2.993   9.961
 2352SOL     OW 7735   1.271   3.657   9.915
 2352SOL    HW1 7736   1.315   3.718   9.856
 2352SOL    HW2 7737   1.207   3.710   9.962
 2353SOL     OW 7738   1.026   2.408   9.329
 2353SOL    HW1 7739   0.984   2.491   9.308
 2353SOL    HW2 7740   1.090   2.429   9.397
 2354SOL     OW 7741   0.073   2.397  10.713
 2354SOL    HW1 7742   0.149   2.399  10.654
 2354SOL    HW2 7743   0.069   2.485  10.749
 2355SOL     OW 7744   0.562   2.089  10.474
 2355SOL    HW1 7745   0.600   2.008  10.507
 2355SOL    HW2 7746   0.470   2.085  10.501
 2356SOL     OW 7747   0.870   2.322   9.950
 2356SOL    HW1 7748   0.823   2.375   9.887
 2356SOL    HW2 7749   0.889   2.240   9.903
 2357SOL     OW 7750   1.014   1.915  10.064
 2357SOL    HW1 7751   0.956   1.906   9.989
 2357SOL    HW2 7752   0.994   1.838  10.118
 2358SOL     OW 7753   1.435   3.026  10.168
 2358SOL    HW1 7754   1.369   2.957  10.166
 2358SOL    HW2 7755   1.457   3.040  10.076
 2359SOL     OW 7756   1.467   2.465  10.292
 2359SOL    HW1 7757   1.421   2.380  10.295
 2359SOL    HW2 7758   1.528   2.461  10.365
 2360SOL     OW 7759   1.849   2.681   9.691
 2360SOL    HW1 7760   1.902   2.627   9.750
 2360SOL    HW2 7761   1.819   2.620   9.623
 2361SOL     OW 7762   0.493   3.275   9.473
 2361SOL    HW1 7763   0.416   3.245   9.522
 2361SOL    HW2 7764   0.470   3.257   9.381
 2362SOL     OW 7765   1.668   3.128   9.959
 2362SOL    HW1 7766   1.762   3.134   9.972
 2362SOL    HW2 7767   1.635   3.215   9.980
 2363SOL     OW 7768   1.394   2.434   9.382
 2363SOL    HW1 7769   1.334   2.415   9.454
 2363SOL    HW2 7770   1.478   2.399   9.411
 2364SOL     OW 7771   0.525   2.122   9.631
 2364SOL    HW1 7772   0.566   2.074   9.560
 2364SOL    HW2 7773   0.509   2.210   9.595
 2365SOL     OW 7774   1.760   3.091  10.874
 2365SOL    HW1 7775   1.850   3.060  10.881
 2365SOL    HW2 7776   1.761   3.178  10.915
 2366SOL     OW 7777   1.065   3.216  10.650
 2366SOL    HW1 7778   0.987   3.183  10.695
 2366SOL    HW2 7779   1.138   3.168  10.690
 2367SOL     OW 7780   1.125   3.065  10.418
 2367SOL    HW1 7781   1.062   3.101  10.480
 2367SOL    HW2 7782   1.092   3.093  10.332
 2368SOL     OW 7783   1.632   2.963  10.388
 2368SOL    HW1 7784   1.629   3.025  10.461
 2368SOL    HW2 7785   1.551   2.978  10.340
 2369SOL     OW 7786   0.917   1.961  10.710
 2369SOL    HW1 7787   0.940   1.941  10.619
 2369SOL    HW2 7788   0.996   2.001  10.746
 2370SOL     OW 7789   0.708   2.922   9.683
 2370SOL    HW1 7790   0.695   2.908   9.777
 2370SOL    HW2 7791   0.784   2.869   9.661
 2371SOL     OW 7792   0.428   2.682  10.549
 2371SOL    HW1 7793   0.496   2.693  10.615
 2371SOL    HW2 7794   0.367   2.619  10.587
 2372SOL     OW 7795   1.268   2.241  10.585
 2372SOL    HW1 7796   1.299   2.319  10.630
 2372SOL    HW2 7797   1.179   2.264  10.556
 2373SOL     OW 7798   0.062   3.439  10.652
 2373SOL    HW1 7799   0.035   3.524  10.618
 2373SOL    HW2 7800   0.157   3.443  10.655
 2374SOL     OW 7801   0.352   2.968   9.804
 2374SOL    HW1 7802   0.359   3.041   9.743
 2374SOL    HW2 7803   0.355   2.890   9.748
 2375SOL     OW 7804   0.563   2.397  10.167
 2375SOL    HW1 7805   0.577   2.457  10.094
 2375SOL    HW2 7806   0.620   2.430  10.236
 2376SOL     OW 7807   1.248   3.210   9.700
 2376SOL    HW1 7808   1.303   3.282   9.730
 2376SOL    HW2 7809   1.161   3.230   9.733
 2377SOL     OW 7810   1.275   3.318  10.454
 2377SOL    HW1 7811   1.331   3.321  10.532
 2377SOL    HW2 7812   1.222   3.239  10.465
 2378SOL     OW 7813   1.582   2.488   9.785
 2378SOL    HW1 7814   1.539   2.545   9.849
 2378SOL    HW2 7815   1.629   2.548   9.728
 2379SOL     OW 7816   0.348   3.387  10.628
 2379SOL    HW1 7817   0.334   3.342  10.545
 2379SOL    HW2 7818   0.442   3.400  10.633
 2380SOL     OW 7819   0.476   2.609  10.963
 2380SOL    HW1 7820   0.509   2.649  10.882
 2380SOL    HW2 7821   0.505   2.518  10.959
 2381SOL     OW 7822   1.589   2.626  10.971
 2381SOL    HW1 7823   1.512   2.682  10.965
 2381SOL    HW2 7824   1.659   2.676  10.928
 2382SOL     OW 7825   0.588   2.735  10.335
 2382SOL    HW1 7826   0.615   2.826  10.336
 2382SOL    HW2 7827   0.530   2.725  10.411
 2383SOL     OW 7828   1.361   2.723  10.346
 2383SOL    HW1 7829   1.281   2.716  10.294
 2383SOL    HW2 7830   1.398   2.634  10.344
 2384SOL     OW 7831   1.208   2.391   9.580
 2384SOL    HW1 7832   1.215   2.312   9.634
 2384SOL    HW2 7833   1.166   2.455   9.637
 2385SOL     OW 7834   0.303   2.057  10.551
 2385SOL    HW1 7835   0.267   2.092  10.632
 2385SOL    HW2 7836   0.284   1.963  10.554
 2386SOL     OW 7837   0.050   3.176  10.593
 2386SOL    HW1 7838   0.077   3.128  10.671
 2386SOL    HW2 7839   0.049   3.268  10.621
 2387SOL     OW 7840   0.727   2.495  10.371
 2387SOL    HW1 7841   0.798   2.475  10.310
 2387SOL    HW2 7842   0.699   2.583  10.347
 2388SOL     OW 7843   0.307   1.932   9.929
 2388SOL    HW1 7844   0.287   2.021   9.959
 2388SOL    HW2 7845   0.303   1.879  10.009
 2389SOL     OW 7846   1.612   2.233   9.680
 2389SOL    HW1 7847   1.641   2.171   9.747
 2389SOL    HW2 7848   1.590   2.312   9.729
 2390SOL     OW 7849   1.026   2.622  10.272
 2390SOL    HW1 7850   1.027   2.639  10.366
 2390SOL    HW2 7851   1.000   2.530  10.265
 2391SOL     OW 7852   0.975   3.434  11.004
 2391SOL    HW1 7853   0.960   3.483  10.923
 2391SOL    HW2 7854   1.007   3.348  10.976
 2392SOL     OW 7855   1.859   3.360  10.912
 2392SOL    HW1 7856   1.873   3.394  10.823
 2392SOL    HW2 7857   1.927   3.402  10.965
 2393SOL     OW 7858   0.349   2.793  11.097
 2393SOL    HW1 7859   0.425   2.820   0.049
 2393SOL    HW2 7860   0.381   2.722  11.042
 2394SOL     OW 7861   1.530   2.136   9.437
 2394SOL    HW1 7862   1.467   2.070   9.464
 2394SOL    HW2 7863   1.564   2.172   9.520
 2395SOL     OW 7864   1.295   2.690   9.344
 2395SOL    HW1 7865   1.337   2.604   9.347
 2395SOL    HW2 7866   1.325   2.728   9.261
 2396SOL     OW 7867   1.065   3.196  10.163
 2396SOL    HW1 7868   1.068   3.123  10.100
 2396SOL    HW2 7869   1.128   3.260  10.127
 2397SOL     OW 7870   0.316   2.675  10.261
 2397SOL    HW1 7871   0.410   2.691  10.255
 2397SOL    HW2 7872   0.310   2.584  10.291
 2398SOL     OW 7873   0.334   2.385  10.304
 2398SOL    HW1 7874   0.295   2.299  10.289
 2398SOL    HW2 7875   0.411   2.386  10.247
 2399SOL     OW 7876   1.156   2.072  10.781
 2399SOL    HW1 7877   1.168   2.129  10.857
 2399SOL    HW2 7878   1.195   2.120  10.708
 2400SOL     OW 7879   4.492   3.185   9.510
 2400SOL    HW1 7880   4.399   3.199   9.493
 2400SOL    HW2 7881   4.499   3.093   9.535
 2401SOL     OW 7882   0.094   3.644  10.250
 2401SOL    HW1 7883   0.057   3.582  10.186
 2401SOL    HW2 7884   0.181   3.663  10.215
 2402SOL     OW 7885   0.499   3.435  10.216
 2402SOL    HW1 7886   0.568   3.498  10.239
 2402SOL    HW2 7887   0.544   3.370  10.162
 2403SOL     OW 7888   0.989   2.657  10.538
 2403SOL    HW1 7889   1.040   2.633  10.615
 2403SOL    HW2 7890   0.901   2.622  10.555
 2404SOL     OW 7891   0.036   2.421  10.415
 2404SOL    HW1 7892   0.120   2.386  10.385
 2404SOL    HW2 7893   0.030   2.392  10.506
 2405SOL     OW 7894   0.816   2.430   9.664
 2405SOL    HW1 7895   0.818   2.355   9.605
 2405SOL    HW2 7896   0.741   2.482   9.634
 2406SOL     OW 7897   1.644   2.464  10.498
 2406SOL    HW1 7898   1.635   2.403  10.572
 2406SOL    HW2 7899   1.731   2.447  10.463
 2407SOL     OW 7900   0.265   3.432  11.058
 2407SOL    HW1 7901   0.212   3.465   0.032
 2407SOL    HW2 7902   0.242   3.339  11.052
 2408SOL     OW 7903   0.690   2.318  10.574
 2408SOL    HW1 7904   0.644   2.241  10.541
 2408SOL    HW2 7905   0.691   2.379  10.500
 2409SOL     OW 7906   0.941   3.544  10.761
 2409SOL    HW1 7907   0.902   3.514  10.679
 2409SOL    HW2 7908   0.929   3.639  10.760
 2410SOL     OW 7909   0.473   2.353   9.499
 2410SOL    HW1 7910   0.531   2.426   9.519
 2410SOL    HW2 7911   0.387   2.393   9.485
 2411SOL     OW 7912   0.162   3.003  10.772
 2411SOL    HW1 7913   0.142   2.958  10.854
 2411SOL    HW2 7914   0.170   2.934  10.707
 2412SOL     OW 7915   1.328   2.916  10.538
 2412SOL    HW1 7916   1.355   2.851  10.473
 2412SOL    HW2 7917   1.255   2.962  10.497
 2413SOL     OW 7918   1.308   2.719   9.618
 2413SOL    HW1 7919   1.231   2.688   9.665
 2413SOL    HW2 7920   1.286   2.705   9.526
 2414SOL     OW 7921   1.767   3.610  10.459
 2414SOL    HW1 7922   1.828   3.635  10.389
 2414SOL    HW2 7923   1.744   3.519  10.440
 2415SOL     OW 7924   1.242   3.595  10.427
 2415SOL    HW1 7925   1.324   3.613  10.381
 2415SOL    HW2 7926   1.244   3.501  10.444
 2416SOL     OW 7927   0.069   3.052  10.357
 2416SOL    HW1 7928   0.075   3.087  10.446
 2416SOL    HW2 7929   0.009   3.111  10.312
 2417SOL     OW 7930   1.719   2.004   9.824
 2417SOL    HW1 7931   1.791   1.989   9.763
 2417SOL    HW2 7932   1.703   1.918   9.863
 2418SOL     OW 7933   1.390   3.430   9.793
 2418SOL    HW1 7934   1.450   3.460   9.725
 2418SOL    HW2 7935   1.343   3.508   9.820
 2419SOL     OW 7936   1.277   2.786   9.981
 2419SOL    HW1 7937   1.350   2.724   9.985
 2419SOL    HW2 7938   1.311   2.859   9.929
 2420SOL     OW 7939   0.822   3.134  10.739
 2420SOL    HW1 7940   0.793   3.168  10.824
 2420SOL    HW2 7941   0.750   3.155  10.679
 2421SOL     OW 7942   0.673   3.478   9.465
 2421SOL    HW1 7943   0.681   3.489   9.370
 2421SOL    HW2 7944   0.620   3.399   9.476
 2422SOL     OW 7945   1.628   3.581  10.701
 2422SOL    HW1 7946   1.680   3.595  10.621
 2422SOL    HW2 7947   1.614   3.669  10.736
 2423SOL     OW 7948   1.842   2.043  10.279
 2423SOL    HW1 7949   1.877   1.959  10.252
 2423SOL    HW2 7950   1.756   2.048  10.237
 2424SOL     OW 7951   0.267   2.182  10.030
 2424SOL    HW1 7952   0.185   2.221  10.001
 2424SOL    HW2 7953   0.256   2.170  10.124
 2425SOL     OW 7954   1.205   3.470   9.341
 2425SOL    HW1 7955   1.197   3.379   9.369
 2425SOL    HW2 7956   1.140   3.480   9.271
 2426SOL     OW 7957   0.825   2.868  10.684
 2426SOL    HW1 7958   0.867   2.864  10.597
 2426SOL    HW2 7959   0.827   2.961  10.707
 2427SOL     OW 7960   0.915   2.773   9.599
 2427SOL    HW1 7961   0.977   2.804   9.533
 2427SOL    HW2 7962   0.962   2.701   9.643
 2428SOL     OW 7963   1.495   3.486   9.352
 2428SOL    HW1 7964   1.400   3.483   9.341
 2428SOL    HW2 7965   1.530   3.492   9.263
 2429SOL     OW 7966   0.369   3.168  10.804
 2429SOL    HW1 7967   0.356   3.244  10.748
 2429SOL    HW2 7968   0.295   3.110  10.785
 2430SOL     OW 7969   1.613   3.145  10.593
 2430SOL    HW1 7970   1.669   3.135  10.670
 2430SOL    HW2 7971   1.555   3.218  10.615
 2431SOL     OW 7972   1.048   2.967  10.015
 2431SOL    HW1 7973   0.977   2.916  10.055
 2431SOL    HW2 7974   1.108   2.902   9.979
 2432SOL     OW 7975   1.019   2.102  10.276
 2432SOL    HW1 7976   1.014   2.054  10.193
 2432SOL    HW2 7977   1.014   2.034  10.343
 2433SOL     OW 7978   0.602   3.352   9.794
 2433SOL    HW1 7979   0.640   3.301   9.722
 2433SOL    HW2 7980   0.532   3.403   9.753
 2434SOL     OW 7981   1.716   2.257  10.688
 2434SOL    HW1 7982   1.791   2.316  10.692
 2434SOL    HW2 7983   1.747   2.183  10.634
 2435SOL     OW 7984   0.252   3.207   9.588
 2435SOL    HW1 7985   0.158   3.209   9.573
 2435SOL    HW2 7986   0.262   3.241   9.677
 2436SOL     OW 7987   0.111   2.879  11.007
 2436SOL    HW1 7988   0.048   2.878  11.079
 2436SOL    HW2 7989   0.195   2.862  11.048
 2437SOL     OW 7990   0.672   2.059  10.804
 2437SOL    HW1 7991   0.754   2.038  10.759
 2437SOL    HW2 7992   0.700   2.090  10.890
 2438SOL     OW 7993   0.072   2.189   9.344
 2438SOL    HW1 7994   4.477   2.197   9.340
 2438SOL    HW2 7995   0.105   2.271   9.305
 2439SOL     OW 7996   1.431   2.711  10.710
 2439SOL    HW1 7997   1.384   2.778  10.660
 2439SOL    HW2 7998   1.522   2.721  10.683
 2440SOL     OW 7999   0.083   2.040   9.617
 2440SOL    HW1 8000   0.077   2.111   9.554
 2440SOL    HW2 8001   0.160   1.989   9.590
 2441SOL     OW 8002   1.180   3.204   9.427
 2441SOL    HW1 8003   1.089   3.174   9.430
 2441SOL    HW2 8004   1.209   3.203   9.518
 2442SOL     OW 8005   0.621   2.693  10.737
 2442SOL    HW1 8006   0.675   2.770  10.725
 2442SOL    HW2 8007   0.683   2.621  10.747
 2443SOL     OW 8008   1.485   3.636  10.284
 2443SOL    HW1 8009   1.513   3.693  10.213
 2443SOL    HW2 8010   1.565   3.621  10.335
 2444SOL     OW 8011   0.716   2.424  11.016
 2444SOL    HW1 8012   0.744   2.497  11.071
 2444SOL    HW2 8013   0.771   2.350  11.044
 2445SOL     OW 8014   0.385   3.597  10.869
 2445SOL    HW1 8015   0.306   3.652  10.865
 2445SOL    HW2 8016   0.360   3.524  10.926
 2446SOL     OW 8017   1.674   2.745  10.566
 2446SOL    HW1 8018   1.662   2.660  10.525
 2446SOL    HW2 8019   1.664   2.808  10.494
 2447SOL     OW 8020   1.219   2.182   9.767
 2447SOL    HW1 8021   1.283   2.111   9.758
 2447SOL    HW2 8022   1.247   2.230   9.845
 2448SOL     OW 8023   0.591   2.603   9.977
 2448SOL    HW1 8024   0.630   2.688   9.959
 2448SOL    HW2 8025   0.520   2.595   9.913
 2449SOL     OW 8026   1.755   2.181  10.953
 2449SOL    HW1 8027   1.741   2.218  10.866
 2449SOL    HW2 8028   1.672   2.196  10.999
 2450SOL     OW 8029   1.747   2.798  10.825
 2450SOL    HW1 8030   1.742   2.893  10.838
 2450SOL    HW2 8031   1.730   2.786  10.732
 2451SOL     OW 8032   0.864   3.231   9.340
 2451SOL    HW1 8033   0.822   3.256   9.422
 2451SOL    HW2 8034   0.882   3.314   9.296
 2452SOL     OW 8035   0.659   3.656  10.259
 2452SOL    HW1 8036   0.636   3.746  10.234
 2452SOL    HW2 8037   0.754   3.652  10.249
 2453SOL     OW 8038   0.866   2.827  10.166
 2453SOL    HW1 8039   0.916   2.756  10.207
 2453SOL    HW2 8040   0.833   2.878  10.240
 2454SOL     OW 8041   1.080   2.850   9.399
 2454SOL    HW1 8042   1.058   2.900   9.320
 2454SOL    HW2 8043   1.156   2.797   9.373
 2455SOL     OW 8044   1.857   3.418  10.155
 2455SOL    HW1 8045   1.780   3.408  10.100
 2455SOL    HW2 8046   1.847   3.352  10.223
 2456SOL     OW 8047   0.101   3.102   9.976
 2456SOL    HW1 8048   0.103   3.050  10.056
 2456SOL    HW2 8049   0.162   3.058   9.917
 2457SOL     OW 8050   0.678   3.256  10.934
 2457SOL    HW1 8051   0.605   3.206  10.970
 2457SOL    HW2 8052   0.651   3.347  10.943
 2458SOL     OW 8053   1.814   2.051  10.547
 2458SOL    HW1 8054   1.830   1.958  10.565
 2458SOL    HW2 8055   1.827   2.060  10.453
 2459SOL     OW 8056   0.434   2.295   9.835
 2459SOL    HW1 8057   0.458   2.221   9.778
 2459SOL    HW2 8058   0.384   2.255   9.906
 2460SOL     OW 8059   1.702   3.353  10.410
 2460SOL    HW1 8060   1.621   3.326  10.368
 2460SOL    HW2 8061   1.718   3.287  10.476
 2461SOL     OW 8062   0.304   2.353  10.569
 2461SOL    HW1 8063   0.376   2.313  10.619
 2461SOL    HW2 8064   0.340   2.365  10.481
 2462SOL     OW 8065   0.825   3.440   9.990
 2462SOL    HW1 8066   0.820   3.484   9.905
 2462SOL    HW2 8067   0.746   3.386   9.994
 2463SOL     OW 8068   1.432   2.085  10.428
 2463SOL    HW1 8069   1.465   2.009  10.476
 2463SOL    HW2 8070   1.380   2.133  10.492
 2464SOL     OW 8071   1.008   1.883  10.457
 2464SOL    HW1 8072   0.953   1.815  10.418
 2464SOL    HW2 8073   1.096   1.846  10.458
 2465SOL     OW 8074   0.771   3.194   9.619
 2465SOL    HW1 8075   0.737   3.105   9.626
 2465SOL    HW2 8076   0.854   3.191   9.668
 2466SOL     OW 8077   0.620   3.420  10.595
 2466SOL    HW1 8078   0.622   3.502  10.644
 2466SOL    HW2 8079   0.707   3.414  10.555
 2467SOL     OW 8080   1.352   1.915   9.474
 2467SOL    HW1 8081   1.377   1.858   9.402
 2467SOL    HW2 8082   1.266   1.883   9.501
 2468SOL     OW 8083   1.297   2.322   9.993
 2468SOL    HW1 8084   1.243   2.400  10.002
 2468SOL    HW2 8085   1.295   2.281  10.080
 2469SOL     OW 8086   1.587   2.066  10.186
 2469SOL    HW1 8087   1.523   2.084  10.255
 2469SOL    HW2 8088   1.588   2.146  10.132
 2470SOL     OW 8089   0.041   2.916   9.597
 2470SOL    HW1 8090   0.136   2.906   9.590
 2470SOL    HW2 8091   0.018   2.874   9.679
 2471SOL     OW 8092   0.881   3.511   9.655
 2471SOL    HW1 8093   0.810   3.492   9.593
 2471SOL    HW2 8094   0.851   3.587   9.704
 2472SOL     OW 8095   0.209   4.283   0.084
 2472SOL    HW1 8096   0.161   4.317   0.159
 2472SOL    HW2 8097   0.227   4.360   0.029
 2473SOL     OW 8098   0.210   3.998   0.992
 2473SOL    HW1 8099   0.247   3.971   1.075
 2473SOL    HW2 8100   0.135   3.940   0.979
 2474SOL     OW 8101   0.001   4.099   0.629
 2474SOL    HW1 8102   4.423   4.127   0.678
 2474SOL    HW2 8103   4.477   4.014   0.592
 2475SOL     OW 8104   1.735   4.333   0.229
 2475SOL    HW1 8105   1.748   4.306   0.138
 2475SOL    HW2 8106   1.729   4.251   0.277
 2476SOL     OW 8107   0.727   0.265   0.680
 2476SOL    HW1 8108   0.725   0.205   0.754
 2476SOL    HW2 8109   0.636   0.286   0.663
 2477SOL     OW 8110   0.442   4.120   1.489
 2477SOL    HW1 8111   0.523   4.070   1.494
 2477SOL    HW2 8112   0.372   4.055   1.500
 2478SOL     OW 8113   1.615   4.173   0.739
 2478SOL    HW1 8114   1.543   4.200   0.682
 2478SOL    HW2 8115   1.625   4.246   0.801
 2479SOL     OW 8116   1.597   3.844   1.470
 2479SOL    HW1 8117   1.592   3.923   1.416
 2479SOL    HW2 8118   1.585   3.876   1.560
 2480SOL     OW 8119   0.167   4.321   0.630
 2480SOL    HW1 8120   0.105   4.251   0.609
 2480SOL    HW2 8121   0.120   4.402   0.611
 2481SOL     OW 8122   0.115   4.496   1.590
 2481SOL    HW1 8123   0.210   4.482   1.595
 2481SOL    HW2 8124   0.106   0.080   1.545
 2482SOL     OW 8125   0.813   3.723   0.504
 2482SOL    HW1 8126   0.852   3.810   0.492
 2482SOL    HW2 8127   0.719   3.740   0.515
 2483SOL     OW 8128   0.328   3.979   1.796
 2483SOL    HW1 8129   0.377   4.056   1.825
 2483SOL    HW2 8130   0.241   3.990   1.834
 2484SOL     OW 8131   1.278   4.070   0.932
 2484SOL    HW1 8132   1.189   4.035   0.941
 2484SOL    HW2 8133   1.330   4.019   0.995
 2485SOL     OW 8134   0.822   4.310   1.451
 2485SOL    HW1 8135   0.781   4.315   1.537
 2485SOL    HW2 8136   0.756   4.268   1.395
 2486SOL     OW 8137   1.396   4.199   1.677
 2486SOL    HW1 8138   1.395   4.242   1.762
 2486SOL    HW2 8139   1.456   4.126   1.687
 2487SOL     OW 8140   0.996   4.147   1.234
 2487SOL    HW1 8141   0.922   4.166   1.292
 2487SOL    HW2 8142   0.960   4.088   1.168
 2488SOL     OW 8143   1.059   4.403   0.424
 2488SOL    HW1 8144   1.059   4.448   0.508
 2488SOL    HW2 8145   0.967   4.384   0.406
 2489SOL     OW 8146   0.054   0.040   0.833
 2489SOL    HW1 8147   0.148   0.025   0.847
 2489SOL    HW2 8148   0.051   0.118   0.777
 2490SOL     OW 8149   0.882   4.072   0.207
 2490SOL    HW1 8150   0.931   4.129   0.147
 2490SOL    HW2 8151   0.898   3.983   0.175
 2491SOL     OW 8152   1.705   4.298   1.828
 2491SOL    HW1 8153   1.714   4.388   1.795
 2491SOL    HW2 8154   1.729   4.243   1.753
 2492SOL     OW 8155   0.551   3.908   0.892
 2492SOL    HW1 8156   0.553   3.936   0.984
 2492SOL    HW2 8157   0.548   3.989   0.842
 2493SOL     OW 8158   1.485   4.460   0.736
 2493SOL    HW1 8159   1.465   4.407   0.813
 2493SOL    HW2 8160   1.528   0.038   0.770
 2494SOL     OW 8161   0.190   4.000   1.487
 2494SOL    HW1 8162   0.133   4.077   1.494
 2494SOL    HW2 8163   0.186   3.959   1.574
 2495SOL     OW 8164   1.401   3.831   0.429
 2495SOL    HW1 8165   1.391   3.808   0.337
 2495SOL    HW2 8166   1.496   3.840   0.441
 2496SOL     OW 8167   0.352   4.376   0.408
 2496SOL    HW1 8168   0.399   4.305   0.452
 2496SOL    HW2 8169   0.298   4.415   0.476
 2497SOL     OW 8170   1.538   3.951   1.725
 2497SOL    HW1 8171   1.545   3.972   1.818
 2497SOL    HW2 8172   1.471   3.882   1.722
 2498SOL     OW 8173   0.614   3.834   0.122
 2498SOL    HW1 8174   0.705   3.802   0.122
 2498SOL    HW2 8175   0.583   3.815   0.033
 2499SOL     OW 8176   0.769   4.001   1.753
 2499SOL    HW1 8177   0.841   3.938   1.759
 2499SOL    HW2 8178   0.716   3.985   1.832
 2500SOL     OW 8179   1.346   4.311   1.429
 2500SOL    HW1 8180   1.368   4.274   1.514
 2500SOL    HW2 8181   1.382   4.400   1.430
 2501SOL     OW 8182   0.921   4.236   0.900
 2501SOL    HW1 8183   0.900   4.220   0.808
 2501SOL    HW2 8184   0.962   4.154   0.930
 2502SOL     OW 8185   0.551   3.786   0.506
 2502SOL    HW1 8186   0.469   3.784   0.556
 2502SOL    HW2 8187   0.544   3.864   0.452
 2503SOL     OW 8188   0.286   3.772   0.192
 2503SOL    HW1 8189   0.335   3.825   0.129
 2503SOL    HW2 8190   0.348   3.706   0.223
 2504SOL     OW 8191   0.937   3.969   0.466
 2504SOL    HW1 8192   0.908   4.011   0.385
 2504SOL    HW2 8193   1.032   3.982   0.467
 2505SOL     OW 8194   1.078   4.396   1.510
 2505SOL    HW1 8195   0.994   4.364   1.476
 2505SOL    HW2 8196   1.143   4.351   1.456
 2506SOL     OW 8197   1.010   4.266   0.038
 2506SOL    HW1 8198   1.014   4.332  11.069
 2506SOL    HW2 8199   1.091   4.277   0.088
 2507SOL     OW 8200   0.086   4.260   1.409
 2507SOL    HW1 8201   0.158   4.273   1.348
 2507SOL    HW2 8202   0.055   4.348   1.430
 2508SOL     OW 8203   0.562   3.951   1.164
 2508SOL    HW1 8204   0.600   3.869   1.196
 2508SOL    HW2 8205   0.471   3.947   1.192
 2509SOL     OW 8206   0.870   4.188   0.640
 2509SOL    HW1 8207   0.835   4.248   0.574
 2509SOL    HW2 8208   0.887   4.107   0.591
 2510SOL     OW 8209   1.014   3.777   0.754
 2510SOL    HW1 8210   0.955   3.768   0.679
 2510SOL    HW2 8211   0.994   3.700   0.808
 2511SOL     OW 8212   1.476   4.313   0.971
 2511SOL    HW1 8213   1.423   4.236   0.990
 2511SOL    HW2 8214   1.529   4.326   1.050
 2512SOL     OW 8215   1.399   4.295   0.073
 2512SOL    HW1 8216   1.335   4.277   0.142
 2512SOL    HW2 8217   1.470   4.234   0.089
 2513SOL     OW 8218   0.527   3.988   0.326
 2513SOL    HW1 8219   0.553   3.929   0.256
 2513SOL    HW2 8220   0.513   4.072   0.282
 2514SOL     OW 8221   0.917   3.823   1.399
 2514SOL    HW1 8222   0.940   3.802   1.309
 2514SOL    HW2 8223   0.997   3.862   1.436
 2515SOL     OW 8224   0.438   0.005   1.256
 2515SOL    HW1 8225   0.495   0.009   1.332
 2515SOL    HW2 8226   0.398   4.418   1.261
 2516SOL     OW 8227   1.267   4.101   1.272
 2516SOL    HW1 8228   1.300   4.178   1.318
 2516SOL    HW2 8229   1.178   4.125   1.245
 2517SOL     OW 8230   0.557   4.257   0.864
 2517SOL    HW1 8231   0.578   4.303   0.783
 2517SOL    HW2 8232   0.621   4.290   0.928
 2518SOL     OW 8233   1.582   4.344   0.479
 2518SOL    HW1 8234   1.536   4.407   0.533
 2518SOL    HW2 8235   1.625   4.396   0.411
 2519SOL     OW 8236   0.996   3.841   1.757
 2519SOL    HW1 8237   1.048   3.915   1.724
 2519SOL    HW2 8238   1.046   3.764   1.731
 2520SOL     OW 8239   0.499   3.769   1.745
 2520SOL    HW1 8240   0.459   3.712   1.679
 2520SOL    HW2 8241   0.436   3.841   1.756
 2521SOL     OW 8242   1.213   4.252   0.268
 2521SOL    HW1 8243   1.222   4.173   0.321
 2521SOL    HW2 8244   1.164   4.313   0.323
 2522SOL     OW 8245   0.301   3.925   1.243
 2522SOL    HW1 8246   0.263   3.953   1.327
 2522SOL    HW2 8247   0.286   3.830   1.241
 2523SOL     OW 8248   0.732   4.360   1.050
 2523SOL    HW1 8249   0.804   4.325   0.998
 2523SOL    HW2 8250   0.733   4.454   1.034
 2524SOL     OW 8251   1.749   0.136   1.857
 2524SOL    HW1 8252   1.689   0.149   1.784
 2524SOL    HW2 8253   1.701   0.169   1.933
 2525SOL     OW 8254   0.309   3.794   0.620
 2525SOL    HW1 8255   0.286   3.883   0.649
 2525SOL    HW2 8256   0.302   3.740   0.698
 2526SOL     OW 8257   1.612   4.092   0.370
 2526SOL    HW1 8258   1.641   4.029   0.437
 2526SOL    HW2 8259   1.591   4.171   0.419
 2527SOL     OW 8260   1.537   4.008   0.118
 2527SOL    HW1 8261   1.476   3.936   0.135
 2527SOL    HW2 8262   1.567   4.035   0.205
 2528SOL     OW 8263   0.317   0.019   0.925
 2528SOL    HW1 8264   0.401   0.065   0.930
 2528SOL    HW2 8265   0.329   4.440   0.977
 2529SOL     OW 8266   0.337   4.237   1.011
 2529SOL    HW1 8267   0.292   4.156   0.987
 2529SOL    HW2 8268   0.410   4.243   0.950
 2530SOL     OW 8269   1.138   4.097   1.683
 2530SOL    HW1 8270   1.088   4.155   1.740
 2530SOL    HW2 8271   1.223   4.139   1.674
 2531SOL     OW 8272   1.160   3.928   1.469
 2531SOL    HW1 8273   1.151   3.989   1.542
 2531SOL    HW2 8274   1.198   3.980   1.398
 2532SOL     OW 8275   0.030   4.281   1.109
 2532SOL    HW1 8276   0.112   4.252   1.070
 2532SOL    HW2 8277   0.032   4.247   1.199
 2533SOL     OW 8278   0.177   4.235   1.698
 2533SOL    HW1 8279   0.262   4.216   1.657
 2533SOL    HW2 8280   0.147   4.315   1.654
 2534SOL     OW 8281   0.815   4.306   0.328
 2534SOL    HW1 8282   0.823   4.220   0.286
 2534SOL    HW2 8283   0.721   4.319   0.339
 2535SOL     OW 8284   1.639   4.320   1.190
 2535SOL    HW1 8285   1.632   4.260   1.265
 2535SOL    HW2 8286   1.726   4.304   1.155
 2536SOL     OW 8287   0.676   4.186   1.261
 2536SOL    HW1 8288   0.639   4.104   1.227
 2536SOL    HW2 8289   0.685   4.242   1.185
 2537SOL     OW 8290   0.478   4.219   0.186
 2537SOL    HW1 8291   0.521   4.303   0.197
 2537SOL    HW2 8292   0.384   4.239   0.189
 2538SOL     OW 8293   0.916   3.814   0.112
 2538SOL    HW1 8294   0.968   3.781   0.039
 2538SOL    HW2 8295   0.952   3.770   0.189
 2539SOL     OW 8296   1.719   3.866   0.513
 2539SOL    HW1 8297   1.792   3.852   0.453
 2539SOL    HW2 8298   1.704   3.780   0.552
 2540SOL     OW 8299   1.279   0.139   0.681
 2540SOL    HW1 8300   1.336   0.062   0.684
 2540SOL    HW2 8301   1.327   0.202   0.627
 2541SOL     OW 8302   1.839   3.897   0.968
 2541SOL    HW1 8303   1.868   3.811   0.938
 2541SOL    HW2 8304   1.753   3.909   0.928
 2542SOL     OW 8305   0.268   4.042   0.721
 2542SOL    HW1 8306   0.192   4.092   0.691
 2542SOL    HW2 8307   0.254   4.031   0.815
 2543SOL     OW 8308   1.063   0.307   0.722
 2543SOL    HW1 8309   0.977   0.270   0.702
 2543SOL    HW2 8310   1.125   0.239   0.694
 2544SOL     OW 8311   1.019   3.964   0.965
 2544SOL    HW1 8312   1.013   3.915   0.883
 2544SOL    HW2 8313   1.014   3.896   1.033
 2545SOL     OW 8314   1.719   4.114   1.380
 2545SOL    HW1 8315   1.790   4.178   1.377
 2545SOL    HW2 8316   1.748   4.043   1.324
 2546SOL     OW 8317   0.672   3.922   1.498
 2546SOL    HW1 8318   0.755   3.903   1.456
 2546SOL    HW2 8319   0.696   3.949   1.587
 2547SOL     OW 8320   0.060   4.059   0.003
 2547SOL    HW1 8321   4.468   4.068   0.028
 2547SOL    HW2 8322   0.098   4.145   0.020
 2548SOL     OW 8323   0.080   3.899   0.310
 2548SOL    HW1 8324   0.079   3.973   0.249
 2548SOL    HW2 8325   0.155   3.846   0.281
 2549SOL     OW 8326   0.723   4.287   1.703
 2549SOL    HW1 8327   0.732   4.337   1.784
 2549SOL    HW2 8328   0.755   4.199   1.725
 2550SOL     OW 8329   1.218   4.041   0.456
 2550SOL    HW1 8330   1.283   3.971   0.446
 2550SOL    HW2 8331   1.247   4.090   0.533
 2551SOL     OW 8332   1.764   4.087   1.647
 2551SOL    HW1 8333   1.746   4.097   1.553
 2551SOL    HW2 8334   1.695   4.029   1.679
 2552SOL     OW 8335   1.098   0.203   0.051
 2552SOL    HW1 8336   1.096   0.287   0.005
 2552SOL    HW2 8337   1.190   0.177   0.051
 2553SOL     OW 8338   1.815   3.910   1.238
 2553SOL    HW1 8339   1.824   3.816   1.254
 2553SOL    HW2 8340   1.823   3.918   1.143
 2554SOL     OW 8341   0.449   4.152   0.536
 2554SOL    HW1 8342   0.465   4.079   0.476
 2554SOL    HW2 8343   0.390   4.116   0.602
 2555SOL     OW 8344   0.322   4.258   1.276
 2555SOL    HW1 8345   0.374   4.191   1.321
 2555SOL    HW2 8346   0.336   4.241   1.183
 2556SOL     OW 8347   1.432   3.947   1.118
 2556SOL    HW1 8348   1.461   3.869   1.165
 2556SOL    HW2 8349   1.380   3.996   1.181
 2557SOL     OW 8350   1.008   3.745   1.146
 2557SOL    HW1 8351   0.953   3.677   1.109
 2557SOL    HW2 8352   1.096   3.708   1.148
 2558SOL     OW 8353   1.351   3.777   0.164
 2558SOL    HW1 8354   1.374   3.728   0.085
 2558SOL    HW2 8355   1.265   3.744   0.189
 2559SOL     OW 8356   1.300   4.176   0.683
 2559SOL    HW1 8357   1.256   4.260   0.695
 2559SOL    HW2 8358   1.301   4.136   0.770
 2560SOL     OW 8359   1.588   3.930   0.877
 2560SOL    HW1 8360   1.523   3.948   0.945
 2560SOL    HW2 8361   1.588   4.009   0.823
 2561SOL     OW 8362   0.234   4.288   1.973
 2561SOL    HW1 8363   0.166   4.324   2.029
 2561SOL    HW2 8364   0.214   4.324   1.886
 2562SOL     OW 8365   0.211   3.998   2.853
 2562SOL    HW1 8366   0.247   3.970   2.938
 2562SOL    HW2 8367   0.135   3.941   2.841
 2563SOL     OW 8368   0.002   4.096   2.494
 2563SOL    HW1 8369   4.423   4.129   2.539
 2563SOL    HW2 8370   4.473   4.015   2.451
 2564SOL     OW 8371   1.735   4.335   2.098
 2564SOL    HW1 8372   1.734   4.320   2.004
 2564SOL    HW2 8373   1.733   4.247   2.136
 2565SOL     OW 8374   0.723   0.264   2.541
 2565SOL    HW1 8375   0.724   0.209   2.619
 2565SOL    HW2 8376   0.631   0.287   2.528
 2566SOL     OW 8377   0.442   4.120   3.351
 2566SOL    HW1 8378   0.523   4.070   3.356
 2566SOL    HW2 8379   0.372   4.055   3.362
 2567SOL     OW 8380   1.615   4.174   2.600
 2567SOL    HW1 8381   1.542   4.200   2.544
 2567SOL    HW2 8382   1.625   4.245   2.663
 2568SOL     OW 8383   1.597   3.844   3.332
 2568SOL    HW1 8384   1.592   3.923   3.278
 2568SOL    HW2 8385   1.585   3.876   3.422
 2569SOL     OW 8386   0.166   4.323   2.493
 2569SOL    HW1 8387   0.106   4.253   2.467
 2569SOL    HW2 8388   0.120   4.404   2.471
 2570SOL     OW 8389   0.115   4.496   3.453
 2570SOL    HW1 8390   0.210   4.482   3.457
 2570SOL    HW2 8391   0.106   0.080   3.407
 2571SOL     OW 8392   0.812   3.723   2.367
 2571SOL    HW1 8393   0.852   3.809   2.353
 2571SOL    HW2 8394   0.719   3.741   2.378
 2572SOL     OW 8395   0.328   3.979   3.658
 2572SOL    HW1 8396   0.377   4.056   3.687
 2572SOL    HW2 8397   0.241   3.990   3.696
 2573SOL     OW 8398   1.278   4.069   2.794
 2573SOL    HW1 8399   1.189   4.035   2.803
 2573SOL    HW2 8400   1.330   4.019   2.857
 2574SOL     OW 8401   0.822   4.310   3.313
 2574SOL    HW1 8402   0.781   4.315   3.399
 2574SOL    HW2 8403   0.756   4.268   3.257
 2575SOL     OW 8404   1.396   4.199   3.538
 2575SOL    HW1 8405   1.395   4.242   3.624
 2575SOL    HW2 8406   1.456   4.126   3.549
 2576SOL     OW 8407   0.996   4.147   3.096
 2576SOL    HW1 8408   0.922   4.166   3.154
 2576SOL    HW2 8409   0.959   4.088   3.030
 2577SOL     OW 8410   1.057   4.410   2.283
 2577SOL    HW1 8411   1.058   4.442   2.373
 2577SOL    HW2 8412   0.968   4.376   2.270
 2578SOL     OW 8413   0.054   0.045   2.702
 2578SOL    HW1 8414   0.147   0.025   2.708
 2578SOL    HW2 8415   0.049   0.113   2.635
 2579SOL     OW 8416   0.884   4.063   2.054
 2579SOL    HW1 8417   0.929   4.125   1.996
 2579SOL    HW2 8418   0.904   3.977   2.016
 2580SOL     OW 8419   1.705   4.298   3.690
 2580SOL    HW1 8420   1.714   4.388   3.658
 2580SOL    HW2 8421   1.729   4.243   3.615
 2581SOL     OW 8422   0.551   3.908   2.754
 2581SOL    HW1 8423   0.553   3.936   2.845
 2581SOL    HW2 8424   0.548   3.989   2.704
 2582SOL     OW 8425   1.487   4.461   2.597
 2582SOL    HW1 8426   1.466   4.407   2.674
 2582SOL    HW2 8427   1.529   0.039   2.633
 2583SOL     OW 8428   0.190   4.000   3.349
 2583SOL    HW1 8429   0.134   4.077   3.356
 2583SOL    HW2 8430   0.186   3.960   3.436
 2584SOL     OW 8431   1.401   3.832   2.291
 2584SOL    HW1 8432   1.389   3.806   2.200
 2584SOL    HW2 8433   1.495   3.840   2.302
 2585SOL     OW 8434   0.353   4.377   2.272
 2585SOL    HW1 8435   0.400   4.306   2.315
 2585SOL    HW2 8436   0.297   4.414   2.340
 2586SOL     OW 8437   1.538   3.950   3.587
 2586SOL    HW1 8438   1.546   3.972   3.680
 2586SOL    HW2 8439   1.471   3.883   3.584
 2587SOL     OW 8440   0.630   3.852   1.966
 2587SOL    HW1 8441   0.703   3.792   1.981
 2587SOL    HW2 8442   0.585   3.816   1.890
 2588SOL     OW 8443   0.769   4.000   3.615
 2588SOL    HW1 8444   0.841   3.938   3.622
 2588SOL    HW2 8445   0.716   3.985   3.694
 2589SOL     OW 8446   1.346   4.311   3.290
 2589SOL    HW1 8447   1.368   4.274   3.376
 2589SOL    HW2 8448   1.382   4.400   3.292
 2590SOL     OW 8449   0.922   4.236   2.762
 2590SOL    HW1 8450   0.900   4.220   2.670
 2590SOL    HW2 8451   0.961   4.155   2.792
 2591SOL     OW 8452   0.550   3.786   2.367
 2591SOL    HW1 8453   0.469   3.785   2.418
 2591SOL    HW2 8454   0.543   3.865   2.313
 2592SOL     OW 8455   0.294   3.769   2.041
 2592SOL    HW1 8456   0.355   3.838   2.012
 2592SOL    HW2 8457   0.349   3.704   2.084
 2593SOL     OW 8458   0.935   3.969   2.328
 2593SOL    HW1 8459   0.907   4.009   2.245
 2593SOL    HW2 8460   1.030   3.979   2.327
 2594SOL     OW 8461   1.078   4.395   3.372
 2594SOL    HW1 8462   0.994   4.364   3.339
 2594SOL    HW2 8463   1.143   4.352   3.318
 2595SOL     OW 8464   1.026   4.270   1.884
 2595SOL    HW1 8465   1.005   4.357   1.852
 2595SOL    HW2 8466   1.088   4.284   1.956
 2596SOL     OW 8467   0.086   4.260   3.272
 2596SOL    HW1 8468   0.158   4.273   3.210
 2596SOL    HW2 8469   0.055   4.348   3.291
 2597SOL     OW 8470   0.562   3.950   3.025
 2597SOL    HW1 8471   0.600   3.869   3.058
 2597SOL    HW2 8472   0.471   3.948   3.054
 2598SOL     OW 8473   0.872   4.189   2.500
 2598SOL    HW1 8474   0.831   4.246   2.435
 2598SOL    HW2 8475   0.888   4.107   2.454
 2599SOL     OW 8476   1.014   3.777   2.616
 2599SOL    HW1 8477   0.955   3.768   2.540
 2599SOL    HW2 8478   0.994   3.701   2.670
 2600SOL     OW 8479   1.477   4.313   2.832
 2600SOL    HW1 8480   1.423   4.236   2.852
 2600SOL    HW2 8481   1.529   4.326   2.912
 2601SOL     OW 8482   1.400   4.296   1.934
 2601SOL    HW1 8483   1.339   4.270   2.004
 2601SOL    HW2 8484   1.483   4.256   1.959
 2602SOL     OW 8485   0.523   3.984   2.181
 2602SOL    HW1 8486   0.565   3.935   2.110
 2602SOL    HW2 8487   0.512   4.073   2.146
 2603SOL     OW 8488   0.917   3.823   3.261
 2603SOL    HW1 8489   0.941   3.802   3.171
 2603SOL    HW2 8490   0.997   3.862   3.298
 2604SOL     OW 8491   0.438   0.005   3.118
 2604SOL    HW1 8492   0.495   0.009   3.194
 2604SOL    HW2 8493   0.398   4.418   3.123
 2605SOL     OW 8494   1.267   4.101   3.134
 2605SOL    HW1 8495   1.300   4.178   3.180
 2605SOL    HW2 8496   1.178   4.125   3.108
 2606SOL     OW 8497   0.558   4.256   2.726
 2606SOL    HW1 8498   0.576   4.304   2.646
 2606SOL    HW2 8499   0.621   4.290   2.790
 2607SOL     OW 8500   1.574   4.343   2.337
 2607SOL    HW1 8501   1.540   4.408   2.398
 2607SOL    HW2 8502   1.631   4.392   2.278
 2608SOL     OW 8503   0.997   3.841   3.619
 2608SOL    HW1 8504   1.047   3.915   3.586
 2608SOL    HW2 8505   1.046   3.764   3.592
 2609SOL     OW 8506   0.499   3.769   3.607
 2609SOL    HW1 8507   0.459   3.712   3.541
 2609SOL    HW2 8508   0.436   3.841   3.618
 2610SOL     OW 8509   1.212   4.256   2.129
 2610SOL    HW1 8510   1.222   4.176   2.181
 2610SOL    HW2 8511   1.163   4.315   2.186
 2611SOL     OW 8512   0.301   3.925   3.106
 2611SOL    HW1 8513   0.263   3.953   3.189
 2611SOL    HW2 8514   0.286   3.830   3.104
 2612SOL     OW 8515   0.731   4.360   2.912
 2612SOL    HW1 8516   0.804   4.325   2.860
 2612SOL    HW2 8517   0.733   4.454   2.897
 2613SOL     OW 8518   1.749   0.135   3.719
 2613SOL    HW1 8519   1.689   0.149   3.645
 2613SOL    HW2 8520   1.701   0.169   3.795
 2614SOL     OW 8521   0.307   3.794   2.481
 2614SOL    HW1 8522   0.285   3.882   2.510
 2614SOL    HW2 8523   0.302   3.741   2.560
 2615SOL     OW 8524   1.611   4.091   2.232
 2615SOL    HW1 8525   1.640   4.030   2.300
 2615SOL    HW2 8526   1.590   4.171   2.280
 2616SOL     OW 8527   1.529   3.999   1.989
 2616SOL    HW1 8528   1.467   3.931   2.015
 2616SOL    HW2 8529   1.563   4.034   2.071
 2617SOL     OW 8530   0.318   0.019   2.787
 2617SOL    HW1 8531   0.402   0.065   2.792
 2617SOL    HW2 8532   0.330   4.440   2.840
 2618SOL     OW 8533   0.337   4.237   2.873
 2618SOL    HW1 8534   0.292   4.156   2.849
 2618SOL    HW2 8535   0.410   4.243   2.812
 2619SOL     OW 8536   1.138   4.097   3.545
 2619SOL    HW1 8537   1.088   4.155   3.601
 2619SOL    HW2 8538   1.223   4.139   3.536
 2620SOL     OW 8539   1.160   3.928   3.331
 2620SOL    HW1 8540   1.151   3.989   3.404
 2620SOL    HW2 8541   1.198   3.981   3.260
 2621SOL     OW 8542   0.029   4.280   2.971
 2621SOL    HW1 8543   0.112   4.253   2.932
 2621SOL    HW2 8544   0.033   4.247   3.061
 2622SOL     OW 8545   0.178   4.235   3.559
 2622SOL    HW1 8546   0.262   4.216   3.519
 2622SOL    HW2 8547   0.147   4.315   3.516
 2623SOL     OW 8548   0.819   4.288   2.200
 2623SOL    HW1 8549   0.816   4.209   2.146
 2623SOL    HW2 8550   0.730   4.322   2.199
 2624SOL     OW 8551   1.639   4.320   3.052
 2624SOL    HW1 8552   1.632   4.260   3.127
 2624SOL    HW2 8553   1.726   4.304   3.017
 2625SOL     OW 8554   0.676   4.185   3.123
 2625SOL    HW1 8555   0.639   4.104   3.089
 2625SOL    HW2 8556   0.685   4.242   3.047
 2626SOL     OW 8557   0.486   4.222   2.053
 2626SOL    HW1 8558   0.521   4.309   2.072
 2626SOL    HW2 8559   0.392   4.236   2.041
 2627SOL     OW 8560   1.719   3.866   2.375
 2627SOL    HW1 8561   1.792   3.852   2.315
 2627SOL    HW2 8562   1.703   3.780   2.414
 2628SOL     OW 8563   1.280   0.138   2.541
 2628SOL    HW1 8564   1.338   0.063   2.545
 2628SOL    HW2 8565   1.329   0.204   2.491
 2629SOL     OW 8566   1.839   3.897   2.830
 2629SOL    HW1 8567   1.868   3.811   2.800
 2629SOL    HW2 8568   1.753   3.909   2.790
 2630SOL     OW 8569   0.269   4.042   2.583
 2630SOL    HW1 8570   0.191   4.090   2.553
 2630SOL    HW2 8571   0.255   4.031   2.677
 2631SOL     OW 8572   0.911   0.095   2.090
 2631SOL    HW1 8573   0.993   0.136   2.062
 2631SOL    HW2 8574   0.934   0.050   2.172
 2632SOL     OW 8575   1.067   0.306   2.598
 2632SOL    HW1 8576   0.982   0.286   2.560
 2632SOL    HW2 8577   1.126   0.241   2.561
 2633SOL     OW 8578   1.019   3.964   2.827
 2633SOL    HW1 8579   1.013   3.915   2.745
 2633SOL    HW2 8580   1.014   3.896   2.895
 2634SOL     OW 8581   1.719   4.114   3.242
 2634SOL    HW1 8582   1.789   4.178   3.239
 2634SOL    HW2 8583   1.748   4.043   3.186
 2635SOL     OW 8584   0.672   3.922   3.360
 2635SOL    HW1 8585   0.755   3.903   3.318
 2635SOL    HW2 8586   0.696   3.949   3.449
 2636SOL     OW 8587   0.069   4.046   1.893
 2636SOL    HW1 8588   4.474   4.061   1.886
 2636SOL    HW2 8589   0.108   4.131   1.875
 2637SOL     OW 8590   0.084   3.903   2.170
 2637SOL    HW1 8591   0.076   3.972   2.104
 2637SOL    HW2 8592   0.159   3.851   2.141
 2638SOL     OW 8593   0.723   4.287   3.565
 2638SOL    HW1 8594   0.732   4.337   3.646
 2638SOL    HW2 8595   0.755   4.200   3.587
 2639SOL     OW 8596   1.220   4.044   2.317
 2639SOL    HW1 8597   1.283   3.972   2.307
 2639SOL    HW2 8598   1.248   4.091   2.395
 2640SOL     OW 8599   1.764   4.087   3.509
 2640SOL    HW1 8600   1.746   4.097   3.415
 2640SOL    HW2 8601   1.695   4.029   3.541
 2641SOL     OW 8602   1.109   0.230   1.967
 2641SOL    HW1 8603   1.086   0.269   1.883
 2641SOL    HW2 8604   1.186   0.177   1.949
 2642SOL     OW 8605   1.815   3.910   3.100
 2642SOL    HW1 8606   1.824   3.816   3.116
 2642SOL    HW2 8607   1.823   3.918   3.005
 2643SOL     OW 8608   0.451   4.150   2.399
 2643SOL    HW1 8609   0.461   4.079   2.336
 2643SOL    HW2 8610   0.390   4.117   2.464
 2644SOL     OW 8611   0.322   4.258   3.138
 2644SOL    HW1 8612   0.374   4.191   3.183
 2644SOL    HW2 8613   0.336   4.241   3.045
 2645SOL     OW 8614   1.432   3.947   2.980
 2645SOL    HW1 8615   1.461   3.869   3.028
 2645SOL    HW2 8616   1.380   3.996   3.043
 2646SOL     OW 8617   1.008   3.745   3.008
 2646SOL    HW1 8618   0.953   3.677   2.971
 2646SOL    HW2 8619   1.096   3.708   3.010
 2647SOL     OW 8620   1.352   3.777   2.025
 2647SOL    HW1 8621   1.377   3.719   1.954
 2647SOL    HW2 8622   1.266   3.746   2.053
 2648SOL     OW 8623   1.300   4.177   2.545
 2648SOL    HW1 8624   1.255   4.260   2.559
 2648SOL    HW2 8625   1.300   4.135   2.632
 2649SOL     OW 8626   1.588   3.930   2.739
 2649SOL    HW1 8627   1.523   3.948   2.807
 2649SOL    HW2 8628   1.588   4.009   2.685
 2650SOL     OW 8629   0.234   4.288   3.835
 2650SOL    HW1 8630   0.166   4.324   3.892
 2650SOL    HW2 8631   0.214   4.324   3.748
 2651SOL     OW 8632   0.211   3.998   4.715
 2651SOL    HW1 8633   0.247   3.970   4.800
 2651SOL    HW2 8634   0.135   3.942   4.703
 2652SOL     OW 8635   0.002   4.096   4.356
 2652SOL    HW1 8636   4.424   4.129   4.401
 2652SOL    HW2 8637   4.473   4.016   4.313
 2653SOL     OW 8638   1.735   4.335   3.960
 2653SOL    HW1 8639   1.734   4.320   3.866
 2653SOL    HW2 8640   1.733   4.247   3.998
 2654SOL     OW 8641   0.723   0.264   4.403
 2654SOL    HW1 8642   0.724   0.209   4.481
 2654SOL    HW2 8643   0.631   0.286   4.390
 2655SOL     OW 8644   0.442   4.120   5.213
 2655SOL    HW1 8645   0.523   4.069   5.218
 2655SOL    HW2 8646   0.372   4.055   5.224
 2656SOL     OW 8647   1.615   4.174   4.462
 2656SOL    HW1 8648   1.542   4.200   4.406
 2656SOL    HW2 8649   1.625   4.245   4.525
 2657SOL     OW 8650   1.597   3.845   5.194
 2657SOL    HW1 8651   1.592   3.924   5.140
 2657SOL    HW2 8652   1.585   3.876   5.284
 2658SOL     OW 8653   0.166   4.323   4.355
 2658SOL    HW1 8654   0.106   4.253   4.329
 2658SOL    HW2 8655   0.120   4.404   4.333
 2659SOL     OW 8656   0.115   4.497   5.314
 2659SOL    HW1 8657   0.209   4.482   5.319
 2659SOL    HW2 8658   0.106   0.080   5.269
 2660SOL     OW 8659   0.812   3.723   4.229
 2660SOL    HW1 8660   0.852   3.808   4.215
 2660SOL    HW2 8661   0.719   3.741   4.240
 2661SOL     OW 8662   0.328   3.979   5.520
 2661SOL    HW1 8663   0.377   4.056   5.549
 2661SOL    HW2 8664   0.241   3.990   5.558
 2662SOL     OW 8665   1.279   4.069   4.656
 2662SOL    HW1 8666   1.189   4.035   4.665
 2662SOL    HW2 8667   1.330   4.018   4.719
 2663SOL     OW 8668   0.822   4.310   5.175
 2663SOL    HW1 8669   0.781   4.315   5.261
 2663SOL    HW2 8670   0.756   4.268   5.119
 2664SOL     OW 8671   1.396   4.199   5.401
 2664SOL    HW1 8672   1.395   4.242   5.486
 2664SOL    HW2 8673   1.456   4.126   5.411
 2665SOL     OW 8674   0.996   4.147   4.958
 2665SOL    HW1 8675   0.922   4.167   5.016
 2665SOL    HW2 8676   0.959   4.088   4.892
 2666SOL     OW 8677   1.057   4.410   4.145
 2666SOL    HW1 8678   1.058   4.442   4.235
 2666SOL    HW2 8679   0.968   4.375   4.133
 2667SOL     OW 8680   0.054   0.045   4.564
 2667SOL    HW1 8681   0.147   0.025   4.570
 2667SOL    HW2 8682   0.049   0.113   4.497
 2668SOL     OW 8683   0.884   4.063   3.916
 2668SOL    HW1 8684   0.929   4.125   3.858
 2668SOL    HW2 8685   0.904   3.977   3.878
 2669SOL     OW 8686   1.705   4.298   5.552
 2669SOL    HW1 8687   1.714   4.388   5.519
 2669SOL    HW2 8688   1.729   4.243   5.477
 2670SOL     OW 8689   0.551   3.908   4.616
 2670SOL    HW1 8690   0.553   3.935   4.707
 2670SOL    HW2 8691   0.548   3.989   4.566
 2671SOL     OW 8692   1.487   4.461   4.459
 2671SOL    HW1 8693   1.466   4.407   4.536
 2671SOL    HW2 8694   1.529   0.039   4.495
 2672SOL     OW 8695   0.190   4.000   5.211
 2672SOL    HW1 8696   0.134   4.077   5.218
 2672SOL    HW2 8697   0.186   3.960   5.298
 2673SOL     OW 8698   1.401   3.831   4.153
 2673SOL    HW1 8699   1.389   3.806   4.062
 2673SOL    HW2 8700   1.495   3.841   4.164
 2674SOL     OW 8701   0.353   4.377   4.134
 2674SOL    HW1 8702   0.400   4.306   4.177
 2674SOL    HW2 8703   0.297   4.414   4.202
 2675SOL     OW 8704   1.538   3.950   5.449
 2675SOL    HW1 8705   1.546   3.972   5.542
 2675SOL    HW2 8706   1.471   3.882   5.446
 2676SOL     OW 8707   0.630   3.852   3.828
 2676SOL    HW1 8708   0.703   3.792   3.843
 2676SOL    HW2 8709   0.584   3.816   3.752
 2677SOL     OW 8710   0.769   4.000   5.477
 2677SOL    HW1 8711   0.841   3.938   5.484
 2677SOL    HW2 8712   0.716   3.985   5.556
 2678SOL     OW 8713   1.346   4.311   5.152
 2678SOL    HW1 8714   1.368   4.274   5.238
 2678SOL    HW2 8715   1.382   4.400   5.154
 2679SOL     OW 8716   0.922   4.236   4.624
 2679SOL    HW1 8717   0.900   4.220   4.532
 2679SOL    HW2 8718   0.961   4.155   4.654
 2680SOL     OW 8719   0.550   3.786   4.229
 2680SOL    HW1 8720   0.469   3.785   4.280
 2680SOL    HW2 8721   0.543   3.865   4.175
 2681SOL     OW 8722   0.294   3.769   3.902
 2681SOL    HW1 8723   0.355   3.838   3.874
 2681SOL    HW2 8724   0.349   3.704   3.946
 2682SOL     OW 8725   0.935   3.969   4.190
 2682SOL    HW1 8726   0.906   4.009   4.107
 2682SOL    HW2 8727   1.030   3.979   4.189
 2683SOL     OW 8728   1.078   4.396   5.234
 2683SOL    HW1 8729   0.994   4.364   5.201
 2683SOL    HW2 8730   1.143   4.351   5.180
 2684SOL     OW 8731   1.026   4.270   3.746
 2684SOL    HW1 8732   1.005   4.357   3.714
 2684SOL    HW2 8733   1.088   4.284   3.817
 2685SOL     OW 8734   0.086   4.260   5.134
 2685SOL    HW1 8735   0.158   4.273   5.072
 2685SOL    HW2 8736   0.055   4.348   5.153
 2686SOL     OW 8737   0.562   3.950   4.887
 2686SOL    HW1 8738   0.600   3.869   4.921
 2686SOL    HW2 8739   0.471   3.948   4.916
 2687SOL     OW 8740   0.872   4.189   4.362
 2687SOL    HW1 8741   0.831   4.246   4.297
 2687SOL    HW2 8742   0.888   4.107   4.316
 2688SOL     OW 8743   1.014   3.776   4.477
 2688SOL    HW1 8744   0.955   3.768   4.403
 2688SOL    HW2 8745   0.994   3.701   4.532
 2689SOL     OW 8746   1.477   4.312   4.694
 2689SOL    HW1 8747   1.423   4.236   4.715
 2689SOL    HW2 8748   1.529   4.326   4.774
 2690SOL     OW 8749   1.400   4.296   3.796
 2690SOL    HW1 8750   1.339   4.270   3.866
 2690SOL    HW2 8751   1.483   4.256   3.821
 2691SOL     OW 8752   0.523   3.984   4.043
 2691SOL    HW1 8753   0.565   3.936   3.972
 2691SOL    HW2 8754   0.511   4.073   4.008
 2692SOL     OW 8755   0.917   3.823   5.123
 2692SOL    HW1 8756   0.941   3.802   5.033
 2692SOL    HW2 8757   0.997   3.862   5.160
 2693SOL     OW 8758   0.438   0.005   4.980
 2693SOL    HW1 8759   0.495   0.009   5.057
 2693SOL    HW2 8760   0.398   4.418   4.985
 2694SOL     OW 8761   1.267   4.101   4.995
 2694SOL    HW1 8762   1.300   4.178   5.042
 2694SOL    HW2 8763   1.178   4.125   4.970
 2695SOL     OW 8764   0.558   4.256   4.588
 2695SOL    HW1 8765   0.576   4.304   4.508
 2695SOL    HW2 8766   0.620   4.290   4.652
 2696SOL     OW 8767   1.574   4.342   4.199
 2696SOL    HW1 8768   1.540   4.408   4.260
 2696SOL    HW2 8769   1.631   4.392   4.140
 2697SOL     OW 8770   0.996   3.841   5.481
 2697SOL    HW1 8771   1.047   3.915   5.448
 2697SOL    HW2 8772   1.046   3.764   5.454
 2698SOL     OW 8773   0.499   3.769   5.469
 2698SOL    HW1 8774   0.459   3.712   5.403
 2698SOL    HW2 8775   0.437   3.841   5.480
 2699SOL     OW 8776   1.212   4.256   3.992
 2699SOL    HW1 8777   1.221   4.176   4.043
 2699SOL    HW2 8778   1.163   4.315   4.048
 2700SOL     OW 8779   0.301   3.925   4.968
 2700SOL    HW1 8780   0.263   3.953   5.051
 2700SOL    HW2 8781   0.286   3.830   4.966
 2701SOL     OW 8782   0.731   4.360   4.774
 2701SOL    HW1 8783   0.804   4.325   4.722
 2701SOL    HW2 8784   0.733   4.454   4.759
 2702SOL     OW 8785   1.749   0.136   5.581
 2702SOL    HW1 8786   1.689   0.149   5.508
 2702SOL    HW2 8787   1.701   0.169   5.657
 2703SOL     OW 8788   0.307   3.794   4.343
 2703SOL    HW1 8789   0.285   3.882   4.372
 2703SOL    HW2 8790   0.302   3.741   4.422
 2704SOL     OW 8791   1.611   4.091   4.094
 2704SOL    HW1 8792   1.640   4.030   4.163
 2704SOL    HW2 8793   1.590   4.172   4.141
 2705SOL     OW 8794   1.529   3.999   3.851
 2705SOL    HW1 8795   1.467   3.931   3.877
 2705SOL    HW2 8796   1.563   4.034   3.933
 2706SOL     OW 8797   0.318   0.019   4.649
 2706SOL    HW1 8798   0.402   0.065   4.654
 2706SOL    HW2 8799   0.330   4.440   4.702
 2707SOL     OW 8800   0.337   4.237   4.735
 2707SOL    HW1 8801   0.292   4.156   4.711
 2707SOL    HW2 8802   0.410   4.243   4.674
 2708SOL     OW 8803   1.138   4.097   5.407
 2708SOL    HW1 8804   1.088   4.155   5.463
 2708SOL    HW2 8805   1.223   4.139   5.398
 2709SOL     OW 8806   1.160   3.928   5.193
 2709SOL    HW1 8807   1.151   3.989   5.266
 2709SOL    HW2 8808   1.198   3.981   5.122
 2710SOL     OW 8809   0.029   4.280   4.833
 2710SOL    HW1 8810   0.112   4.253   4.794
 2710SOL    HW2 8811   0.033   4.247   4.923
 2711SOL     OW 8812   0.178   4.235   5.422
 2711SOL    HW1 8813   0.262   4.216   5.381
 2711SOL    HW2 8814   0.147   4.315   5.378
 2712SOL     OW 8815   0.819   4.288   4.062
 2712SOL    HW1 8816   0.816   4.209   4.009
 2712SOL    HW2 8817   0.730   4.322   4.061
 2713SOL     OW 8818   1.639   4.319   4.914
 2713SOL    HW1 8819   1.632   4.261   4.989
 2713SOL    HW2 8820   1.726   4.303   4.879
 2714SOL     OW 8821   0.676   4.185   4.985
 2714SOL    HW1 8822   0.639   4.104   4.951
 2714SOL    HW2 8823   0.685   4.242   4.909
 2715SOL     OW 8824   0.486   4.222   3.915
 2715SOL    HW1 8825   0.521   4.309   3.934
 2715SOL    HW2 8826   0.392   4.236   3.903
 2716SOL     OW 8827   1.719   3.865   4.238
 2716SOL    HW1 8828   1.792   3.852   4.177
 2716SOL    HW2 8829   1.704   3.779   4.276
 2717SOL     OW 8830   1.280   0.139   4.403
 2717SOL    HW1 8831   1.338   0.063   4.407
 2717SOL    HW2 8832   1.329   0.204   4.353
 2718SOL     OW 8833   1.839   3.896   4.692
 2718SOL    HW1 8834   1.868   3.810   4.661
 2718SOL    HW2 8835   1.753   3.909   4.652
 2719SOL     OW 8836   0.269   4.042   4.445
 2719SOL    HW1 8837   0.191   4.090   4.415
 2719SOL    HW2 8838   0.255   4.031   4.539
 2720SOL     OW 8839   0.911   0.095   3.952
 2720SOL    HW1 8840   0.993   0.136   3.924
 2720SOL    HW2 8841   0.934   0.050   4.034
 2721SOL     OW 8842   1.067   0.306   4.460
 2721SOL    HW1 8843   0.982   0.286   4.422
 2721SOL    HW2 8844   1.126   0.241   4.423
 2722SOL     OW 8845   1.019   3.964   4.689
 2722SOL    HW1 8846   1.013   3.915   4.607
 2722SOL    HW2 8847   1.014   3.896   4.757
 2723SOL     OW 8848   1.719   4.114   5.104
 2723SOL    HW1 8849   1.789   4.178   5.101
 2723SOL    HW2 8850   1.748   4.043   5.048
 2724SOL     OW 8851   0.672   3.922   5.222
 2724SOL    HW1 8852   0.755   3.903   5.180
 2724SOL    HW2 8853   0.696   3.949   5.311
 2725SOL     OW 8854   0.069   4.046   3.755
 2725SOL    HW1 8855   4.474   4.061   3.747
 2725SOL    HW2 8856   0.108   4.131   3.737
 2726SOL     OW 8857   0.084   3.903   4.032
 2726SOL    HW1 8858   0.076   3.972   3.966
 2726SOL    HW2 8859   0.159   3.851   4.003
 2727SOL     OW 8860   0.723   4.287   5.427
 2727SOL    HW1 8861   0.731   4.337   5.508
 2727SOL    HW2 8862   0.755   4.199   5.449
 2728SOL     OW 8863   1.220   4.044   4.179
 2728SOL    HW1 8864   1.283   3.972   4.170
 2728SOL    HW2 8865   1.248   4.091   4.257
 2729SOL     OW 8866   1.764   4.087   5.371
 2729SOL    HW1 8867   1.746   4.097   5.277
 2729SOL    HW2 8868   1.695   4.029   5.403
 2730SOL     OW 8869   1.109   0.230   3.829
 2730SOL    HW1 8870   1.086   0.269   3.745
 2730SOL    HW2 8871   1.186   0.177   3.810
 2731SOL     OW 8872   1.815   3.910   4.962
 2731SOL    HW1 8873   1.823   3.816   4.979
 2731SOL    HW2 8874   1.823   3.918   4.867
 2732SOL     OW 8875   0.451   4.150   4.261
 2732SOL    HW1 8876   0.461   4.079   4.198
 2732SOL    HW2 8877   0.390   4.117   4.326
 2733SOL     OW 8878   0.322   4.258   5.000
 2733SOL    HW1 8879   0.374   4.191   5.045
 2733SOL    HW2 8880   0.337   4.241   4.907
 2734SOL     OW 8881   1.432   3.946   4.842
 2734SOL    HW1 8882   1.461   3.869   4.891
 2734SOL    HW2 8883   1.380   3.996   4.905
 2735SOL     OW 8884   1.008   3.746   4.870
 2735SOL    HW1 8885   0.953   3.677   4.833
 2735SOL    HW2 8886   1.096   3.708   4.872
 2736SOL     OW 8887   1.352   3.777   3.888
 2736SOL    HW1 8888   1.377   3.719   3.816
 2736SOL    HW2 8889   1.266   3.746   3.915
 2737SOL     OW 8890   1.300   4.177   4.407
 2737SOL    HW1 8891   1.255   4.260   4.421
 2737SOL    HW2 8892   1.300   4.135   4.494
 2738SOL     OW 8893   1.588   3.930   4.601
 2738SOL    HW1 8894   1.523   3.948   4.669
 2738SOL    HW2 8895   1.588   4.009   4.547
 2739SOL     OW 8896   0.234   4.288   5.697
 2739SOL    HW1 8897   0.166   4.324   5.754
 2739SOL    HW2 8898   0.214   4.324   5.610
 2740SOL     OW 8899   0.211   3.998   6.577
 2740SOL    HW1 8900   0.247   3.970   6.662
 2740SOL    HW2 8901   0.135   3.941   6.565
 2741SOL     OW 8902   0.002   4.096   6.218
 2741SOL    HW1 8903   4.423   4.129   6.263
 2741SOL    HW2 8904   4.473   4.015   6.176
 2742SOL     OW 8905   1.735   4.335   5.822
 2742SOL    HW1 8906   1.734   4.320   5.728
 2742SOL    HW2 8907   1.733   4.247   5.860
 2743SOL     OW 8908   0.723   0.264   6.265
 2743SOL    HW1 8909   0.724   0.209   6.343
 2743SOL    HW2 8910   0.631   0.286   6.252
 2744SOL     OW 8911   0.442   4.120   7.075
 2744SOL    HW1 8912   0.523   4.070   7.080
 2744SOL    HW2 8913   0.373   4.055   7.086
 2745SOL     OW 8914   1.616   4.174   6.324
 2745SOL    HW1 8915   1.542   4.200   6.269
 2745SOL    HW2 8916   1.625   4.245   6.387
 2746SOL     OW 8917   1.597   3.845   7.056
 2746SOL    HW1 8918   1.591   3.923   7.002
 2746SOL    HW2 8919   1.585   3.876   7.146
 2747SOL     OW 8920   0.166   4.323   6.217
 2747SOL    HW1 8921   0.106   4.253   6.191
 2747SOL    HW2 8922   0.120   4.404   6.195
 2748SOL     OW 8923   0.115   4.497   7.176
 2748SOL    HW1 8924   0.209   4.481   7.181
 2748SOL    HW2 8925   0.106   0.080   7.131
 2749SOL     OW 8926   0.812   3.722   6.090
 2749SOL    HW1 8927   0.852   3.808   6.077
 2749SOL    HW2 8928   0.719   3.741   6.102
 2750SOL     OW 8929   0.328   3.979   7.382
 2750SOL    HW1 8930   0.377   4.056   7.411
 2750SOL    HW2 8931   0.241   3.990   7.420
 2751SOL     OW 8932   1.278   4.069   6.518
 2751SOL    HW1 8933   1.189   4.035   6.527
 2751SOL    HW2 8934   1.330   4.019   6.581
 2752SOL     OW 8935   0.822   4.310   7.037
 2752SOL    HW1 8936   0.781   4.315   7.123
 2752SOL    HW2 8937   0.756   4.268   6.981
 2753SOL     OW 8938   1.396   4.199   7.263
 2753SOL    HW1 8939   1.395   4.242   7.348
 2753SOL    HW2 8940   1.456   4.125   7.273
 2754SOL     OW 8941   0.996   4.147   6.820
 2754SOL    HW1 8942   0.922   4.166   6.878
 2754SOL    HW2 8943   0.960   4.087   6.755
 2755SOL     OW 8944   1.057   4.410   6.007
 2755SOL    HW1 8945   1.058   4.442   6.097
 2755SOL    HW2 8946   0.968   4.376   5.994
 2756SOL     OW 8947   0.054   0.045   6.426
 2756SOL    HW1 8948   0.147   0.025   6.432
 2756SOL    HW2 8949   0.049   0.113   6.359
 2757SOL     OW 8950   0.884   4.063   5.778
 2757SOL    HW1 8951   0.930   4.125   5.721
 2757SOL    HW2 8952   0.904   3.977   5.740
 2758SOL     OW 8953   1.705   4.298   7.414
 2758SOL    HW1 8954   1.714   4.388   7.381
 2758SOL    HW2 8955   1.729   4.243   7.340
 2759SOL     OW 8956   0.551   3.908   6.478
 2759SOL    HW1 8957   0.553   3.935   6.569
 2759SOL    HW2 8958   0.548   3.990   6.428
 2760SOL     OW 8959   1.487   4.461   6.321
 2760SOL    HW1 8960   1.466   4.407   6.397
 2760SOL    HW2 8961   1.529   0.039   6.357
 2761SOL     OW 8962   0.190   4.000   7.073
 2761SOL    HW1 8963   0.134   4.077   7.080
 2761SOL    HW2 8964   0.186   3.960   7.160
 2762SOL     OW 8965   1.401   3.832   6.015
 2762SOL    HW1 8966   1.389   3.806   5.924
 2762SOL    HW2 8967   1.495   3.840   6.026
 2763SOL     OW 8968   0.353   4.377   5.996
 2763SOL    HW1 8969   0.400   4.306   6.039
 2763SOL    HW2 8970   0.297   4.414   6.064
 2764SOL     OW 8971   1.538   3.951   7.311
 2764SOL    HW1 8972   1.545   3.972   7.404
 2764SOL    HW2 8973   1.471   3.882   7.308
 2765SOL     OW 8974   0.630   3.852   5.690
 2765SOL    HW1 8975   0.703   3.792   5.705
 2765SOL    HW2 8976   0.585   3.816   5.614
 2766SOL     OW 8977   0.769   4.001   7.339
 2766SOL    HW1 8978   0.841   3.938   7.345
 2766SOL    HW2 8979   0.716   3.984   7.418
 2767SOL     OW 8980   1.346   4.311   7.014
 2767SOL    HW1 8981   1.368   4.274   7.100
 2767SOL    HW2 8982   1.382   4.400   7.017
 2768SOL     OW 8983   0.922   4.236   6.486
 2768SOL    HW1 8984   0.900   4.220   6.394
 2768SOL    HW2 8985   0.961   4.155   6.516
 2769SOL     OW 8986   0.550   3.786   6.091
 2769SOL    HW1 8987   0.469   3.785   6.142
 2769SOL    HW2 8988   0.543   3.865   6.037
 2770SOL     OW 8989   0.294   3.769   5.764
 2770SOL    HW1 8990   0.355   3.838   5.737
 2770SOL    HW2 8991   0.349   3.704   5.808
 2771SOL     OW 8992   0.935   3.969   6.052
 2771SOL    HW1 8993   0.907   4.009   5.969
 2771SOL    HW2 8994   1.030   3.979   6.051
 2772SOL     OW 8995   1.078   4.396   7.096
 2772SOL    HW1 8996   0.994   4.364   7.063
 2772SOL    HW2 8997   1.143   4.351   7.042
 2773SOL     OW 8998   1.026   4.270   5.608
 2773SOL    HW1 8999   1.005   4.357   5.576
 2773SOL    HW2 9000   1.088   4.284   5.680
 2774SOL     OW 9001   0.086   4.260   6.996
 2774SOL    HW1 9002   0.158   4.273   6.934
 2774SOL    HW2 9003   0.055   4.348   7.015
 2775SOL     OW 9004   0.562   3.950   6.749
 2775SOL    HW1 9005   0.600   3.869   6.782
 2775SOL    HW2 9006   0.471   3.948   6.778
 2776SOL     OW 9007   0.872   4.189   6.224
 2776SOL    HW1 9008   0.831   4.246   6.159
 2776SOL    HW2 9009   0.888   4.107   6.178
 2777SOL     OW 9010   1.014   3.777   6.339
 2777SOL    HW1 9011   0.955   3.767   6.265
 2777SOL    HW2 9012   0.995   3.701   6.394
 2778SOL     OW 9013   1.477   4.312   6.556
 2778SOL    HW1 9014   1.423   4.236   6.576
 2778SOL    HW2 9015   1.529   4.326   6.636
 2779SOL     OW 9016   1.400   4.296   5.658
 2779SOL    HW1 9017   1.339   4.270   5.728
 2779SOL    HW2 9018   1.483   4.256   5.683
 2780SOL     OW 9019   0.523   3.984   5.905
 2780SOL    HW1 9020   0.565   3.936   5.834
 2780SOL    HW2 9021   0.511   4.073   5.870
 2781SOL     OW 9022   0.917   3.824   6.985
 2781SOL    HW1 9023   0.941   3.802   6.894
 2781SOL    HW2 9024   0.997   3.862   7.022
 2782SOL     OW 9025   0.438   0.005   6.842
 2782SOL    HW1 9026   0.495   0.009   6.918
 2782SOL    HW2 9027   0.398   4.418   6.847
 2783SOL     OW 9028   1.267   4.101   6.858
 2783SOL    HW1 9029   1.300   4.178   6.904
 2783SOL    HW2 9030   1.178   4.126   6.832
 2784SOL     OW 9031   0.558   4.256   6.450
 2784SOL    HW1 9032   0.576   4.304   6.370
 2784SOL    HW2 9033   0.620   4.290   6.514
 2785SOL     OW 9034   1.573   4.343   6.061
 2785SOL    HW1 9035   1.540   4.408   6.122
 2785SOL    HW2 9036   1.631   4.392   6.002
 2786SOL     OW 9037   0.996   3.841   7.343
 2786SOL    HW1 9038   1.048   3.915   7.310
 2786SOL    HW2 9039   1.046   3.763   7.317
 2787SOL     OW 9040   0.499   3.769   7.331
 2787SOL    HW1 9041   0.459   3.712   7.266
 2787SOL    HW2 9042   0.436   3.841   7.342
 2788SOL     OW 9043   1.212   4.256   5.853
 2788SOL    HW1 9044   1.222   4.176   5.905
 2788SOL    HW2 9045   1.163   4.315   5.910
 2789SOL     OW 9046   0.301   3.925   6.829
 2789SOL    HW1 9047   0.263   3.953   6.913
 2789SOL    HW2 9048   0.286   3.830   6.828
 2790SOL     OW 9049   0.731   4.360   6.636
 2790SOL    HW1 9050   0.804   4.325   6.584
 2790SOL    HW2 9051   0.733   4.454   6.621
 2791SOL     OW 9052   1.749   0.137   7.443
 2791SOL    HW1 9053   1.689   0.148   7.370
 2791SOL    HW2 9054   1.701   0.169   7.519
 2792SOL     OW 9055   0.307   3.794   6.205
 2792SOL    HW1 9056   0.285   3.882   6.234
 2792SOL    HW2 9057   0.302   3.741   6.284
 2793SOL     OW 9058   1.611   4.091   5.956
 2793SOL    HW1 9059   1.640   4.030   6.024
 2793SOL    HW2 9060   1.590   4.171   6.003
 2794SOL     OW 9061   1.529   3.999   5.713
 2794SOL    HW1 9062   1.467   3.931   5.739
 2794SOL    HW2 9063   1.563   4.034   5.795
 2795SOL     OW 9064   0.318   0.019   6.511
 2795SOL    HW1 9065   0.402   0.065   6.516
 2795SOL    HW2 9066   0.330   4.440   6.564
 2796SOL     OW 9067   0.337   4.237   6.597
 2796SOL    HW1 9068   0.292   4.156   6.573
 2796SOL    HW2 9069   0.410   4.243   6.536
 2797SOL     OW 9070   1.138   4.097   7.268
 2797SOL    HW1 9071   1.088   4.155   7.325
 2797SOL    HW2 9072   1.223   4.140   7.260
 2798SOL     OW 9073   1.159   3.928   7.055
 2798SOL    HW1 9074   1.151   3.989   7.128
 2798SOL    HW2 9075   1.198   3.981   6.984
 2799SOL     OW 9076   0.029   4.280   6.695
 2799SOL    HW1 9077   0.112   4.253   6.656
 2799SOL    HW2 9078   0.033   4.247   6.785
 2800SOL     OW 9079   0.177   4.235   7.284
 2800SOL    HW1 9080   0.262   4.216   7.243
 2800SOL    HW2 9081   0.147   4.315   7.240
 2801SOL     OW 9082   0.819   4.289   5.924
 2801SOL    HW1 9083   0.816   4.209   5.870
 2801SOL    HW2 9084   0.730   4.322   5.923
 2802SOL     OW 9085   1.639   4.320   6.776
 2802SOL    HW1 9086   1.632   4.260   6.851
 2802SOL    HW2 9087   1.726   4.304   6.741
 2803SOL     OW 9088   0.676   4.185   6.847
 2803SOL    HW1 9089   0.639   4.104   6.813
 2803SOL    HW2 9090   0.685   4.242   6.771
 2804SOL     OW 9091   0.486   4.222   5.777
 2804SOL    HW1 9092   0.521   4.309   5.797
 2804SOL    HW2 9093   0.392   4.236   5.765
 2805SOL     OW 9094   1.719   3.866   6.099
 2805SOL    HW1 9095   1.792   3.852   6.039
 2805SOL    HW2 9096   1.703   3.780   6.138
 2806SOL     OW 9097   1.280   0.138   6.265
 2806SOL    HW1 9098   1.338   0.063   6.269
 2806SOL    HW2 9099   1.330   0.203   6.215
 2807SOL     OW 9100   1.839   3.897   6.553
 2807SOL    HW1 9101   1.868   3.811   6.524
 2807SOL    HW2 9102   1.753   3.909   6.514
 2808SOL     OW 9103   0.269   4.042   6.307
 2808SOL    HW1 9104   0.191   4.090   6.277
 2808SOL    HW2 9105   0.255   4.031   6.401
 2809SOL     OW 9106   0.911   0.095   5.814
 2809SOL    HW1 9107   0.993   0.136   5.786
 2809SOL    HW2 9108   0.933   0.050   5.896
 2810SOL     OW 9109   1.067   0.307   6.321
 2810SOL    HW1 9110   0.982   0.286   6.284
 2810SOL    HW2 9111   1.126   0.240   6.285
 2811SOL     OW 9112   1.019   3.964   6.551
 2811SOL    HW1 9113   1.013   3.915   6.469
 2811SOL    HW2 9114   1.014   3.896   6.619
 2812SOL     OW 9115   1.719   4.114   6.966
 2812SOL    HW1 9116   1.790   4.178   6.963
 2812SOL    HW2 9117   1.748   4.043   6.910
 2813SOL     OW 9118   0.672   3.922   7.084
 2813SOL    HW1 9119   0.755   3.903   7.042
 2813SOL    HW2 9120   0.696   3.949   7.173
 2814SOL     OW 9121   0.069   4.046   5.617
 2814SOL    HW1 9122   4.474   4.061   5.610
 2814SOL    HW2 9123   0.108   4.131   5.599
 2815SOL     OW 9124   0.084   3.903   5.894
 2815SOL    HW1 9125   0.076   3.972   5.828
 2815SOL    HW2 9126   0.159   3.851   5.865
 2816SOL     OW 9127   0.723   4.287   7.289
 2816SOL    HW1 9128   0.732   4.337   7.370
 2816SOL    HW2 9129   0.755   4.199   7.311
 2817SOL     OW 9130   1.220   4.044   6.041
 2817SOL    HW1 9131   1.283   3.972   6.032
 2817SOL    HW2 9132   1.248   4.091   6.119
 2818SOL     OW 9133   1.764   4.087   7.233
 2818SOL    HW1 9134   1.746   4.097   7.139
 2818SOL    HW2 9135   1.695   4.029   7.265
 2819SOL     OW 9136   1.109   0.230   5.691
 2819SOL    HW1 9137   1.086   0.268   5.606
 2819SOL    HW2 9138   1.186   0.177   5.673
 2820SOL     OW 9139   1.815   3.910   6.824
 2820SOL    HW1 9140   1.823   3.816   6.840
 2820SOL    HW2 9141   1.823   3.918   6.729
 2821SOL     OW 9142   0.451   4.150   6.123
 2821SOL    HW1 9143   0.461   4.078   6.060
 2821SOL    HW2 9144   0.390   4.117   6.188
 2822SOL     OW 9145   0.322   4.258   6.862
 2822SOL    HW1 9146   0.374   4.191   6.907
 2822SOL    HW2 9147   0.337   4.241   6.769
 2823SOL     OW 9148   1.432   3.947   6.704
 2823SOL    HW1 9149   1.461   3.869   6.751
 2823SOL    HW2 9150   1.380   3.996   6.767
 2824SOL     OW 9151   1.008   3.745   6.732
 2824SOL    HW1 9152   0.953   3.677   6.695
 2824SOL    HW2 9153   1.096   3.708   6.734
 2825SOL     OW 9154   1.352   3.777   5.749
 2825SOL    HW1 9155   1.377   3.719   5.678
 2825SOL    HW2 9156   1.266   3.746   5.777
 2826SOL     OW 9157   1.300   4.177   6.269
 2826SOL    HW1 9158   1.255   4.260   6.283
 2826SOL    HW2 9159   1.300   4.135   6.355
 2827SOL     OW 9160   1.588   3.930   6.462
 2827SOL    HW1 9161   1.523   3.948   6.531
 2827SOL    HW2 9162   1.588   4.009   6.409
 2828SOL     OW 9163   0.234   4.288   7.559
 2828SOL    HW1 9164   0.166   4.325   7.615
 2828SOL    HW2 9165   0.214   4.324   7.472
 2829SOL     OW 9166   0.211   3.998   8.439
 2829SOL    HW1 9167   0.247   3.970   8.524
 2829SOL    HW2 9168   0.135   3.941   8.427
 2830SOL     OW 9169   0.002   4.096   8.080
 2830SOL    HW1 9170   4.423   4.128   8.125
 2830SOL    HW2 9171   4.473   4.015   8.037
 2831SOL     OW 9172   1.736   4.335   7.684
 2831SOL    HW1 9173   1.734   4.320   7.590
 2831SOL    HW2 9174   1.733   4.247   7.722
 2832SOL     OW 9175   0.723   0.264   8.127
 2832SOL    HW1 9176   0.724   0.209   8.205
 2832SOL    HW2 9177   0.631   0.286   8.114
 2833SOL     OW 9178   0.442   4.120   8.937
 2833SOL    HW1 9179   0.523   4.070   8.942
 2833SOL    HW2 9180   0.372   4.055   8.948
 2834SOL     OW 9181   1.615   4.174   8.186
 2834SOL    HW1 9182   1.542   4.200   8.130
 2834SOL    HW2 9183   1.625   4.245   8.249
 2835SOL     OW 9184   1.597   3.844   8.918
 2835SOL    HW1 9185   1.592   3.923   8.864
 2835SOL    HW2 9186   1.585   3.876   9.008
 2836SOL     OW 9187   0.166   4.323   8.079
 2836SOL    HW1 9188   0.106   4.253   8.053
 2836SOL    HW2 9189   0.120   4.404   8.057
 2837SOL     OW 9190   0.115   4.497   9.038
 2837SOL    HW1 9191   0.210   4.482   9.043
 2837SOL    HW2 9192   0.106   0.080   8.993
 2838SOL     OW 9193   0.812   3.723   7.953
 2838SOL    HW1 9194   0.852   3.809   7.939
 2838SOL    HW2 9195   0.719   3.741   7.964
 2839SOL     OW 9196   0.328   3.979   9.244
 2839SOL    HW1 9197   0.377   4.056   9.273
 2839SOL    HW2 9198   0.241   3.990   9.282
 2840SOL     OW 9199   1.278   4.069   8.380
 2840SOL    HW1 9200   1.189   4.035   8.389
 2840SOL    HW2 9201   1.330   4.019   8.443
 2841SOL     OW 9202   0.822   4.310   8.899
 2841SOL    HW1 9203   0.781   4.315   8.985
 2841SOL    HW2 9204   0.756   4.268   8.843
 2842SOL     OW 9205   1.396   4.199   9.125
 2842SOL    HW1 9206   1.395   4.242   9.210
 2842SOL    HW2 9207   1.456   4.126   9.135
 2843SOL     OW 9208   0.996   4.147   8.682
 2843SOL    HW1 9209   0.922   4.166   8.740
 2843SOL    HW2 9210   0.959   4.088   8.616
 2844SOL     OW 9211   1.057   4.410   7.869
 2844SOL    HW1 9212   1.058   4.442   7.959
 2844SOL    HW2 9213   0.968   4.376   7.856
 2845SOL     OW 9214   0.054   0.045   8.288
 2845SOL    HW1 9215   0.147   0.025   8.294
 2845SOL    HW2 9216   0.049   0.113   8.221
 2846SOL     OW 9217   0.884   4.063   7.640
 2846SOL    HW1 9218   0.930   4.125   7.582
 2846SOL    HW2 9219   0.904   3.977   7.602
 2847SOL     OW 9220   1.705   4.298   9.276
 2847SOL    HW1 9221   1.714   4.388   9.243
 2847SOL    HW2 9222   1.729   4.243   9.201
 2848SOL     OW 9223   0.551   3.908   8.340
 2848SOL    HW1 9224   0.553   3.935   8.431
 2848SOL    HW2 9225   0.548   3.990   8.290
 2849SOL     OW 9226   1.487   4.461   8.183
 2849SOL    HW1 9227   1.466   4.407   8.259
 2849SOL    HW2 9228   1.529   0.039   8.219
 2850SOL     OW 9229   0.190   4.000   8.935
 2850SOL    HW1 9230   0.134   4.077   8.942
 2850SOL    HW2 9231   0.186   3.960   9.022
 2851SOL     OW 9232   1.401   3.832   7.877
 2851SOL    HW1 9233   1.389   3.806   7.786
 2851SOL    HW2 9234   1.495   3.840   7.888
 2852SOL     OW 9235   0.353   4.377   7.858
 2852SOL    HW1 9236   0.400   4.306   7.901
 2852SOL    HW2 9237   0.297   4.414   7.926
 2853SOL     OW 9238   1.538   3.951   9.173
 2853SOL    HW1 9239   1.546   3.972   9.266
 2853SOL    HW2 9240   1.471   3.882   9.170
 2854SOL     OW 9241   0.630   3.852   7.552
 2854SOL    HW1 9242   0.703   3.792   7.567
 2854SOL    HW2 9243   0.585   3.816   7.476
 2855SOL     OW 9244   0.769   4.000   9.201
 2855SOL    HW1 9245   0.841   3.938   9.208
 2855SOL    HW2 9246   0.716   3.985   9.280
 2856SOL     OW 9247   1.346   4.311   8.876
 2856SOL    HW1 9248   1.368   4.274   8.962
 2856SOL    HW2 9249   1.382   4.400   8.878
 2857SOL     OW 9250   0.922   4.236   8.348
 2857SOL    HW1 9251   0.900   4.220   8.256
 2857SOL    HW2 9252   0.961   4.155   8.378
 2858SOL     OW 9253   0.550   3.786   7.953
 2858SOL    HW1 9254   0.469   3.785   8.004
 2858SOL    HW2 9255   0.543   3.865   7.899
 2859SOL     OW 9256   0.294   3.769   7.626
 2859SOL    HW1 9257   0.355   3.838   7.598
 2859SOL    HW2 9258   0.349   3.704   7.670
 2860SOL     OW 9259   0.935   3.969   7.914
 2860SOL    HW1 9260   0.907   4.008   7.831
 2860SOL    HW2 9261   1.030   3.979   7.913
 2861SOL     OW 9262   1.078   4.396   8.958
 2861SOL    HW1 9263   0.994   4.364   8.925
 2861SOL    HW2 9264   1.143   4.351   8.904
 2862SOL     OW 9265   1.026   4.270   7.470
 2862SOL    HW1 9266   1.005   4.357   7.438
 2862SOL    HW2 9267   1.088   4.284   7.542
 2863SOL     OW 9268   0.086   4.260   8.858
 2863SOL    HW1 9269   0.158   4.273   8.796
 2863SOL    HW2 9270   0.055   4.348   8.878
 2864SOL     OW 9271   0.562   3.950   8.611
 2864SOL    HW1 9272   0.600   3.869   8.644
 2864SOL    HW2 9273   0.471   3.948   8.640
 2865SOL     OW 9274   0.872   4.189   8.086
 2865SOL    HW1 9275   0.831   4.246   8.021
 2865SOL    HW2 9276   0.888   4.107   8.040
 2866SOL     OW 9277   1.014   3.777   8.202
 2866SOL    HW1 9278   0.955   3.768   8.126
 2866SOL    HW2 9279   0.994   3.701   8.256
 2867SOL     OW 9280   1.477   4.313   8.418
 2867SOL    HW1 9281   1.423   4.236   8.438
 2867SOL    HW2 9282   1.529   4.326   8.498
 2868SOL     OW 9283   1.400   4.296   7.520
 2868SOL    HW1 9284   1.339   4.270   7.590
 2868SOL    HW2 9285   1.483   4.255   7.545
 2869SOL     OW 9286   0.523   3.984   7.767
 2869SOL    HW1 9287   0.565   3.935   7.696
 2869SOL    HW2 9288   0.512   4.073   7.732
 2870SOL     OW 9289   0.917   3.823   8.847
 2870SOL    HW1 9290   0.941   3.802   8.757
 2870SOL    HW2 9291   0.997   3.862   8.884
 2871SOL     OW 9292   0.438   0.005   8.704
 2871SOL    HW1 9293   0.495   0.009   8.780
 2871SOL    HW2 9294   0.398   4.418   8.709
 2872SOL     OW 9295   1.267   4.101   8.720
 2872SOL    HW1 9296   1.300   4.178   8.766
 2872SOL    HW2 9297   1.178   4.125   8.694
 2873SOL     OW 9298   0.558   4.256   8.312
 2873SOL    HW1 9299   0.576   4.304   8.232
 2873SOL    HW2 9300   0.621   4.290   8.376
 2874SOL     OW 9301   1.574   4.343   7.923
 2874SOL    HW1 9302   1.540   4.408   7.984
 2874SOL    HW2 9303   1.631   4.392   7.864
 2875SOL     OW 9304   0.996   3.841   9.205
 2875SOL    HW1 9305   1.048   3.915   9.172
 2875SOL    HW2 9306   1.046   3.764   9.178
 2876SOL     OW 9307   0.499   3.769   9.193
 2876SOL    HW1 9308   0.459   3.712   9.127
 2876SOL    HW2 9309   0.436   3.841   9.204
 2877SOL     OW 9310   1.212   4.256   7.715
 2877SOL    HW1 9311   1.222   4.176   7.767
 2877SOL    HW2 9312   1.163   4.315   7.772
 2878SOL     OW 9313   0.301   3.925   8.692
 2878SOL    HW1 9314   0.263   3.953   8.775
 2878SOL    HW2 9315   0.286   3.830   8.690
 2879SOL     OW 9316   0.731   4.360   8.498
 2879SOL    HW1 9317   0.804   4.325   8.446
 2879SOL    HW2 9318   0.733   4.454   8.483
 2880SOL     OW 9319   1.749   0.136   9.305
 2880SOL    HW1 9320   1.689   0.149   9.232
 2880SOL    HW2 9321   1.701   0.169   9.381
 2881SOL     OW 9322   0.307   3.794   8.067
 2881SOL    HW1 9323   0.285   3.882   8.096
 2881SOL    HW2 9324   0.302   3.741   8.146
 2882SOL     OW 9325   1.612   4.091   7.818
 2882SOL    HW1 9326   1.640   4.030   7.886
 2882SOL    HW2 9327   1.590   4.171   7.866
 2883SOL     OW 9328   1.529   4.000   7.575
 2883SOL    HW1 9329   1.467   3.931   7.601
 2883SOL    HW2 9330   1.563   4.034   7.657
 2884SOL     OW 9331   0.318   0.019   8.373
 2884SOL    HW1 9332   0.402   0.065   8.378
 2884SOL    HW2 9333   0.330   4.440   8.426
 2885SOL     OW 9334   0.337   4.237   8.459
 2885SOL    HW1 9335   0.292   4.156   8.435
 2885SOL    HW2 9336   0.410   4.243   8.398
 2886SOL     OW 9337   1.138   4.097   9.131
 2886SOL    HW1 9338   1.088   4.155   9.187
 2886SOL    HW2 9339   1.223   4.140   9.122
 2887SOL     OW 9340   1.160   3.928   8.917
 2887SOL    HW1 9341   1.151   3.989   8.990
 2887SOL    HW2 9342   1.198   3.981   8.846
 2888SOL     OW 9343   0.029   4.280   8.557
 2888SOL    HW1 9344   0.112   4.253   8.518
 2888SOL    HW2 9345   0.033   4.247   8.647
 2889SOL     OW 9346   0.177   4.235   9.145
 2889SOL    HW1 9347   0.262   4.216   9.105
 2889SOL    HW2 9348   0.147   4.315   9.102
 2890SOL     OW 9349   0.819   4.289   7.786
 2890SOL    HW1 9350   0.816   4.209   7.732
 2890SOL    HW2 9351   0.730   4.322   7.785
 2891SOL     OW 9352   1.639   4.320   8.638
 2891SOL    HW1 9353   1.632   4.260   8.713
 2891SOL    HW2 9354   1.726   4.304   8.603
 2892SOL     OW 9355   0.676   4.185   8.709
 2892SOL    HW1 9356   0.639   4.104   8.675
 2892SOL    HW2 9357   0.685   4.242   8.633
 2893SOL     OW 9358   0.486   4.222   7.639
 2893SOL    HW1 9359   0.521   4.309   7.658
 2893SOL    HW2 9360   0.392   4.236   7.627
 2894SOL     OW 9361   1.719   3.866   7.962
 2894SOL    HW1 9362   1.792   3.852   7.901
 2894SOL    HW2 9363   1.703   3.780   8.000
 2895SOL     OW 9364   1.280   0.138   8.127
 2895SOL    HW1 9365   1.338   0.063   8.131
 2895SOL    HW2 9366   1.329   0.204   8.077
 2896SOL     OW 9367   1.839   3.897   8.416
 2896SOL    HW1 9368   1.868   3.811   8.386
 2896SOL    HW2 9369   1.753   3.909   8.376
 2897SOL     OW 9370   0.269   4.042   8.169
 2897SOL    HW1 9371   0.191   4.090   8.139
 2897SOL    HW2 9372   0.255   4.031   8.263
 2898SOL     OW 9373   0.911   0.095   7.676
 2898SOL    HW1 9374   0.993   0.136   7.648
 2898SOL    HW2 9375   0.934   0.050   7.758
 2899SOL     OW 9376   1.067   0.307   8.184
 2899SOL    HW1 9377   0.982   0.286   8.146
 2899SOL    HW2 9378   1.126   0.241   8.147
 2900SOL     OW 9379   1.019   3.964   8.413
 2900SOL    HW1 9380   1.013   3.915   8.331
 2900SOL    HW2 9381   1.014   3.896   8.481
 2901SOL     OW 9382   1.719   4.114   8.828
 2901SOL    HW1 9383   1.790   4.178   8.825
 2901SOL    HW2 9384   1.748   4.043   8.772
 2902SOL     OW 9385   0.672   3.922   8.946
 2902SOL    HW1 9386   0.755   3.903   8.904
 2902SOL    HW2 9387   0.696   3.949   9.035
 2903SOL     OW 9388   0.069   4.046   7.479
 2903SOL    HW1 9389   4.474   4.061   7.472
 2903SOL    HW2 9390   0.108   4.131   7.461
 2904SOL     OW 9391   0.084   3.903   7.756
 2904SOL    HW1 9392   0.076   3.972   7.690
 2904SOL    HW2 9393   0.159   3.851   7.727
 2905SOL     OW 9394   0.723   4.287   9.151
 2905SOL    HW1 9395   0.732   4.337   9.232
 2905SOL    HW2 9396   0.755   4.200   9.173
 2906SOL     OW 9397   1.220   4.044   7.903
 2906SOL    HW1 9398   1.283   3.972   7.893
 2906SOL    HW2 9399   1.249   4.091   7.981
 2907SOL     OW 9400   1.764   4.087   9.095
 2907SOL    HW1 9401   1.746   4.097   9.001
 2907SOL    HW2 9402   1.695   4.029   9.127
 2908SOL     OW 9403   1.109   0.230   7.553
 2908SOL    HW1 9404   1.086   0.269   7.469
 2908SOL    HW2 9405   1.186   0.177   7.535
 2909SOL     OW 9406   1.815   3.910   8.686
 2909SOL    HW1 9407   1.824   3.816   8.702
 2909SOL    HW2 9408   1.823   3.918   8.591
 2910SOL     OW 9409   0.451   4.150   7.985
 2910SOL    HW1 9410   0.461   4.079   7.922
 2910SOL    HW2 9411   0.390   4.117   8.050
 2911SOL     OW 9412   0.322   4.258   8.724
 2911SOL    HW1 9413   0.374   4.191   8.769
 2911SOL    HW2 9414   0.336   4.241   8.631
 2912SOL     OW 9415   1.432   3.947   8.566
 2912SOL    HW1 9416   1.461   3.869   8.614
 2912SOL    HW2 9417   1.380   3.996   8.629
 2913SOL     OW 9418   1.008   3.745   8.594
 2913SOL    HW1 9419   0.953   3.677   8.557
 2913SOL    HW2 9420   1.096   3.708   8.596
 2914SOL     OW 9421   1.352   3.777   7.611
 2914SOL    HW1 9422   1.378   3.718   7.541
 2914SOL    HW2 9423   1.266   3.746   7.639
 2915SOL     OW 9424   1.300   4.177   8.131
 2915SOL    HW1 9425   1.255   4.260   8.145
 2915SOL    HW2 9426   1.300   4.135   8.218
 2916SOL     OW 9427   1.588   3.930   8.325
 2916SOL    HW1 9428   1.523   3.948   8.393
 2916SOL    HW2 9429   1.588   4.009   8.271
 2917SOL     OW 9430   0.234   4.288   9.421
 2917SOL    HW1 9431   0.166   4.325   9.477
 2917SOL    HW2 9432   0.214   4.324   9.334
 2918SOL     OW 9433   0.213   3.998  10.301
 2918SOL    HW1 9434   0.248   3.972  10.386
 2918SOL    HW2 9435   0.135   3.943  10.290
 2919SOL     OW 9436   0.002   4.097   9.942
 2919SOL    HW1 9437   4.424   4.129   9.987
 2919SOL    HW2 9438   4.473   4.015   9.899
 2920SOL     OW 9439   1.736   4.335   9.546
 2920SOL    HW1 9440   1.734   4.320   9.452
 2920SOL    HW2 9441   1.733   4.247   9.584
 2921SOL     OW 9442   0.723   0.264   9.989
 2921SOL    HW1 9443   0.724   0.209  10.067
 2921SOL    HW2 9444   0.631   0.286   9.976
 2922SOL     OW 9445   0.445   4.124  10.795
 2922SOL    HW1 9446   0.523   4.069  10.803
 2922SOL    HW2 9447   0.372   4.065  10.816
 2923SOL     OW 9448   1.615   4.174  10.048
 2923SOL    HW1 9449   1.542   4.201   9.993
 2923SOL    HW2 9450   1.625   4.245  10.111
 2924SOL     OW 9451   1.590   3.839  10.780
 2924SOL    HW1 9452   1.595   3.919  10.728
 2924SOL    HW2 9453   1.588   3.870  10.871
 2925SOL     OW 9454   0.166   4.323   9.941
 2925SOL    HW1 9455   0.106   4.253   9.915
 2925SOL    HW2 9456   0.120   4.403   9.919
 2926SOL     OW 9457   0.100   4.483  10.937
 2926SOL    HW1 9458   0.194   4.470  10.948
 2926SOL    HW2 9459   0.092   0.064  10.888
 2927SOL     OW 9460   0.812   3.722   9.815
 2927SOL    HW1 9461   0.852   3.808   9.801
 2927SOL    HW2 9462   0.719   3.741   9.826
 2928SOL     OW 9463   0.338   3.984   0.007
 2928SOL    HW1 9464   0.384   4.063   0.034
 2928SOL    HW2 9465   0.246   4.005   0.019
 2929SOL     OW 9466   1.278   4.070  10.242
 2929SOL    HW1 9467   1.189   4.035  10.251
 2929SOL    HW2 9468   1.330   4.018  10.305
 2930SOL     OW 9469   0.822   4.305  10.766
 2930SOL    HW1 9470   0.776   4.317  10.848
 2930SOL    HW2 9471   0.756   4.267  10.707
 2931SOL     OW 9472   0.995   4.145  10.546
 2931SOL    HW1 9473   0.919   4.167  10.601
 2931SOL    HW2 9474   0.960   4.089  10.478
 2932SOL     OW 9475   1.057   4.410   9.731
 2932SOL    HW1 9476   1.058   4.442   9.821
 2932SOL    HW2 9477   0.968   4.376   9.718
 2933SOL     OW 9478   0.054   0.045  10.150
 2933SOL    HW1 9479   0.147   0.024  10.157
 2933SOL    HW2 9480   0.050   0.114  10.083
 2934SOL     OW 9481   0.884   4.063   9.502
 2934SOL    HW1 9482   0.929   4.125   9.444
 2934SOL    HW2 9483   0.904   3.977   9.464
 2935SOL     OW 9484   0.552   3.908  10.202
 2935SOL    HW1 9485   0.553   3.935  10.294
 2935SOL    HW2 9486   0.549   3.990  10.152
 2936SOL     OW 9487   1.487   4.461  10.045
 2936SOL    HW1 9488   1.466   4.407  10.121
 2936SOL    HW2 9489   1.529   0.039  10.081
 2937SOL     OW 9490   0.192   4.001  10.798
 2937SOL    HW1 9491   0.137   4.080  10.805
 2937SOL    HW2 9492   0.188   3.962  10.885
 2938SOL     OW 9493   1.401   3.831   9.739
 2938SOL    HW1 9494   1.389   3.806   9.648
 2938SOL    HW2 9495   1.495   3.840   9.750
 2939SOL     OW 9496   0.353   4.377   9.720
 2939SOL    HW1 9497   0.400   4.306   9.763
 2939SOL    HW2 9498   0.297   4.414   9.788
 2940SOL     OW 9499   0.630   3.852   9.414
 2940SOL    HW1 9500   0.703   3.792   9.429
 2940SOL    HW2 9501   0.585   3.816   9.338
 2941SOL     OW 9502   0.771   3.996  11.045
 2941SOL    HW1 9503   0.836   3.939  11.085
 2941SOL    HW2 9504   0.709   4.015   0.016
 2942SOL     OW 9505   1.352   4.308  10.744
 2942SOL    HW1 9506   1.376   4.285  10.834
 2942SOL    HW2 9507   1.375   4.400  10.736
 2943SOL     OW 9508   0.922   4.236  10.209
 2943SOL    HW1 9509   0.900   4.220  10.118
 2943SOL    HW2 9510   0.961   4.154  10.239
 2944SOL     OW 9511   0.550   3.786   9.815
 2944SOL    HW1 9512   0.469   3.785   9.866
 2944SOL    HW2 9513   0.543   3.865   9.761
 2945SOL     OW 9514   0.294   3.769   9.488
 2945SOL    HW1 9515   0.355   3.838   9.461
 2945SOL    HW2 9516   0.349   3.704   9.532
 2946SOL     OW 9517   0.935   3.969   9.775
 2946SOL    HW1 9518   0.907   4.009   9.693
 2946SOL    HW2 9519   1.030   3.979   9.775
 2947SOL     OW 9520   1.080   4.391  10.808
 2947SOL    HW1 9521   0.994   4.362  10.778
 2947SOL    HW2 9522   1.142   4.342  10.754
 2948SOL     OW 9523   1.026   4.270   9.332
 2948SOL    HW1 9524   1.005   4.357   9.300
 2948SOL    HW2 9525   1.088   4.284   9.404
 2949SOL     OW 9526   0.079   4.258  10.718
 2949SOL    HW1 9527   0.154   4.265  10.659
 2949SOL    HW2 9528   0.055   4.348  10.737
 2950SOL     OW 9529   0.562   3.950  10.473
 2950SOL    HW1 9530   0.600   3.869  10.507
 2950SOL    HW2 9531   0.470   3.948  10.502
 2951SOL     OW 9532   0.873   4.189   9.948
 2951SOL    HW1 9533   0.831   4.246   9.883
 2951SOL    HW2 9534   0.888   4.107   9.902
 2952SOL     OW 9535   1.014   3.777  10.064
 2952SOL    HW1 9536   0.955   3.768   9.989
 2952SOL    HW2 9537   0.994   3.700  10.118
 2953SOL     OW 9538   1.477   4.313  10.280
 2953SOL    HW1 9539   1.423   4.236  10.300
 2953SOL    HW2 9540   1.529   4.326  10.359
 2954SOL     OW 9541   1.400   4.296   9.382
 2954SOL    HW1 9542   1.339   4.270   9.452
 2954SOL    HW2 9543   1.483   4.256   9.408
 2955SOL     OW 9544   0.523   3.984   9.629
 2955SOL    HW1 9545   0.565   3.936   9.558
 2955SOL    HW2 9546   0.512   4.073   9.594
 2956SOL     OW 9547   0.918   3.823  10.709
 2956SOL    HW1 9548   0.941   3.802  10.619
 2956SOL    HW2 9549   0.996   3.863  10.746
 2957SOL     OW 9550   0.446   4.499  10.554
 2957SOL    HW1 9551   0.498   0.015  10.632
 2957SOL    HW2 9552   0.386   4.428  10.578
 2958SOL     OW 9553   1.267   4.101  10.584
 2958SOL    HW1 9554   1.301   4.178  10.628
 2958SOL    HW2 9555   1.179   4.126  10.556
 2959SOL     OW 9556   0.562   4.253  10.172
 2959SOL    HW1 9557   0.578   4.305  10.093
 2959SOL    HW2 9558   0.621   4.289  10.238
 2960SOL     OW 9559   1.574   4.343   9.785
 2960SOL    HW1 9560   1.540   4.408   9.846
 2960SOL    HW2 9561   1.631   4.392   9.726
 2961SOL     OW 9562   0.483   4.498  10.992
 2961SOL    HW1 9563   0.476   0.045  10.908
 2961SOL    HW2 9564   0.479   4.406  10.968
 2962SOL     OW 9565   1.212   4.256   9.577
 2962SOL    HW1 9566   1.222   4.176   9.629
 2962SOL    HW2 9567   1.163   4.315   9.634
 2963SOL     OW 9568   0.302   3.922  10.552
 2963SOL    HW1 9569   0.265   3.954  10.635
 2963SOL    HW2 9570   0.285   3.828  10.553
 2964SOL     OW 9571   0.731   4.359  10.360
 2964SOL    HW1 9572   0.804   4.326  10.307
 2964SOL    HW2 9573   0.732   4.454  10.345
 2965SOL     OW 9574   0.307   3.794   9.929
 2965SOL    HW1 9575   0.286   3.882   9.958
 2965SOL    HW2 9576   0.302   3.741  10.009
 2966SOL     OW 9577   1.611   4.091   9.680
 2966SOL    HW1 9578   1.640   4.030   9.748
 2966SOL    HW2 9579   1.590   4.171   9.728
 2967SOL     OW 9580   1.529   3.999   9.437
 2967SOL    HW1 9581   1.467   3.931   9.463
 2967SOL    HW2 9582   1.563   4.034   9.519
 2968SOL     OW 9583   0.318   0.019  10.235
 2968SOL    HW1 9584   0.401   0.065  10.242
 2968SOL    HW2 9585   0.330   4.439  10.287
 2969SOL     OW 9586   0.337   4.239  10.313
 2969SOL    HW1 9587   0.293   4.157  10.292
 2969SOL    HW2 9588   0.412   4.242  10.252
 2970SOL     OW 9589   1.157   3.933  10.781
 2970SOL    HW1 9590   1.164   3.992  10.856
 2970SOL    HW2 9591   1.196   3.982  10.708
 2971SOL     OW 9592   0.028   4.277  10.417
 2971SOL    HW1 9593   0.114   4.255  10.380
 2971SOL    HW2 9594   0.034   4.249  10.508
 2972SOL     OW 9595   1.356   0.182  10.988
 2972SOL    HW1 9596   1.412   0.258  10.998
 2972SOL    HW2 9597   1.369   0.155  10.897
 2973SOL     OW 9598   0.819   4.289   9.648
 2973SOL    HW1 9599   0.816   4.209   9.594
 2973SOL    HW2 9600   0.730   4.322   9.647
 2974SOL     OW 9601   1.639   4.319  10.499
 2974SOL    HW1 9602   1.633   4.260  10.574
 2974SOL    HW2 9603   1.727   4.305  10.464
 2975SOL     OW 9604   0.680   4.184  10.571
 2975SOL    HW1 9605   0.639   4.104  10.537
 2975SOL    HW2 9606   0.685   4.242  10.495
 2976SOL     OW 9607   0.486   4.222   9.501
 2976SOL    HW1 9608   0.521   4.309   9.520
 2976SOL    HW2 9609   0.392   4.236   9.489
 2977SOL     OW 9610   1.719   3.866   9.823
 2977SOL    HW1 9611   1.792   3.852   9.763
 2977SOL    HW2 9612   1.703   3.780   9.862
 2978SOL     OW 9613   1.280   0.139   9.989
 2978SOL    HW1 9614   1.338   0.063   9.993
 2978SOL    HW2 9615   1.330   0.203   9.939
 2979SOL     OW 9616   1.839   3.897  10.278
 2979SOL    HW1 9617   1.868   3.811  10.248
 2979SOL    HW2 9618   1.753   3.909  10.238
 2980SOL     OW 9619   0.269   4.042  10.030
 2980SOL    HW1 9620   0.191   4.090  10.001
 2980SOL    HW2 9621   0.256   4.031  10.125
 2981SOL     OW 9622   0.911   0.095   9.538
 2981SOL    HW1 9623   0.993   0.136   9.510
 2981SOL    HW2 9624   0.934   0.050   9.620
 2982SOL     OW 9625   1.067   0.307  10.045
 2982SOL    HW1 9626   0.982   0.286  10.008
 2982SOL    HW2 9627   1.126   0.240  10.009
 2983SOL     OW 9628   1.019   3.964  10.275
 2983SOL    HW1 9629   1.013   3.916  10.193
 2983SOL    HW2 9630   1.014   3.896  10.343
 2984SOL     OW 9631   1.716   4.116  10.689
 2984SOL    HW1 9632   1.787   4.180  10.689
 2984SOL    HW2 9633   1.746   4.045  10.633
 2985SOL     OW 9634   0.672   3.920  10.804
 2985SOL    HW1 9635   0.753   3.900  10.758
 2985SOL    HW2 9636   0.700   3.953  10.890
 2986SOL     OW 9637   0.069   4.046   9.341
 2986SOL    HW1 9638   4.474   4.061   9.334
 2986SOL    HW2 9639   0.108   4.131   9.323
 2987SOL     OW 9640   0.084   3.903   9.618
 2987SOL    HW1 9641   0.076   3.972   9.552
 2987SOL    HW2 9642   0.159   3.851   9.589
 2988SOL     OW 9643   0.718   4.290  11.023
 2988SOL    HW1 9644   0.748   4.345  11.095
 2988SOL    HW2 9645   0.769   4.209  11.031
 2989SOL     OW 9646   1.220   4.044   9.765
 2989SOL    HW1 9647   1.283   3.972   9.755
 2989SOL    HW2 9648   1.248   4.091   9.843
 2990SOL     OW 9649   1.756   4.052  10.951
 2990SOL    HW1 9650   1.735   4.082  10.863
 2990SOL    HW2 9651   1.673   4.052  10.998
 2991SOL     OW 9652   1.109   0.230   9.415
 2991SOL    HW1 9653   1.086   0.269   9.331
 2991SOL    HW2 9654   1.186   0.177   9.397
 2992SOL     OW 9655   1.811   3.910  10.548
 2992SOL    HW1 9656   1.824   3.816  10.564
 2992SOL    HW2 9657   1.822   3.919  10.453
 2993SOL     OW 9658   0.451   4.150   9.846
 2993SOL    HW1 9659   0.461   4.078   9.784
 2993SOL    HW2 9660   0.390   4.117   9.912
 2994SOL     OW 9661   0.313   4.236  10.577
 2994SOL    HW1 9662   0.375   4.178  10.622
 2994SOL    HW2 9663   0.338   4.230  10.484
 2995SOL     OW 9664   1.431   3.946  10.428
 2995SOL    HW1 9665   1.463   3.870  10.475
 2995SOL    HW2 9666   1.380   3.995  10.492
 2996SOL     OW 9667   1.008   3.745  10.457
 2996SOL    HW1 9668   0.953   3.677  10.418
 2996SOL    HW2 9669   1.096   3.708  10.458
 2997SOL     OW 9670   1.352   3.777   9.473
 2997SOL    HW1 9671   1.377   3.719   9.402
 2997SOL    HW2 9672   1.266   3.746   9.501
 2998SOL     OW 9673   1.300   4.177   9.993
 2998SOL    HW1 9674   1.255   4.260  10.007
 2998SOL    HW2 9675   1.300   4.135  10.080
 2999SOL     OW 9676   1.588   3.930  10.187
 2999SOL    HW1 9677   1.523   3.948  10.255
 2999SOL    HW2 9678   1.588   4.009  10.133
 3000SOL     OW 9679   2.091   0.619   0.121
 3000SOL    HW1 9680   2.002   0.621   0.157
 3000SOL    HW2 9681   2.078   0.624   0.026
 3001SOL     OW 9682   2.073   0.295   0.988
 3001SOL    HW1 9683   2.103   0.269   1.075
 3001SOL    HW2 9684   1.990   0.247   0.977
 3002SOL     OW 9685   1.870   0.383   0.639
 3002SOL    HW1 9686   1.785   0.404   0.676
 3002SOL    HW2 9687   1.854   0.307   0.583
 3003SOL     OW 9688   2.429   1.282   1.171
 3003SOL    HW1 9689   2.341   1.283   1.134
 3003SOL    HW2 9690   2.442   1.370   1.206
 3004SOL     OW 9691   3.419   1.511   0.705
 3004SOL    HW1 9692   3.375   1.493   0.788
 3004SOL    HW2 9693   3.348   1.516   0.641
 3005SOL     OW 9694   2.993   0.700   0.702
 3005SOL    HW1 9695   3.042   0.782   0.691
 3005SOL    HW2 9696   2.944   0.713   0.783
 3006SOL     OW 9697   3.634   0.604   0.221
 3006SOL    HW1 9698   3.588   0.600   0.138
 3006SOL    HW2 9699   3.595   0.534   0.273
 3007SOL     OW 9700   2.622   1.145   1.037
 3007SOL    HW1 9701   2.551   1.177   1.093
 3007SOL    HW2 9702   2.655   1.223   0.992
 3008SOL     OW 9703   2.723   0.782   1.821
 3008SOL    HW1 9704   2.712   0.853   1.884
 3008SOL    HW2 9705   2.747   0.825   1.739
 3009SOL     OW 9706   2.549   1.008   0.649
 3009SOL    HW1 9707   2.612   0.992   0.719
 3009SOL    HW2 9708   2.478   1.056   0.691
 3010SOL     OW 9709   2.569   1.152   1.808
 3010SOL    HW1 9710   2.616   1.232   1.832
 3010SOL    HW2 9711   2.485   1.184   1.776
 3011SOL     OW 9712   2.193   1.429   1.069
 3011SOL    HW1 9713   2.120   1.393   1.018
 3011SOL    HW2 9714   2.245   1.478   1.005
 3012SOL     OW 9715   3.324   1.498   1.350
 3012SOL    HW1 9716   3.366   1.583   1.361
 3012SOL    HW2 9717   3.270   1.487   1.428
 3013SOL     OW 9718   2.303   0.396   1.492
 3013SOL    HW1 9719   2.384   0.345   1.494
 3013SOL    HW2 9720   2.234   0.331   1.505
 3014SOL     OW 9721   3.475   0.449   0.737
 3014SOL    HW1 9722   3.394   0.473   0.693
 3014SOL    HW2 9723   3.497   0.525   0.790
 3015SOL     OW 9724   2.080   1.710   0.473
 3015SOL    HW1 9725   2.106   1.785   0.527
 3015SOL    HW2 9726   2.149   1.704   0.406
 3016SOL     OW 9727   2.998   1.341   1.691
 3016SOL    HW1 9728   3.037   1.338   1.778
 3016SOL    HW2 9729   2.944   1.261   1.686
 3017SOL     OW 9730   2.091   1.439   0.535
 3017SOL    HW1 9731   2.073   1.533   0.538
 3017SOL    HW2 9732   2.028   1.400   0.595
 3018SOL     OW 9733   2.116   1.090   0.890
 3018SOL    HW1 9734   2.113   1.004   0.933
 3018SOL    HW2 9735   2.057   1.145   0.943
 3019SOL     OW 9736   2.477   1.789   1.429
 3019SOL    HW1 9737   2.394   1.772   1.474
 3019SOL    HW2 9738   2.501   1.878   1.455
 3020SOL     OW 9739   2.449   0.984   0.137
 3020SOL    HW1 9740   2.485   1.043   0.071
 3020SOL    HW2 9741   2.494   1.008   0.218
 3021SOL     OW 9742   3.448   0.114   1.475
 3021SOL    HW1 9743   3.457   0.182   1.408
 3021SOL    HW2 9744   3.437   0.162   1.557
 3022SOL     OW 9745   1.977   0.650   0.559
 3022SOL    HW1 9746   1.947   0.562   0.581
 3022SOL    HW2 9747   1.968   0.699   0.641
 3023SOL     OW 9748   3.703   1.761   0.337
 3023SOL    HW1 9749   3.762   1.731   0.406
 3023SOL    HW2 9750   3.732   1.851   0.319
 3024SOL     OW 9751   1.905   1.602   0.121
 3024SOL    HW1 9752   1.877   1.513   0.141
 3024SOL    HW2 9753   1.875   1.654   0.195
 3025SOL     OW 9754   3.552   0.919   0.637
 3025SOL    HW1 9755   3.638   0.881   0.620
 3025SOL    HW2 9756   3.532   0.970   0.559
 3026SOL     OW 9757   3.507   1.107   0.432
 3026SOL    HW1 9758   3.589   1.120   0.384
 3026SOL    HW2 9759   3.512   1.168   0.505
 3027SOL     OW 9760   1.983   0.743   1.586
 3027SOL    HW1 9761   2.075   0.764   1.603
 3027SOL    HW2 9762   1.937   0.826   1.593
 3028SOL     OW 9763   2.475   1.382   0.735
 3028SOL    HW1 9764   2.429   1.298   0.744
 3028SOL    HW2 9765   2.458   1.409   0.644
 3029SOL     OW 9766   3.153   1.239   1.424
 3029SOL    HW1 9767   3.185   1.171   1.365
 3029SOL    HW2 9768   3.207   1.231   1.502
 3030SOL     OW 9769   2.677   0.009   0.547
 3030SOL    HW1 9770   2.715   0.088   0.508
 3030SOL    HW2 9771   2.582   0.021   0.540
 3031SOL     OW 9772   2.054   0.969   1.268
 3031SOL    HW1 9773   2.138   0.925   1.253
 3031SOL    HW2 9774   1.989   0.912   1.228
 3032SOL     OW 9775   3.384   0.997   0.199
 3032SOL    HW1 9776   3.319   0.934   0.232
 3032SOL    HW2 9777   3.430   1.027   0.278
 3033SOL     OW 9778   3.047   1.803   1.620
 3033SOL    HW1 9779   3.063   1.860   1.544
 3033SOL    HW2 9780   3.062   1.715   1.587
 3034SOL     OW 9781   2.178   0.255   1.782
 3034SOL    HW1 9782   2.241   0.320   1.814
 3034SOL    HW2 9783   2.103   0.264   1.841
 3035SOL     OW 9784   3.327   1.420   0.953
 3035SOL    HW1 9785   3.259   1.433   1.019
 3035SOL    HW2 9786   3.316   1.329   0.925
 3036SOL     OW 9787   3.522   1.733   0.579
 3036SOL    HW1 9788   3.501   1.705   0.490
 3036SOL    HW2 9789   3.497   1.659   0.634
 3037SOL     OW 9790   2.455   0.721   0.262
 3037SOL    HW1 9791   2.467   0.801   0.212
 3037SOL    HW2 9792   2.391   0.744   0.330
 3038SOL     OW 9793   3.149   0.356   0.935
 3038SOL    HW1 9794   3.060   0.323   0.924
 3038SOL    HW2 9795   3.190   0.295   0.997
 3039SOL     OW 9796   3.444   1.668   0.311
 3039SOL    HW1 9797   3.533   1.702   0.305
 3039SOL    HW2 9798   3.419   1.649   0.220
 3040SOL     OW 9799   2.658   0.617   1.455
 3040SOL    HW1 9800   2.629   0.594   1.543
 3040SOL    HW2 9801   2.615   0.553   1.398
 3041SOL     OW 9802   3.251   0.478   1.676
 3041SOL    HW1 9803   3.253   0.521   1.761
 3041SOL    HW2 9804   3.318   0.409   1.683
 3042SOL     OW 9805   2.821   0.889   1.580
 3042SOL    HW1 9806   2.874   0.817   1.547
 3042SOL    HW2 9807   2.773   0.921   1.504
 3043SOL     OW 9808   2.857   0.416   1.239
 3043SOL    HW1 9809   2.773   0.432   1.282
 3043SOL    HW2 9810   2.835   0.366   1.160
 3044SOL     OW 9811   2.910   0.701   0.428
 3044SOL    HW1 9812   2.926   0.692   0.522
 3044SOL    HW2 9813   2.829   0.652   0.413
 3045SOL     OW 9814   1.952   0.820   0.775
 3045SOL    HW1 9815   2.033   0.813   0.825
 3045SOL    HW2 9816   1.908   0.897   0.811
 3046SOL     OW 9817   1.988   1.813   1.573
 3046SOL    HW1 9818   1.977   1.810   1.668
 3046SOL    HW2 9819   1.922   1.875   1.543
 3047SOL     OW 9820   2.736   0.357   0.197
 3047SOL    HW1 9821   2.794   0.411   0.144
 3047SOL    HW2 9822   2.769   0.268   0.187
 3048SOL     OW 9823   3.570   0.576   1.828
 3048SOL    HW1 9824   3.535   0.654   1.784
 3048SOL    HW2 9825   3.600   0.520   1.757
 3049SOL     OW 9826   3.237   1.143   0.542
 3049SOL    HW1 9827   3.315   1.127   0.489
 3049SOL    HW2 9828   3.185   1.205   0.491
 3050SOL     OW 9829   2.403   0.202   0.900
 3050SOL    HW1 9830   2.421   0.218   0.992
 3050SOL    HW2 9831   2.395   0.289   0.861
 3051SOL     OW 9832   2.871   1.446   0.475
 3051SOL    HW1 9833   2.829   1.517   0.426
 3051SOL    HW2 9834   2.857   1.469   0.567
 3052SOL     OW 9835   2.216   1.796   0.863
 3052SOL    HW1 9836   2.253   1.708   0.871
 3052SOL    HW2 9837   2.290   1.855   0.879
 3053SOL     OW 9838   3.659   1.061   0.867
 3053SOL    HW1 9839   3.602   1.045   0.792
 3053SOL    HW2 9840   3.600   1.065   0.942
 3054SOL     OW 9841   3.090   1.540   1.512
 3054SOL    HW1 9842   3.077   1.467   1.572
 3054SOL    HW2 9843   3.029   1.523   1.440
 3055SOL     OW 9844   2.180   0.955   0.273
 3055SOL    HW1 9845   2.258   0.982   0.224
 3055SOL    HW2 9846   2.151   0.875   0.229
 3056SOL     OW 9847   3.338   0.738   0.725
 3056SOL    HW1 9848   3.324   0.691   0.807
 3056SOL    HW2 9849   3.414   0.794   0.742
 3057SOL     OW 9850   2.326   1.263   1.737
 3057SOL    HW1 9851   2.297   1.268   1.646
 3057SOL    HW2 9852   2.245   1.261   1.788
 3058SOL     OW 9853   2.969   1.778   0.226
 3058SOL    HW1 9854   2.912   1.725   0.282
 3058SOL    HW2 9855   3.008   1.716   0.166
 3059SOL     OW 9856   2.052   0.268   1.508
 3059SOL    HW1 9857   1.985   0.335   1.490
 3059SOL    HW2 9858   2.059   0.266   1.603
 3060SOL     OW 9859   3.491   1.375   0.088
 3060SOL    HW1 9860   3.448   1.460   0.076
 3060SOL    HW2 9861   3.424   1.311   0.062
 3061SOL     OW 9862   2.329   1.737   0.324
 3061SOL    HW1 9863   2.369   1.795   0.388
 3061SOL    HW2 9864   2.401   1.712   0.266
 3062SOL     OW 9865   3.277   0.128   0.424
 3062SOL    HW1 9866   3.254   0.093   0.338
 3062SOL    HW2 9867   3.373   0.131   0.425
 3063SOL     OW 9868   2.112   1.783   1.237
 3063SOL    HW1 9869   2.169   1.719   1.280
 3063SOL    HW2 9870   2.105   1.752   1.146
 3064SOL     OW 9871   2.798   1.698   0.902
 3064SOL    HW1 9872   2.876   1.645   0.922
 3064SOL    HW2 9873   2.754   1.649   0.832
 3065SOL     OW 9874   2.252   0.694   0.477
 3065SOL    HW1 9875   2.276   0.602   0.488
 3065SOL    HW2 9876   2.159   0.697   0.498
 3066SOL     OW 9877   3.388   0.232   1.722
 3066SOL    HW1 9878   3.387   0.257   1.815
 3066SOL    HW2 9879   3.314   0.173   1.711
 3067SOL     OW 9880   2.466   0.099   0.122
 3067SOL    HW1 9881   2.560   0.083   0.129
 3067SOL    HW2 9882   2.449   0.100   0.027
 3068SOL     OW 9883   2.633   0.270   1.752
 3068SOL    HW1 9884   2.696   0.201   1.771
 3068SOL    HW2 9885   2.583   0.280   1.833
 3069SOL     OW 9886   2.739   1.521   1.193
 3069SOL    HW1 9887   2.724   1.484   1.106
 3069SOL    HW2 9888   2.807   1.466   1.231
 3070SOL     OW 9889   3.205   0.589   1.430
 3070SOL    HW1 9890   3.232   0.558   1.516
 3070SOL    HW2 9891   3.239   0.678   1.424
 3071SOL     OW 9892   2.674   1.400   0.935
 3071SOL    HW1 9893   2.758   1.389   0.890
 3071SOL    HW2 9894   2.609   1.395   0.865
 3072SOL     OW 9895   2.785   0.514   0.902
 3072SOL    HW1 9896   2.768   0.513   0.808
 3072SOL    HW2 9897   2.826   0.429   0.920
 3073SOL     OW 9898   2.415   0.072   0.520
 3073SOL    HW1 9899   2.325   0.052   0.547
 3073SOL    HW2 9900   2.406   0.141   0.455
 3074SOL     OW 9901   3.289   1.196   0.032
 3074SOL    HW1 9902   3.323   1.123   0.085
 3074SOL    HW2 9903   3.205   1.218   0.073
 3075SOL     OW 9904   2.150   0.059   0.196
 3075SOL    HW1 9905   2.218   0.109   0.150
 3075SOL    HW2 9906   2.199   0.004   0.258
 3076SOL     OW 9907   2.810   0.225   0.444
 3076SOL    HW1 9908   2.762   0.292   0.395
 3076SOL    HW2 9909   2.898   0.261   0.454
 3077SOL     OW 9910   2.942   0.679   1.461
 3077SOL    HW1 9911   2.869   0.616   1.463
 3077SOL    HW2 9912   3.020   0.625   1.450
 3078SOL     OW 9913   3.086   1.570   0.794
 3078SOL    HW1 9914   3.106   1.637   0.729
 3078SOL    HW2 9915   3.154   1.580   0.860
 3079SOL     OW 9916   2.330   1.148   0.739
 3079SOL    HW1 9917   2.258   1.129   0.800
 3079SOL    HW2 9918   2.292   1.131   0.653
 3080SOL     OW 9919   3.133   1.796   0.603
 3080SOL    HW1 9920   3.178   1.857   0.545
 3080SOL    HW2 9921   3.071   1.849   0.652
 3081SOL     OW 9922   2.884   0.536   0.031
 3081SOL    HW1 9923   2.848   0.620   0.004
 3081SOL    HW2 9924   2.956   0.558   0.090
 3082SOL     OW 9925   1.941   0.552   1.393
 3082SOL    HW1 9926   2.032   0.554   1.363
 3082SOL    HW2 9927   1.935   0.624   1.456
 3083SOL     OW 9928   2.426   0.240   1.163
 3083SOL    HW1 9929   2.454   0.156   1.200
 3083SOL    HW2 9930   2.335   0.248   1.190
 3084SOL     OW 9931   2.725   0.505   0.627
 3084SOL    HW1 9932   2.676   0.541   0.553
 3084SOL    HW2 9933   2.714   0.411   0.620
 3085SOL     OW 9934   2.832   0.038   0.773
 3085SOL    HW1 9935   2.783   0.028   0.691
 3085SOL    HW2 9936   2.846   4.448   0.802
 3086SOL     OW 9937   3.297   1.164   0.858
 3086SOL    HW1 9938   3.231   1.095   0.856
 3086SOL    HW2 9939   3.320   1.178   0.766
 3087SOL     OW 9940   3.330   0.602   0.980
 3087SOL    HW1 9941   3.280   0.521   0.984
 3087SOL    HW2 9942   3.390   0.597   1.055
 3088SOL     OW 9943   3.712   0.817   0.378
 3088SOL    HW1 9944   3.765   0.765   0.439
 3088SOL    HW2 9945   3.682   0.754   0.313
 3089SOL     OW 9946   2.355   1.422   0.174
 3089SOL    HW1 9947   2.278   1.395   0.223
 3089SOL    HW2 9948   2.348   1.375   0.091
 3090SOL     OW 9949   3.530   1.265   0.650
 3090SOL    HW1 9950   3.625   1.271   0.662
 3090SOL    HW2 9951   3.498   1.353   0.670
 3091SOL     OW 9952   3.252   0.576   0.076
 3091SOL    HW1 9953   3.192   0.556   0.148
 3091SOL    HW2 9954   3.328   0.520   0.091
 3092SOL     OW 9955   2.388   0.264   0.326
 3092SOL    HW1 9956   2.419   0.205   0.257
 3092SOL    HW2 9957   2.374   0.347   0.281
 3093SOL     OW 9958   3.616   1.235   1.577
 3093SOL    HW1 9959   3.703   1.197   1.574
 3093SOL    HW2 9960   3.630   1.325   1.607
 3094SOL     OW 9961   2.923   1.354   1.335
 3094SOL    HW1 9962   2.848   1.322   1.386
 3094SOL    HW2 9963   2.999   1.312   1.376
 3095SOL     OW 9964   3.467   1.625   1.650
 3095SOL    HW1 9965   3.465   1.659   1.561
 3095SOL    HW2 9966   3.550   1.579   1.657
 3096SOL     OW 9967   2.987   1.202   1.107
 3096SOL    HW1 9968   2.929   1.239   1.173
 3096SOL    HW2 9969   2.951   1.231   1.024
 3097SOL     OW 9970   3.493   1.100   1.079
 3097SOL    HW1 9971   3.489   1.162   1.151
 3097SOL    HW2 9972   3.412   1.114   1.030
 3098SOL     OW 9973   2.767   0.130   1.391
 3098SOL    HW1 9974   2.790   0.085   1.309
 3098SOL    HW2 9975   2.851   0.142   1.435
 3099SOL     OW 9976   2.846   1.114   1.722
 3099SOL    HW1 9977   2.753   1.129   1.741
 3099SOL    HW2 9978   2.847   1.037   1.666
 3100SOL     OW 9979   2.571   1.059   0.372
 3100SOL    HW1 9980   2.556   1.046   0.466
 3100SOL    HW2 9981   2.648   1.005   0.352
 3101SOL     OW 9982   2.279   0.814   1.251
 3101SOL    HW1 9983   2.348   0.823   1.316
 3101SOL    HW2 9984   2.244   0.726   1.266
 3102SOL     OW 9985   3.131   0.378   1.271
 3102SOL    HW1 9986   3.163   0.456   1.317
 3102SOL    HW2 9987   3.043   0.400   1.243
 3103SOL     OW 9988   1.928   1.570   1.345
 3103SOL    HW1 9989   1.893   1.648   1.302
 3103SOL    HW2 9990   2.023   1.584   1.348
 3104SOL     OW 9991   2.219   1.110   0.496
 3104SOL    HW1 9992   2.216   1.184   0.435
 3104SOL    HW2 9993   2.212   1.032   0.441
 3105SOL     OW 9994   2.420   0.533   0.859
 3105SOL    HW1 9995   2.436   0.591   0.785
 3105SOL    HW2 9996   2.481   0.563   0.927
 3106SOL     OW 9997   3.110   1.346   0.393
 3106SOL    HW1 9998   3.165   1.419   0.421
 3106SOL    HW2 9999   3.022   1.368   0.425
 3107SOL     OW10000   3.138   1.455   1.146
 3107SOL    HW110001   3.193   1.457   1.224
 3107SOL    HW210002   3.083   1.378   1.156
 3108SOL     OW10003   3.448   0.629   0.473
 3108SOL    HW110004   3.401   0.676   0.542
 3108SOL    HW210005   3.486   0.697   0.419
 3109SOL     OW10006   2.212   1.521   1.320
 3109SOL    HW110007   2.197   1.480   1.235
 3109SOL    HW210008   2.307   1.535   1.323
 3110SOL     OW10009   2.274   0.744   1.602
 3110SOL    HW110010   2.334   0.791   1.543
 3110SOL    HW210011   2.319   0.660   1.619
 3111SOL     OW10012   3.459   0.777   1.678
 3111SOL    HW110013   3.373   0.817   1.671
 3111SOL    HW210014   3.511   0.819   1.610
 3112SOL     OW10015   2.870   0.087   1.729
 3112SOL    HW110016   2.889   0.171   1.688
 3112SOL    HW210017   2.896   0.022   1.663
 3113SOL     OW10018   2.362   0.050   1.755
 3113SOL    HW110019   2.347   0.000   1.674
 3113SOL    HW210020   2.293   0.116   1.755
 3114SOL     OW10021   2.444   0.872   1.031
 3114SOL    HW110022   2.474   0.963   1.028
 3114SOL    HW210023   2.387   0.868   1.108
 3115SOL     OW10024   3.223   0.859   1.034
 3115SOL    HW110025   3.142   0.853   0.983
 3115SOL    HW210026   3.260   0.771   1.031
 3116SOL     OW10027   3.066   0.531   0.268
 3116SOL    HW110028   3.075   0.452   0.322
 3116SOL    HW210029   3.025   0.596   0.326
 3117SOL     OW10030   2.153   0.236   1.240
 3117SOL    HW110031   2.113   0.252   1.325
 3117SOL    HW210032   2.180   0.144   1.242
 3118SOL     OW10033   1.908   1.309   1.277
 3118SOL    HW110034   1.942   1.258   1.350
 3118SOL    HW210035   1.915   1.400   1.305
 3119SOL     OW10036   2.587   0.632   1.060
 3119SOL    HW110037   2.659   0.612   1.000
 3119SOL    HW210038   2.561   0.721   1.036
 3120SOL     OW10039   3.595   0.959   1.850
 3120SOL    HW110040   3.546   0.905   1.788
 3120SOL    HW210041   3.535   0.970   1.924
 3121SOL     OW10042   2.163   0.062   0.652
 3121SOL    HW110043   2.152   0.157   0.660
 3121SOL    HW210044   2.173   0.032   0.742
 3122SOL     OW10045   3.475   0.374   0.367
 3122SOL    HW110046   3.504   0.310   0.432
 3122SOL    HW210047   3.451   0.451   0.418
 3123SOL     OW10048   2.889   0.761   0.963
 3123SOL    HW110049   2.889   0.777   1.057
 3123SOL    HW210050   2.861   0.670   0.954
 3124SOL     OW10051   2.845   1.566   1.714
 3124SOL    HW110052   2.829   1.611   1.630
 3124SOL    HW210053   2.887   1.484   1.690
 3125SOL     OW10054   3.718   1.510   1.606
 3125SOL    HW110055   3.734   1.535   1.515
 3125SOL    HW210056   3.799   1.531   1.652
 3126SOL     OW10057   2.215   0.916   1.807
 3126SOL    HW110058   2.298   0.934   1.853
 3126SOL    HW210059   2.239   0.854   1.738
 3127SOL     OW10060   3.399   0.290   0.115
 3127SOL    HW110061   3.339   0.217   0.128
 3127SOL    HW210062   3.428   0.314   0.203
 3128SOL     OW10063   3.152   0.825   0.033
 3128SOL    HW110064   3.196   0.740   0.043
 3128SOL    HW210065   3.184   0.858  11.049
 3129SOL     OW10066   2.926   1.335   0.851
 3129SOL    HW110067   2.929   1.261   0.790
 3129SOL    HW210068   2.990   1.397   0.818
 3130SOL     OW10069   2.172   0.810   0.949
 3130SOL    HW110070   2.265   0.833   0.943
 3130SOL    HW210071   2.171   0.721   0.984
 3131SOL     OW10072   2.199   0.527   1.012
 3131SOL    HW110073   2.157   0.444   0.993
 3131SOL    HW210074   2.274   0.531   0.953
 3132SOL     OW10075   2.997   0.376   1.691
 3132SOL    HW110076   2.950   0.440   1.744
 3132SOL    HW210077   3.084   0.414   1.678
 3133SOL     OW10078   3.023   0.210   1.474
 3133SOL    HW110079   3.014   0.274   1.544
 3133SOL    HW210080   3.056   0.261   1.400
 3134SOL     OW10081   1.869   1.328   0.196
 3134SOL    HW110082   1.782   1.340   0.158
 3134SOL    HW210083   1.870   1.237   0.225
 3135SOL     OW10084   1.949   1.792   0.934
 3135SOL    HW110085   1.918   1.711   0.893
 3135SOL    HW210086   2.041   1.798   0.907
 3136SOL     OW10087   2.363   1.570   0.905
 3136SOL    HW110088   2.432   1.634   0.924
 3136SOL    HW210089   2.405   1.503   0.852
 3137SOL     OW10090   2.851   0.795   1.229
 3137SOL    HW110091   2.902   0.769   1.306
 3137SOL    HW210092   2.764   0.758   1.245
 3138SOL     OW10093   1.896   0.542   1.118
 3138SOL    HW110094   1.976   0.521   1.068
 3138SOL    HW210095   1.926   0.549   1.208
 3139SOL     OW10096   2.047   0.517   1.720
 3139SOL    HW110097   2.118   0.495   1.660
 3139SOL    HW210098   2.003   0.592   1.679
 3140SOL     OW10099   3.238   0.942   1.660
 3140SOL    HW110100   3.258   1.035   1.660
 3140SOL    HW210101   3.236   0.918   1.567
 3141SOL     OW10102   2.674   0.574   0.355
 3141SOL    HW110103   2.679   0.498   0.297
 3141SOL    HW210104   2.598   0.623   0.322
 3142SOL     OW10105   3.504   0.601   1.190
 3142SOL    HW110106   3.493   0.541   1.263
 3142SOL    HW210107   3.591   0.581   1.155
 3143SOL     OW10108   2.114   1.552   1.733
 3143SOL    HW110109   2.083   1.613   1.800
 3143SOL    HW210110   2.108   1.466   1.775
 3144SOL     OW10111   2.554   0.460   1.266
 3144SOL    HW110112   2.509   0.382   1.232
 3144SOL    HW210113   2.557   0.520   1.191
 3145SOL     OW10114   2.793   1.678   1.466
 3145SOL    HW110115   2.766   1.649   1.379
 3145SOL    HW210116   2.793   1.774   1.460
 3146SOL     OW10117   2.328   0.489   0.183
 3146SOL    HW110118   2.388   0.562   0.202
 3146SOL    HW210119   2.242   0.530   0.179
 3147SOL     OW10120   2.011   1.140   1.471
 3147SOL    HW110121   2.016   1.085   1.550
 3147SOL    HW210122   2.027   1.079   1.399
 3148SOL     OW10123   3.192   1.049   1.225
 3148SOL    HW110124   3.216   0.987   1.157
 3148SOL    HW210125   3.119   1.098   1.188
 3149SOL     OW10126   3.169   0.853   0.310
 3149SOL    HW110127   3.091   0.823   0.357
 3149SOL    HW210128   3.147   0.841   0.217
 3150SOL     OW10129   3.629   1.747   1.148
 3150SOL    HW110130   3.690   1.773   1.078
 3150SOL    HW210131   3.606   1.657   1.128
 3151SOL     OW10132   3.104   1.733   1.117
 3151SOL    HW110133   3.186   1.750   1.070
 3151SOL    HW210134   3.106   1.638   1.135
 3152SOL     OW10135   1.946   1.265   1.014
 3152SOL    HW110136   1.933   1.277   1.108
 3152SOL    HW210137   1.871   1.214   0.985
 3153SOL     OW10138   2.540   1.662   1.723
 3153SOL    HW110139   2.491   1.744   1.724
 3153SOL    HW210140   2.603   1.673   1.651
 3154SOL     OW10141   2.743   0.063   0.125
 3154SOL    HW110142   2.826   0.091   0.088
 3154SOL    HW210143   2.767   0.019   0.207
 3155SOL     OW10144   3.581   0.133   0.501
 3155SOL    HW110145   3.655   0.134   0.441
 3155SOL    HW210146   3.594   0.054   0.555
 3156SOL     OW10147   3.251   1.568   0.482
 3156SOL    HW110148   3.313   1.598   0.416
 3156SOL    HW210149   3.206   1.647   0.510
 3157SOL     OW10150   1.999   1.800   1.848
 3157SOL    HW110151   1.947   1.733   1.891
 3157SOL    HW210152   2.044   1.844   1.920
 3158SOL     OW10153   3.140   0.926   0.672
 3158SOL    HW110154   3.212   0.863   0.675
 3158SOL    HW210155   3.174   0.998   0.620
 3159SOL     OW10156   2.681   1.272   1.431
 3159SOL    HW110157   2.656   1.310   1.515
 3159SOL    HW210158   2.609   1.293   1.372
 3160SOL     OW10159   2.535   1.619   0.165
 3160SOL    HW110160   2.545   1.627   0.070
 3160SOL    HW210161   2.479   1.542   0.177
 3161SOL     OW10162   3.496   1.726   1.392
 3161SOL    HW110163   3.543   1.735   1.309
 3161SOL    HW210164   3.482   1.817   1.421
 3162SOL     OW10165   3.701   0.156   0.967
 3162SOL    HW110166   3.731   0.080   0.917
 3162SOL    HW210167   3.614   0.175   0.932
 3163SOL     OW10168   2.129   0.326   0.720
 3163SOL    HW110169   2.043   0.358   0.691
 3163SOL    HW210170   2.119   0.315   0.815
 3164SOL     OW10171   3.083   1.604   0.049
 3164SOL    HW110172   3.070   1.512   0.071
 3164SOL    HW210173   3.016   1.623  11.084
 3165SOL     OW10174   2.686   1.006   1.372
 3165SOL    HW110175   2.729   1.002   1.286
 3165SOL    HW210176   2.688   1.098   1.396
 3166SOL     OW10177   2.776   0.908   0.283
 3166SOL    HW110178   2.844   0.946   0.227
 3166SOL    HW210179   2.822   0.840   0.334
 3167SOL     OW10180   3.362   1.622   0.046
 3167SOL    HW110181   3.267   1.620   0.041
 3167SOL    HW210182   3.390   1.634  11.055
 3168SOL     OW10183   2.232   1.300   1.492
 3168SOL    HW110184   2.218   1.378   1.439
 3168SOL    HW210185   2.154   1.246   1.475
 3169SOL     OW10186   3.474   1.283   1.281
 3169SOL    HW110187   3.533   1.276   1.357
 3169SOL    HW210188   3.413   1.354   1.305
 3170SOL     OW10189   2.909   1.105   0.704
 3170SOL    HW110190   2.839   1.053   0.745
 3170SOL    HW210191   2.971   1.039   0.671
 3171SOL     OW10192   2.875   0.239   0.987
 3171SOL    HW110193   2.877   0.200   0.900
 3171SOL    HW210194   2.866   0.164   1.046
 3172SOL     OW10195   2.464   1.492   0.483
 3172SOL    HW110196   2.502   1.438   0.414
 3172SOL    HW210197   2.395   1.542   0.439
 3173SOL     OW10198   3.581   0.393   1.378
 3173SOL    HW110199   3.653   0.456   1.376
 3173SOL    HW210200   3.610   0.321   1.322
 3174SOL     OW10201   2.126   1.340   0.290
 3174SOL    HW110202   2.037   1.342   0.254
 3174SOL    HW210203   2.117   1.379   0.377
 3175SOL     OW10204   1.974   1.017   1.719
 3175SOL    HW110205   1.898   0.995   1.773
 3175SOL    HW210206   2.048   0.982   1.767
 3176SOL     OW10207   2.522   0.203   1.496
 3176SOL    HW110208   2.602   0.179   1.450
 3176SOL    HW210209   2.550   0.221   1.585
 3177SOL     OW10210   1.939   0.351   0.053
 3177SOL    HW110211   1.863   0.312   0.011
 3177SOL    HW210212   1.960   0.428  11.099
 3178SOL     OW10213   3.294   0.858   1.402
 3178SOL    HW110214   3.246   0.917   1.344
 3178SOL    HW210215   3.384   0.862   1.369
 3179SOL     OW10216   1.929   0.177   0.326
 3179SOL    HW110217   1.923   0.245   0.259
 3179SOL    HW210218   2.003   0.123   0.299
 3180SOL     OW10219   3.043   1.344   0.121
 3180SOL    HW110220   2.951   1.319   0.118
 3180SOL    HW210221   3.066   1.336   0.214
 3181SOL     OW10222   2.480   0.831   1.432
 3181SOL    HW110223   2.535   0.908   1.418
 3181SOL    HW210224   2.542   0.759   1.440
 3182SOL     OW10225   3.347   1.774   0.974
 3182SOL    HW110226   3.375   1.831   0.902
 3182SOL    HW210227   3.428   1.758   1.024
 3183SOL     OW10228   2.579   0.564   1.707
 3183SOL    HW110229   2.612   0.629   1.769
 3183SOL    HW210230   2.617   0.481   1.736
 3184SOL     OW10231   3.330   1.204   1.633
 3184SOL    HW110232   3.318   1.217   1.727
 3184SOL    HW210233   3.424   1.215   1.619
 3185SOL     OW10234   2.246   1.739   1.564
 3185SOL    HW110235   2.159   1.773   1.547
 3185SOL    HW210236   2.231   1.654   1.605
 3186SOL     OW10237   3.534   0.882   1.256
 3186SOL    HW110238   3.524   0.797   1.213
 3186SOL    HW210239   3.525   0.946   1.185
 3187SOL     OW10240   3.081   0.326   0.447
 3187SOL    HW110241   3.146   0.256   0.439
 3187SOL    HW210242   3.105   0.371   0.528
 3188SOL     OW10243   2.451   0.741   0.667
 3188SOL    HW110244   2.493   0.825   0.650
 3188SOL    HW210245   2.381   0.735   0.602
 3189SOL     OW10246   3.629   0.360   1.642
 3189SOL    HW110247   3.612   0.374   1.549
 3189SOL    HW210248   3.550   0.316   1.675
 3190SOL     OW10249   3.605   0.933   1.513
 3190SOL    HW110250   3.609   1.028   1.526
 3190SOL    HW210251   3.590   0.922   1.419
 3191SOL     OW10252   2.756   1.358   0.059
 3191SOL    HW110253   2.687   1.363   0.124
 3191SOL    HW210254   2.752   1.442   0.013
 3192SOL     OW10255   2.519   1.802   0.938
 3192SOL    HW110256   2.513   1.892   0.970
 3192SOL    HW210257   2.612   1.782   0.940
 3193SOL     OW10258   2.728   0.965   0.856
 3193SOL    HW110259   2.778   0.894   0.896
 3193SOL    HW210260   2.695   1.016   0.930
 3194SOL     OW10261   2.943   0.991   0.086
 3194SOL    HW110262   2.919   1.025   0.001
 3194SOL    HW210263   3.019   0.935   0.069
 3195SOL     OW10264   3.719   1.557   0.846
 3195SOL    HW110265   3.643   1.545   0.789
 3195SOL    HW210266   3.711   1.488   0.911
 3196SOL     OW10267   2.086   1.304   1.856
 3196SOL    HW110268   2.018   1.244   1.828
 3196SOL    HW210269   2.070   1.317   1.949
 3197SOL     OW10270   1.945   1.236   0.663
 3197SOL    HW110271   1.946   1.186   0.745
 3197SOL    HW210272   2.016   1.198   0.611
 3198SOL     OW10273   2.541   1.400   1.624
 3198SOL    HW110274   2.462   1.356   1.655
 3198SOL    HW210275   2.536   1.488   1.662
 3199SOL     OW10276   3.673   0.184   1.239
 3199SOL    HW110277   3.673   0.091   1.260
 3199SOL    HW210278   3.688   0.187   1.144
 3200SOL     OW10279   2.295   0.433   0.526
 3200SOL    HW110280   2.321   0.361   0.468
 3200SOL    HW210281   2.242   0.390   0.594
 3201SOL     OW10282   3.563   1.492   1.101
 3201SOL    HW110283   3.482   1.465   1.058
 3201SOL    HW210284   3.579   1.423   1.166
 3202SOL     OW10285   2.189   0.554   1.290
 3202SOL    HW110286   2.244   0.498   1.345
 3202SOL    HW210287   2.210   0.528   1.201
 3203SOL     OW10288   2.686   1.578   0.680
 3203SOL    HW110289   2.681   1.619   0.594
 3203SOL    HW210290   2.608   1.523   0.685
 3204SOL     OW10291   3.294   0.216   1.118
 3204SOL    HW110292   3.331   0.146   1.171
 3204SOL    HW210293   3.243   0.269   1.179
 3205SOL     OW10294   2.860   0.016   1.147
 3205SOL    HW110295   2.812   4.433   1.137
 3205SOL    HW210296   2.951   4.490   1.161
 3206SOL     OW10297   2.629   1.329   0.313
 3206SOL    HW110298   2.598   1.239   0.324
 3206SOL    HW210299   2.715   1.331   0.355
 3207SOL     OW10300   2.482   1.559   1.282
 3207SOL    HW110301   2.485   1.639   1.334
 3207SOL    HW210302   2.570   1.551   1.246
 3208SOL     OW10303   3.208   0.060   0.167
 3208SOL    HW110304   3.246   0.007   0.097
 3208SOL    HW210305   3.131   0.011   0.196
 3209SOL     OW10306   3.177   0.463   0.683
 3209SOL    HW110307   3.112   0.533   0.682
 3209SOL    HW210308   3.164   0.418   0.766
 3210SOL     OW10309   3.449   0.203   0.868
 3210SOL    HW110310   3.386   0.217   0.939
 3210SOL    HW210311   3.451   0.287   0.822
 3211SOL     OW10312   1.905   1.072   0.300
 3211SOL    HW110313   2.000   1.065   0.295
 3211SOL    HW210314   1.875   0.985   0.327
 3212SOL     OW10315   2.744   1.650   0.347
 3212SOL    HW110316   2.673   1.629   0.286
 3212SOL    HW210317   2.711   1.725   0.397
 3213SOL     OW10318   2.092   0.628   1.981
 3213SOL    HW110319   2.004   0.621   2.018
 3213SOL    HW210320   2.083   0.595   1.892
 3214SOL     OW10321   2.072   0.295   2.850
 3214SOL    HW110322   2.103   0.269   2.937
 3214SOL    HW210323   1.990   0.247   2.839
 3215SOL     OW10324   1.871   0.383   2.502
 3215SOL    HW110325   1.785   0.404   2.538
 3215SOL    HW210326   1.855   0.308   2.445
 3216SOL     OW10327   2.429   1.282   3.033
 3216SOL    HW110328   2.341   1.284   2.996
 3216SOL    HW210329   2.442   1.370   3.068
 3217SOL     OW10330   3.419   1.512   2.567
 3217SOL    HW110331   3.375   1.494   2.650
 3217SOL    HW210332   3.348   1.517   2.503
 3218SOL     OW10333   2.993   0.700   2.564
 3218SOL    HW110334   3.042   0.782   2.553
 3218SOL    HW210335   2.944   0.713   2.646
 3219SOL     OW10336   3.626   0.609   2.092
 3219SOL    HW110337   3.607   0.597   1.999
 3219SOL    HW210338   3.594   0.528   2.133
 3220SOL     OW10339   2.622   1.145   2.899
 3220SOL    HW110340   2.551   1.177   2.955
 3220SOL    HW210341   2.655   1.223   2.854
 3221SOL     OW10342   2.723   0.781   3.683
 3221SOL    HW110343   2.712   0.853   3.746
 3221SOL    HW210344   2.747   0.825   3.601
 3222SOL     OW10345   2.549   1.008   2.511
 3222SOL    HW110346   2.612   0.992   2.581
 3222SOL    HW210347   2.478   1.057   2.553
 3223SOL     OW10348   2.569   1.152   3.670
 3223SOL    HW110349   2.616   1.231   3.694
 3223SOL    HW210350   2.484   1.184   3.637
 3224SOL     OW10351   2.194   1.429   2.930
 3224SOL    HW110352   2.121   1.393   2.879
 3224SOL    HW210353   2.245   1.480   2.867
 3225SOL     OW10354   3.324   1.498   3.212
 3225SOL    HW110355   3.366   1.583   3.223
 3225SOL    HW210356   3.270   1.487   3.290
 3226SOL     OW10357   2.302   0.396   3.354
 3226SOL    HW110358   2.384   0.346   3.356
 3226SOL    HW210359   2.234   0.330   3.367
 3227SOL     OW10360   3.475   0.448   2.599
 3227SOL    HW110361   3.394   0.473   2.554
 3227SOL    HW210362   3.497   0.525   2.652
 3228SOL     OW10363   2.083   1.724   2.337
 3228SOL    HW110364   2.124   1.770   2.410
 3228SOL    HW210365   2.155   1.709   2.275
 3229SOL     OW10366   2.998   1.341   3.553
 3229SOL    HW110367   3.037   1.338   3.640
 3229SOL    HW210368   2.944   1.262   3.548
 3230SOL     OW10369   2.089   1.442   2.395
 3230SOL    HW110370   2.068   1.535   2.407
 3230SOL    HW210371   2.030   1.397   2.456
 3231SOL     OW10372   2.115   1.090   2.752
 3231SOL    HW110373   2.113   1.004   2.795
 3231SOL    HW210374   2.057   1.145   2.805
 3232SOL     OW10375   2.478   1.791   3.293
 3232SOL    HW110376   2.394   1.774   3.337
 3232SOL    HW210377   2.499   1.881   3.317
 3233SOL     OW10378   2.452   0.979   1.993
 3233SOL    HW110379   2.493   1.032   1.926
 3233SOL    HW210380   2.493   1.007   2.075
 3234SOL     OW10381   3.448   0.114   3.337
 3234SOL    HW110382   3.457   0.182   3.270
 3234SOL    HW210383   3.438   0.162   3.419
 3235SOL     OW10384   1.977   0.651   2.421
 3235SOL    HW110385   1.948   0.562   2.443
 3235SOL    HW210386   1.968   0.699   2.503
 3236SOL     OW10387   3.703   1.761   2.199
 3236SOL    HW110388   3.761   1.732   2.269
 3236SOL    HW210389   3.731   1.851   2.181
 3237SOL     OW10390   1.893   1.597   1.986
 3237SOL    HW110391   1.876   1.505   2.003
 3237SOL    HW210392   1.866   1.642   2.066
 3238SOL     OW10393   3.553   0.921   2.499
 3238SOL    HW110394   3.638   0.880   2.481
 3238SOL    HW210395   3.532   0.969   2.420
 3239SOL     OW10396   3.507   1.108   2.291
 3239SOL    HW110397   3.592   1.117   2.249
 3239SOL    HW210398   3.511   1.168   2.366
 3240SOL     OW10399   1.983   0.743   3.448
 3240SOL    HW110400   2.075   0.764   3.465
 3240SOL    HW210401   1.938   0.826   3.455
 3241SOL     OW10402   2.475   1.382   2.597
 3241SOL    HW110403   2.429   1.298   2.606
 3241SOL    HW210404   2.457   1.409   2.506
 3242SOL     OW10405   3.153   1.239   3.286
 3242SOL    HW110406   3.185   1.171   3.227
 3242SOL    HW210407   3.208   1.231   3.364
 3243SOL     OW10408   2.676   0.011   2.406
 3243SOL    HW110409   2.710   0.097   2.383
 3243SOL    HW210410   2.581   0.020   2.399
 3244SOL     OW10411   2.054   0.969   3.130
 3244SOL    HW110412   2.138   0.926   3.115
 3244SOL    HW210413   1.989   0.912   3.089
 3245SOL     OW10414   3.394   0.991   2.058
 3245SOL    HW110415   3.324   0.933   2.087
 3245SOL    HW210416   3.433   1.025   2.139
 3246SOL     OW10417   3.047   1.803   3.482
 3246SOL    HW110418   3.063   1.860   3.406
 3246SOL    HW210419   3.062   1.715   3.449
 3247SOL     OW10420   2.178   0.255   3.644
 3247SOL    HW110421   2.241   0.320   3.676
 3247SOL    HW210422   2.103   0.264   3.703
 3248SOL     OW10423   3.328   1.419   2.816
 3248SOL    HW110424   3.259   1.433   2.881
 3248SOL    HW210425   3.316   1.329   2.788
 3249SOL     OW10426   3.524   1.732   2.439
 3249SOL    HW110427   3.499   1.704   2.351
 3249SOL    HW210428   3.498   1.659   2.496
 3250SOL     OW10429   2.456   0.724   2.126
 3250SOL    HW110430   2.465   0.804   2.074
 3250SOL    HW210431   2.391   0.746   2.192
 3251SOL     OW10432   3.151   0.357   2.797
 3251SOL    HW110433   3.062   0.325   2.782
 3251SOL    HW210434   3.189   0.295   2.859
 3252SOL     OW10435   3.444   1.668   2.171
 3252SOL    HW110436   3.532   1.703   2.165
 3252SOL    HW210437   3.419   1.650   2.080
 3253SOL     OW10438   2.658   0.617   3.317
 3253SOL    HW110439   2.629   0.594   3.405
 3253SOL    HW210440   2.615   0.553   3.260
 3254SOL     OW10441   3.251   0.478   3.538
 3254SOL    HW110442   3.253   0.521   3.623
 3254SOL    HW210443   3.318   0.409   3.545
 3255SOL     OW10444   2.821   0.889   3.442
 3255SOL    HW110445   2.874   0.817   3.409
 3255SOL    HW210446   2.773   0.921   3.366
 3256SOL     OW10447   2.857   0.416   3.101
 3256SOL    HW110448   2.772   0.431   3.142
 3256SOL    HW210449   2.836   0.365   3.022
 3257SOL     OW10450   2.911   0.698   2.290
 3257SOL    HW110451   2.926   0.691   2.384
 3257SOL    HW210452   2.829   0.651   2.275
 3258SOL     OW10453   1.951   0.819   2.638
 3258SOL    HW110454   2.033   0.813   2.687
 3258SOL    HW210455   1.909   0.898   2.673
 3259SOL     OW10456   1.989   1.809   3.436
 3259SOL    HW110457   1.976   1.807   3.531
 3259SOL    HW210458   1.921   1.869   3.404
 3260SOL     OW10459   2.716   0.367   2.041
 3260SOL    HW110460   2.792   0.403   1.994
 3260SOL    HW210461   2.733   0.274   2.046
 3261SOL     OW10462   3.570   0.576   3.690
 3261SOL    HW110463   3.535   0.654   3.646
 3261SOL    HW210464   3.600   0.520   3.619
 3262SOL     OW10465   3.237   1.143   2.404
 3262SOL    HW110466   3.315   1.128   2.351
 3262SOL    HW210467   3.184   1.205   2.353
 3263SOL     OW10468   2.402   0.201   2.762
 3263SOL    HW110469   2.421   0.218   2.855
 3263SOL    HW210470   2.394   0.288   2.723
 3264SOL     OW10471   2.871   1.446   2.336
 3264SOL    HW110472   2.830   1.517   2.287
 3264SOL    HW210473   2.857   1.469   2.428
 3265SOL     OW10474   2.218   1.806   2.701
 3265SOL    HW110475   2.260   1.723   2.720
 3265SOL    HW210476   2.285   1.872   2.720
 3266SOL     OW10477   3.659   1.062   2.729
 3266SOL    HW110478   3.603   1.044   2.654
 3266SOL    HW210479   3.600   1.066   2.804
 3267SOL     OW10480   3.090   1.540   3.374
 3267SOL    HW110481   3.076   1.467   3.434
 3267SOL    HW210482   3.030   1.523   3.302
 3268SOL     OW10483   2.184   0.955   2.109
 3268SOL    HW110484   2.266   0.974   2.064
 3268SOL    HW210485   2.153   0.873   2.070
 3269SOL     OW10486   3.338   0.739   2.588
 3269SOL    HW110487   3.324   0.691   2.669
 3269SOL    HW210488   3.414   0.794   2.605
 3270SOL     OW10489   2.326   1.263   3.599
 3270SOL    HW110490   2.297   1.268   3.508
 3270SOL    HW210491   2.245   1.262   3.650
 3271SOL     OW10492   2.983   1.777   2.094
 3271SOL    HW110493   2.911   1.733   2.141
 3271SOL    HW210494   3.003   1.718   2.022
 3272SOL     OW10495   2.052   0.268   3.370
 3272SOL    HW110496   1.986   0.335   3.352
 3272SOL    HW210497   2.059   0.267   3.465
 3273SOL     OW10498   3.492   1.379   1.948
 3273SOL    HW110499   3.451   1.464   1.934
 3273SOL    HW210500   3.422   1.315   1.930
 3274SOL     OW10501   2.328   1.725   2.198
 3274SOL    HW110502   2.365   1.796   2.251
 3274SOL    HW210503   2.390   1.714   2.126
 3275SOL     OW10504   3.277   0.130   2.281
 3275SOL    HW110505   3.260   0.084   2.199
 3275SOL    HW210506   3.373   0.129   2.289
 3276SOL     OW10507   2.110   1.785   3.096
 3276SOL    HW110508   2.168   1.724   3.141
 3276SOL    HW210509   2.105   1.753   3.006
 3277SOL     OW10510   2.801   1.698   2.763
 3277SOL    HW110511   2.878   1.643   2.782
 3277SOL    HW210512   2.754   1.650   2.695
 3278SOL     OW10513   2.252   0.695   2.339
 3278SOL    HW110514   2.277   0.603   2.349
 3278SOL    HW210515   2.158   0.697   2.359
 3279SOL     OW10516   3.389   0.232   3.584
 3279SOL    HW110517   3.387   0.257   3.677
 3279SOL    HW210518   3.314   0.174   3.573
 3280SOL     OW10519   2.485   0.123   1.982
 3280SOL    HW110520   2.574   0.088   1.991
 3280SOL    HW210521   2.454   0.089   1.898
 3281SOL     OW10522   2.632   0.270   3.614
 3281SOL    HW110523   2.697   0.202   3.633
 3281SOL    HW210524   2.583   0.280   3.695
 3282SOL     OW10525   2.739   1.521   3.055
 3282SOL    HW110526   2.724   1.485   2.968
 3282SOL    HW210527   2.808   1.465   3.092
 3283SOL     OW10528   3.205   0.589   3.292
 3283SOL    HW110529   3.232   0.559   3.378
 3283SOL    HW210530   3.239   0.678   3.286
 3284SOL     OW10531   2.675   1.399   2.797
 3284SOL    HW110532   2.758   1.389   2.752
 3284SOL    HW210533   2.609   1.396   2.728
 3285SOL     OW10534   2.784   0.515   2.764
 3285SOL    HW110535   2.768   0.512   2.670
 3285SOL    HW210536   2.826   0.430   2.783
 3286SOL     OW10537   2.414   0.072   2.381
 3286SOL    HW110538   2.324   0.050   2.406
 3286SOL    HW210539   2.405   0.141   2.316
 3287SOL     OW10540   3.291   1.197   1.903
 3287SOL    HW110541   3.321   1.122   1.953
 3287SOL    HW210542   3.205   1.217   1.940
 3288SOL     OW10543   2.158   0.072   2.052
 3288SOL    HW110544   2.237   0.124   2.034
 3288SOL    HW210545   2.189   4.499   2.106
 3289SOL     OW10546   2.811   0.240   2.335
 3289SOL    HW110547   2.759   0.287   2.270
 3289SOL    HW210548   2.899   0.275   2.325
 3290SOL     OW10549   2.942   0.679   3.323
 3290SOL    HW110550   2.869   0.616   3.325
 3290SOL    HW210551   3.020   0.625   3.311
 3291SOL     OW10552   3.087   1.569   2.655
 3291SOL    HW110553   3.105   1.637   2.591
 3291SOL    HW210554   3.155   1.581   2.722
 3292SOL     OW10555   2.329   1.148   2.599
 3292SOL    HW110556   2.258   1.129   2.661
 3292SOL    HW210557   2.291   1.130   2.513
 3293SOL     OW10558   3.133   1.795   2.467
 3293SOL    HW110559   3.177   1.857   2.408
 3293SOL    HW210560   3.069   1.848   2.514
 3294SOL     OW10561   2.893   0.550   1.876
 3294SOL    HW110562   2.846   0.631   1.860
 3294SOL    HW210563   2.951   0.569   1.950
 3295SOL     OW10564   1.941   0.552   3.256
 3295SOL    HW110565   2.031   0.554   3.225
 3295SOL    HW210566   1.935   0.624   3.318
 3296SOL     OW10567   2.426   0.240   3.026
 3296SOL    HW110568   2.455   0.157   3.063
 3296SOL    HW210569   2.335   0.248   3.052
 3297SOL     OW10570   2.728   0.500   2.488
 3297SOL    HW110571   2.676   0.542   2.420
 3297SOL    HW210572   2.715   0.406   2.474
 3298SOL     OW10573   2.834   0.033   2.635
 3298SOL    HW110574   2.785   0.028   2.553
 3298SOL    HW210575   2.843   4.442   2.664
 3299SOL     OW10576   3.297   1.164   2.720
 3299SOL    HW110577   3.230   1.096   2.719
 3299SOL    HW210578   3.319   1.178   2.628
 3300SOL     OW10579   3.330   0.602   2.842
 3300SOL    HW110580   3.280   0.521   2.846
 3300SOL    HW210581   3.389   0.597   2.917
 3301SOL     OW10582   3.710   0.819   2.243
 3301SOL    HW110583   3.765   0.767   2.301
 3301SOL    HW210584   3.680   0.758   2.176
 3302SOL     OW10585   2.355   1.413   2.023
 3302SOL    HW110586   2.280   1.384   2.075
 3302SOL    HW210587   2.333   1.388   1.933
 3303SOL     OW10588   3.530   1.266   2.510
 3303SOL    HW110589   3.625   1.271   2.524
 3303SOL    HW210590   3.497   1.353   2.532
 3304SOL     OW10591   3.256   0.570   1.932
 3304SOL    HW110592   3.195   0.554   2.004
 3304SOL    HW210593   3.342   0.547   1.967
 3305SOL     OW10594   2.387   0.265   2.187
 3305SOL    HW110595   2.428   0.212   2.119
 3305SOL    HW210596   2.372   0.350   2.145
 3306SOL     OW10597   3.616   1.235   3.439
 3306SOL    HW110598   3.703   1.197   3.436
 3306SOL    HW210599   3.630   1.325   3.469
 3307SOL     OW10600   2.923   1.354   3.198
 3307SOL    HW110601   2.848   1.322   3.248
 3307SOL    HW210602   2.999   1.312   3.238
 3308SOL     OW10603   3.467   1.625   3.512
 3308SOL    HW110604   3.465   1.659   3.423
 3308SOL    HW210605   3.550   1.579   3.519
 3309SOL     OW10606   2.987   1.202   2.969
 3309SOL    HW110607   2.928   1.239   3.035
 3309SOL    HW210608   2.952   1.231   2.886
 3310SOL     OW10609   3.493   1.100   2.941
 3310SOL    HW110610   3.489   1.163   3.013
 3310SOL    HW210611   3.412   1.114   2.892
 3311SOL     OW10612   2.767   0.129   3.253
 3311SOL    HW110613   2.790   0.086   3.170
 3311SOL    HW210614   2.851   0.142   3.297
 3312SOL     OW10615   2.846   1.115   3.584
 3312SOL    HW110616   2.753   1.129   3.603
 3312SOL    HW210617   2.847   1.037   3.528
 3313SOL     OW10618   2.570   1.060   2.234
 3313SOL    HW110619   2.557   1.046   2.328
 3313SOL    HW210620   2.646   1.006   2.212
 3314SOL     OW10621   2.279   0.814   3.113
 3314SOL    HW110622   2.348   0.823   3.178
 3314SOL    HW210623   2.244   0.726   3.128
 3315SOL     OW10624   3.131   0.377   3.133
 3315SOL    HW110625   3.162   0.455   3.179
 3315SOL    HW210626   3.043   0.400   3.104
 3316SOL     OW10627   1.928   1.570   3.207
 3316SOL    HW110628   1.894   1.648   3.162
 3316SOL    HW210629   2.023   1.583   3.209
 3317SOL     OW10630   2.216   1.106   2.354
 3317SOL    HW110631   2.220   1.179   2.293
 3317SOL    HW210632   2.215   1.028   2.299
 3318SOL     OW10633   2.421   0.533   2.722
 3318SOL    HW110634   2.436   0.591   2.647
 3318SOL    HW210635   2.481   0.563   2.789
 3319SOL     OW10636   3.110   1.348   2.251
 3319SOL    HW110637   3.165   1.420   2.282
 3319SOL    HW210638   3.023   1.368   2.285
 3320SOL     OW10639   3.138   1.455   3.007
 3320SOL    HW110640   3.192   1.457   3.086
 3320SOL    HW210641   3.083   1.378   3.018
 3321SOL     OW10642   3.445   0.626   2.337
 3321SOL    HW110643   3.401   0.680   2.403
 3321SOL    HW210644   3.490   0.689   2.280
 3322SOL     OW10645   2.212   1.521   3.182
 3322SOL    HW110646   2.197   1.481   3.096
 3322SOL    HW210647   2.307   1.535   3.185
 3323SOL     OW10648   2.274   0.743   3.464
 3323SOL    HW110649   2.334   0.791   3.405
 3323SOL    HW210650   2.319   0.661   3.481
 3324SOL     OW10651   3.459   0.777   3.540
 3324SOL    HW110652   3.373   0.817   3.533
 3324SOL    HW210653   3.511   0.819   3.472
 3325SOL     OW10654   2.870   0.086   3.591
 3325SOL    HW110655   2.889   0.171   3.551
 3325SOL    HW210656   2.896   0.022   3.524
 3326SOL     OW10657   2.362   0.050   3.617
 3326SOL    HW110658   2.348   0.001   3.536
 3326SOL    HW210659   2.293   0.116   3.617
 3327SOL     OW10660   2.444   0.872   2.893
 3327SOL    HW110661   2.474   0.963   2.890
 3327SOL    HW210662   2.387   0.868   2.970
 3328SOL     OW10663   3.223   0.859   2.896
 3328SOL    HW110664   3.142   0.853   2.846
 3328SOL    HW210665   3.260   0.771   2.893
 3329SOL     OW10666   3.070   0.534   2.129
 3329SOL    HW110667   3.075   0.453   2.180
 3329SOL    HW210668   3.027   0.597   2.188
 3330SOL     OW10669   2.152   0.236   3.102
 3330SOL    HW110670   2.113   0.252   3.187
 3330SOL    HW210671   2.180   0.144   3.104
 3331SOL     OW10672   1.907   1.309   3.139
 3331SOL    HW110673   1.942   1.258   3.212
 3331SOL    HW210674   1.916   1.400   3.167
 3332SOL     OW10675   2.587   0.632   2.922
 3332SOL    HW110676   2.659   0.612   2.863
 3332SOL    HW210677   2.561   0.721   2.898
 3333SOL     OW10678   3.595   0.959   3.712
 3333SOL    HW110679   3.546   0.905   3.650
 3333SOL    HW210680   3.536   0.970   3.787
 3334SOL     OW10681   2.161   0.061   2.515
 3334SOL    HW110682   2.152   0.156   2.521
 3334SOL    HW210683   2.173   0.032   2.605
 3335SOL     OW10684   3.472   0.374   2.229
 3335SOL    HW110685   3.504   0.311   2.294
 3335SOL    HW210686   3.450   0.452   2.279
 3336SOL     OW10687   2.889   0.761   2.825
 3336SOL    HW110688   2.889   0.777   2.919
 3336SOL    HW210689   2.861   0.670   2.816
 3337SOL     OW10690   2.845   1.567   3.576
 3337SOL    HW110691   2.829   1.610   3.492
 3337SOL    HW210692   2.887   1.484   3.552
 3338SOL     OW10693   3.718   1.510   3.468
 3338SOL    HW110694   3.734   1.535   3.377
 3338SOL    HW210695   3.799   1.531   3.514
 3339SOL     OW10696   2.215   0.916   3.669
 3339SOL    HW110697   2.297   0.934   3.715
 3339SOL    HW210698   2.239   0.854   3.600
 3340SOL     OW10699   3.394   0.268   1.990
 3340SOL    HW110700   3.323   0.211   2.017
 3340SOL    HW210701   3.422   0.312   2.070
 3341SOL     OW10702   3.157   0.827   1.895
 3341SOL    HW110703   3.198   0.741   1.898
 3341SOL    HW210704   3.187   0.866   1.813
 3342SOL     OW10705   2.926   1.335   2.714
 3342SOL    HW110706   2.929   1.261   2.653
 3342SOL    HW210707   2.990   1.398   2.679
 3343SOL     OW10708   2.173   0.810   2.811
 3343SOL    HW110709   2.265   0.833   2.804
 3343SOL    HW210710   2.172   0.721   2.846
 3344SOL     OW10711   2.199   0.527   2.874
 3344SOL    HW110712   2.157   0.444   2.855
 3344SOL    HW210713   2.274   0.531   2.815
 3345SOL     OW10714   2.997   0.375   3.553
 3345SOL    HW110715   2.950   0.440   3.606
 3345SOL    HW210716   3.084   0.414   3.540
 3346SOL     OW10717   3.023   0.210   3.336
 3346SOL    HW110718   3.014   0.274   3.406
 3346SOL    HW210719   3.056   0.261   3.261
 3347SOL     OW10720   1.867   1.323   2.057
 3347SOL    HW110721   1.779   1.336   2.020
 3347SOL    HW210722   1.865   1.233   2.089
 3348SOL     OW10723   1.959   1.786   2.792
 3348SOL    HW110724   1.928   1.704   2.753
 3348SOL    HW210725   2.046   1.799   2.756
 3349SOL     OW10726   2.360   1.573   2.766
 3349SOL    HW110727   2.428   1.635   2.791
 3349SOL    HW210728   2.405   1.506   2.714
 3350SOL     OW10729   2.851   0.795   3.091
 3350SOL    HW110730   2.902   0.769   3.168
 3350SOL    HW210731   2.764   0.758   3.107
 3351SOL     OW10732   1.896   0.541   2.980
 3351SOL    HW110733   1.976   0.522   2.930
 3351SOL    HW210734   1.926   0.549   3.070
 3352SOL     OW10735   2.047   0.517   3.581
 3352SOL    HW110736   2.119   0.496   3.522
 3352SOL    HW210737   2.003   0.592   3.541
 3353SOL     OW10738   3.238   0.942   3.522
 3353SOL    HW110739   3.258   1.035   3.522
 3353SOL    HW210740   3.236   0.918   3.429
 3354SOL     OW10741   2.674   0.573   2.214
 3354SOL    HW110742   2.677   0.500   2.152
 3354SOL    HW210743   2.599   0.625   2.186
 3355SOL     OW10744   3.504   0.601   3.052
 3355SOL    HW110745   3.493   0.541   3.125
 3355SOL    HW210746   3.591   0.581   3.017
 3356SOL     OW10747   2.114   1.552   3.596
 3356SOL    HW110748   2.083   1.614   3.663
 3356SOL    HW210749   2.108   1.466   3.638
 3357SOL     OW10750   2.553   0.460   3.128
 3357SOL    HW110751   2.509   0.382   3.094
 3357SOL    HW210752   2.557   0.520   3.053
 3358SOL     OW10753   2.792   1.679   3.328
 3358SOL    HW110754   2.766   1.648   3.241
 3358SOL    HW210755   2.793   1.774   3.321
 3359SOL     OW10756   2.330   0.493   2.048
 3359SOL    HW110757   2.387   0.567   2.068
 3359SOL    HW210758   2.243   0.533   2.040
 3360SOL     OW10759   2.011   1.139   3.333
 3360SOL    HW110760   2.016   1.085   3.412
 3360SOL    HW210761   2.027   1.079   3.261
 3361SOL     OW10762   3.192   1.049   3.087
 3361SOL    HW110763   3.216   0.987   3.019
 3361SOL    HW210764   3.119   1.099   3.050
 3362SOL     OW10765   3.171   0.856   2.169
 3362SOL    HW110766   3.094   0.827   2.218
 3362SOL    HW210767   3.147   0.843   2.078
 3363SOL     OW10768   3.630   1.747   3.010
 3363SOL    HW110769   3.690   1.773   2.940
 3363SOL    HW210770   3.606   1.657   2.990
 3364SOL     OW10771   3.104   1.733   2.980
 3364SOL    HW110772   3.186   1.750   2.932
 3364SOL    HW210773   3.106   1.639   2.997
 3365SOL     OW10774   1.946   1.265   2.876
 3365SOL    HW110775   1.933   1.277   2.970
 3365SOL    HW210776   1.871   1.213   2.847
 3366SOL     OW10777   2.541   1.663   3.586
 3366SOL    HW110778   2.490   1.744   3.583
 3366SOL    HW210779   2.603   1.671   3.513
 3367SOL     OW10780   3.580   0.130   2.361
 3367SOL    HW110781   3.654   0.134   2.301
 3367SOL    HW210782   3.598   0.056   2.418
 3368SOL     OW10783   3.252   1.568   2.344
 3368SOL    HW110784   3.312   1.599   2.277
 3368SOL    HW210785   3.205   1.646   2.372
 3369SOL     OW10786   1.993   1.802   3.708
 3369SOL    HW110787   1.944   1.733   3.753
 3369SOL    HW210788   2.046   1.843   3.776
 3370SOL     OW10789   3.140   0.925   2.534
 3370SOL    HW110790   3.212   0.863   2.537
 3370SOL    HW210791   3.174   0.998   2.482
 3371SOL     OW10792   2.681   1.272   3.293
 3371SOL    HW110793   2.655   1.310   3.377
 3371SOL    HW210794   2.609   1.293   3.234
 3372SOL     OW10795   2.535   1.616   2.015
 3372SOL    HW110796   2.543   1.625   1.920
 3372SOL    HW210797   2.482   1.538   2.028
 3373SOL     OW10798   3.496   1.727   3.255
 3373SOL    HW110799   3.543   1.735   3.171
 3373SOL    HW210800   3.482   1.817   3.283
 3374SOL     OW10801   3.701   0.156   2.829
 3374SOL    HW110802   3.732   0.081   2.779
 3374SOL    HW210803   3.614   0.175   2.793
 3375SOL     OW10804   2.129   0.325   2.582
 3375SOL    HW110805   2.044   0.359   2.553
 3375SOL    HW210806   2.120   0.314   2.677
 3376SOL     OW10807   3.068   1.608   1.893
 3376SOL    HW110808   3.059   1.517   1.921
 3376SOL    HW210809   3.002   1.618   1.823
 3377SOL     OW10810   2.686   1.006   3.234
 3377SOL    HW110811   2.728   1.002   3.148
 3377SOL    HW210812   2.688   1.098   3.258
 3378SOL     OW10813   2.777   0.910   2.151
 3378SOL    HW110814   2.840   0.941   2.086
 3378SOL    HW210815   2.823   0.839   2.196
 3379SOL     OW10816   3.358   1.624   1.904
 3379SOL    HW110817   3.263   1.621   1.894
 3379SOL    HW210818   3.392   1.630   1.815
 3380SOL     OW10819   2.232   1.300   3.354
 3380SOL    HW110820   2.219   1.378   3.301
 3380SOL    HW210821   2.154   1.246   3.337
 3381SOL     OW10822   3.474   1.284   3.143
 3381SOL    HW110823   3.532   1.276   3.219
 3381SOL    HW210824   3.413   1.353   3.167
 3382SOL     OW10825   2.910   1.105   2.567
 3382SOL    HW110826   2.839   1.054   2.607
 3382SOL    HW210827   2.970   1.039   2.532
 3383SOL     OW10828   2.870   0.241   2.857
 3383SOL    HW110829   2.877   0.210   2.766
 3383SOL    HW210830   2.863   0.161   2.909
 3384SOL     OW10831   2.462   1.490   2.344
 3384SOL    HW110832   2.502   1.438   2.274
 3384SOL    HW210833   2.400   1.548   2.298
 3385SOL     OW10834   3.581   0.393   3.240
 3385SOL    HW110835   3.653   0.456   3.238
 3385SOL    HW210836   3.610   0.321   3.184
 3386SOL     OW10837   2.120   1.348   2.148
 3386SOL    HW110838   2.027   1.345   2.127
 3386SOL    HW210839   2.123   1.385   2.237
 3387SOL     OW10840   1.973   1.017   3.581
 3387SOL    HW110841   1.898   0.995   3.635
 3387SOL    HW210842   2.049   0.982   3.629
 3388SOL     OW10843   2.522   0.203   3.358
 3388SOL    HW110844   2.602   0.179   3.312
 3388SOL    HW210845   2.550   0.221   3.447
 3389SOL     OW10846   1.942   0.344   1.908
 3389SOL    HW110847   1.869   0.294   1.871
 3389SOL    HW210848   1.959   0.412   1.842
 3390SOL     OW10849   3.295   0.858   3.264
 3390SOL    HW110850   3.246   0.917   3.206
 3390SOL    HW210851   3.384   0.862   3.230
 3391SOL     OW10852   1.929   0.179   2.185
 3391SOL    HW110853   1.924   0.246   2.117
 3391SOL    HW210854   2.004   0.125   2.162
 3392SOL     OW10855   3.042   1.342   1.979
 3392SOL    HW110856   2.951   1.312   1.982
 3392SOL    HW210857   3.071   1.341   2.070
 3393SOL     OW10858   2.480   0.831   3.294
 3393SOL    HW110859   2.535   0.908   3.280
 3393SOL    HW210860   2.542   0.759   3.302
 3394SOL     OW10861   3.347   1.774   2.836
 3394SOL    HW110862   3.374   1.831   2.764
 3394SOL    HW210863   3.428   1.759   2.886
 3395SOL     OW10864   2.578   0.564   3.569
 3395SOL    HW110865   2.612   0.629   3.630
 3395SOL    HW210866   2.617   0.482   3.598
 3396SOL     OW10867   3.330   1.204   3.495
 3396SOL    HW110868   3.318   1.216   3.590
 3396SOL    HW210869   3.424   1.215   3.481
 3397SOL     OW10870   2.247   1.740   3.428
 3397SOL    HW110871   2.159   1.773   3.410
 3397SOL    HW210872   2.233   1.654   3.467
 3398SOL     OW10873   3.534   0.882   3.118
 3398SOL    HW110874   3.524   0.797   3.075
 3398SOL    HW210875   3.525   0.946   3.047
 3399SOL     OW10876   3.080   0.327   2.310
 3399SOL    HW110877   3.145   0.257   2.301
 3399SOL    HW210878   3.106   0.374   2.389
 3400SOL     OW10879   2.451   0.741   2.530
 3400SOL    HW110880   2.493   0.825   2.512
 3400SOL    HW210881   2.381   0.734   2.464
 3401SOL     OW10882   3.629   0.360   3.504
 3401SOL    HW110883   3.612   0.374   3.411
 3401SOL    HW210884   3.550   0.316   3.537
 3402SOL     OW10885   3.606   0.933   3.375
 3402SOL    HW110886   3.608   1.028   3.388
 3402SOL    HW210887   3.590   0.922   3.281
 3403SOL     OW10888   2.724   1.369   1.891
 3403SOL    HW110889   2.684   1.394   1.975
 3403SOL    HW210890   2.744   1.452   1.848
 3404SOL     OW10891   2.525   1.784   2.808
 3404SOL    HW110892   2.502   1.875   2.787
 3404SOL    HW210893   2.621   1.782   2.805
 3405SOL     OW10894   2.727   0.965   2.718
 3405SOL    HW110895   2.778   0.894   2.759
 3405SOL    HW210896   2.695   1.016   2.792
 3406SOL     OW10897   2.942   0.988   1.951
 3406SOL    HW110898   2.920   1.038   1.872
 3406SOL    HW210899   3.018   0.935   1.925
 3407SOL     OW10900   3.719   1.557   2.708
 3407SOL    HW110901   3.642   1.545   2.651
 3407SOL    HW210902   3.711   1.488   2.774
 3408SOL     OW10903   2.086   1.305   3.718
 3408SOL    HW110904   2.018   1.244   3.690
 3408SOL    HW210905   2.069   1.317   3.811
 3409SOL     OW10906   1.947   1.236   2.524
 3409SOL    HW110907   1.946   1.187   2.607
 3409SOL    HW210908   2.015   1.195   2.472
 3410SOL     OW10909   2.541   1.400   3.486
 3410SOL    HW110910   2.462   1.356   3.517
 3410SOL    HW210911   2.536   1.488   3.525
 3411SOL     OW10912   3.673   0.184   3.101
 3411SOL    HW110913   3.673   0.091   3.122
 3411SOL    HW210914   3.688   0.187   3.006
 3412SOL     OW10915   2.296   0.433   2.389
 3412SOL    HW110916   2.320   0.363   2.329
 3412SOL    HW210917   2.243   0.390   2.456
 3413SOL     OW10918   3.563   1.492   2.963
 3413SOL    HW110919   3.482   1.465   2.919
 3413SOL    HW210920   3.579   1.423   3.028
 3414SOL     OW10921   2.189   0.554   3.152
 3414SOL    HW110922   2.244   0.498   3.207
 3414SOL    HW210923   2.210   0.528   3.063
 3415SOL     OW10924   2.687   1.578   2.542
 3415SOL    HW110925   2.681   1.620   2.456
 3415SOL    HW210926   2.608   1.524   2.547
 3416SOL     OW10927   3.294   0.215   2.980
 3416SOL    HW110928   3.332   0.146   3.034
 3416SOL    HW210929   3.243   0.268   3.041
 3417SOL     OW10930   2.860   0.014   3.010
 3417SOL    HW110931   2.813   4.431   3.000
 3417SOL    HW210932   2.951   4.488   3.023
 3418SOL     OW10933   2.634   1.332   2.171
 3418SOL    HW110934   2.599   1.243   2.179
 3418SOL    HW210935   2.716   1.329   2.220
 3419SOL     OW10936   2.482   1.559   3.146
 3419SOL    HW110937   2.485   1.640   3.197
 3419SOL    HW210938   2.569   1.552   3.107
 3420SOL     OW10939   3.205   0.054   2.013
 3420SOL    HW110940   3.245   4.480   1.968
 3420SOL    HW210941   3.130   0.017   2.059
 3421SOL     OW10942   3.176   0.463   2.543
 3421SOL    HW110943   3.113   0.534   2.544
 3421SOL    HW210944   3.164   0.419   2.628
 3422SOL     OW10945   3.448   0.203   2.729
 3422SOL    HW110946   3.386   0.217   2.801
 3422SOL    HW210947   3.451   0.287   2.684
 3423SOL     OW10948   1.906   1.074   2.166
 3423SOL    HW110949   1.999   1.064   2.150
 3423SOL    HW210950   1.876   0.986   2.190
 3424SOL     OW10951   2.742   1.649   2.207
 3424SOL    HW110952   2.672   1.630   2.145
 3424SOL    HW210953   2.712   1.725   2.256
 3425SOL     OW10954   2.092   0.627   3.843
 3425SOL    HW110955   2.004   0.622   3.879
 3425SOL    HW210956   2.083   0.595   3.753
 3426SOL     OW10957   2.073   0.294   4.712
 3426SOL    HW110958   2.103   0.269   4.799
 3426SOL    HW210959   1.990   0.247   4.701
 3427SOL     OW10960   1.871   0.383   4.364
 3427SOL    HW110961   1.785   0.403   4.400
 3427SOL    HW210962   1.855   0.308   4.307
 3428SOL     OW10963   2.419   1.256   4.907
 3428SOL    HW110964   2.339   1.262   4.855
 3428SOL    HW210965   2.445   1.346   4.921
 3429SOL     OW10966   3.419   1.512   4.429
 3429SOL    HW110967   3.376   1.495   4.513
 3429SOL    HW210968   3.347   1.517   4.366
 3430SOL     OW10969   2.993   0.700   4.426
 3430SOL    HW110970   3.042   0.781   4.414
 3430SOL    HW210971   2.944   0.713   4.508
 3431SOL     OW10972   3.627   0.609   3.954
 3431SOL    HW110973   3.608   0.597   3.861
 3431SOL    HW210974   3.594   0.529   3.995
 3432SOL     OW10975   2.617   1.130   4.766
 3432SOL    HW110976   2.552   1.172   4.822
 3432SOL    HW210977   2.650   1.201   4.711
 3433SOL     OW10978   2.723   0.781   5.545
 3433SOL    HW110979   2.711   0.853   5.607
 3433SOL    HW210980   2.747   0.824   5.463
 3434SOL     OW10981   2.548   1.006   4.374
 3434SOL    HW110982   2.613   0.993   4.442
 3434SOL    HW210983   2.479   1.058   4.416
 3435SOL     OW10984   2.567   1.149   5.528
 3435SOL    HW110985   2.617   1.225   5.556
 3435SOL    HW210986   2.482   1.184   5.502
 3436SOL     OW10987   3.323   1.499   5.074
 3436SOL    HW110988   3.367   1.583   5.083
 3436SOL    HW210989   3.279   1.485   5.158
 3437SOL     OW10990   2.302   0.396   5.217
 3437SOL    HW110991   2.384   0.346   5.218
 3437SOL    HW210992   2.234   0.330   5.229
 3438SOL     OW10993   3.475   0.449   4.461
 3438SOL    HW110994   3.394   0.473   4.416
 3438SOL    HW210995   3.497   0.525   4.514
 3439SOL     OW10996   2.082   1.718   4.198
 3439SOL    HW110997   2.114   1.790   4.252
 3439SOL    HW210998   2.152   1.704   4.133
 3440SOL     OW10999   2.995   1.341   5.416
 3440SOL    HW111000   3.035   1.337   5.503
 3440SOL    HW211001   2.942   1.261   5.410
 3441SOL     OW11002   2.087   1.441   4.260
 3441SOL    HW111003   2.069   1.534   4.269
 3441SOL    HW211004   2.027   1.399   4.322
 3442SOL     OW11005   2.115   1.090   4.613
 3442SOL    HW111006   2.112   1.004   4.656
 3442SOL    HW211007   2.058   1.145   4.667
 3443SOL     OW11008   2.452   0.979   3.855
 3443SOL    HW111009   2.494   1.032   3.788
 3443SOL    HW211010   2.493   1.007   3.937
 3444SOL     OW11011   3.449   0.114   5.199
 3444SOL    HW111012   3.457   0.182   5.132
 3444SOL    HW211013   3.438   0.162   5.281
 3445SOL     OW11014   1.977   0.651   4.283
 3445SOL    HW111015   1.948   0.562   4.305
 3445SOL    HW211016   1.968   0.700   4.365
 3446SOL     OW11017   3.703   1.762   4.061
 3446SOL    HW111018   3.761   1.732   4.131
 3446SOL    HW211019   3.731   1.851   4.044
 3447SOL     OW11020   1.892   1.597   3.848
 3447SOL    HW111021   1.875   1.504   3.866
 3447SOL    HW211022   1.867   1.642   3.928
 3448SOL     OW11023   3.553   0.920   4.361
 3448SOL    HW111024   3.638   0.881   4.342
 3448SOL    HW211025   3.532   0.969   4.282
 3449SOL     OW11026   3.507   1.108   4.153
 3449SOL    HW111027   3.592   1.117   4.111
 3449SOL    HW211028   3.511   1.168   4.228
 3450SOL     OW11029   1.984   0.743   5.311
 3450SOL    HW111030   2.076   0.763   5.326
 3450SOL    HW211031   1.939   0.827   5.316
 3451SOL     OW11032   2.473   1.382   4.447
 3451SOL    HW111033   2.424   1.301   4.460
 3451SOL    HW211034   2.450   1.411   4.359
 3452SOL     OW11035   3.163   1.239   5.155
 3452SOL    HW111036   3.192   1.173   5.092
 3452SOL    HW211037   3.221   1.227   5.230
 3453SOL     OW11038   2.676   0.011   4.267
 3453SOL    HW111039   2.710   0.097   4.245
 3453SOL    HW211040   2.581   0.020   4.261
 3454SOL     OW11041   2.053   0.969   4.993
 3454SOL    HW111042   2.137   0.927   4.978
 3454SOL    HW211043   1.989   0.913   4.949
 3455SOL     OW11044   3.394   0.991   3.920
 3455SOL    HW111045   3.324   0.933   3.950
 3455SOL    HW211046   3.433   1.025   4.001
 3456SOL     OW11047   3.049   1.786   5.336
 3456SOL    HW111048   3.077   1.840   5.262
 3456SOL    HW211049   3.086   1.700   5.318
 3457SOL     OW11050   2.177   0.255   5.506
 3457SOL    HW111051   2.241   0.319   5.537
 3457SOL    HW211052   2.103   0.264   5.566
 3458SOL     OW11053   3.333   1.417   4.676
 3458SOL    HW111054   3.263   1.434   4.739
 3458SOL    HW211055   3.319   1.327   4.648
 3459SOL     OW11056   3.524   1.732   4.301
 3459SOL    HW111057   3.499   1.704   4.213
 3459SOL    HW211058   3.497   1.660   4.358
 3460SOL     OW11059   2.456   0.724   3.988
 3460SOL    HW111060   2.466   0.804   3.936
 3460SOL    HW211061   2.391   0.746   4.055
 3461SOL     OW11062   3.152   0.357   4.658
 3461SOL    HW111063   3.063   0.325   4.644
 3461SOL    HW211064   3.189   0.295   4.721
 3462SOL     OW11065   3.443   1.669   4.033
 3462SOL    HW111066   3.533   1.703   4.027
 3462SOL    HW211067   3.419   1.651   3.942
 3463SOL     OW11068   2.658   0.617   5.179
 3463SOL    HW111069   2.629   0.594   5.267
 3463SOL    HW211070   2.615   0.553   5.122
 3464SOL     OW11071   3.251   0.478   5.400
 3464SOL    HW111072   3.253   0.521   5.485
 3464SOL    HW211073   3.318   0.410   5.407
 3465SOL     OW11074   2.820   0.888   5.304
 3465SOL    HW111075   2.873   0.817   5.270
 3465SOL    HW211076   2.774   0.922   5.227
 3466SOL     OW11077   2.857   0.415   4.963
 3466SOL    HW111078   2.772   0.432   5.004
 3466SOL    HW211079   2.836   0.366   4.884
 3467SOL     OW11080   2.911   0.698   4.152
 3467SOL    HW111081   2.926   0.692   4.246
 3467SOL    HW211082   2.829   0.651   4.137
 3468SOL     OW11083   1.950   0.819   4.500
 3468SOL    HW111084   2.033   0.813   4.549
 3468SOL    HW211085   1.909   0.899   4.534
 3469SOL     OW11086   2.716   0.367   3.902
 3469SOL    HW111087   2.792   0.404   3.856
 3469SOL    HW211088   2.734   0.273   3.908
 3470SOL     OW11089   3.570   0.576   5.552
 3470SOL    HW111090   3.535   0.654   5.508
 3470SOL    HW211091   3.600   0.520   5.481
 3471SOL     OW11092   3.237   1.143   4.267
 3471SOL    HW111093   3.315   1.128   4.213
 3471SOL    HW211094   3.184   1.204   4.216
 3472SOL     OW11095   2.402   0.201   4.625
 3472SOL    HW111096   2.421   0.218   4.717
 3472SOL    HW211097   2.393   0.288   4.585
 3473SOL     OW11098   2.871   1.446   4.197
 3473SOL    HW111099   2.830   1.518   4.149
 3473SOL    HW211100   2.856   1.467   4.289
 3474SOL     OW11101   3.659   1.062   4.591
 3474SOL    HW111102   3.602   1.044   4.516
 3474SOL    HW211103   3.600   1.066   4.666
 3475SOL     OW11104   3.114   1.531   5.259
 3475SOL    HW111105   3.092   1.455   5.312
 3475SOL    HW211106   3.075   1.513   5.173
 3476SOL     OW11107   2.184   0.955   3.971
 3476SOL    HW111108   2.266   0.974   3.926
 3476SOL    HW211109   2.153   0.873   3.932
 3477SOL     OW11110   3.339   0.738   4.449
 3477SOL    HW111111   3.323   0.692   4.532
 3477SOL    HW211112   3.413   0.796   4.467
 3478SOL     OW11113   2.329   1.266   5.456
 3478SOL    HW111114   2.295   1.270   5.366
 3478SOL    HW211115   2.250   1.266   5.511
 3479SOL     OW11116   2.982   1.778   3.955
 3479SOL    HW111117   2.912   1.734   4.003
 3479SOL    HW211118   3.003   1.718   3.884
 3480SOL     OW11119   2.051   0.268   5.232
 3480SOL    HW111120   1.986   0.335   5.214
 3480SOL    HW211121   2.059   0.266   5.327
 3481SOL     OW11122   3.492   1.379   3.810
 3481SOL    HW111123   3.451   1.464   3.796
 3481SOL    HW211124   3.422   1.315   3.793
 3482SOL     OW11125   2.329   1.739   4.044
 3482SOL    HW111126   2.371   1.793   4.110
 3482SOL    HW211127   2.401   1.708   3.988
 3483SOL     OW11128   3.277   0.130   4.143
 3483SOL    HW111129   3.260   0.084   4.061
 3483SOL    HW211130   3.373   0.129   4.151
 3484SOL     OW11131   2.802   1.696   4.617
 3484SOL    HW111132   2.869   1.634   4.646
 3484SOL    HW211133   2.752   1.648   4.551
 3485SOL     OW11134   2.252   0.695   4.201
 3485SOL    HW111135   2.277   0.603   4.211
 3485SOL    HW211136   2.158   0.697   4.221
 3486SOL     OW11137   3.389   0.232   5.446
 3486SOL    HW111138   3.387   0.257   5.538
 3486SOL    HW211139   3.314   0.174   5.435
 3487SOL     OW11140   2.485   0.122   3.844
 3487SOL    HW111141   2.574   0.088   3.853
 3487SOL    HW211142   2.454   0.089   3.760
 3488SOL     OW11143   2.633   0.270   5.476
 3488SOL    HW111144   2.697   0.201   5.495
 3488SOL    HW211145   2.583   0.280   5.557
 3489SOL     OW11146   3.205   0.589   5.153
 3489SOL    HW111147   3.232   0.559   5.240
 3489SOL    HW211148   3.238   0.678   5.147
 3490SOL     OW11149   2.687   1.332   4.607
 3490SOL    HW111150   2.769   1.370   4.578
 3490SOL    HW211151   2.622   1.365   4.545
 3491SOL     OW11152   2.783   0.514   4.627
 3491SOL    HW111153   2.767   0.512   4.532
 3491SOL    HW211154   2.826   0.430   4.645
 3492SOL     OW11155   2.414   0.070   4.242
 3492SOL    HW111156   2.324   0.050   4.268
 3492SOL    HW211157   2.406   0.141   4.178
 3493SOL     OW11158   3.291   1.197   3.765
 3493SOL    HW111159   3.321   1.122   3.815
 3493SOL    HW211160   3.205   1.217   3.803
 3494SOL     OW11161   2.158   0.071   3.914
 3494SOL    HW111162   2.236   0.124   3.896
 3494SOL    HW211163   2.190   4.499   3.969
 3495SOL     OW11164   2.811   0.240   4.197
 3495SOL    HW111165   2.759   0.288   4.132
 3495SOL    HW211166   2.900   0.275   4.187
 3496SOL     OW11167   2.942   0.679   5.187
 3496SOL    HW111168   2.869   0.616   5.187
 3496SOL    HW211169   3.020   0.625   5.173
 3497SOL     OW11170   3.093   1.570   4.511
 3497SOL    HW111171   3.113   1.643   4.453
 3497SOL    HW211172   3.152   1.584   4.586
 3498SOL     OW11173   2.328   1.148   4.461
 3498SOL    HW111174   2.257   1.130   4.522
 3498SOL    HW211175   2.290   1.129   4.375
 3499SOL     OW11176   3.135   1.795   4.328
 3499SOL    HW111177   3.176   1.860   4.270
 3499SOL    HW211178   3.066   1.844   4.373
 3500SOL     OW11179   2.893   0.550   3.738
 3500SOL    HW111180   2.846   0.631   3.722
 3500SOL    HW211181   2.951   0.569   3.812
 3501SOL     OW11182   1.941   0.552   5.118
 3501SOL    HW111183   2.031   0.554   5.087
 3501SOL    HW211184   1.935   0.624   5.181
 3502SOL     OW11185   2.426   0.240   4.888
 3502SOL    HW111186   2.455   0.157   4.925
 3502SOL    HW211187   2.335   0.248   4.914
 3503SOL     OW11188   2.728   0.499   4.351
 3503SOL    HW111189   2.676   0.542   4.283
 3503SOL    HW211190   2.715   0.405   4.335
 3504SOL     OW11191   2.834   0.033   4.497
 3504SOL    HW111192   2.785   0.028   4.415
 3504SOL    HW211193   2.842   4.442   4.526
 3505SOL     OW11194   3.301   1.161   4.582
 3505SOL    HW111195   3.227   1.100   4.584
 3505SOL    HW211196   3.317   1.176   4.489
 3506SOL     OW11197   3.330   0.601   4.704
 3506SOL    HW111198   3.280   0.520   4.708
 3506SOL    HW211199   3.389   0.597   4.779
 3507SOL     OW11200   3.711   0.819   4.105
 3507SOL    HW111201   3.765   0.767   4.163
 3507SOL    HW211202   3.680   0.758   4.038
 3508SOL     OW11203   2.353   1.414   3.886
 3508SOL    HW111204   2.279   1.384   3.937
 3508SOL    HW211205   2.333   1.387   3.796
 3509SOL     OW11206   3.531   1.266   4.370
 3509SOL    HW111207   3.625   1.273   4.386
 3509SOL    HW211208   3.496   1.353   4.395
 3510SOL     OW11209   3.256   0.569   3.794
 3510SOL    HW111210   3.195   0.554   3.866
 3510SOL    HW211211   3.342   0.548   3.830
 3511SOL     OW11212   2.387   0.265   4.049
 3511SOL    HW111213   2.428   0.212   3.981
 3511SOL    HW211214   2.372   0.350   4.007
 3512SOL     OW11215   3.616   1.236   5.302
 3512SOL    HW111216   3.703   1.197   5.298
 3512SOL    HW211217   3.631   1.325   5.331
 3513SOL     OW11218   2.928   1.298   5.045
 3513SOL    HW111219   2.850   1.289   5.100
 3513SOL    HW211220   3.001   1.275   5.102
 3514SOL     OW11221   3.468   1.626   5.374
 3514SOL    HW111222   3.466   1.660   5.285
 3514SOL    HW211223   3.551   1.579   5.381
 3515SOL     OW11224   2.985   1.180   4.814
 3515SOL    HW111225   2.941   1.223   4.887
 3515SOL    HW211226   2.957   1.230   4.737
 3516SOL     OW11227   3.493   1.100   4.803
 3516SOL    HW111228   3.488   1.163   4.875
 3516SOL    HW211229   3.414   1.114   4.752
 3517SOL     OW11230   2.767   0.129   5.115
 3517SOL    HW111231   2.790   0.086   5.032
 3517SOL    HW211232   2.851   0.142   5.159
 3518SOL     OW11233   2.848   1.112   5.444
 3518SOL    HW111234   2.756   1.129   5.464
 3518SOL    HW211235   2.847   1.035   5.388
 3519SOL     OW11236   2.570   1.060   4.096
 3519SOL    HW111237   2.556   1.047   4.190
 3519SOL    HW211238   2.646   1.006   4.075
 3520SOL     OW11239   2.277   0.815   4.977
 3520SOL    HW111240   2.349   0.824   5.040
 3520SOL    HW211241   2.244   0.726   4.991
 3521SOL     OW11242   3.132   0.377   4.995
 3521SOL    HW111243   3.163   0.455   5.040
 3521SOL    HW211244   3.043   0.400   4.966
 3522SOL     OW11245   2.215   1.105   4.216
 3522SOL    HW111246   2.219   1.179   4.155
 3522SOL    HW211247   2.215   1.028   4.160
 3523SOL     OW11248   2.421   0.533   4.583
 3523SOL    HW111249   2.436   0.591   4.509
 3523SOL    HW211250   2.481   0.564   4.651
 3524SOL     OW11251   3.110   1.348   4.113
 3524SOL    HW111252   3.165   1.419   4.144
 3524SOL    HW211253   3.023   1.367   4.147
 3525SOL     OW11254   3.144   1.442   4.863
 3525SOL    HW111255   3.195   1.452   4.943
 3525SOL    HW211256   3.080   1.374   4.883
 3526SOL     OW11257   3.445   0.626   4.198
 3526SOL    HW111258   3.401   0.678   4.265
 3526SOL    HW211259   3.489   0.690   4.143
 3527SOL     OW11260   2.274   0.743   5.325
 3527SOL    HW111261   2.334   0.791   5.267
 3527SOL    HW211262   2.319   0.661   5.343
 3528SOL     OW11263   3.459   0.777   5.402
 3528SOL    HW111264   3.373   0.817   5.395
 3528SOL    HW211265   3.511   0.819   5.334
 3529SOL     OW11266   2.870   0.086   5.453
 3529SOL    HW111267   2.889   0.171   5.413
 3529SOL    HW211268   2.896   0.022   5.386
 3530SOL     OW11269   2.361   0.050   5.479
 3530SOL    HW111270   2.348   0.001   5.398
 3530SOL    HW211271   2.293   0.116   5.479
 3531SOL     OW11272   2.443   0.873   4.754
 3531SOL    HW111273   2.480   0.961   4.751
 3531SOL    HW211274   2.388   0.872   4.832
 3532SOL     OW11275   3.225   0.858   4.760
 3532SOL    HW111276   3.143   0.857   4.711
 3532SOL    HW211277   3.258   0.769   4.754
 3533SOL     OW11278   3.070   0.534   3.991
 3533SOL    HW111279   3.075   0.453   4.042
 3533SOL    HW211280   3.027   0.597   4.049
 3534SOL     OW11281   2.152   0.236   4.964
 3534SOL    HW111282   2.113   0.251   5.050
 3534SOL    HW211283   2.180   0.144   4.967
 3535SOL     OW11284   1.902   1.324   5.015
 3535SOL    HW111285   1.941   1.261   5.076
 3535SOL    HW211286   1.957   1.402   5.021
 3536SOL     OW11287   2.587   0.632   4.784
 3536SOL    HW111288   2.659   0.612   4.725
 3536SOL    HW211289   2.561   0.722   4.761
 3537SOL     OW11290   3.595   0.959   5.575
 3537SOL    HW111291   3.546   0.905   5.512
 3537SOL    HW211292   3.535   0.970   5.648
 3538SOL     OW11293   2.161   0.061   4.377
 3538SOL    HW111294   2.151   0.156   4.382
 3538SOL    HW211295   2.173   0.032   4.467
 3539SOL     OW11296   3.472   0.374   4.091
 3539SOL    HW111297   3.504   0.312   4.156
 3539SOL    HW211298   3.450   0.452   4.141
 3540SOL     OW11299   2.890   0.760   4.686
 3540SOL    HW111300   2.890   0.778   4.780
 3540SOL    HW211301   2.861   0.669   4.679
 3541SOL     OW11302   2.835   1.562   5.441
 3541SOL    HW111303   2.842   1.618   5.364
 3541SOL    HW211304   2.881   1.482   5.416
 3542SOL     OW11305   3.718   1.509   5.330
 3542SOL    HW111306   3.734   1.535   5.239
 3542SOL    HW211307   3.800   1.531   5.376
 3543SOL     OW11308   2.214   0.917   5.529
 3543SOL    HW111309   2.295   0.935   5.576
 3543SOL    HW211310   2.240   0.854   5.462
 3544SOL     OW11311   3.395   0.268   3.852
 3544SOL    HW111312   3.323   0.211   3.879
 3544SOL    HW211313   3.422   0.312   3.932
 3545SOL     OW11314   3.157   0.827   3.757
 3545SOL    HW111315   3.198   0.741   3.760
 3545SOL    HW211316   3.187   0.866   3.674
 3546SOL     OW11317   2.957   1.332   4.575
 3546SOL    HW111318   2.949   1.262   4.511
 3546SOL    HW211319   3.012   1.398   4.532
 3547SOL     OW11320   2.172   0.810   4.673
 3547SOL    HW111321   2.265   0.834   4.667
 3547SOL    HW211322   2.173   0.721   4.708
 3548SOL     OW11323   2.200   0.527   4.736
 3548SOL    HW111324   2.157   0.444   4.717
 3548SOL    HW211325   2.275   0.531   4.677
 3549SOL     OW11326   2.997   0.375   5.416
 3549SOL    HW111327   2.950   0.440   5.468
 3549SOL    HW211328   3.084   0.414   5.402
 3550SOL     OW11329   3.023   0.210   5.198
 3550SOL    HW111330   3.014   0.274   5.268
 3550SOL    HW211331   3.056   0.261   5.123
 3551SOL     OW11332   1.867   1.323   3.918
 3551SOL    HW111333   1.780   1.336   3.882
 3551SOL    HW211334   1.866   1.233   3.952
 3552SOL     OW11335   2.852   0.793   4.953
 3552SOL    HW111336   2.903   0.768   5.030
 3552SOL    HW211337   2.764   0.759   4.970
 3553SOL     OW11338   1.896   0.541   4.842
 3553SOL    HW111339   1.975   0.523   4.791
 3553SOL    HW211340   1.927   0.549   4.932
 3554SOL     OW11341   2.047   0.517   5.443
 3554SOL    HW111342   2.119   0.495   5.384
 3554SOL    HW211343   2.004   0.591   5.403
 3555SOL     OW11344   3.238   0.941   5.384
 3555SOL    HW111345   3.259   1.035   5.384
 3555SOL    HW211346   3.235   0.918   5.291
 3556SOL     OW11347   2.674   0.572   4.076
 3556SOL    HW111348   2.676   0.500   4.013
 3556SOL    HW211349   2.599   0.625   4.049
 3557SOL     OW11350   3.504   0.601   4.914
 3557SOL    HW111351   3.493   0.540   4.987
 3557SOL    HW211352   3.591   0.581   4.879
 3558SOL     OW11353   2.553   0.460   4.990
 3558SOL    HW111354   2.509   0.382   4.955
 3558SOL    HW211355   2.557   0.520   4.915
 3559SOL     OW11356   2.330   0.493   3.909
 3559SOL    HW111357   2.387   0.567   3.930
 3559SOL    HW211358   2.243   0.533   3.902
 3560SOL     OW11359   2.014   1.142   5.194
 3560SOL    HW111360   2.019   1.089   5.273
 3560SOL    HW211361   2.029   1.079   5.122
 3561SOL     OW11362   3.190   1.050   4.950
 3561SOL    HW111363   3.217   0.988   4.883
 3561SOL    HW211364   3.116   1.097   4.912
 3562SOL     OW11365   3.172   0.856   4.031
 3562SOL    HW111366   3.095   0.828   4.081
 3562SOL    HW211367   3.146   0.843   3.939
 3563SOL     OW11368   3.633   1.746   4.875
 3563SOL    HW111369   3.690   1.772   4.802
 3563SOL    HW211370   3.606   1.657   4.853
 3564SOL     OW11371   1.950   1.251   4.753
 3564SOL    HW111372   1.921   1.271   4.842
 3564SOL    HW211373   1.871   1.218   4.709
 3565SOL     OW11374   3.580   0.130   4.222
 3565SOL    HW111375   3.654   0.134   4.163
 3565SOL    HW211376   3.598   0.056   4.280
 3566SOL     OW11377   3.252   1.567   4.205
 3566SOL    HW111378   3.312   1.600   4.138
 3566SOL    HW211379   3.205   1.645   4.235
 3567SOL     OW11380   3.139   0.924   4.394
 3567SOL    HW111381   3.213   0.863   4.398
 3567SOL    HW211382   3.173   0.998   4.344
 3568SOL     OW11383   2.682   1.271   5.160
 3568SOL    HW111384   2.649   1.310   5.241
 3568SOL    HW211385   2.615   1.292   5.095
 3569SOL     OW11386   2.532   1.618   3.879
 3569SOL    HW111387   2.543   1.627   3.785
 3569SOL    HW211388   2.481   1.538   3.890
 3570SOL     OW11389   3.497   1.726   5.117
 3570SOL    HW111390   3.543   1.734   5.033
 3570SOL    HW211391   3.482   1.816   5.145
 3571SOL     OW11392   3.701   0.156   4.692
 3571SOL    HW111393   3.731   0.081   4.640
 3571SOL    HW211394   3.614   0.175   4.656
 3572SOL     OW11395   2.129   0.325   4.444
 3572SOL    HW111396   2.044   0.359   4.415
 3572SOL    HW211397   2.120   0.314   4.539
 3573SOL     OW11398   3.068   1.608   3.755
 3573SOL    HW111399   3.060   1.517   3.783
 3573SOL    HW211400   3.002   1.617   3.685
 3574SOL     OW11401   2.688   1.006   5.094
 3574SOL    HW111402   2.728   1.004   5.007
 3574SOL    HW211403   2.689   1.098   5.120
 3575SOL     OW11404   2.776   0.909   4.012
 3575SOL    HW111405   2.840   0.941   3.948
 3575SOL    HW211406   2.823   0.839   4.058
 3576SOL     OW11407   3.358   1.624   3.766
 3576SOL    HW111408   3.263   1.621   3.756
 3576SOL    HW211409   3.391   1.630   3.677
 3577SOL     OW11410   2.231   1.309   5.211
 3577SOL    HW111411   2.202   1.389   5.167
 3577SOL    HW211412   2.159   1.247   5.196
 3578SOL     OW11413   3.475   1.284   5.005
 3578SOL    HW111414   3.531   1.278   5.083
 3578SOL    HW211415   3.412   1.353   5.027
 3579SOL     OW11416   2.910   1.106   4.423
 3579SOL    HW111417   2.839   1.059   4.469
 3579SOL    HW211418   2.969   1.036   4.395
 3580SOL     OW11419   2.870   0.241   4.719
 3580SOL    HW111420   2.878   0.210   4.628
 3580SOL    HW211421   2.864   0.160   4.771
 3581SOL     OW11422   2.462   1.494   4.199
 3581SOL    HW111423   2.502   1.438   4.132
 3581SOL    HW211424   2.394   1.542   4.152
 3582SOL     OW11425   3.581   0.392   5.102
 3582SOL    HW111426   3.653   0.456   5.100
 3582SOL    HW211427   3.610   0.321   5.046
 3583SOL     OW11428   2.120   1.349   4.012
 3583SOL    HW111429   2.027   1.345   3.989
 3583SOL    HW211430   2.121   1.384   4.101
 3584SOL     OW11431   1.973   1.021   5.443
 3584SOL    HW111432   1.897   0.995   5.497
 3584SOL    HW211433   2.048   0.985   5.489
 3585SOL     OW11434   2.522   0.203   5.220
 3585SOL    HW111435   2.602   0.179   5.174
 3585SOL    HW211436   2.550   0.221   5.309
 3586SOL     OW11437   1.942   0.344   3.769
 3586SOL    HW111438   1.869   0.294   3.733
 3586SOL    HW211439   1.959   0.412   3.705
 3587SOL     OW11440   3.295   0.859   5.126
 3587SOL    HW111441   3.244   0.917   5.068
 3587SOL    HW211442   3.384   0.862   5.091
 3588SOL     OW11443   1.928   0.179   4.047
 3588SOL    HW111444   1.924   0.246   3.979
 3588SOL    HW211445   2.004   0.125   4.023
 3589SOL     OW11446   3.042   1.342   3.841
 3589SOL    HW111447   2.951   1.311   3.845
 3589SOL    HW211448   3.071   1.342   3.932
 3590SOL     OW11449   2.480   0.832   5.156
 3590SOL    HW111450   2.535   0.909   5.141
 3590SOL    HW211451   2.543   0.759   5.164
 3591SOL     OW11452   3.350   1.774   4.680
 3591SOL    HW111453   3.393   1.834   4.618
 3591SOL    HW211454   3.415   1.762   4.749
 3592SOL     OW11455   2.578   0.564   5.431
 3592SOL    HW111456   2.612   0.630   5.492
 3592SOL    HW211457   2.617   0.482   5.460
 3593SOL     OW11458   3.334   1.202   5.361
 3593SOL    HW111459   3.322   1.215   5.455
 3593SOL    HW211460   3.428   1.214   5.347
 3594SOL     OW11461   3.534   0.882   4.980
 3594SOL    HW111462   3.523   0.797   4.936
 3594SOL    HW211463   3.525   0.946   4.909
 3595SOL     OW11464   3.080   0.327   4.172
 3595SOL    HW111465   3.145   0.257   4.164
 3595SOL    HW211466   3.106   0.374   4.251
 3596SOL     OW11467   2.451   0.740   4.391
 3596SOL    HW111468   2.493   0.825   4.377
 3596SOL    HW211469   2.382   0.735   4.326
 3597SOL     OW11470   3.629   0.360   5.367
 3597SOL    HW111471   3.612   0.374   5.273
 3597SOL    HW211472   3.550   0.316   5.399
 3598SOL     OW11473   3.606   0.933   5.237
 3598SOL    HW111474   3.608   1.028   5.250
 3598SOL    HW211475   3.591   0.922   5.143
 3599SOL     OW11476   2.723   1.369   3.752
 3599SOL    HW111477   2.686   1.392   3.837
 3599SOL    HW211478   2.744   1.452   3.711
 3600SOL     OW11479   2.525   1.824   4.639
 3600SOL    HW111480   2.514   1.913   4.671
 3600SOL    HW211481   2.615   1.802   4.661
 3601SOL     OW11482   2.729   0.964   4.579
 3601SOL    HW111483   2.781   0.895   4.620
 3601SOL    HW211484   2.697   1.017   4.652
 3602SOL     OW11485   2.943   0.988   3.812
 3602SOL    HW111486   2.920   1.038   3.734
 3602SOL    HW211487   3.018   0.935   3.787
 3603SOL     OW11488   3.719   1.556   4.569
 3603SOL    HW111489   3.641   1.546   4.514
 3603SOL    HW211490   3.709   1.489   4.637
 3604SOL     OW11491   2.086   1.301   5.576
 3604SOL    HW111492   2.020   1.235   5.553
 3604SOL    HW211493   2.064   1.326   5.666
 3605SOL     OW11494   1.944   1.227   4.380
 3605SOL    HW111495   1.951   1.188   4.467
 3605SOL    HW211496   2.020   1.192   4.333
 3606SOL     OW11497   2.535   1.408   5.342
 3606SOL    HW111498   2.465   1.356   5.379
 3606SOL    HW211499   2.534   1.490   5.392
 3607SOL     OW11500   3.673   0.184   4.963
 3607SOL    HW111501   3.673   0.091   4.984
 3607SOL    HW211502   3.688   0.187   4.868
 3608SOL     OW11503   2.296   0.433   4.251
 3608SOL    HW111504   2.320   0.363   4.191
 3608SOL    HW211505   2.243   0.390   4.318
 3609SOL     OW11506   3.563   1.491   4.825
 3609SOL    HW111507   3.482   1.467   4.780
 3609SOL    HW211508   3.576   1.422   4.890
 3610SOL     OW11509   2.188   0.554   5.014
 3610SOL    HW111510   2.245   0.498   5.069
 3610SOL    HW211511   2.210   0.528   4.925
 3611SOL     OW11512   2.685   1.571   4.405
 3611SOL    HW111513   2.677   1.613   4.319
 3611SOL    HW211514   2.603   1.524   4.416
 3612SOL     OW11515   3.294   0.215   4.842
 3612SOL    HW111516   3.332   0.146   4.896
 3612SOL    HW211517   3.243   0.268   4.903
 3613SOL     OW11518   2.860   0.014   4.872
 3613SOL    HW111519   2.813   4.430   4.862
 3613SOL    HW211520   2.951   4.489   4.885
 3614SOL     OW11521   2.634   1.331   4.032
 3614SOL    HW111522   2.599   1.243   4.040
 3614SOL    HW211523   2.715   1.331   4.083
 3615SOL     OW11524   3.205   0.054   3.875
 3615SOL    HW111525   3.245   4.480   3.830
 3615SOL    HW211526   3.130   0.017   3.921
 3616SOL     OW11527   3.176   0.462   4.405
 3616SOL    HW111528   3.114   0.535   4.406
 3616SOL    HW211529   3.164   0.419   4.490
 3617SOL     OW11530   3.448   0.203   4.591
 3617SOL    HW111531   3.386   0.217   4.663
 3617SOL    HW211532   3.451   0.287   4.546
 3618SOL     OW11533   1.905   1.073   4.027
 3618SOL    HW111534   1.999   1.064   4.012
 3618SOL    HW211535   1.876   0.986   4.051
 3619SOL     OW11536   2.744   1.649   4.067
 3619SOL    HW111537   2.671   1.631   4.008
 3619SOL    HW211538   2.714   1.725   4.118
 3620SOL     OW11539   2.092   0.628   5.705
 3620SOL    HW111540   2.004   0.621   5.742
 3620SOL    HW211541   2.084   0.595   5.616
 3621SOL     OW11542   2.072   0.295   6.574
 3621SOL    HW111543   2.103   0.269   6.661
 3621SOL    HW211544   1.990   0.247   6.563
 3622SOL     OW11545   1.871   0.383   6.226
 3622SOL    HW111546   1.785   0.404   6.262
 3622SOL    HW211547   1.856   0.308   6.169
 3623SOL     OW11548   2.435   1.278   6.760
 3623SOL    HW111549   2.347   1.270   6.723
 3623SOL    HW211550   2.441   1.369   6.788
 3624SOL     OW11551   3.419   1.511   6.291
 3624SOL    HW111552   3.375   1.494   6.375
 3624SOL    HW211553   3.347   1.517   6.228
 3625SOL     OW11554   2.993   0.700   6.288
 3625SOL    HW111555   3.042   0.782   6.277
 3625SOL    HW211556   2.944   0.713   6.370
 3626SOL     OW11557   3.626   0.609   5.816
 3626SOL    HW111558   3.607   0.598   5.723
 3626SOL    HW211559   3.594   0.528   5.857
 3627SOL     OW11560   2.625   1.146   6.621
 3627SOL    HW111561   2.557   1.178   6.679
 3627SOL    HW211562   2.655   1.223   6.573
 3628SOL     OW11563   2.723   0.782   7.407
 3628SOL    HW111564   2.712   0.853   7.470
 3628SOL    HW211565   2.747   0.825   7.325
 3629SOL     OW11566   2.548   1.006   6.236
 3629SOL    HW111567   2.613   0.992   6.305
 3629SOL    HW211568   2.478   1.056   6.279
 3630SOL     OW11569   2.569   1.152   7.394
 3630SOL    HW111570   2.616   1.231   7.418
 3630SOL    HW211571   2.484   1.184   7.362
 3631SOL     OW11572   3.323   1.498   6.935
 3631SOL    HW111573   3.366   1.583   6.946
 3631SOL    HW211574   3.271   1.487   7.015
 3632SOL     OW11575   2.303   0.396   7.078
 3632SOL    HW111576   2.384   0.346   7.080
 3632SOL    HW211577   2.234   0.331   7.091
 3633SOL     OW11578   3.475   0.448   6.324
 3633SOL    HW111579   3.394   0.473   6.278
 3633SOL    HW211580   3.497   0.525   6.376
 3634SOL     OW11581   2.997   1.341   7.277
 3634SOL    HW111582   3.037   1.337   7.364
 3634SOL    HW211583   2.944   1.261   7.272
 3635SOL     OW11584   2.116   1.089   6.477
 3635SOL    HW111585   2.111   1.003   6.519
 3635SOL    HW211586   2.057   1.144   6.528
 3636SOL     OW11587   2.475   1.790   7.015
 3636SOL    HW111588   2.394   1.773   7.062
 3636SOL    HW211589   2.500   1.879   7.039
 3637SOL     OW11590   2.452   0.978   5.717
 3637SOL    HW111591   2.492   1.032   5.650
 3637SOL    HW211592   2.492   1.007   5.799
 3638SOL     OW11593   3.448   0.114   7.061
 3638SOL    HW111594   3.457   0.182   6.994
 3638SOL    HW211595   3.437   0.162   7.143
 3639SOL     OW11596   1.977   0.651   6.145
 3639SOL    HW111597   1.948   0.562   6.167
 3639SOL    HW211598   1.968   0.699   6.227
 3640SOL     OW11599   3.703   1.761   5.924
 3640SOL    HW111600   3.762   1.732   5.993
 3640SOL    HW211601   3.731   1.851   5.905
 3641SOL     OW11602   3.553   0.921   6.224
 3641SOL    HW111603   3.638   0.880   6.205
 3641SOL    HW211604   3.532   0.969   6.144
 3642SOL     OW11605   3.507   1.108   6.015
 3642SOL    HW111606   3.592   1.117   5.972
 3642SOL    HW211607   3.511   1.168   6.090
 3643SOL     OW11608   1.983   0.742   7.172
 3643SOL    HW111609   2.075   0.764   7.189
 3643SOL    HW211610   1.937   0.826   7.178
 3644SOL     OW11611   2.514   1.338   6.305
 3644SOL    HW111612   2.450   1.268   6.321
 3644SOL    HW211613   2.486   1.377   6.222
 3645SOL     OW11614   3.153   1.239   7.010
 3645SOL    HW111615   3.185   1.171   6.951
 3645SOL    HW211616   3.208   1.231   7.088
 3646SOL     OW11617   2.676   0.011   6.130
 3646SOL    HW111618   2.710   0.097   6.107
 3646SOL    HW211619   2.581   0.020   6.123
 3647SOL     OW11620   2.055   0.970   6.855
 3647SOL    HW111621   2.138   0.925   6.839
 3647SOL    HW211622   1.989   0.914   6.813
 3648SOL     OW11623   3.394   0.990   5.782
 3648SOL    HW111624   3.324   0.933   5.811
 3648SOL    HW211625   3.433   1.024   5.863
 3649SOL     OW11626   3.046   1.803   7.205
 3649SOL    HW111627   3.064   1.860   7.130
 3649SOL    HW211628   3.062   1.714   7.172
 3650SOL     OW11629   2.177   0.255   7.368
 3650SOL    HW111630   2.241   0.319   7.400
 3650SOL    HW211631   2.103   0.264   7.427
 3651SOL     OW11632   3.330   1.418   6.542
 3651SOL    HW111633   3.261   1.431   6.608
 3651SOL    HW211634   3.318   1.328   6.512
 3652SOL     OW11635   3.522   1.733   6.163
 3652SOL    HW111636   3.500   1.703   6.075
 3652SOL    HW211637   3.498   1.659   6.219
 3653SOL     OW11638   2.456   0.724   5.850
 3653SOL    HW111639   2.466   0.804   5.798
 3653SOL    HW211640   2.391   0.746   5.916
 3654SOL     OW11641   3.151   0.357   6.521
 3654SOL    HW111642   3.063   0.325   6.505
 3654SOL    HW211643   3.189   0.295   6.583
 3655SOL     OW11644   3.443   1.670   5.893
 3655SOL    HW111645   3.533   1.702   5.887
 3655SOL    HW211646   3.419   1.650   5.802
 3656SOL     OW11647   2.658   0.618   7.041
 3656SOL    HW111648   2.629   0.594   7.129
 3656SOL    HW211649   2.615   0.553   6.984
 3657SOL     OW11650   3.252   0.478   7.262
 3657SOL    HW111651   3.253   0.521   7.348
 3657SOL    HW211652   3.318   0.409   7.269
 3658SOL     OW11653   2.821   0.889   7.166
 3658SOL    HW111654   2.874   0.817   7.133
 3658SOL    HW211655   2.773   0.921   7.090
 3659SOL     OW11656   2.857   0.417   6.825
 3659SOL    HW111657   2.772   0.431   6.866
 3659SOL    HW211658   2.837   0.365   6.746
 3660SOL     OW11659   2.911   0.698   6.014
 3660SOL    HW111660   2.926   0.691   6.108
 3660SOL    HW211661   2.829   0.651   5.999
 3661SOL     OW11662   1.951   0.819   6.362
 3661SOL    HW111663   2.032   0.812   6.411
 3661SOL    HW211664   1.908   0.897   6.397
 3662SOL     OW11665   1.990   1.825   7.159
 3662SOL    HW111666   1.984   1.815   7.254
 3662SOL    HW211667   1.904   1.857   7.133
 3663SOL     OW11668   2.716   0.368   5.765
 3663SOL    HW111669   2.791   0.404   5.718
 3663SOL    HW211670   2.734   0.274   5.770
 3664SOL     OW11671   3.569   0.576   7.414
 3664SOL    HW111672   3.535   0.654   7.370
 3664SOL    HW211673   3.600   0.520   7.343
 3665SOL     OW11674   3.237   1.143   6.128
 3665SOL    HW111675   3.315   1.127   6.075
 3665SOL    HW211676   3.185   1.205   6.077
 3666SOL     OW11677   2.402   0.201   6.487
 3666SOL    HW111678   2.421   0.218   6.579
 3666SOL    HW211679   2.394   0.288   6.447
 3667SOL     OW11680   2.865   1.445   6.059
 3667SOL    HW111681   2.837   1.527   6.018
 3667SOL    HW211682   2.861   1.463   6.153
 3668SOL     OW11683   3.659   1.062   6.453
 3668SOL    HW111684   3.603   1.043   6.378
 3668SOL    HW211685   3.600   1.066   6.528
 3669SOL     OW11686   3.089   1.540   7.099
 3669SOL    HW111687   3.076   1.467   7.158
 3669SOL    HW211688   3.031   1.522   7.025
 3670SOL     OW11689   2.183   0.954   5.833
 3670SOL    HW111690   2.265   0.975   5.789
 3670SOL    HW211691   2.154   0.872   5.792
 3671SOL     OW11692   3.338   0.739   6.312
 3671SOL    HW111693   3.324   0.691   6.393
 3671SOL    HW211694   3.414   0.794   6.329
 3672SOL     OW11695   2.326   1.264   7.323
 3672SOL    HW111696   2.298   1.267   7.231
 3672SOL    HW211697   2.245   1.262   7.373
 3673SOL     OW11698   3.006   1.689   5.864
 3673SOL    HW111699   2.930   1.747   5.874
 3673SOL    HW211700   3.024   1.691   5.770
 3674SOL     OW11701   2.052   0.268   7.094
 3674SOL    HW111702   1.985   0.335   7.076
 3674SOL    HW211703   2.059   0.266   7.189
 3675SOL     OW11704   3.491   1.379   5.673
 3675SOL    HW111705   3.450   1.464   5.657
 3675SOL    HW211706   3.423   1.315   5.655
 3676SOL     OW11707   3.277   0.130   6.005
 3676SOL    HW111708   3.260   0.084   5.923
 3676SOL    HW211709   3.373   0.129   6.013
 3677SOL     OW11710   2.100   1.780   6.828
 3677SOL    HW111711   2.167   1.727   6.871
 3677SOL    HW211712   2.113   1.764   6.734
 3678SOL     OW11713   2.252   0.695   6.064
 3678SOL    HW111714   2.277   0.603   6.073
 3678SOL    HW211715   2.158   0.696   6.083
 3679SOL     OW11716   3.388   0.232   7.308
 3679SOL    HW111717   3.387   0.257   7.401
 3679SOL    HW211718   3.314   0.173   7.297
 3680SOL     OW11719   2.485   0.123   5.706
 3680SOL    HW111720   2.574   0.088   5.715
 3680SOL    HW211721   2.454   0.089   5.622
 3681SOL     OW11722   2.633   0.271   7.338
 3681SOL    HW111723   2.696   0.202   7.357
 3681SOL    HW211724   2.582   0.279   7.419
 3682SOL     OW11725   2.737   1.520   6.778
 3682SOL    HW111726   2.724   1.485   6.690
 3682SOL    HW211727   2.807   1.467   6.815
 3683SOL     OW11728   3.204   0.589   7.016
 3683SOL    HW111729   3.232   0.558   7.102
 3683SOL    HW211730   3.239   0.678   7.010
 3684SOL     OW11731   2.675   1.404   6.520
 3684SOL    HW111732   2.760   1.391   6.478
 3684SOL    HW211733   2.612   1.397   6.449
 3685SOL     OW11734   2.784   0.515   6.488
 3685SOL    HW111735   2.767   0.512   6.394
 3685SOL    HW211736   2.825   0.430   6.507
 3686SOL     OW11737   2.414   0.072   6.105
 3686SOL    HW111738   2.324   0.050   6.129
 3686SOL    HW211739   2.405   0.141   6.040
 3687SOL     OW11740   3.291   1.198   5.629
 3687SOL    HW111741   3.321   1.121   5.679
 3687SOL    HW211742   3.204   1.217   5.664
 3688SOL     OW11743   2.158   0.072   5.776
 3688SOL    HW111744   2.237   0.124   5.758
 3688SOL    HW211745   2.189   4.499   5.830
 3689SOL     OW11746   2.811   0.240   6.059
 3689SOL    HW111747   2.759   0.287   5.994
 3689SOL    HW211748   2.899   0.275   6.049
 3690SOL     OW11749   2.942   0.679   7.047
 3690SOL    HW111750   2.869   0.616   7.049
 3690SOL    HW211751   3.020   0.625   7.035
 3691SOL     OW11752   3.109   1.548   6.369
 3691SOL    HW111753   3.118   1.632   6.324
 3691SOL    HW211754   3.156   1.560   6.452
 3692SOL     OW11755   2.325   1.146   6.322
 3692SOL    HW111756   2.254   1.127   6.383
 3692SOL    HW211757   2.287   1.127   6.236
 3693SOL     OW11758   2.893   0.549   5.600
 3693SOL    HW111759   2.846   0.631   5.584
 3693SOL    HW211760   2.951   0.570   5.674
 3694SOL     OW11761   1.941   0.552   6.979
 3694SOL    HW111762   2.032   0.554   6.949
 3694SOL    HW211763   1.935   0.624   7.042
 3695SOL     OW11764   2.426   0.240   6.750
 3695SOL    HW111765   2.455   0.156   6.786
 3695SOL    HW211766   2.335   0.248   6.776
 3696SOL     OW11767   2.728   0.500   6.212
 3696SOL    HW111768   2.677   0.542   6.143
 3696SOL    HW211769   2.715   0.406   6.198
 3697SOL     OW11770   2.834   0.033   6.359
 3697SOL    HW111771   2.785   0.028   6.277
 3697SOL    HW211772   2.843   4.442   6.388
 3698SOL     OW11773   3.297   1.164   6.444
 3698SOL    HW111774   3.231   1.095   6.442
 3698SOL    HW211775   3.319   1.178   6.352
 3699SOL     OW11776   3.330   0.602   6.566
 3699SOL    HW111777   3.280   0.521   6.570
 3699SOL    HW211778   3.389   0.597   6.641
 3700SOL     OW11779   3.710   0.819   5.967
 3700SOL    HW111780   3.765   0.767   6.025
 3700SOL    HW211781   3.680   0.758   5.900
 3701SOL     OW11782   2.354   1.373   5.749
 3701SOL    HW111783   2.275   1.364   5.802
 3701SOL    HW211784   2.321   1.401   5.663
 3702SOL     OW11785   3.530   1.266   6.234
 3702SOL    HW111786   3.625   1.271   6.248
 3702SOL    HW211787   3.497   1.353   6.257
 3703SOL     OW11788   3.256   0.570   5.656
 3703SOL    HW111789   3.195   0.554   5.729
 3703SOL    HW211790   3.342   0.547   5.691
 3704SOL     OW11791   2.387   0.265   5.911
 3704SOL    HW111792   2.428   0.212   5.843
 3704SOL    HW211793   2.372   0.350   5.869
 3705SOL     OW11794   3.616   1.235   7.163
 3705SOL    HW111795   3.703   1.197   7.160
 3705SOL    HW211796   3.630   1.325   7.193
 3706SOL     OW11797   2.923   1.355   6.922
 3706SOL    HW111798   2.848   1.323   6.972
 3706SOL    HW211799   2.999   1.312   6.962
 3707SOL     OW11800   3.467   1.625   7.236
 3707SOL    HW111801   3.465   1.659   7.147
 3707SOL    HW211802   3.550   1.579   7.243
 3708SOL     OW11803   2.987   1.203   6.693
 3708SOL    HW111804   2.928   1.239   6.759
 3708SOL    HW211805   2.950   1.230   6.610
 3709SOL     OW11806   3.493   1.100   6.665
 3709SOL    HW111807   3.489   1.162   6.737
 3709SOL    HW211808   3.412   1.114   6.616
 3710SOL     OW11809   2.767   0.130   6.977
 3710SOL    HW111810   2.789   0.086   6.895
 3710SOL    HW211811   2.851   0.142   7.021
 3711SOL     OW11812   2.846   1.114   7.308
 3711SOL    HW111813   2.753   1.129   7.327
 3711SOL    HW211814   2.847   1.037   7.252
 3712SOL     OW11815   2.566   1.055   5.960
 3712SOL    HW111816   2.556   1.042   6.055
 3712SOL    HW211817   2.644   1.005   5.937
 3713SOL     OW11818   2.279   0.814   6.837
 3713SOL    HW111819   2.349   0.823   6.903
 3713SOL    HW211820   2.244   0.726   6.852
 3714SOL     OW11821   3.131   0.377   6.857
 3714SOL    HW111822   3.162   0.456   6.903
 3714SOL    HW211823   3.043   0.400   6.828
 3715SOL     OW11824   1.928   1.571   6.935
 3715SOL    HW111825   1.888   1.647   6.891
 3715SOL    HW211826   2.022   1.590   6.935
 3716SOL     OW11827   2.216   1.111   6.075
 3716SOL    HW111828   2.223   1.176   6.005
 3716SOL    HW211829   2.216   1.027   6.029
 3717SOL     OW11830   2.420   0.533   6.446
 3717SOL    HW111831   2.436   0.591   6.371
 3717SOL    HW211832   2.481   0.563   6.513
 3718SOL     OW11833   3.110   1.348   5.977
 3718SOL    HW111834   3.162   1.422   6.007
 3718SOL    HW211835   3.021   1.368   6.007
 3719SOL     OW11836   3.139   1.455   6.731
 3719SOL    HW111837   3.193   1.457   6.810
 3719SOL    HW211838   3.083   1.378   6.742
 3720SOL     OW11839   3.446   0.626   6.061
 3720SOL    HW111840   3.401   0.680   6.126
 3720SOL    HW211841   3.490   0.688   6.004
 3721SOL     OW11842   2.212   1.524   6.902
 3721SOL    HW111843   2.197   1.462   6.830
 3721SOL    HW211844   2.307   1.536   6.904
 3722SOL     OW11845   2.275   0.744   7.188
 3722SOL    HW111846   2.334   0.791   7.129
 3722SOL    HW211847   2.318   0.660   7.205
 3723SOL     OW11848   3.459   0.777   7.265
 3723SOL    HW111849   3.373   0.817   7.257
 3723SOL    HW211850   3.511   0.819   7.196
 3724SOL     OW11851   2.870   0.087   7.315
 3724SOL    HW111852   2.889   0.171   7.274
 3724SOL    HW211853   2.896   0.022   7.249
 3725SOL     OW11854   2.362   0.050   7.341
 3725SOL    HW111855   2.347   0.000   7.260
 3725SOL    HW211856   2.293   0.116   7.341
 3726SOL     OW11857   2.444   0.872   6.616
 3726SOL    HW111858   2.475   0.962   6.614
 3726SOL    HW211859   2.387   0.868   6.693
 3727SOL     OW11860   3.223   0.859   6.620
 3727SOL    HW111861   3.142   0.853   6.569
 3727SOL    HW211862   3.260   0.771   6.617
 3728SOL     OW11863   3.070   0.534   5.853
 3728SOL    HW111864   3.075   0.453   5.904
 3728SOL    HW211865   3.027   0.597   5.912
 3729SOL     OW11866   2.153   0.236   6.826
 3729SOL    HW111867   2.113   0.251   6.912
 3729SOL    HW211868   2.180   0.144   6.828
 3730SOL     OW11869   1.915   1.311   6.863
 3730SOL    HW111870   1.941   1.259   6.939
 3730SOL    HW211871   1.914   1.401   6.895
 3731SOL     OW11872   2.588   0.633   6.647
 3731SOL    HW111873   2.659   0.611   6.587
 3731SOL    HW211874   2.561   0.721   6.622
 3732SOL     OW11875   3.595   0.959   7.436
 3732SOL    HW111876   3.546   0.905   7.374
 3732SOL    HW211877   3.535   0.970   7.510
 3733SOL     OW11878   2.161   0.061   6.239
 3733SOL    HW111879   2.152   0.156   6.245
 3733SOL    HW211880   2.173   0.032   6.329
 3734SOL     OW11881   3.472   0.374   5.953
 3734SOL    HW111882   3.504   0.311   6.018
 3734SOL    HW211883   3.450   0.452   6.003
 3735SOL     OW11884   2.889   0.761   6.549
 3735SOL    HW111885   2.889   0.777   6.643
 3735SOL    HW211886   2.861   0.670   6.541
 3736SOL     OW11887   2.844   1.566   7.300
 3736SOL    HW111888   2.828   1.610   7.216
 3736SOL    HW211889   2.887   1.484   7.276
 3737SOL     OW11890   3.718   1.510   7.192
 3737SOL    HW111891   3.734   1.535   7.101
 3737SOL    HW211892   3.799   1.531   7.238
 3738SOL     OW11893   2.216   0.917   7.392
 3738SOL    HW111894   2.298   0.933   7.439
 3738SOL    HW211895   2.239   0.854   7.324
 3739SOL     OW11896   3.395   0.268   5.714
 3739SOL    HW111897   3.323   0.211   5.741
 3739SOL    HW211898   3.422   0.312   5.794
 3740SOL     OW11899   3.158   0.828   5.619
 3740SOL    HW111900   3.199   0.741   5.621
 3740SOL    HW211901   3.187   0.866   5.537
 3741SOL     OW11902   2.925   1.337   6.434
 3741SOL    HW111903   2.928   1.261   6.376
 3741SOL    HW211904   2.995   1.394   6.403
 3742SOL     OW11905   2.172   0.810   6.535
 3742SOL    HW111906   2.265   0.832   6.528
 3742SOL    HW211907   2.171   0.721   6.569
 3743SOL     OW11908   2.199   0.528   6.598
 3743SOL    HW111909   2.157   0.444   6.579
 3743SOL    HW211910   2.274   0.531   6.539
 3744SOL     OW11911   2.997   0.376   7.277
 3744SOL    HW111912   2.950   0.440   7.330
 3744SOL    HW211913   3.084   0.414   7.264
 3745SOL     OW11914   3.023   0.210   7.060
 3745SOL    HW111915   3.014   0.274   7.130
 3745SOL    HW211916   3.056   0.261   6.985
 3746SOL     OW11917   1.873   1.323   5.781
 3746SOL    HW111918   1.788   1.345   5.743
 3746SOL    HW211919   1.863   1.232   5.811
 3747SOL     OW11920   1.947   1.791   6.517
 3747SOL    HW111921   1.918   1.710   6.475
 3747SOL    HW211922   2.034   1.807   6.479
 3748SOL     OW11923   2.850   0.796   6.816
 3748SOL    HW111924   2.902   0.769   6.892
 3748SOL    HW211925   2.765   0.756   6.830
 3749SOL     OW11926   1.896   0.542   6.704
 3749SOL    HW111927   1.975   0.521   6.654
 3749SOL    HW211928   1.926   0.549   6.794
 3750SOL     OW11929   2.047   0.517   7.306
 3750SOL    HW111930   2.118   0.495   7.246
 3750SOL    HW211931   2.003   0.591   7.265
 3751SOL     OW11932   3.238   0.942   7.246
 3751SOL    HW111933   3.258   1.035   7.246
 3751SOL    HW211934   3.236   0.918   7.153
 3752SOL     OW11935   2.674   0.573   5.939
 3752SOL    HW111936   2.677   0.500   5.876
 3752SOL    HW211937   2.599   0.625   5.910
 3753SOL     OW11938   3.504   0.601   6.776
 3753SOL    HW111939   3.493   0.540   6.849
 3753SOL    HW211940   3.591   0.581   6.741
 3754SOL     OW11941   2.113   1.552   7.318
 3754SOL    HW111942   2.083   1.616   7.383
 3754SOL    HW211943   2.107   1.468   7.362
 3755SOL     OW11944   2.553   0.460   6.852
 3755SOL    HW111945   2.509   0.382   6.818
 3755SOL    HW211946   2.557   0.520   6.777
 3756SOL     OW11947   2.790   1.679   7.053
 3756SOL    HW111948   2.768   1.650   6.964
 3756SOL    HW211949   2.795   1.774   7.046
 3757SOL     OW11950   2.329   0.493   5.772
 3757SOL    HW111951   2.388   0.567   5.792
 3757SOL    HW211952   2.243   0.533   5.764
 3758SOL     OW11953   2.012   1.140   7.058
 3758SOL    HW111954   2.015   1.085   7.137
 3758SOL    HW211955   2.028   1.079   6.986
 3759SOL     OW11956   3.192   1.050   6.811
 3759SOL    HW111957   3.216   0.987   6.743
 3759SOL    HW211958   3.119   1.099   6.774
 3760SOL     OW11959   3.171   0.856   5.894
 3760SOL    HW111960   3.093   0.827   5.942
 3760SOL    HW211961   3.147   0.843   5.802
 3761SOL     OW11962   3.630   1.747   6.734
 3761SOL    HW111963   3.690   1.773   6.664
 3761SOL    HW211964   3.606   1.657   6.714
 3762SOL     OW11965   3.104   1.733   6.702
 3762SOL    HW111966   3.186   1.750   6.656
 3762SOL    HW211967   3.106   1.639   6.720
 3763SOL     OW11968   1.949   1.258   6.603
 3763SOL    HW111969   1.932   1.273   6.696
 3763SOL    HW211970   1.869   1.215   6.572
 3764SOL     OW11971   2.540   1.663   7.309
 3764SOL    HW111972   2.490   1.745   7.307
 3764SOL    HW211973   2.604   1.672   7.238
 3765SOL     OW11974   3.580   0.130   6.085
 3765SOL    HW111975   3.654   0.134   6.025
 3765SOL    HW211976   3.598   0.055   6.142
 3766SOL     OW11977   3.253   1.576   6.069
 3766SOL    HW111978   3.318   1.591   6.000
 3766SOL    HW211979   3.192   1.650   6.060
 3767SOL     OW11980   1.996   1.796   7.428
 3767SOL    HW111981   1.944   1.731   7.476
 3767SOL    HW211982   2.046   1.840   7.496
 3768SOL     OW11983   3.140   0.926   6.259
 3768SOL    HW111984   3.212   0.863   6.261
 3768SOL    HW211985   3.174   0.998   6.206
 3769SOL     OW11986   2.682   1.272   7.017
 3769SOL    HW111987   2.656   1.310   7.101
 3769SOL    HW211988   2.610   1.292   6.958
 3770SOL     OW11989   3.496   1.726   6.979
 3770SOL    HW111990   3.543   1.734   6.895
 3770SOL    HW211991   3.482   1.817   7.007
 3771SOL     OW11992   3.701   0.156   6.553
 3771SOL    HW111993   3.732   0.081   6.503
 3771SOL    HW211994   3.614   0.175   6.517
 3772SOL     OW11995   2.129   0.325   6.306
 3772SOL    HW111996   2.044   0.359   6.277
 3772SOL    HW211997   2.119   0.314   6.401
 3773SOL     OW11998   3.072   1.607   5.606
 3773SOL    HW111999   3.062   1.518   5.639
 3773SOL    HW212000   3.004   1.616   5.539
 3774SOL     OW12001   2.685   1.006   6.957
 3774SOL    HW112002   2.730   1.001   6.873
 3774SOL    HW212003   2.689   1.098   6.981
 3775SOL     OW12004   2.778   0.911   5.876
 3775SOL    HW112005   2.839   0.943   5.810
 3775SOL    HW212006   2.824   0.839   5.919
 3776SOL     OW12007   3.359   1.622   5.629
 3776SOL    HW112008   3.264   1.628   5.620
 3776SOL    HW212009   3.393   1.630   5.539
 3777SOL     OW12010   2.234   1.299   7.075
 3777SOL    HW112011   2.212   1.382   7.034
 3777SOL    HW212012   2.155   1.245   7.062
 3778SOL     OW12013   3.474   1.283   6.867
 3778SOL    HW112014   3.533   1.276   6.943
 3778SOL    HW212015   3.413   1.354   6.891
 3779SOL     OW12016   2.910   1.105   6.291
 3779SOL    HW112017   2.839   1.054   6.330
 3779SOL    HW212018   2.970   1.040   6.256
 3780SOL     OW12019   2.870   0.241   6.581
 3780SOL    HW112020   2.877   0.210   6.491
 3780SOL    HW212021   2.863   0.161   6.633
 3781SOL     OW12022   3.581   0.393   6.964
 3781SOL    HW112023   3.653   0.456   6.962
 3781SOL    HW212024   3.610   0.321   6.908
 3782SOL     OW12025   2.117   1.346   5.887
 3782SOL    HW112026   2.027   1.340   5.857
 3782SOL    HW212027   2.112   1.390   5.971
 3783SOL     OW12028   1.973   1.018   7.305
 3783SOL    HW112029   1.898   0.995   7.359
 3783SOL    HW212030   2.048   0.983   7.353
 3784SOL     OW12031   2.522   0.203   7.082
 3784SOL    HW112032   2.602   0.179   7.036
 3784SOL    HW212033   2.550   0.221   7.171
 3785SOL     OW12034   1.942   0.345   5.632
 3785SOL    HW112035   1.869   0.294   5.595
 3785SOL    HW212036   1.959   0.412   5.566
 3786SOL     OW12037   3.295   0.859   6.988
 3786SOL    HW112038   3.246   0.917   6.930
 3786SOL    HW212039   3.384   0.861   6.954
 3787SOL     OW12040   1.929   0.179   5.909
 3787SOL    HW112041   1.924   0.246   5.840
 3787SOL    HW212042   2.004   0.125   5.886
 3788SOL     OW12043   3.041   1.342   5.702
 3788SOL    HW112044   2.951   1.310   5.706
 3788SOL    HW212045   3.070   1.343   5.793
 3789SOL     OW12046   2.480   0.831   7.018
 3789SOL    HW112047   2.536   0.908   7.004
 3789SOL    HW212048   2.541   0.758   7.026
 3790SOL     OW12049   3.348   1.773   6.557
 3790SOL    HW112050   3.374   1.835   6.490
 3790SOL    HW212051   3.427   1.759   6.610
 3791SOL     OW12052   2.578   0.564   7.293
 3791SOL    HW112053   2.612   0.629   7.355
 3791SOL    HW212054   2.616   0.481   7.322
 3792SOL     OW12055   3.330   1.204   7.219
 3792SOL    HW112056   3.318   1.216   7.314
 3792SOL    HW212057   3.424   1.215   7.205
 3793SOL     OW12058   2.246   1.740   7.151
 3793SOL    HW112059   2.159   1.777   7.136
 3793SOL    HW212060   2.229   1.656   7.194
 3794SOL     OW12061   3.534   0.882   6.842
 3794SOL    HW112062   3.524   0.797   6.799
 3794SOL    HW212063   3.525   0.945   6.771
 3795SOL     OW12064   3.080   0.327   6.034
 3795SOL    HW112065   3.145   0.257   6.025
 3795SOL    HW212066   3.106   0.374   6.113
 3796SOL     OW12067   2.450   0.741   6.254
 3796SOL    HW112068   2.493   0.825   6.236
 3796SOL    HW212069   2.382   0.734   6.188
 3797SOL     OW12070   3.629   0.360   7.228
 3797SOL    HW112071   3.612   0.374   7.135
 3797SOL    HW212072   3.550   0.316   7.261
 3798SOL     OW12073   3.605   0.933   7.099
 3798SOL    HW112074   3.609   1.028   7.112
 3798SOL    HW212075   3.590   0.922   7.005
 3799SOL     OW12076   2.737   1.351   5.603
 3799SOL    HW112077   2.705   1.361   5.693
 3799SOL    HW212078   2.753   1.440   5.573
 3800SOL     OW12079   2.728   0.964   6.442
 3800SOL    HW112080   2.778   0.894   6.482
 3800SOL    HW212081   2.696   1.017   6.515
 3801SOL     OW12082   2.943   0.988   5.675
 3801SOL    HW112083   2.920   1.038   5.596
 3801SOL    HW212084   3.018   0.935   5.649
 3802SOL     OW12085   3.719   1.557   6.432
 3802SOL    HW112086   3.642   1.545   6.376
 3802SOL    HW212087   3.711   1.488   6.498
 3803SOL     OW12088   2.086   1.305   7.441
 3803SOL    HW112089   2.018   1.243   7.414
 3803SOL    HW212090   2.070   1.318   7.535
 3804SOL     OW12091   1.934   1.207   6.236
 3804SOL    HW112092   1.948   1.167   6.322
 3804SOL    HW212093   2.016   1.190   6.189
 3805SOL     OW12094   2.539   1.401   7.208
 3805SOL    HW112095   2.462   1.356   7.242
 3805SOL    HW212096   2.536   1.488   7.249
 3806SOL     OW12097   3.673   0.184   6.825
 3806SOL    HW112098   3.673   0.091   6.846
 3806SOL    HW212099   3.688   0.187   6.730
 3807SOL     OW12100   2.296   0.433   6.113
 3807SOL    HW112101   2.320   0.363   6.053
 3807SOL    HW212102   2.243   0.390   6.180
 3808SOL     OW12103   3.564   1.492   6.687
 3808SOL    HW112104   3.483   1.465   6.643
 3808SOL    HW212105   3.579   1.423   6.752
 3809SOL     OW12106   2.189   0.554   6.876
 3809SOL    HW112107   2.244   0.498   6.931
 3809SOL    HW212108   2.210   0.528   6.787
 3810SOL     OW12109   3.294   0.215   6.704
 3810SOL    HW112110   3.331   0.146   6.758
 3810SOL    HW212111   3.243   0.268   6.765
 3811SOL     OW12112   2.860   0.014   6.734
 3811SOL    HW112113   2.813   4.431   6.724
 3811SOL    HW212114   2.951   4.488   6.747
 3812SOL     OW12115   2.670   1.309   5.869
 3812SOL    HW112116   2.604   1.242   5.888
 3812SOL    HW212117   2.726   1.309   5.946
 3813SOL     OW12118   2.479   1.561   6.864
 3813SOL    HW112119   2.484   1.639   6.918
 3813SOL    HW212120   2.568   1.549   6.830
 3814SOL     OW12121   3.205   0.054   5.738
 3814SOL    HW112122   3.245   4.480   5.692
 3814SOL    HW212123   3.130   0.017   5.783
 3815SOL     OW12124   3.176   0.463   6.268
 3815SOL    HW112125   3.113   0.534   6.268
 3815SOL    HW212126   3.164   0.419   6.352
 3816SOL     OW12127   3.448   0.203   6.454
 3816SOL    HW112128   3.386   0.217   6.525
 3816SOL    HW212129   3.451   0.287   6.408
 3817SOL     OW12130   1.904   1.072   5.889
 3817SOL    HW112131   1.998   1.064   5.873
 3817SOL    HW212132   1.876   0.984   5.914
 3818SOL     OW12133   2.092   0.628   7.567
 3818SOL    HW112134   2.004   0.621   7.604
 3818SOL    HW212135   2.083   0.595   7.478
 3819SOL     OW12136   2.072   0.295   8.436
 3819SOL    HW112137   2.103   0.269   8.523
 3819SOL    HW212138   1.990   0.247   8.425
 3820SOL     OW12139   1.871   0.383   8.088
 3820SOL    HW112140   1.785   0.404   8.124
 3820SOL    HW212141   1.855   0.308   8.031
 3821SOL     OW12142   2.429   1.282   8.619
 3821SOL    HW112143   2.340   1.283   8.583
 3821SOL    HW212144   2.442   1.370   8.654
 3822SOL     OW12145   3.419   1.512   8.153
 3822SOL    HW112146   3.375   1.494   8.236
 3822SOL    HW212147   3.348   1.516   8.089
 3823SOL     OW12148   2.993   0.700   8.150
 3823SOL    HW112149   3.042   0.782   8.139
 3823SOL    HW212150   2.944   0.713   8.231
 3824SOL     OW12151   3.626   0.609   7.678
 3824SOL    HW112152   3.607   0.597   7.585
 3824SOL    HW212153   3.594   0.528   7.719
 3825SOL     OW12154   2.622   1.145   8.485
 3825SOL    HW112155   2.551   1.177   8.541
 3825SOL    HW212156   2.655   1.223   8.440
 3826SOL     OW12157   2.724   0.782   9.269
 3826SOL    HW112158   2.711   0.853   9.331
 3826SOL    HW212159   2.747   0.825   9.187
 3827SOL     OW12160   2.549   1.008   8.097
 3827SOL    HW112161   2.612   0.992   8.167
 3827SOL    HW212162   2.478   1.057   8.139
 3828SOL     OW12163   2.569   1.152   9.256
 3828SOL    HW112164   2.616   1.232   9.280
 3828SOL    HW212165   2.485   1.184   9.223
 3829SOL     OW12166   2.193   1.429   8.517
 3829SOL    HW112167   2.120   1.393   8.466
 3829SOL    HW212168   2.244   1.478   8.452
 3830SOL     OW12169   3.324   1.498   8.798
 3830SOL    HW112170   3.366   1.583   8.809
 3830SOL    HW212171   3.270   1.487   8.876
 3831SOL     OW12172   2.303   0.396   8.940
 3831SOL    HW112173   2.384   0.346   8.942
 3831SOL    HW212174   2.234   0.331   8.953
 3832SOL     OW12175   3.475   0.448   8.185
 3832SOL    HW112176   3.394   0.473   8.140
 3832SOL    HW212177   3.497   0.525   8.238
 3833SOL     OW12178   2.083   1.715   7.925
 3833SOL    HW112179   2.108   1.792   7.975
 3833SOL    HW212180   2.151   1.706   7.858
 3834SOL     OW12181   2.998   1.341   9.139
 3834SOL    HW112182   3.037   1.338   9.226
 3834SOL    HW212183   2.944   1.261   9.133
 3835SOL     OW12184   2.092   1.440   7.982
 3835SOL    HW112185   2.072   1.534   7.989
 3835SOL    HW212186   2.030   1.398   8.043
 3836SOL     OW12187   2.116   1.090   8.338
 3836SOL    HW112188   2.113   1.004   8.381
 3836SOL    HW212189   2.057   1.145   8.391
 3837SOL     OW12190   2.481   1.786   8.884
 3837SOL    HW112191   2.396   1.772   8.925
 3837SOL    HW212192   2.499   1.879   8.898
 3838SOL     OW12193   2.452   0.979   7.579
 3838SOL    HW112194   2.493   1.032   7.512
 3838SOL    HW212195   2.493   1.007   7.661
 3839SOL     OW12196   3.448   0.114   8.923
 3839SOL    HW112197   3.457   0.182   8.856
 3839SOL    HW212198   3.437   0.162   9.005
 3840SOL     OW12199   1.977   0.651   8.007
 3840SOL    HW112200   1.948   0.562   8.029
 3840SOL    HW212201   1.968   0.699   8.089
 3841SOL     OW12202   3.703   1.761   7.785
 3841SOL    HW112203   3.762   1.732   7.855
 3841SOL    HW212204   3.731   1.851   7.767
 3842SOL     OW12205   1.891   1.596   7.572
 3842SOL    HW112206   1.874   1.504   7.592
 3842SOL    HW212207   1.866   1.643   7.651
 3843SOL     OW12208   3.553   0.921   8.086
 3843SOL    HW112209   3.638   0.880   8.068
 3843SOL    HW212210   3.532   0.969   8.006
 3844SOL     OW12211   3.507   1.109   7.877
 3844SOL    HW112212   3.592   1.117   7.835
 3844SOL    HW212213   3.511   1.168   7.952
 3845SOL     OW12214   1.983   0.743   9.034
 3845SOL    HW112215   2.075   0.764   9.051
 3845SOL    HW212216   1.937   0.826   9.041
 3846SOL     OW12217   2.475   1.381   8.183
 3846SOL    HW112218   2.429   1.298   8.192
 3846SOL    HW212219   2.458   1.408   8.093
 3847SOL     OW12220   3.153   1.239   8.872
 3847SOL    HW112221   3.185   1.171   8.813
 3847SOL    HW212222   3.208   1.231   8.950
 3848SOL     OW12223   2.676   0.011   7.992
 3848SOL    HW112224   2.710   0.097   7.969
 3848SOL    HW212225   2.581   0.020   7.985
 3849SOL     OW12226   2.054   0.969   8.716
 3849SOL    HW112227   2.138   0.925   8.701
 3849SOL    HW212228   1.989   0.912   8.676
 3850SOL     OW12229   3.394   0.991   7.644
 3850SOL    HW112230   3.324   0.933   7.673
 3850SOL    HW212231   3.433   1.025   7.725
 3851SOL     OW12232   3.048   1.803   9.068
 3851SOL    HW112233   3.063   1.860   8.992
 3851SOL    HW212234   3.062   1.715   9.035
 3852SOL     OW12235   2.178   0.255   9.230
 3852SOL    HW112236   2.241   0.320   9.262
 3852SOL    HW212237   2.103   0.264   9.289
 3853SOL     OW12238   3.327   1.420   8.401
 3853SOL    HW112239   3.259   1.433   8.467
 3853SOL    HW212240   3.316   1.329   8.374
 3854SOL     OW12241   3.524   1.732   8.025
 3854SOL    HW112242   3.500   1.704   7.937
 3854SOL    HW212243   3.498   1.659   8.082
 3855SOL     OW12244   2.456   0.724   7.712
 3855SOL    HW112245   2.465   0.804   7.660
 3855SOL    HW212246   2.391   0.746   7.778
 3856SOL     OW12247   3.151   0.357   8.383
 3856SOL    HW112248   3.062   0.325   8.368
 3856SOL    HW212249   3.189   0.295   8.445
 3857SOL     OW12250   3.444   1.668   7.757
 3857SOL    HW112251   3.532   1.703   7.751
 3857SOL    HW212252   3.419   1.650   7.666
 3858SOL     OW12253   2.658   0.617   8.903
 3858SOL    HW112254   2.629   0.594   8.991
 3858SOL    HW212255   2.615   0.553   8.846
 3859SOL     OW12256   3.251   0.478   9.124
 3859SOL    HW112257   3.253   0.521   9.210
 3859SOL    HW212258   3.318   0.409   9.131
 3860SOL     OW12259   2.821   0.889   9.028
 3860SOL    HW112260   2.874   0.817   8.995
 3860SOL    HW212261   2.773   0.921   8.952
 3861SOL     OW12262   2.857   0.417   8.687
 3861SOL    HW112263   2.772   0.431   8.728
 3861SOL    HW212264   2.837   0.365   8.608
 3862SOL     OW12265   2.911   0.698   7.876
 3862SOL    HW112266   2.926   0.691   7.970
 3862SOL    HW212267   2.829   0.651   7.861
 3863SOL     OW12268   1.951   0.820   8.224
 3863SOL    HW112269   2.033   0.813   8.273
 3863SOL    HW212270   1.908   0.898   8.259
 3864SOL     OW12271   1.989   1.814   9.022
 3864SOL    HW112272   1.977   1.810   9.117
 3864SOL    HW212273   1.920   1.872   8.991
 3865SOL     OW12274   2.716   0.368   7.627
 3865SOL    HW112275   2.792   0.403   7.580
 3865SOL    HW212276   2.733   0.274   7.632
 3866SOL     OW12277   3.569   0.576   9.276
 3866SOL    HW112278   3.535   0.654   9.232
 3866SOL    HW212279   3.600   0.520   9.205
 3867SOL     OW12280   3.237   1.143   7.990
 3867SOL    HW112281   3.315   1.128   7.937
 3867SOL    HW212282   3.185   1.205   7.939
 3868SOL     OW12283   2.403   0.201   8.348
 3868SOL    HW112284   2.421   0.218   8.441
 3868SOL    HW212285   2.394   0.288   8.309
 3869SOL     OW12286   2.871   1.446   7.922
 3869SOL    HW112287   2.830   1.517   7.873
 3869SOL    HW212288   2.858   1.469   8.014
 3870SOL     OW12289   2.215   1.798   8.304
 3870SOL    HW112290   2.249   1.709   8.312
 3870SOL    HW212291   2.290   1.855   8.323
 3871SOL     OW12292   3.659   1.062   8.315
 3871SOL    HW112293   3.603   1.044   8.240
 3871SOL    HW212294   3.600   1.066   8.390
 3872SOL     OW12295   3.090   1.540   8.960
 3872SOL    HW112296   3.077   1.467   9.020
 3872SOL    HW212297   3.029   1.523   8.888
 3873SOL     OW12298   2.183   0.955   7.695
 3873SOL    HW112299   2.266   0.974   7.650
 3873SOL    HW212300   2.152   0.873   7.656
 3874SOL     OW12301   3.338   0.739   8.174
 3874SOL    HW112302   3.324   0.691   8.255
 3874SOL    HW212303   3.414   0.794   8.191
 3875SOL     OW12304   2.326   1.263   9.185
 3875SOL    HW112305   2.297   1.268   9.094
 3875SOL    HW212306   2.245   1.262   9.236
 3876SOL     OW12307   2.982   1.777   7.680
 3876SOL    HW112308   2.911   1.733   7.727
 3876SOL    HW212309   3.004   1.718   7.608
 3877SOL     OW12310   2.052   0.268   8.956
 3877SOL    HW112311   1.985   0.335   8.938
 3877SOL    HW212312   2.059   0.266   9.051
 3878SOL     OW12313   3.492   1.379   7.534
 3878SOL    HW112314   3.451   1.464   7.520
 3878SOL    HW212315   3.422   1.315   7.516
 3879SOL     OW12316   2.330   1.737   7.770
 3879SOL    HW112317   2.371   1.794   7.835
 3879SOL    HW212318   2.402   1.710   7.714
 3880SOL     OW12319   3.277   0.131   7.867
 3880SOL    HW112320   3.260   0.084   7.785
 3880SOL    HW212321   3.373   0.129   7.875
 3881SOL     OW12322   2.104   1.779   8.685
 3881SOL    HW112323   2.168   1.723   8.728
 3881SOL    HW212324   2.106   1.752   8.593
 3882SOL     OW12325   2.798   1.697   8.350
 3882SOL    HW112326   2.876   1.645   8.370
 3882SOL    HW212327   2.754   1.649   8.280
 3883SOL     OW12328   2.252   0.695   7.925
 3883SOL    HW112329   2.277   0.603   7.935
 3883SOL    HW212330   2.158   0.697   7.945
 3884SOL     OW12331   3.388   0.232   9.170
 3884SOL    HW112332   3.387   0.257   9.263
 3884SOL    HW212333   3.314   0.173   9.159
 3885SOL     OW12334   2.485   0.123   7.567
 3885SOL    HW112335   2.573   0.088   7.577
 3885SOL    HW212336   2.454   0.089   7.484
 3886SOL     OW12337   2.633   0.271   9.200
 3886SOL    HW112338   2.696   0.201   9.219
 3886SOL    HW212339   2.582   0.279   9.281
 3887SOL     OW12340   2.739   1.522   8.641
 3887SOL    HW112341   2.724   1.484   8.554
 3887SOL    HW212342   2.807   1.466   8.679
 3888SOL     OW12343   3.205   0.589   8.878
 3888SOL    HW112344   3.232   0.558   8.964
 3888SOL    HW212345   3.239   0.678   8.872
 3889SOL     OW12346   2.674   1.400   8.383
 3889SOL    HW112347   2.758   1.388   8.338
 3889SOL    HW212348   2.609   1.395   8.313
 3890SOL     OW12349   2.784   0.515   8.350
 3890SOL    HW112350   2.768   0.512   8.256
 3890SOL    HW212351   2.825   0.430   8.369
 3891SOL     OW12352   2.414   0.072   7.967
 3891SOL    HW112353   2.325   0.050   7.991
 3891SOL    HW212354   2.405   0.141   7.902
 3892SOL     OW12355   3.291   1.197   7.489
 3892SOL    HW112356   3.322   1.122   7.539
 3892SOL    HW212357   3.205   1.217   7.526
 3893SOL     OW12358   2.158   0.073   7.639
 3893SOL    HW112359   2.237   0.124   7.620
 3893SOL    HW212360   2.189   4.499   7.692
 3894SOL     OW12361   2.811   0.240   7.921
 3894SOL    HW112362   2.759   0.287   7.855
 3894SOL    HW212363   2.899   0.275   7.911
 3895SOL     OW12364   2.942   0.679   8.909
 3895SOL    HW112365   2.869   0.616   8.911
 3895SOL    HW212366   3.020   0.625   8.897
 3896SOL     OW12367   3.086   1.570   8.241
 3896SOL    HW112368   3.106   1.637   8.177
 3896SOL    HW212369   3.155   1.580   8.308
 3897SOL     OW12370   2.329   1.148   8.185
 3897SOL    HW112371   2.258   1.129   8.247
 3897SOL    HW212372   2.291   1.130   8.099
 3898SOL     OW12373   3.133   1.795   8.052
 3898SOL    HW112374   3.177   1.857   7.993
 3898SOL    HW212375   3.070   1.849   8.100
 3899SOL     OW12376   2.893   0.550   7.462
 3899SOL    HW112377   2.846   0.631   7.446
 3899SOL    HW212378   2.951   0.569   7.536
 3900SOL     OW12379   1.941   0.552   8.841
 3900SOL    HW112380   2.032   0.554   8.811
 3900SOL    HW212381   1.935   0.624   8.904
 3901SOL     OW12382   2.426   0.240   8.612
 3901SOL    HW112383   2.454   0.156   8.648
 3901SOL    HW212384   2.335   0.248   8.638
 3902SOL     OW12385   2.728   0.500   8.074
 3902SOL    HW112386   2.676   0.542   8.005
 3902SOL    HW212387   2.715   0.406   8.061
 3903SOL     OW12388   2.834   0.033   8.221
 3903SOL    HW112389   2.785   0.028   8.139
 3903SOL    HW212390   2.843   4.442   8.250
 3904SOL     OW12391   3.297   1.164   8.306
 3904SOL    HW112392   3.231   1.095   8.304
 3904SOL    HW212393   3.320   1.177   8.214
 3905SOL     OW12394   3.330   0.602   8.428
 3905SOL    HW112395   3.280   0.521   8.432
 3905SOL    HW212396   3.389   0.597   8.503
 3906SOL     OW12397   3.710   0.819   7.829
 3906SOL    HW112398   3.765   0.767   7.887
 3906SOL    HW212399   3.680   0.758   7.762
 3907SOL     OW12400   2.354   1.414   7.610
 3907SOL    HW112401   2.279   1.384   7.661
 3907SOL    HW212402   2.333   1.388   7.520
 3908SOL     OW12403   3.530   1.266   8.096
 3908SOL    HW112404   3.625   1.271   8.110
 3908SOL    HW212405   3.498   1.353   8.118
 3909SOL     OW12406   3.256   0.570   7.518
 3909SOL    HW112407   3.195   0.554   7.591
 3909SOL    HW212408   3.342   0.547   7.553
 3910SOL     OW12409   2.387   0.266   7.773
 3910SOL    HW112410   2.428   0.212   7.705
 3910SOL    HW212411   2.372   0.350   7.731
 3911SOL     OW12412   3.616   1.235   9.025
 3911SOL    HW112413   3.703   1.197   9.022
 3911SOL    HW212414   3.630   1.325   9.055
 3912SOL     OW12415   2.923   1.354   8.783
 3912SOL    HW112416   2.848   1.322   8.834
 3912SOL    HW212417   2.999   1.312   8.824
 3913SOL     OW12418   3.467   1.625   9.099
 3913SOL    HW112419   3.465   1.659   9.009
 3913SOL    HW212420   3.550   1.579   9.105
 3914SOL     OW12421   2.988   1.202   8.555
 3914SOL    HW112422   2.929   1.239   8.621
 3914SOL    HW212423   2.951   1.231   8.472
 3915SOL     OW12424   3.493   1.100   8.527
 3915SOL    HW112425   3.489   1.162   8.599
 3915SOL    HW212426   3.412   1.114   8.478
 3916SOL     OW12427   2.767   0.129   8.839
 3916SOL    HW112428   2.790   0.086   8.757
 3916SOL    HW212429   2.851   0.142   8.883
 3917SOL     OW12430   2.846   1.114   9.170
 3917SOL    HW112431   2.753   1.129   9.189
 3917SOL    HW212432   2.847   1.037   9.114
 3918SOL     OW12433   2.570   1.061   7.820
 3918SOL    HW112434   2.557   1.046   7.914
 3918SOL    HW212435   2.646   1.007   7.798
 3919SOL     OW12436   2.279   0.814   8.699
 3919SOL    HW112437   2.348   0.823   8.764
 3919SOL    HW212438   2.244   0.726   8.714
 3920SOL     OW12439   3.131   0.377   8.719
 3920SOL    HW112440   3.162   0.456   8.765
 3920SOL    HW212441   3.043   0.400   8.690
 3921SOL     OW12442   1.928   1.570   8.794
 3921SOL    HW112443   1.893   1.648   8.750
 3921SOL    HW212444   2.022   1.584   8.796
 3922SOL     OW12445   2.217   1.106   7.940
 3922SOL    HW112446   2.219   1.179   7.879
 3922SOL    HW212447   2.215   1.028   7.885
 3923SOL     OW12448   2.420   0.533   8.308
 3923SOL    HW112449   2.436   0.591   8.233
 3923SOL    HW212450   2.481   0.563   8.375
 3924SOL     OW12451   3.110   1.348   7.837
 3924SOL    HW112452   3.165   1.420   7.868
 3924SOL    HW212453   3.023   1.368   7.871
 3925SOL     OW12454   3.138   1.455   8.594
 3925SOL    HW112455   3.193   1.457   8.672
 3925SOL    HW212456   3.083   1.378   8.604
 3926SOL     OW12457   3.445   0.626   7.923
 3926SOL    HW112458   3.401   0.680   7.988
 3926SOL    HW212459   3.490   0.688   7.866
 3927SOL     OW12460   2.213   1.519   8.769
 3927SOL    HW112461   2.197   1.480   8.683
 3927SOL    HW212462   2.308   1.534   8.770
 3928SOL     OW12463   2.274   0.744   9.050
 3928SOL    HW112464   2.334   0.791   8.991
 3928SOL    HW212465   2.318   0.660   9.067
 3929SOL     OW12466   3.459   0.777   9.126
 3929SOL    HW112467   3.373   0.817   9.119
 3929SOL    HW212468   3.511   0.819   9.058
 3930SOL     OW12469   2.870   0.086   9.177
 3930SOL    HW112470   2.889   0.171   9.136
 3930SOL    HW212471   2.896   0.022   9.111
 3931SOL     OW12472   2.362   0.050   9.203
 3931SOL    HW112473   2.347   0.001   9.122
 3931SOL    HW212474   2.293   0.116   9.203
 3932SOL     OW12475   2.444   0.872   8.479
 3932SOL    HW112476   2.474   0.963   8.476
 3932SOL    HW212477   2.387   0.868   8.556
 3933SOL     OW12478   3.223   0.859   8.482
 3933SOL    HW112479   3.142   0.853   8.431
 3933SOL    HW212480   3.260   0.771   8.479
 3934SOL     OW12481   3.070   0.534   7.715
 3934SOL    HW112482   3.075   0.453   7.766
 3934SOL    HW212483   3.027   0.597   7.774
 3935SOL     OW12484   2.153   0.236   8.688
 3935SOL    HW112485   2.113   0.252   8.774
 3935SOL    HW212486   2.180   0.144   8.690
 3936SOL     OW12487   1.907   1.309   8.725
 3936SOL    HW112488   1.942   1.258   8.798
 3936SOL    HW212489   1.916   1.400   8.753
 3937SOL     OW12490   2.587   0.633   8.508
 3937SOL    HW112491   2.659   0.612   8.449
 3937SOL    HW212492   2.561   0.721   8.484
 3938SOL     OW12493   3.595   0.959   9.298
 3938SOL    HW112494   3.546   0.905   9.236
 3938SOL    HW212495   3.535   0.970   9.372
 3939SOL     OW12496   2.161   0.061   8.101
 3939SOL    HW112497   2.152   0.156   8.107
 3939SOL    HW212498   2.173   0.032   8.191
 3940SOL     OW12499   3.472   0.374   7.815
 3940SOL    HW112500   3.504   0.311   7.880
 3940SOL    HW212501   3.450   0.452   7.865
 3941SOL     OW12502   2.889   0.761   8.411
 3941SOL    HW112503   2.889   0.777   8.505
 3941SOL    HW212504   2.861   0.670   8.402
 3942SOL     OW12505   2.845   1.566   9.162
 3942SOL    HW112506   2.829   1.611   9.078
 3942SOL    HW212507   2.887   1.484   9.138
 3943SOL     OW12508   3.718   1.510   9.054
 3943SOL    HW112509   3.734   1.535   8.963
 3943SOL    HW212510   3.799   1.531   9.100
 3944SOL     OW12511   2.215   0.916   9.255
 3944SOL    HW112512   2.298   0.934   9.301
 3944SOL    HW212513   2.239   0.854   9.186
 3945SOL     OW12514   3.394   0.268   7.576
 3945SOL    HW112515   3.323   0.211   7.603
 3945SOL    HW212516   3.422   0.312   7.656
 3946SOL     OW12517   3.157   0.827   7.481
 3946SOL    HW112518   3.198   0.741   7.484
 3946SOL    HW212519   3.187   0.866   7.399
 3947SOL     OW12520   2.925   1.335   8.299
 3947SOL    HW112521   2.929   1.261   8.239
 3947SOL    HW212522   2.990   1.397   8.265
 3948SOL     OW12523   2.173   0.810   8.397
 3948SOL    HW112524   2.265   0.833   8.390
 3948SOL    HW212525   2.171   0.721   8.432
 3949SOL     OW12526   2.199   0.527   8.460
 3949SOL    HW112527   2.157   0.444   8.441
 3949SOL    HW212528   2.274   0.531   8.401
 3950SOL     OW12529   2.997   0.376   9.139
 3950SOL    HW112530   2.950   0.440   9.192
 3950SOL    HW212531   3.084   0.414   9.126
 3951SOL     OW12532   3.023   0.210   8.922
 3951SOL    HW112533   3.014   0.274   8.992
 3951SOL    HW212534   3.056   0.261   8.847
 3952SOL     OW12535   1.867   1.323   7.643
 3952SOL    HW112536   1.780   1.336   7.605
 3952SOL    HW212537   1.865   1.233   7.676
 3953SOL     OW12538   1.949   1.792   8.381
 3953SOL    HW112539   1.918   1.711   8.341
 3953SOL    HW212540   2.040   1.799   8.352
 3954SOL     OW12541   2.361   1.571   8.352
 3954SOL    HW112542   2.430   1.634   8.372
 3954SOL    HW212543   2.404   1.503   8.299
 3955SOL     OW12544   2.851   0.796   8.678
 3955SOL    HW112545   2.902   0.769   8.754
 3955SOL    HW212546   2.764   0.757   8.692
 3956SOL     OW12547   1.896   0.542   8.566
 3956SOL    HW112548   1.976   0.522   8.516
 3956SOL    HW212549   1.926   0.549   8.656
 3957SOL     OW12550   2.047   0.517   9.168
 3957SOL    HW112551   2.119   0.495   9.108
 3957SOL    HW212552   2.003   0.592   9.127
 3958SOL     OW12553   3.238   0.942   9.108
 3958SOL    HW112554   3.258   1.035   9.108
 3958SOL    HW212555   3.236   0.918   9.015
 3959SOL     OW12556   2.674   0.573   7.800
 3959SOL    HW112557   2.677   0.500   7.738
 3959SOL    HW212558   2.599   0.625   7.772
 3960SOL     OW12559   3.504   0.601   8.638
 3960SOL    HW112560   3.493   0.541   8.711
 3960SOL    HW212561   3.591   0.581   8.603
 3961SOL     OW12562   2.115   1.553   9.182
 3961SOL    HW112563   2.083   1.615   9.248
 3961SOL    HW212564   2.107   1.467   9.225
 3962SOL     OW12565   2.553   0.460   8.714
 3962SOL    HW112566   2.509   0.382   8.680
 3962SOL    HW212567   2.557   0.520   8.639
 3963SOL     OW12568   2.795   1.678   8.914
 3963SOL    HW112569   2.765   1.649   8.827
 3963SOL    HW212570   2.793   1.774   8.908
 3964SOL     OW12571   2.330   0.493   7.634
 3964SOL    HW112572   2.387   0.567   7.654
 3964SOL    HW212573   2.243   0.533   7.626
 3965SOL     OW12574   2.011   1.139   8.919
 3965SOL    HW112575   2.016   1.085   8.998
 3965SOL    HW212576   2.027   1.079   8.847
 3966SOL     OW12577   3.192   1.049   8.673
 3966SOL    HW112578   3.216   0.986   8.605
 3966SOL    HW212579   3.119   1.098   8.636
 3967SOL     OW12580   3.170   0.857   7.755
 3967SOL    HW112581   3.094   0.826   7.804
 3967SOL    HW212582   3.147   0.843   7.664
 3968SOL     OW12583   3.629   1.747   8.596
 3968SOL    HW112584   3.690   1.773   8.526
 3968SOL    HW212585   3.606   1.657   8.576
 3969SOL     OW12586   3.104   1.733   8.566
 3969SOL    HW112587   3.185   1.750   8.518
 3969SOL    HW212588   3.106   1.639   8.583
 3970SOL     OW12589   1.947   1.265   8.462
 3970SOL    HW112590   1.933   1.277   8.556
 3970SOL    HW212591   1.871   1.214   8.433
 3971SOL     OW12592   2.541   1.663   9.172
 3971SOL    HW112593   2.489   1.743   9.171
 3971SOL    HW212594   2.601   1.672   9.098
 3972SOL     OW12595   3.580   0.130   7.947
 3972SOL    HW112596   3.654   0.134   7.887
 3972SOL    HW212597   3.598   0.056   8.004
 3973SOL     OW12598   3.252   1.568   7.930
 3973SOL    HW112599   3.313   1.598   7.863
 3973SOL    HW212600   3.205   1.647   7.958
 3974SOL     OW12601   1.996   1.801   9.295
 3974SOL    HW112602   1.945   1.734   9.340
 3974SOL    HW212603   2.046   1.844   9.364
 3975SOL     OW12604   3.140   0.926   8.120
 3975SOL    HW112605   3.212   0.863   8.123
 3975SOL    HW212606   3.174   0.998   8.068
 3976SOL     OW12607   2.681   1.272   8.879
 3976SOL    HW112608   2.655   1.310   8.963
 3976SOL    HW212609   2.609   1.293   8.820
 3977SOL     OW12610   2.533   1.617   7.604
 3977SOL    HW112611   2.543   1.627   7.509
 3977SOL    HW212612   2.481   1.537   7.614
 3978SOL     OW12613   3.496   1.726   8.841
 3978SOL    HW112614   3.543   1.735   8.757
 3978SOL    HW212615   3.482   1.817   8.869
 3979SOL     OW12616   3.701   0.156   8.415
 3979SOL    HW112617   3.732   0.081   8.365
 3979SOL    HW212618   3.614   0.175   8.379
 3980SOL     OW12619   2.129   0.325   8.168
 3980SOL    HW112620   2.044   0.359   8.139
 3980SOL    HW212621   2.119   0.314   8.263
 3981SOL     OW12622   3.067   1.608   7.479
 3981SOL    HW112623   3.060   1.517   7.507
 3981SOL    HW212624   3.002   1.617   7.409
 3982SOL     OW12625   2.686   1.006   8.820
 3982SOL    HW112626   2.729   1.002   8.734
 3982SOL    HW212627   2.688   1.099   8.844
 3983SOL     OW12628   2.777   0.910   7.737
 3983SOL    HW112629   2.840   0.941   7.672
 3983SOL    HW212630   2.823   0.839   7.782
 3984SOL     OW12631   3.358   1.624   7.490
 3984SOL    HW112632   3.263   1.621   7.479
 3984SOL    HW212633   3.392   1.630   7.401
 3985SOL     OW12634   2.232   1.299   8.940
 3985SOL    HW112635   2.219   1.378   8.887
 3985SOL    HW212636   2.154   1.246   8.923
 3986SOL     OW12637   3.474   1.283   8.729
 3986SOL    HW112638   3.533   1.276   8.805
 3986SOL    HW212639   3.413   1.354   8.753
 3987SOL     OW12640   2.909   1.105   8.153
 3987SOL    HW112641   2.839   1.054   8.193
 3987SOL    HW212642   2.970   1.039   8.118
 3988SOL     OW12643   2.870   0.241   8.443
 3988SOL    HW112644   2.877   0.210   8.352
 3988SOL    HW212645   2.863   0.161   8.495
 3989SOL     OW12646   2.464   1.491   7.930
 3989SOL    HW112647   2.503   1.437   7.861
 3989SOL    HW212648   2.396   1.541   7.886
 3990SOL     OW12649   3.581   0.393   8.826
 3990SOL    HW112650   3.653   0.456   8.824
 3990SOL    HW212651   3.610   0.321   8.770
 3991SOL     OW12652   2.120   1.348   7.735
 3991SOL    HW112653   2.027   1.345   7.713
 3991SOL    HW212654   2.122   1.384   7.823
 3992SOL     OW12655   1.974   1.017   9.167
 3992SOL    HW112656   1.898   0.995   9.221
 3992SOL    HW212657   2.048   0.982   9.216
 3993SOL     OW12658   2.522   0.203   8.944
 3993SOL    HW112659   2.602   0.179   8.898
 3993SOL    HW212660   2.550   0.221   9.033
 3994SOL     OW12661   1.942   0.344   7.494
 3994SOL    HW112662   1.869   0.294   7.458
 3994SOL    HW212663   1.959   0.412   7.428
 3995SOL     OW12664   3.295   0.858   8.850
 3995SOL    HW112665   3.246   0.917   8.792
 3995SOL    HW212666   3.384   0.862   8.816
 3996SOL     OW12667   1.929   0.179   7.771
 3996SOL    HW112668   1.924   0.245   7.702
 3996SOL    HW212669   2.004   0.125   7.748
 3997SOL     OW12670   3.042   1.342   7.565
 3997SOL    HW112671   2.952   1.311   7.569
 3997SOL    HW212672   3.071   1.341   7.656
 3998SOL     OW12673   2.480   0.831   8.880
 3998SOL    HW112674   2.535   0.908   8.866
 3998SOL    HW212675   2.542   0.759   8.888
 3999SOL     OW12676   3.347   1.774   8.422
 3999SOL    HW112677   3.374   1.831   8.350
 3999SOL    HW212678   3.428   1.759   8.472
 4000SOL     OW12679   2.578   0.564   9.155
 4000SOL    HW112680   2.612   0.629   9.217
 4000SOL    HW212681   2.617   0.481   9.184
 4001SOL     OW12682   3.330   1.204   9.081
 4001SOL    HW112683   3.318   1.217   9.175
 4001SOL    HW212684   3.424   1.215   9.067
 4002SOL     OW12685   2.246   1.739   9.012
 4002SOL    HW112686   2.159   1.774   8.995
 4002SOL    HW212687   2.231   1.654   9.053
 4003SOL     OW12688   3.534   0.882   8.704
 4003SOL    HW112689   3.524   0.797   8.661
 4003SOL    HW212690   3.525   0.945   8.633
 4004SOL     OW12691   3.080   0.327   7.896
 4004SOL    HW112692   3.145   0.257   7.887
 4004SOL    HW212693   3.106   0.374   7.975
 4005SOL     OW12694   2.451   0.741   8.116
 4005SOL    HW112695   2.493   0.825   8.098
 4005SOL    HW212696   2.381   0.734   8.051
 4006SOL     OW12697   3.629   0.360   9.090
 4006SOL    HW112698   3.612   0.374   8.997
 4006SOL    HW212699   3.550   0.316   9.123
 4007SOL     OW12700   3.606   0.933   8.961
 4007SOL    HW112701   3.609   1.028   8.974
 4007SOL    HW212702   3.590   0.922   8.867
 4008SOL     OW12703   2.722   1.369   7.476
 4008SOL    HW112704   2.685   1.394   7.561
 4008SOL    HW212705   2.745   1.452   7.434
 4009SOL     OW12706   2.520   1.798   8.384
 4009SOL    HW112707   2.515   1.890   8.411
 4009SOL    HW212708   2.614   1.777   8.387
 4010SOL     OW12709   2.728   0.965   8.304
 4010SOL    HW112710   2.778   0.894   8.344
 4010SOL    HW212711   2.695   1.016   8.378
 4011SOL     OW12712   2.943   0.989   7.537
 4011SOL    HW112713   2.920   1.038   7.457
 4011SOL    HW212714   3.018   0.935   7.511
 4012SOL     OW12715   3.719   1.557   8.294
 4012SOL    HW112716   3.642   1.545   8.237
 4012SOL    HW212717   3.711   1.488   8.359
 4013SOL     OW12718   2.086   1.304   9.304
 4013SOL    HW112719   2.017   1.244   9.275
 4013SOL    HW212720   2.069   1.317   9.397
 4014SOL     OW12721   1.946   1.236   8.111
 4014SOL    HW112722   1.946   1.187   8.193
 4014SOL    HW212723   2.015   1.195   8.059
 4015SOL     OW12724   2.541   1.400   9.073
 4015SOL    HW112725   2.462   1.356   9.103
 4015SOL    HW212726   2.536   1.488   9.111
 4016SOL     OW12727   3.673   0.184   8.687
 4016SOL    HW112728   3.673   0.091   8.708
 4016SOL    HW212729   3.688   0.187   8.592
 4017SOL     OW12730   2.296   0.433   7.975
 4017SOL    HW112731   2.320   0.363   7.915
 4017SOL    HW212732   2.243   0.390   8.042
 4018SOL     OW12733   3.563   1.492   8.549
 4018SOL    HW112734   3.482   1.465   8.506
 4018SOL    HW212735   3.579   1.423   8.614
 4019SOL     OW12736   2.189   0.554   8.738
 4019SOL    HW112737   2.244   0.498   8.793
 4019SOL    HW212738   2.210   0.528   8.649
 4020SOL     OW12739   2.686   1.579   8.128
 4020SOL    HW112740   2.681   1.619   8.042
 4020SOL    HW212741   2.608   1.523   8.133
 4021SOL     OW12742   3.294   0.215   8.566
 4021SOL    HW112743   3.331   0.146   8.620
 4021SOL    HW212744   3.243   0.268   8.627
 4022SOL     OW12745   2.860   0.014   8.596
 4022SOL    HW112746   2.813   4.431   8.586
 4022SOL    HW212747   2.951   4.488   8.609
 4023SOL     OW12748   2.634   1.332   7.757
 4023SOL    HW112749   2.599   1.243   7.764
 4023SOL    HW212750   2.716   1.329   7.806
 4024SOL     OW12751   2.482   1.560   8.730
 4024SOL    HW112752   2.486   1.639   8.784
 4024SOL    HW212753   2.570   1.552   8.694
 4025SOL     OW12754   3.205   0.054   7.599
 4025SOL    HW112755   3.245   4.480   7.554
 4025SOL    HW212756   3.130   0.017   7.645
 4026SOL     OW12757   3.176   0.463   8.130
 4026SOL    HW112758   3.113   0.534   8.130
 4026SOL    HW212759   3.164   0.419   8.214
 4027SOL     OW12760   3.448   0.203   8.315
 4027SOL    HW112761   3.386   0.217   8.387
 4027SOL    HW212762   3.451   0.287   8.270
 4028SOL     OW12763   1.906   1.074   7.752
 4028SOL    HW112764   2.000   1.063   7.736
 4028SOL    HW212765   1.876   0.986   7.776
 4029SOL     OW12766   2.743   1.649   7.793
 4029SOL    HW112767   2.671   1.630   7.732
 4029SOL    HW212768   2.713   1.725   7.842
 4030SOL     OW12769   2.092   0.628   9.429
 4030SOL    HW112770   2.004   0.621   9.466
 4030SOL    HW212771   2.083   0.595   9.340
 4031SOL     OW12772   2.073   0.294  10.298
 4031SOL    HW112773   2.103   0.269  10.385
 4031SOL    HW212774   1.990   0.247  10.287
 4032SOL     OW12775   1.871   0.383   9.950
 4032SOL    HW112776   1.785   0.404   9.986
 4032SOL    HW212777   1.855   0.308   9.893
 4033SOL     OW12778   2.429   1.282  10.482
 4033SOL    HW112779   2.341   1.282  10.444
 4033SOL    HW212780   2.441   1.371  10.516
 4034SOL     OW12781   3.419   1.512  10.015
 4034SOL    HW112782   3.375   1.494  10.098
 4034SOL    HW212783   3.348   1.517   9.951
 4035SOL     OW12784   2.993   0.700  10.012
 4035SOL    HW112785   3.042   0.782  10.001
 4035SOL    HW212786   2.944   0.713  10.093
 4036SOL     OW12787   3.626   0.609   9.540
 4036SOL    HW112788   3.607   0.597   9.447
 4036SOL    HW212789   3.594   0.528   9.581
 4037SOL     OW12790   2.623   1.145  10.348
 4037SOL    HW112791   2.552   1.178  10.403
 4037SOL    HW212792   2.655   1.223  10.302
 4038SOL     OW12793   2.711   0.783   0.020
 4038SOL    HW112794   2.719   0.841   0.096
 4038SOL    HW212795   2.745   0.835  11.047
 4039SOL     OW12796   2.549   1.008   9.959
 4039SOL    HW112797   2.612   0.992  10.029
 4039SOL    HW212798   2.478   1.057  10.001
 4040SOL     OW12799   2.194   1.429  10.378
 4040SOL    HW112800   2.120   1.393  10.328
 4040SOL    HW212801   2.245   1.478  10.314
 4041SOL     OW12802   3.325   1.500  10.656
 4041SOL    HW112803   3.374   1.581  10.667
 4041SOL    HW212804   3.282   1.486  10.741
 4042SOL     OW12805   2.308   0.395  10.792
 4042SOL    HW112806   2.385   0.340  10.802
 4042SOL    HW212807   2.234   0.341  10.819
 4043SOL     OW12808   3.475   0.448  10.048
 4043SOL    HW112809   3.394   0.473  10.002
 4043SOL    HW212810   3.498   0.525  10.099
 4044SOL     OW12811   2.079   1.707   9.779
 4044SOL    HW112812   2.105   1.779   9.836
 4044SOL    HW212813   2.150   1.701   9.715
 4045SOL     OW12814   2.093   1.438   9.846
 4045SOL    HW112815   2.073   1.531   9.848
 4045SOL    HW212816   2.030   1.398   9.905
 4046SOL     OW12817   2.116   1.090  10.201
 4046SOL    HW112818   2.113   1.004  10.243
 4046SOL    HW212819   2.057   1.145  10.253
 4047SOL     OW12820   2.476   1.790  10.739
 4047SOL    HW112821   2.396   1.771  10.787
 4047SOL    HW212822   2.499   1.880  10.764
 4048SOL     OW12823   2.452   0.979   9.441
 4048SOL    HW112824   2.493   1.032   9.374
 4048SOL    HW212825   2.494   1.007   9.523
 4049SOL     OW12826   3.420   0.129  10.780
 4049SOL    HW112827   3.466   0.191  10.722
 4049SOL    HW212828   3.469   0.132  10.862
 4050SOL     OW12829   1.977   0.651   9.869
 4050SOL    HW112830   1.948   0.562   9.891
 4050SOL    HW212831   1.968   0.699   9.951
 4051SOL     OW12832   3.703   1.761   9.647
 4051SOL    HW112833   3.761   1.732   9.717
 4051SOL    HW212834   3.731   1.851   9.629
 4052SOL     OW12835   1.893   1.597   9.434
 4052SOL    HW112836   1.874   1.505   9.452
 4052SOL    HW212837   1.866   1.643   9.513
 4053SOL     OW12838   3.553   0.921   9.948
 4053SOL    HW112839   3.638   0.880   9.930
 4053SOL    HW212840   3.532   0.969   9.868
 4054SOL     OW12841   3.507   1.108   9.739
 4054SOL    HW112842   3.592   1.117   9.697
 4054SOL    HW212843   3.511   1.168   9.814
 4055SOL     OW12844   1.985   0.727  10.911
 4055SOL    HW112845   2.079   0.747  10.912
 4055SOL    HW212846   1.943   0.813  10.905
 4056SOL     OW12847   2.474   1.381  10.045
 4056SOL    HW112848   2.428   1.298  10.054
 4056SOL    HW212849   2.458   1.408   9.955
 4057SOL     OW12850   3.159   1.238  10.750
 4057SOL    HW112851   3.183   1.176  10.681
 4057SOL    HW212852   3.214   1.213  10.824
 4058SOL     OW12853   2.676   0.011   9.854
 4058SOL    HW112854   2.710   0.097   9.831
 4058SOL    HW212855   2.581   0.020   9.847
 4059SOL     OW12856   2.054   0.969  10.576
 4059SOL    HW112857   2.137   0.924  10.561
 4059SOL    HW212858   1.988   0.911  10.539
 4060SOL     OW12859   3.394   0.991   9.506
 4060SOL    HW112860   3.324   0.933   9.535
 4060SOL    HW212861   3.433   1.025   9.587
 4061SOL     OW12862   3.056   1.805  10.926
 4061SOL    HW112863   3.060   1.865  10.852
 4061SOL    HW212864   3.064   1.718  10.886
 4062SOL     OW12865   2.194   0.274  11.088
 4062SOL    HW112866   2.252   0.337   0.031
 4062SOL    HW212867   2.111   0.280   0.036
 4063SOL     OW12868   3.328   1.420  10.263
 4063SOL    HW112869   3.259   1.434  10.328
 4063SOL    HW212870   3.316   1.329  10.235
 4064SOL     OW12871   3.524   1.732   9.887
 4064SOL    HW112872   3.500   1.704   9.799
 4064SOL    HW212873   3.498   1.659   9.943
 4065SOL     OW12874   2.456   0.724   9.574
 4065SOL    HW112875   2.465   0.804   9.522
 4065SOL    HW212876   2.391   0.746   9.640
 4066SOL     OW12877   3.151   0.357  10.245
 4066SOL    HW112878   3.063   0.325  10.229
 4066SOL    HW212879   3.189   0.294  10.307
 4067SOL     OW12880   3.444   1.668   9.619
 4067SOL    HW112881   3.532   1.703   9.613
 4067SOL    HW212882   3.419   1.650   9.528
 4068SOL     OW12883   2.658   0.616  10.766
 4068SOL    HW112884   2.626   0.593  10.854
 4068SOL    HW212885   2.616   0.553  10.708
 4069SOL     OW12886   2.828   0.897  10.898
 4069SOL    HW112887   2.876   0.823  10.860
 4069SOL    HW212888   2.778   0.933  10.825
 4070SOL     OW12889   2.857   0.417  10.549
 4070SOL    HW112890   2.771   0.431  10.589
 4070SOL    HW212891   2.838   0.365  10.471
 4071SOL     OW12892   2.911   0.698   9.738
 4071SOL    HW112893   2.926   0.691   9.832
 4071SOL    HW212894   2.829   0.651   9.723
 4072SOL     OW12895   1.951   0.820  10.086
 4072SOL    HW112896   2.033   0.812  10.135
 4072SOL    HW212897   1.908   0.898  10.121
 4073SOL     OW12898   1.993   1.831  10.893
 4073SOL    HW112899   1.966   1.808  10.983
 4073SOL    HW212900   1.911   1.852  10.849
 4074SOL     OW12901   2.716   0.368   9.489
 4074SOL    HW112902   2.792   0.403   9.442
 4074SOL    HW212903   2.733   0.274   9.494
 4075SOL     OW12904   3.237   1.143   9.852
 4075SOL    HW112905   3.315   1.128   9.799
 4075SOL    HW212906   3.184   1.205   9.801
 4076SOL     OW12907   2.403   0.201  10.211
 4076SOL    HW112908   2.421   0.219  10.303
 4076SOL    HW212909   2.394   0.288  10.171
 4077SOL     OW12910   2.871   1.446   9.784
 4077SOL    HW112911   2.830   1.517   9.735
 4077SOL    HW212912   2.857   1.469   9.876
 4078SOL     OW12913   2.217   1.798  10.175
 4078SOL    HW112914   2.253   1.710  10.180
 4078SOL    HW212915   2.291   1.855  10.196
 4079SOL     OW12916   3.660   1.062  10.177
 4079SOL    HW112917   3.603   1.044  10.102
 4079SOL    HW212918   3.600   1.066  10.252
 4080SOL     OW12919   3.087   1.541  10.825
 4080SOL    HW112920   3.097   1.455  10.865
 4080SOL    HW212921   3.031   1.526  10.749
 4081SOL     OW12922   2.184   0.955   9.558
 4081SOL    HW112923   2.265   0.974   9.512
 4081SOL    HW212924   2.152   0.873   9.518
 4082SOL     OW12925   3.338   0.739  10.036
 4082SOL    HW112926   3.324   0.691  10.118
 4082SOL    HW212927   3.414   0.794  10.053
 4083SOL     OW12928   2.315   1.269  11.053
 4083SOL    HW112929   2.287   1.276  10.961
 4083SOL    HW212930   2.249   1.213  11.094
 4084SOL     OW12931   2.982   1.777   9.542
 4084SOL    HW112932   2.911   1.733   9.589
 4084SOL    HW212933   3.004   1.718   9.470
 4085SOL     OW12934   2.056   0.268  10.812
 4085SOL    HW112935   1.987   0.334  10.803
 4085SOL    HW212936   2.067   0.256  10.906
 4086SOL     OW12937   3.492   1.379   9.396
 4086SOL    HW112938   3.451   1.464   9.382
 4086SOL    HW212939   3.422   1.315   9.378
 4087SOL     OW12940   2.330   1.736   9.632
 4087SOL    HW112941   2.370   1.793   9.696
 4087SOL    HW212942   2.401   1.709   9.575
 4088SOL     OW12943   3.277   0.130   9.729
 4088SOL    HW112944   3.260   0.084   9.647
 4088SOL    HW212945   3.373   0.129   9.737
 4089SOL     OW12946   2.104   1.781  10.551
 4089SOL    HW112947   2.169   1.724  10.592
 4089SOL    HW212948   2.108   1.758  10.458
 4090SOL     OW12949   2.799   1.697  10.213
 4090SOL    HW112950   2.878   1.645  10.230
 4090SOL    HW212951   2.754   1.650  10.143
 4091SOL     OW12952   2.252   0.695   9.788
 4091SOL    HW112953   2.277   0.603   9.797
 4091SOL    HW212954   2.158   0.697   9.807
 4092SOL     OW12955   2.485   0.123   9.430
 4092SOL    HW112956   2.574   0.088   9.439
 4092SOL    HW212957   2.454   0.089   9.346
 4093SOL     OW12958   2.626   0.266  11.044
 4093SOL    HW112959   2.694   0.208  11.079
 4093SOL    HW212960   2.581   0.300   0.022
 4094SOL     OW12961   2.738   1.521  10.503
 4094SOL    HW112962   2.724   1.485  10.415
 4094SOL    HW212963   2.809   1.467  10.539
 4095SOL     OW12964   3.206   0.589  10.752
 4095SOL    HW112965   3.254   0.570  10.833
 4095SOL    HW212966   3.233   0.678  10.728
 4096SOL     OW12967   2.675   1.399  10.245
 4096SOL    HW112968   2.758   1.389  10.200
 4096SOL    HW212969   2.609   1.395  10.175
 4097SOL     OW12970   2.784   0.515  10.212
 4097SOL    HW112971   2.767   0.512  10.118
 4097SOL    HW212972   2.825   0.431  10.231
 4098SOL     OW12973   2.415   0.072   9.830
 4098SOL    HW112974   2.325   0.050   9.854
 4098SOL    HW212975   2.405   0.141   9.764
 4099SOL     OW12976   3.291   1.197   9.351
 4099SOL    HW112977   3.322   1.122   9.401
 4099SOL    HW212978   3.205   1.217   9.388
 4100SOL     OW12979   2.158   0.072   9.501
 4100SOL    HW112980   2.237   0.124   9.482
 4100SOL    HW212981   2.189   4.499   9.554
 4101SOL     OW12982   2.811   0.240   9.783
 4101SOL    HW112983   2.759   0.287   9.718
 4101SOL    HW212984   2.899   0.275   9.773
 4102SOL     OW12985   2.940   0.682  10.773
 4102SOL    HW112986   2.867   0.620  10.773
 4102SOL    HW212987   3.018   0.627  10.763
 4103SOL     OW12988   3.086   1.570  10.104
 4103SOL    HW112989   3.105   1.637  10.039
 4103SOL    HW212990   3.155   1.581  10.170
 4104SOL     OW12991   2.329   1.148  10.048
 4104SOL    HW112992   2.258   1.129  10.109
 4104SOL    HW212993   2.291   1.130   9.961
 4105SOL     OW12994   3.133   1.795   9.915
 4105SOL    HW112995   3.177   1.857   9.856
 4105SOL    HW212996   3.069   1.849   9.962
 4106SOL     OW12997   2.893   0.549   9.324
 4106SOL    HW112998   2.846   0.631   9.308
 4106SOL    HW212999   2.951   0.569   9.398
 4107SOL     OW13000   1.939   0.551  10.705
 4107SOL    HW113001   2.030   0.554  10.674
 4107SOL    HW213002   1.935   0.617  10.774
 4108SOL     OW13003   2.426   0.241  10.475
 4108SOL    HW113004   2.451   0.154  10.507
 4108SOL    HW213005   2.334   0.250  10.501
 4109SOL     OW13006   2.728   0.500   9.936
 4109SOL    HW113007   2.676   0.542   9.868
 4109SOL    HW213008   2.715   0.406   9.923
 4110SOL     OW13009   2.834   0.033  10.083
 4110SOL    HW113010   2.785   0.028  10.002
 4110SOL    HW213011   2.843   4.442  10.112
 4111SOL     OW13012   3.296   1.164  10.168
 4111SOL    HW113013   3.231   1.095  10.166
 4111SOL    HW213014   3.320   1.178  10.076
 4112SOL     OW13015   3.329   0.602  10.290
 4112SOL    HW113016   3.280   0.521  10.293
 4112SOL    HW213017   3.389   0.597  10.365
 4113SOL     OW13018   3.710   0.819   9.691
 4113SOL    HW113019   3.765   0.767   9.749
 4113SOL    HW213020   3.680   0.758   9.624
 4114SOL     OW13021   2.354   1.414   9.471
 4114SOL    HW113022   2.279   1.384   9.523
 4114SOL    HW213023   2.333   1.388   9.382
 4115SOL     OW13024   3.530   1.266   9.959
 4115SOL    HW113025   3.624   1.271   9.972
 4115SOL    HW213026   3.498   1.353   9.980
 4116SOL     OW13027   3.256   0.570   9.380
 4116SOL    HW113028   3.195   0.554   9.453
 4116SOL    HW213029   3.342   0.547   9.415
 4117SOL     OW13030   2.387   0.265   9.635
 4117SOL    HW113031   2.428   0.212   9.567
 4117SOL    HW213032   2.372   0.350   9.593
 4118SOL     OW13033   3.622   1.229  10.875
 4118SOL    HW113034   3.713   1.199  10.879
 4118SOL    HW213035   3.624   1.316  10.915
 4119SOL     OW13036   2.927   1.355  10.651
 4119SOL    HW113037   2.849   1.321  10.695
 4119SOL    HW213038   3.000   1.306  10.690
 4120SOL     OW13039   2.988   1.204  10.418
 4120SOL    HW113040   2.923   1.239  10.480
 4120SOL    HW213041   2.954   1.230  10.332
 4121SOL     OW13042   3.493   1.100  10.389
 4121SOL    HW113043   3.490   1.162  10.462
 4121SOL    HW213044   3.412   1.115  10.340
 4122SOL     OW13045   2.764   0.127  10.700
 4122SOL    HW113046   2.790   0.086  10.618
 4122SOL    HW213047   2.846   0.138  10.749
 4123SOL     OW13048   2.570   1.061   9.682
 4123SOL    HW113049   2.557   1.046   9.776
 4123SOL    HW213050   2.646   1.007   9.660
 4124SOL     OW13051   2.279   0.814  10.561
 4124SOL    HW113052   2.348   0.823  10.626
 4124SOL    HW213053   2.244   0.726  10.576
 4125SOL     OW13054   3.132   0.381  10.581
 4125SOL    HW113055   3.162   0.459  10.627
 4125SOL    HW213056   3.044   0.403  10.550
 4126SOL     OW13057   1.928   1.573  10.656
 4126SOL    HW113058   1.895   1.647  10.606
 4126SOL    HW213059   2.023   1.583  10.654
 4127SOL     OW13060   2.217   1.106   9.802
 4127SOL    HW113061   2.219   1.179   9.741
 4127SOL    HW213062   2.215   1.028   9.747
 4128SOL     OW13063   2.421   0.533  10.170
 4128SOL    HW113064   2.436   0.591  10.095
 4128SOL    HW213065   2.481   0.563  10.237
 4129SOL     OW13066   3.110   1.348   9.699
 4129SOL    HW113067   3.165   1.420   9.730
 4129SOL    HW213068   3.023   1.368   9.733
 4130SOL     OW13069   3.137   1.456  10.454
 4130SOL    HW113070   3.193   1.459  10.532
 4130SOL    HW213071   3.084   1.377  10.464
 4131SOL     OW13072   3.445   0.626   9.785
 4131SOL    HW113073   3.401   0.680   9.850
 4131SOL    HW213074   3.490   0.688   9.728
 4132SOL     OW13075   2.213   1.518  10.630
 4132SOL    HW113076   2.197   1.479  10.544
 4132SOL    HW213077   2.307   1.534  10.632
 4133SOL     OW13078   2.274   0.737  10.906
 4133SOL    HW113079   2.336   0.783  10.849
 4133SOL    HW213080   2.314   0.651  10.920
 4134SOL     OW13081   3.452   0.763  10.972
 4134SOL    HW113082   3.375   0.819  10.966
 4134SOL    HW213083   3.521   0.813  10.927
 4135SOL     OW13084   2.444   0.872  10.341
 4135SOL    HW113085   2.472   0.963  10.337
 4135SOL    HW213086   2.387   0.868  10.417
 4136SOL     OW13087   3.222   0.860  10.347
 4136SOL    HW113088   3.143   0.854  10.294
 4136SOL    HW213089   3.260   0.772  10.343
 4137SOL     OW13090   3.070   0.534   9.577
 4137SOL    HW113091   3.075   0.453   9.628
 4137SOL    HW213092   3.027   0.597   9.636
 4138SOL     OW13093   2.152   0.235  10.549
 4138SOL    HW113094   2.116   0.252  10.635
 4138SOL    HW213095   2.178   0.143  10.552
 4139SOL     OW13096   1.910   1.310  10.586
 4139SOL    HW113097   1.939   1.258  10.661
 4139SOL    HW213098   1.915   1.401  10.617
 4140SOL     OW13099   2.588   0.633  10.371
 4140SOL    HW113100   2.659   0.612  10.311
 4140SOL    HW213101   2.560   0.721  10.346
 4141SOL     OW13102   2.161   0.061   9.963
 4141SOL    HW113103   2.152   0.156   9.969
 4141SOL    HW213104   2.173   0.032  10.053
 4142SOL     OW13105   3.472   0.374   9.677
 4142SOL    HW113106   3.504   0.311   9.742
 4142SOL    HW213107   3.450   0.452   9.727
 4143SOL     OW13108   2.889   0.761  10.273
 4143SOL    HW113109   2.889   0.777  10.367
 4143SOL    HW213110   2.861   0.670  10.264
 4144SOL     OW13111   2.836   1.571  11.005
 4144SOL    HW113112   2.822   1.620  10.924
 4144SOL    HW213113   2.870   1.487  10.976
 4145SOL     OW13114   3.721   1.498  10.912
 4145SOL    HW113115   3.734   1.532  10.824
 4145SOL    HW213116   3.790   1.539  10.964
 4146SOL     OW13117   2.221   0.920  11.095
 4146SOL    HW113118   2.306   0.932   0.037
 4146SOL    HW213119   2.238   0.853  11.029
 4147SOL     OW13120   3.394   0.268   9.438
 4147SOL    HW113121   3.323   0.211   9.465
 4147SOL    HW213122   3.422   0.312   9.518
 4148SOL     OW13123   3.157   0.827   9.343
 4148SOL    HW113124   3.198   0.741   9.346
 4148SOL    HW213125   3.187   0.866   9.261
 4149SOL     OW13126   2.927   1.334  10.162
 4149SOL    HW113127   2.929   1.261  10.101
 4149SOL    HW213128   2.990   1.397  10.127
 4150SOL     OW13129   2.173   0.810  10.259
 4150SOL    HW113130   2.266   0.832  10.252
 4150SOL    HW213131   2.171   0.721  10.294
 4151SOL     OW13132   2.199   0.527  10.322
 4151SOL    HW113133   2.157   0.444  10.303
 4151SOL    HW213134   2.274   0.530  10.263
 4152SOL     OW13135   3.020   0.216  10.774
 4152SOL    HW113136   3.025   0.274  10.850
 4152SOL    HW213137   3.052   0.268  10.701
 4153SOL     OW13138   1.867   1.323   9.505
 4153SOL    HW113139   1.780   1.336   9.468
 4153SOL    HW213140   1.866   1.233   9.538
 4154SOL     OW13141   1.949   1.793  10.243
 4154SOL    HW113142   1.918   1.711  10.203
 4154SOL    HW213143   2.041   1.799  10.218
 4155SOL     OW13144   2.363   1.570  10.215
 4155SOL    HW113145   2.431   1.635  10.232
 4155SOL    HW213146   2.405   1.504  10.161
 4156SOL     OW13147   2.851   0.796  10.539
 4156SOL    HW113148   2.902   0.771  10.617
 4156SOL    HW213149   2.764   0.758  10.554
 4157SOL     OW13150   1.897   0.542  10.428
 4157SOL    HW113151   1.977   0.522  10.379
 4157SOL    HW213152   1.925   0.549  10.519
 4158SOL     OW13153   2.674   0.573   9.662
 4158SOL    HW113154   2.677   0.500   9.600
 4158SOL    HW213155   2.599   0.625   9.634
 4159SOL     OW13156   3.504   0.601  10.499
 4159SOL    HW113157   3.494   0.541  10.573
 4159SOL    HW213158   3.591   0.582  10.464
 4160SOL     OW13159   2.121   1.563  11.057
 4160SOL    HW113160   2.065   1.604   0.024
 4160SOL    HW213161   2.112   1.469  11.074
 4161SOL     OW13162   2.557   0.459  10.576
 4161SOL    HW113163   2.510   0.382  10.543
 4161SOL    HW213164   2.558   0.519  10.501
 4162SOL     OW13165   2.802   1.682  10.761
 4162SOL    HW113166   2.765   1.652  10.678
 4162SOL    HW213167   2.792   1.777  10.759
 4163SOL     OW13168   2.330   0.493   9.496
 4163SOL    HW113169   2.387   0.567   9.516
 4163SOL    HW213170   2.243   0.533   9.488
 4164SOL     OW13171   2.017   1.138  10.780
 4164SOL    HW113172   2.012   1.081  10.857
 4164SOL    HW213173   2.029   1.078  10.707
 4165SOL     OW13174   3.190   1.054  10.539
 4165SOL    HW113175   3.217   0.989  10.474
 4165SOL    HW213176   3.117   1.100  10.497
 4166SOL     OW13177   3.171   0.856   9.618
 4166SOL    HW113178   3.094   0.827   9.666
 4166SOL    HW213179   3.147   0.843   9.526
 4167SOL     OW13180   3.631   1.748  10.460
 4167SOL    HW113181   3.690   1.773  10.389
 4167SOL    HW213182   3.606   1.658  10.440
 4168SOL     OW13183   3.104   1.733  10.428
 4168SOL    HW113184   3.185   1.751  10.381
 4168SOL    HW213185   3.106   1.639  10.444
 4169SOL     OW13186   1.946   1.266  10.323
 4169SOL    HW113187   1.934   1.277  10.418
 4169SOL    HW213188   1.871   1.213  10.296
 4170SOL     OW13189   3.580   0.130   9.809
 4170SOL    HW113190   3.654   0.134   9.749
 4170SOL    HW213191   3.599   0.055   9.866
 4171SOL     OW13192   3.252   1.568   9.793
 4171SOL    HW113193   3.312   1.598   9.725
 4171SOL    HW213194   3.205   1.647   9.820
 4172SOL     OW13195   3.140   0.926   9.983
 4172SOL    HW113196   3.212   0.863   9.985
 4172SOL    HW213197   3.174   0.998   9.930
 4173SOL     OW13198   2.684   1.272  10.739
 4173SOL    HW113199   2.655   1.306  10.824
 4173SOL    HW213200   2.612   1.292  10.679
 4174SOL     OW13201   2.533   1.617   9.466
 4174SOL    HW113202   2.543   1.627   9.371
 4174SOL    HW213203   2.481   1.538   9.476
 4175SOL     OW13204   3.491   1.720  10.701
 4175SOL    HW113205   3.542   1.733  10.622
 4175SOL    HW213206   3.476   1.808  10.736
 4176SOL     OW13207   3.701   0.156  10.278
 4176SOL    HW113208   3.732   0.081  10.227
 4176SOL    HW213209   3.614   0.175  10.242
 4177SOL     OW13210   2.129   0.325  10.030
 4177SOL    HW113211   2.044   0.359  10.001
 4177SOL    HW213212   2.119   0.314  10.125
 4178SOL     OW13213   3.067   1.608   9.341
 4178SOL    HW113214   3.060   1.517   9.369
 4178SOL    HW213215   3.002   1.618   9.271
 4179SOL     OW13216   2.687   1.005  10.684
 4179SOL    HW113217   2.728   1.000  10.598
 4179SOL    HW213218   2.689   1.098  10.706
 4180SOL     OW13219   2.778   0.910   9.599
 4180SOL    HW113220   2.840   0.942   9.534
 4180SOL    HW213221   2.823   0.839   9.644
 4181SOL     OW13222   3.358   1.624   9.352
 4181SOL    HW113223   3.262   1.621   9.341
 4181SOL    HW213224   3.392   1.630   9.263
 4182SOL     OW13225   2.230   1.302  10.805
 4182SOL    HW113226   2.218   1.378  10.748
 4182SOL    HW213227   2.156   1.245  10.785
 4183SOL     OW13228   3.475   1.283  10.593
 4183SOL    HW113229   3.531   1.274  10.670
 4183SOL    HW213230   3.417   1.356  10.614
 4184SOL     OW13231   2.910   1.105  10.015
 4184SOL    HW113232   2.839   1.053  10.055
 4184SOL    HW213233   2.970   1.040   9.980
 4185SOL     OW13234   2.870   0.241  10.305
 4185SOL    HW113235   2.877   0.211  10.215
 4185SOL    HW213236   2.863   0.161  10.357
 4186SOL     OW13237   2.464   1.490   9.793
 4186SOL    HW113238   2.503   1.437   9.723
 4186SOL    HW213239   2.396   1.541   9.748
 4187SOL     OW13240   3.578   0.393  10.688
 4187SOL    HW113241   3.650   0.457  10.688
 4187SOL    HW213242   3.608   0.323  10.630
 4188SOL     OW13243   2.120   1.348   9.597
 4188SOL    HW113244   2.027   1.345   9.575
 4188SOL    HW213245   2.123   1.383   9.686
 4189SOL     OW13246   1.975   1.010  11.021
 4189SOL    HW113247   1.904   0.994  11.083
 4189SOL    HW213248   2.054   0.982  11.067
 4190SOL     OW13249   2.518   0.189  10.808
 4190SOL    HW113250   2.596   0.169  10.757
 4190SOL    HW213251   2.552   0.223  10.891
 4191SOL     OW13252   1.942   0.344   9.356
 4191SOL    HW113253   1.869   0.294   9.319
 4191SOL    HW213254   1.959   0.412   9.290
 4192SOL     OW13255   3.293   0.849  10.710
 4192SOL    HW113256   3.245   0.915  10.660
 4192SOL    HW213257   3.384   0.859  10.681
 4193SOL     OW13258   1.929   0.179   9.633
 4193SOL    HW113259   1.924   0.246   9.564
 4193SOL    HW213260   2.004   0.125   9.610
 4194SOL     OW13261   3.042   1.342   9.427
 4194SOL    HW113262   2.951   1.312   9.430
 4194SOL    HW213263   3.071   1.341   9.518
 4195SOL     OW13264   2.481   0.831  10.743
 4195SOL    HW113265   2.536   0.908  10.728
 4195SOL    HW213266   2.542   0.758  10.750
 4196SOL     OW13267   3.347   1.774  10.284
 4196SOL    HW113268   3.374   1.831  10.212
 4196SOL    HW213269   3.427   1.758  10.334
 4197SOL     OW13270   2.576   0.564  11.019
 4197SOL    HW113271   2.609   0.636  11.072
 4197SOL    HW213272   2.630   0.489  11.043
 4198SOL     OW13273   2.249   1.735  10.873
 4198SOL    HW113274   2.167   1.782  10.862
 4198SOL    HW213275   2.226   1.657  10.924
 4199SOL     OW13276   3.535   0.883  10.566
 4199SOL    HW113277   3.524   0.798  10.524
 4199SOL    HW213278   3.526   0.946  10.495
 4200SOL     OW13279   3.080   0.327   9.758
 4200SOL    HW113280   3.146   0.257   9.749
 4200SOL    HW213281   3.107   0.374   9.837
 4201SOL     OW13282   2.451   0.741   9.978
 4201SOL    HW113283   2.493   0.825   9.960
 4201SOL    HW213284   2.381   0.734   9.913
 4202SOL     OW13285   3.619   0.316  10.948
 4202SOL    HW113286   3.600   0.357  10.863
 4202SOL    HW213287   3.540   0.329  10.999
 4203SOL     OW13288   3.610   0.935  10.825
 4203SOL    HW113289   3.605   1.029  10.839
 4203SOL    HW213290   3.592   0.923  10.732
 4204SOL     OW13291   2.725   1.369   9.339
 4204SOL    HW113292   2.685   1.394   9.422
 4204SOL    HW213293   2.744   1.452   9.296
 4205SOL     OW13294   2.517   1.803  10.245
 4205SOL    HW113295   2.503   1.884  10.295
 4205SOL    HW213296   2.611   1.789  10.249
 4206SOL     OW13297   2.727   0.965  10.166
 4206SOL    HW113298   2.778   0.894  10.206
 4206SOL    HW213299   2.695   1.016  10.241
 4207SOL     OW13300   2.943   0.988   9.399
 4207SOL    HW113301   2.920   1.038   9.320
 4207SOL    HW213302   3.018   0.935   9.373
 4208SOL     OW13303   3.719   1.557  10.156
 4208SOL    HW113304   3.642   1.545  10.100
 4208SOL    HW213305   3.712   1.488  10.221
 4209SOL     OW13306   1.945   1.236   9.973
 4209SOL    HW113307   1.945   1.186  10.055
 4209SOL    HW213308   2.015   1.196   9.920
 4210SOL     OW13309   2.540   1.394  10.934
 4210SOL    HW113310   2.466   1.344  10.969
 4210SOL    HW213311   2.513   1.485  10.942
 4211SOL     OW13312   3.670   0.183  10.550
 4211SOL    HW113313   3.677   0.089  10.570
 4211SOL    HW213314   3.686   0.189  10.456
 4212SOL     OW13315   2.296   0.433   9.837
 4212SOL    HW113316   2.320   0.363   9.777
 4212SOL    HW213317   2.243   0.390   9.904
 4213SOL     OW13318   3.563   1.492  10.411
 4213SOL    HW113319   3.483   1.465  10.368
 4213SOL    HW213320   3.581   1.424  10.476
 4214SOL     OW13321   2.188   0.555  10.600
 4214SOL    HW113322   2.242   0.498  10.656
 4214SOL    HW213323   2.209   0.527  10.511
 4215SOL     OW13324   2.687   1.578   9.990
 4215SOL    HW113325   2.682   1.621   9.905
 4215SOL    HW213326   2.608   1.524   9.994
 4216SOL     OW13327   3.293   0.214  10.429
 4216SOL    HW113328   3.334   0.147  10.483
 4216SOL    HW213329   3.243   0.268  10.490
 4217SOL     OW13330   2.859   0.014  10.457
 4217SOL    HW113331   2.812   4.431  10.447
 4217SOL    HW213332   2.950   4.488  10.472
 4218SOL     OW13333   2.633   1.332   9.620
 4218SOL    HW113334   2.598   1.243   9.626
 4218SOL    HW213335   2.716   1.329   9.668
 4219SOL     OW13336   2.482   1.559  10.594
 4219SOL    HW113337   2.484   1.641  10.644
 4219SOL    HW213338   2.569   1.552  10.556
 4220SOL     OW13339   3.205   0.054   9.462
 4220SOL    HW113340   3.245   4.480   9.416
 4220SOL    HW213341   3.130   0.017   9.507
 4221SOL     OW13342   3.176   0.463   9.992
 4221SOL    HW113343   3.113   0.534   9.992
 4221SOL    HW213344   3.164   0.419  10.076
 4222SOL     OW13345   3.448   0.203  10.178
 4222SOL    HW113346   3.386   0.217  10.249
 4222SOL    HW213347   3.451   0.287  10.132
 4223SOL     OW13348   1.906   1.074   9.615
 4223SOL    HW113349   1.999   1.063   9.597
 4223SOL    HW213350   1.876   0.986   9.638
 4224SOL     OW13351   2.743   1.649   9.655
 4224SOL    HW113352   2.672   1.630   9.593
 4224SOL    HW213353   2.713   1.725   9.704
 4225SOL     OW13354   2.068   2.521   0.103
 4225SOL    HW113355   1.994   2.486   0.152
 4225SOL    HW213356   2.106   2.446   0.058
 4226SOL     OW13357   1.865   2.246   0.630
 4226SOL    HW113358   1.786   2.266   0.681
 4226SOL    HW213359   1.848   2.161   0.590
 4227SOL     OW13360   2.428   3.143   1.172
 4227SOL    HW113361   2.341   3.146   1.133
 4227SOL    HW213362   2.443   3.232   1.206
 4228SOL     OW13363   3.419   3.373   0.705
 4228SOL    HW113364   3.375   3.356   0.788
 4228SOL    HW213365   3.348   3.378   0.641
 4229SOL     OW13366   2.991   2.561   0.704
 4229SOL    HW113367   3.041   2.641   0.690
 4229SOL    HW213368   2.945   2.576   0.787
 4230SOL     OW13369   3.633   2.466   0.222
 4230SOL    HW113370   3.588   2.462   0.138
 4230SOL    HW213371   3.595   2.395   0.273
 4231SOL     OW13372   2.621   3.006   1.037
 4231SOL    HW113373   2.551   3.040   1.093
 4231SOL    HW213374   2.655   3.084   0.992
 4232SOL     OW13375   2.721   2.645   1.821
 4232SOL    HW113376   2.713   2.717   1.883
 4232SOL    HW213377   2.747   2.687   1.739
 4233SOL     OW13378   2.549   2.871   0.649
 4233SOL    HW113379   2.612   2.855   0.719
 4233SOL    HW213380   2.478   2.919   0.691
 4234SOL     OW13381   2.569   3.014   1.808
 4234SOL    HW113382   2.617   3.094   1.832
 4234SOL    HW213383   2.485   3.046   1.775
 4235SOL     OW13384   2.193   3.291   1.068
 4235SOL    HW113385   2.121   3.255   1.016
 4235SOL    HW213386   2.245   3.342   1.005
 4236SOL     OW13387   3.324   3.360   1.350
 4236SOL    HW113388   3.366   3.445   1.360
 4236SOL    HW213389   3.271   3.349   1.429
 4237SOL     OW13390   3.475   2.312   0.739
 4237SOL    HW113391   3.399   2.339   0.688
 4237SOL    HW213392   3.497   2.388   0.792
 4238SOL     OW13393   2.082   3.574   0.476
 4238SOL    HW113394   2.106   3.652   0.526
 4238SOL    HW213395   2.147   3.569   0.407
 4239SOL     OW13396   2.997   3.203   1.691
 4239SOL    HW113397   3.037   3.199   1.778
 4239SOL    HW213398   2.945   3.123   1.685
 4240SOL     OW13399   2.091   3.301   0.534
 4240SOL    HW113400   2.075   3.396   0.538
 4240SOL    HW213401   2.027   3.264   0.595
 4241SOL     OW13402   2.115   2.954   0.890
 4241SOL    HW113403   2.112   2.867   0.932
 4241SOL    HW213404   2.056   3.008   0.942
 4242SOL     OW13405   2.478   3.652   1.432
 4242SOL    HW113406   2.395   3.635   1.476
 4242SOL    HW213407   2.500   3.742   1.456
 4243SOL     OW13408   2.451   2.844   0.136
 4243SOL    HW113409   2.484   2.907   0.073
 4243SOL    HW213410   2.494   2.867   0.218
 4244SOL     OW13411   3.458   1.982   1.470
 4244SOL    HW113412   3.454   2.061   1.416
 4244SOL    HW213413   3.447   2.014   1.560
 4245SOL     OW13414   1.983   2.505   0.562
 4245SOL    HW113415   1.946   2.419   0.582
 4245SOL    HW213416   1.968   2.557   0.641
 4246SOL     OW13417   3.703   3.624   0.337
 4246SOL    HW113418   3.762   3.593   0.406
 4246SOL    HW213419   3.732   3.713   0.318
 4247SOL     OW13420   1.903   3.464   0.120
 4247SOL    HW113421   1.876   3.375   0.142
 4247SOL    HW213422   1.875   3.517   0.196
 4248SOL     OW13423   3.550   2.779   0.637
 4248SOL    HW113424   3.638   2.743   0.621
 4248SOL    HW213425   3.531   2.831   0.559
 4249SOL     OW13426   3.507   2.969   0.432
 4249SOL    HW113427   3.589   2.982   0.384
 4249SOL    HW213428   3.512   3.030   0.505
 4250SOL     OW13429   1.982   2.597   1.583
 4250SOL    HW113430   2.070   2.612   1.619
 4250SOL    HW213431   1.937   2.681   1.595
 4251SOL     OW13432   2.474   3.244   0.735
 4251SOL    HW113433   2.428   3.160   0.744
 4251SOL    HW213434   2.457   3.271   0.645
 4252SOL     OW13435   3.153   3.101   1.424
 4252SOL    HW113436   3.185   3.033   1.365
 4252SOL    HW213437   3.208   3.093   1.502
 4253SOL     OW13438   2.673   1.861   0.503
 4253SOL    HW113439   2.714   1.947   0.491
 4253SOL    HW213440   2.580   1.881   0.515
 4254SOL     OW13441   2.054   2.832   1.268
 4254SOL    HW113442   2.137   2.788   1.250
 4254SOL    HW213443   1.988   2.775   1.229
 4255SOL     OW13444   3.384   2.860   0.199
 4255SOL    HW113445   3.320   2.796   0.232
 4255SOL    HW213446   3.430   2.889   0.278
 4256SOL     OW13447   3.047   3.665   1.620
 4256SOL    HW113448   3.063   3.722   1.545
 4256SOL    HW213449   3.062   3.577   1.586
 4257SOL     OW13450   3.327   3.282   0.953
 4257SOL    HW113451   3.259   3.295   1.019
 4257SOL    HW213452   3.316   3.191   0.926
 4258SOL     OW13453   3.523   3.595   0.579
 4258SOL    HW113454   3.501   3.567   0.490
 4258SOL    HW213455   3.497   3.521   0.633
 4259SOL     OW13456   2.462   2.585   0.269
 4259SOL    HW113457   2.467   2.660   0.209
 4259SOL    HW213458   2.389   2.605   0.327
 4260SOL     OW13459   3.142   2.209   0.932
 4260SOL    HW113460   3.053   2.176   0.940
 4260SOL    HW213461   3.192   2.157   0.995
 4261SOL     OW13462   3.444   3.530   0.311
 4261SOL    HW113463   3.533   3.564   0.305
 4261SOL    HW213464   3.420   3.511   0.220
 4262SOL     OW13465   2.655   2.482   1.454
 4262SOL    HW113466   2.630   2.456   1.542
 4262SOL    HW213467   2.620   2.413   1.397
 4263SOL     OW13468   3.256   2.336   1.678
 4263SOL    HW113469   3.256   2.380   1.763
 4263SOL    HW213470   3.319   2.265   1.688
 4264SOL     OW13471   2.820   2.750   1.580
 4264SOL    HW113472   2.874   2.679   1.546
 4264SOL    HW213473   2.773   2.783   1.504
 4265SOL     OW13474   2.856   2.273   1.240
 4265SOL    HW113475   2.771   2.299   1.277
 4265SOL    HW213476   2.833   2.226   1.160
 4266SOL     OW13477   2.911   2.562   0.427
 4266SOL    HW113478   2.926   2.556   0.521
 4266SOL    HW213479   2.828   2.516   0.413
 4267SOL     OW13480   1.951   2.682   0.773
 4267SOL    HW113481   2.034   2.677   0.822
 4267SOL    HW213482   1.907   2.758   0.809
 4268SOL     OW13483   1.991   3.699   1.575
 4268SOL    HW113484   1.988   3.681   1.669
 4268SOL    HW213485   1.899   3.706   1.549
 4269SOL     OW13486   2.744   2.215   0.205
 4269SOL    HW113487   2.796   2.270   0.145
 4269SOL    HW213488   2.761   2.126   0.176
 4270SOL     OW13489   3.574   2.440   1.828
 4270SOL    HW113490   3.537   2.516   1.783
 4270SOL    HW213491   3.596   2.379   1.757
 4271SOL     OW13492   3.236   3.004   0.542
 4271SOL    HW113493   3.315   2.989   0.489
 4271SOL    HW213494   3.185   3.066   0.491
 4272SOL     OW13495   2.871   3.309   0.475
 4272SOL    HW113496   2.829   3.379   0.426
 4272SOL    HW213497   2.856   3.331   0.566
 4273SOL     OW13498   2.216   3.668   0.858
 4273SOL    HW113499   2.260   3.583   0.867
 4273SOL    HW213500   2.285   3.732   0.873
 4274SOL     OW13501   3.659   2.922   0.867
 4274SOL    HW113502   3.602   2.908   0.792
 4274SOL    HW213503   3.600   2.927   0.942
 4275SOL     OW13504   3.090   3.402   1.512
 4275SOL    HW113505   3.076   3.329   1.572
 4275SOL    HW213506   3.030   3.385   1.440
 4276SOL     OW13507   2.179   2.814   0.271
 4276SOL    HW113508   2.256   2.841   0.221
 4276SOL    HW213509   2.147   2.736   0.226
 4277SOL     OW13510   3.337   2.598   0.727
 4277SOL    HW113511   3.326   2.554   0.811
 4277SOL    HW213512   3.413   2.656   0.740
 4278SOL     OW13513   2.326   3.125   1.737
 4278SOL    HW113514   2.297   3.130   1.646
 4278SOL    HW213515   2.245   3.123   1.788
 4279SOL     OW13516   2.969   3.640   0.226
 4279SOL    HW113517   2.912   3.587   0.282
 4279SOL    HW213518   3.009   3.578   0.166
 4280SOL     OW13519   1.976   2.106   1.500
 4280SOL    HW113520   1.973   2.201   1.490
 4280SOL    HW213521   2.059   2.089   1.546
 4281SOL     OW13522   3.490   3.237   0.088
 4281SOL    HW113523   3.449   3.322   0.076
 4281SOL    HW213524   3.424   3.173   0.061
 4282SOL     OW13525   2.331   3.597   0.326
 4282SOL    HW113526   2.367   3.657   0.390
 4282SOL    HW213527   2.405   3.577   0.268
 4283SOL     OW13528   3.263   1.970   0.429
 4283SOL    HW113529   3.253   1.946   0.337
 4283SOL    HW213530   3.358   1.977   0.442
 4284SOL     OW13531   2.116   3.654   1.233
 4284SOL    HW113532   2.169   3.589   1.281
 4284SOL    HW213533   2.105   3.617   1.146
 4285SOL     OW13534   2.800   3.560   0.901
 4285SOL    HW113535   2.877   3.506   0.920
 4285SOL    HW213536   2.754   3.511   0.832
 4286SOL     OW13537   2.250   2.558   0.475
 4286SOL    HW113538   2.272   2.468   0.451
 4286SOL    HW213539   2.157   2.554   0.500
 4287SOL     OW13540   3.401   2.088   1.725
 4287SOL    HW113541   3.408   2.109   1.818
 4287SOL    HW213542   3.332   2.021   1.722
 4288SOL     OW13543   2.466   1.975   0.121
 4288SOL    HW113544   2.557   1.949   0.138
 4288SOL    HW213545   2.451   1.949   0.030
 4289SOL     OW13546   2.630   2.140   1.754
 4289SOL    HW113547   2.702   2.077   1.760
 4289SOL    HW213548   2.577   2.124   1.832
 4290SOL     OW13549   2.739   3.383   1.193
 4290SOL    HW113550   2.724   3.347   1.106
 4290SOL    HW213551   2.808   3.327   1.230
 4291SOL     OW13552   3.204   2.450   1.432
 4291SOL    HW113553   3.234   2.418   1.517
 4291SOL    HW213554   3.239   2.539   1.426
 4292SOL     OW13555   2.674   3.261   0.935
 4292SOL    HW113556   2.758   3.251   0.890
 4292SOL    HW213557   2.609   3.257   0.865
 4293SOL     OW13558   2.787   2.369   0.903
 4293SOL    HW113559   2.764   2.361   0.811
 4293SOL    HW213560   2.822   2.284   0.927
 4294SOL     OW13561   2.407   1.930   0.503
 4294SOL    HW113562   2.327   1.923   0.555
 4294SOL    HW213563   2.400   2.015   0.460
 4295SOL     OW13564   3.289   3.058   0.032
 4295SOL    HW113565   3.322   2.985   0.085
 4295SOL    HW213566   3.205   3.081   0.073
 4296SOL     OW13567   2.155   1.910   0.189
 4296SOL    HW113568   2.217   1.962   0.137
 4296SOL    HW213569   2.207   1.837   0.222
 4297SOL     OW13570   2.798   2.105   0.463
 4297SOL    HW113571   2.771   2.153   0.384
 4297SOL    HW213572   2.893   2.118   0.467
 4298SOL     OW13573   2.942   2.541   1.460
 4298SOL    HW113574   2.872   2.476   1.466
 4298SOL    HW213575   3.022   2.489   1.452
 4299SOL     OW13576   3.086   3.431   0.794
 4299SOL    HW113577   3.105   3.499   0.729
 4299SOL    HW213578   3.155   3.442   0.860
 4300SOL     OW13579   2.330   3.009   0.739
 4300SOL    HW113580   2.258   2.992   0.800
 4300SOL    HW213581   2.292   2.993   0.652
 4301SOL     OW13582   3.133   3.657   0.603
 4301SOL    HW113583   3.178   3.719   0.546
 4301SOL    HW213584   3.070   3.711   0.652
 4302SOL     OW13585   2.877   2.402   0.033
 4302SOL    HW113586   2.846   2.489   0.008
 4302SOL    HW213587   2.955   2.418   0.086
 4303SOL     OW13588   1.943   2.417   1.388
 4303SOL    HW113589   2.038   2.413   1.381
 4303SOL    HW213590   1.926   2.481   1.456
 4304SOL     OW13591   2.458   2.051   1.147
 4304SOL    HW113592   2.469   1.983   1.214
 4304SOL    HW213593   2.373   2.091   1.167
 4305SOL     OW13594   2.727   2.318   0.640
 4305SOL    HW113595   2.687   2.378   0.577
 4305SOL    HW213596   2.750   2.240   0.589
 4306SOL     OW13597   2.876   1.914   0.754
 4306SOL    HW113598   2.817   1.904   0.679
 4306SOL    HW213599   2.856   1.838   0.809
 4307SOL     OW13600   3.297   3.026   0.858
 4307SOL    HW113601   3.231   2.958   0.856
 4307SOL    HW213602   3.320   3.040   0.766
 4308SOL     OW13603   3.330   2.463   0.981
 4308SOL    HW113604   3.283   2.380   0.987
 4308SOL    HW213605   3.391   2.461   1.055
 4309SOL     OW13606   3.712   2.679   0.378
 4309SOL    HW113607   3.765   2.627   0.439
 4309SOL    HW213608   3.682   2.616   0.313
 4310SOL     OW13609   2.355   3.284   0.173
 4310SOL    HW113610   2.278   3.257   0.223
 4310SOL    HW213611   2.348   3.237   0.090
 4311SOL     OW13612   3.530   3.127   0.650
 4311SOL    HW113613   3.625   3.133   0.662
 4311SOL    HW213614   3.498   3.215   0.670
 4312SOL     OW13615   3.253   2.441   0.079
 4312SOL    HW113616   3.194   2.417   0.151
 4312SOL    HW213617   3.325   2.380   0.086
 4313SOL     OW13618   3.616   3.097   1.577
 4313SOL    HW113619   3.703   3.059   1.574
 4313SOL    HW213620   3.630   3.187   1.607
 4314SOL     OW13621   2.923   3.216   1.335
 4314SOL    HW113622   2.848   3.184   1.386
 4314SOL    HW213623   2.999   3.174   1.376
 4315SOL     OW13624   3.467   3.487   1.650
 4315SOL    HW113625   3.465   3.521   1.561
 4315SOL    HW213626   3.550   3.441   1.657
 4316SOL     OW13627   2.987   3.063   1.107
 4316SOL    HW113628   2.929   3.101   1.173
 4316SOL    HW213629   2.952   3.094   1.024
 4317SOL     OW13630   3.493   2.962   1.079
 4317SOL    HW113631   3.489   3.024   1.151
 4317SOL    HW213632   3.412   2.977   1.030
 4318SOL     OW13633   2.784   1.958   1.400
 4318SOL    HW113634   2.805   1.941   1.308
 4318SOL    HW213635   2.863   1.999   1.435
 4319SOL     OW13636   2.846   2.976   1.722
 4319SOL    HW113637   2.753   2.991   1.740
 4319SOL    HW213638   2.847   2.899   1.665
 4320SOL     OW13639   2.571   2.922   0.372
 4320SOL    HW113640   2.556   2.908   0.465
 4320SOL    HW213641   2.647   2.867   0.352
 4321SOL     OW13642   2.279   2.673   1.251
 4321SOL    HW113643   2.350   2.691   1.312
 4321SOL    HW213644   2.248   2.586   1.275
 4322SOL     OW13645   3.130   2.241   1.272
 4322SOL    HW113646   3.162   2.318   1.319
 4322SOL    HW213647   3.040   2.263   1.247
 4323SOL     OW13648   1.930   3.434   1.349
 4323SOL    HW113649   1.897   3.507   1.297
 4323SOL    HW213650   2.025   3.442   1.345
 4324SOL     OW13651   2.218   2.971   0.496
 4324SOL    HW113652   2.216   3.045   0.435
 4324SOL    HW213653   2.212   2.894   0.440
 4325SOL     OW13654   3.109   3.208   0.393
 4325SOL    HW113655   3.165   3.281   0.421
 4325SOL    HW213656   3.022   3.230   0.425
 4326SOL     OW13657   3.138   3.317   1.146
 4326SOL    HW113658   3.193   3.319   1.224
 4326SOL    HW213659   3.083   3.240   1.157
 4327SOL     OW13660   3.447   2.491   0.474
 4327SOL    HW113661   3.401   2.541   0.542
 4327SOL    HW213662   3.487   2.557   0.418
 4328SOL     OW13663   2.210   3.386   1.318
 4328SOL    HW113664   2.197   3.344   1.233
 4328SOL    HW213665   2.305   3.399   1.324
 4329SOL     OW13666   2.275   2.621   1.597
 4329SOL    HW113667   2.339   2.664   1.540
 4329SOL    HW213668   2.321   2.542   1.628
 4330SOL     OW13669   3.459   2.639   1.679
 4330SOL    HW113670   3.373   2.679   1.671
 4330SOL    HW213671   3.511   2.681   1.611
 4331SOL     OW13672   2.858   1.979   1.756
 4331SOL    HW113673   2.909   2.053   1.723
 4331SOL    HW213674   2.908   1.902   1.730
 4332SOL     OW13675   2.365   1.899   1.747
 4332SOL    HW113676   2.326   1.844   1.678
 4332SOL    HW213677   2.304   1.971   1.758
 4333SOL     OW13678   2.439   2.736   1.027
 4333SOL    HW113679   2.477   2.824   1.025
 4333SOL    HW213680   2.387   2.735   1.108
 4334SOL     OW13681   3.223   2.721   1.034
 4334SOL    HW113682   3.141   2.715   0.984
 4334SOL    HW213683   3.259   2.633   1.032
 4335SOL     OW13684   3.067   2.388   0.272
 4335SOL    HW113685   3.076   2.311   0.328
 4335SOL    HW213686   3.027   2.454   0.328
 4336SOL     OW13687   1.909   3.172   1.277
 4336SOL    HW113688   1.942   3.120   1.350
 4336SOL    HW213689   1.916   3.263   1.307
 4337SOL     OW13690   2.597   2.505   1.067
 4337SOL    HW113691   2.648   2.472   0.994
 4337SOL    HW213692   2.551   2.581   1.032
 4338SOL     OW13693   3.595   2.821   1.850
 4338SOL    HW113694   3.547   2.766   1.789
 4338SOL    HW213695   3.535   2.832   1.924
 4339SOL     OW13696   2.162   1.918   0.632
 4339SOL    HW113697   2.125   2.001   0.660
 4339SOL    HW213698   2.167   1.865   0.712
 4340SOL     OW13699   3.475   2.234   0.369
 4340SOL    HW113700   3.503   2.170   0.434
 4340SOL    HW213701   3.452   2.312   0.419
 4341SOL     OW13702   2.891   2.621   0.962
 4341SOL    HW113703   2.889   2.641   1.056
 4341SOL    HW213704   2.858   2.531   0.956
 4342SOL     OW13705   2.844   3.428   1.714
 4342SOL    HW113706   2.829   3.473   1.630
 4342SOL    HW213707   2.887   3.346   1.690
 4343SOL     OW13708   3.718   3.372   1.606
 4343SOL    HW113709   3.734   3.397   1.515
 4343SOL    HW213710   3.799   3.393   1.652
 4344SOL     OW13711   2.216   2.782   1.810
 4344SOL    HW113712   2.300   2.796   1.853
 4344SOL    HW213713   2.237   2.725   1.736
 4345SOL     OW13714   3.400   2.145   0.119
 4345SOL    HW113715   3.339   2.074   0.136
 4345SOL    HW213716   3.429   2.173   0.206
 4346SOL     OW13717   3.152   2.688   0.033
 4346SOL    HW113718   3.196   2.604   0.045
 4346SOL    HW213719   3.186   2.721  11.050
 4347SOL     OW13720   2.926   3.197   0.852
 4347SOL    HW113721   2.929   3.124   0.790
 4347SOL    HW213722   2.990   3.260   0.818
 4348SOL     OW13723   2.174   2.677   0.945
 4348SOL    HW113724   2.267   2.700   0.937
 4348SOL    HW213725   2.173   2.595   0.995
 4349SOL     OW13726   2.997   2.241   1.679
 4349SOL    HW113727   2.951   2.295   1.743
 4349SOL    HW213728   3.085   2.277   1.675
 4350SOL     OW13729   3.024   2.067   1.470
 4350SOL    HW113730   3.014   2.129   1.542
 4350SOL    HW213731   3.060   2.119   1.398
 4351SOL     OW13732   1.868   3.190   0.196
 4351SOL    HW113733   1.782   3.201   0.158
 4351SOL    HW213734   1.870   3.099   0.225
 4352SOL     OW13735   1.952   3.652   0.936
 4352SOL    HW113736   1.921   3.572   0.894
 4352SOL    HW213737   2.042   3.663   0.905
 4353SOL     OW13738   2.361   3.435   0.906
 4353SOL    HW113739   2.430   3.497   0.929
 4353SOL    HW213740   2.406   3.369   0.852
 4354SOL     OW13741   2.851   2.660   1.229
 4354SOL    HW113742   2.900   2.631   1.306
 4354SOL    HW213743   2.765   2.618   1.238
 4355SOL     OW13744   1.902   2.423   1.116
 4355SOL    HW113745   1.956   2.356   1.074
 4355SOL    HW213746   1.919   2.412   1.210
 4356SOL     OW13747   3.237   2.804   1.659
 4356SOL    HW113748   3.258   2.897   1.660
 4356SOL    HW213749   3.236   2.780   1.567
 4357SOL     OW13750   2.675   2.433   0.361
 4357SOL    HW113751   2.683   2.361   0.299
 4357SOL    HW213752   2.601   2.484   0.330
 4358SOL     OW13753   3.505   2.463   1.190
 4358SOL    HW113754   3.493   2.403   1.263
 4358SOL    HW213755   3.592   2.442   1.155
 4359SOL     OW13756   2.110   3.415   1.731
 4359SOL    HW113757   2.084   3.478   1.798
 4359SOL    HW213758   2.107   3.330   1.775
 4360SOL     OW13759   2.572   2.317   1.257
 4360SOL    HW113760   2.525   2.243   1.218
 4360SOL    HW213761   2.571   2.384   1.188
 4361SOL     OW13762   2.793   3.541   1.466
 4361SOL    HW113763   2.766   3.511   1.379
 4361SOL    HW213764   2.792   3.636   1.460
 4362SOL     OW13765   2.011   3.002   1.472
 4362SOL    HW113766   2.015   2.947   1.550
 4362SOL    HW213767   2.027   2.941   1.400
 4363SOL     OW13768   3.192   2.911   1.225
 4363SOL    HW113769   3.216   2.849   1.157
 4363SOL    HW213770   3.119   2.960   1.188
 4364SOL     OW13771   3.169   2.714   0.310
 4364SOL    HW113772   3.090   2.685   0.356
 4364SOL    HW213773   3.148   2.703   0.217
 4365SOL     OW13774   3.630   3.609   1.148
 4365SOL    HW113775   3.690   3.635   1.078
 4365SOL    HW213776   3.606   3.519   1.128
 4366SOL     OW13777   3.104   3.595   1.118
 4366SOL    HW113778   3.185   3.613   1.070
 4366SOL    HW213779   3.106   3.501   1.135
 4367SOL     OW13780   1.945   3.127   1.014
 4367SOL    HW113781   1.932   3.138   1.108
 4367SOL    HW213782   1.870   3.075   0.985
 4368SOL     OW13783   2.540   3.525   1.724
 4368SOL    HW113784   2.489   3.606   1.722
 4368SOL    HW213785   2.602   3.535   1.652
 4369SOL     OW13786   2.779   1.954   0.114
 4369SOL    HW113787   2.829   1.920   0.040
 4369SOL    HW213788   2.815   1.910   0.190
 4370SOL     OW13789   3.580   2.004   0.512
 4370SOL    HW113790   3.654   1.990   0.453
 4370SOL    HW213791   3.565   1.918   0.552
 4371SOL     OW13792   3.251   3.430   0.482
 4371SOL    HW113793   3.313   3.460   0.416
 4371SOL    HW213794   3.206   3.509   0.510
 4372SOL     OW13795   1.997   3.659   1.843
 4372SOL    HW113796   1.946   3.594   1.892
 4372SOL    HW213797   2.046   3.707   1.910
 4373SOL     OW13798   3.139   2.786   0.671
 4373SOL    HW113799   3.213   2.724   0.675
 4373SOL    HW213800   3.172   2.859   0.619
 4374SOL     OW13801   2.681   3.134   1.431
 4374SOL    HW113802   2.655   3.173   1.515
 4374SOL    HW213803   2.610   3.156   1.372
 4375SOL     OW13804   2.537   3.479   0.165
 4375SOL    HW113805   2.543   3.490   0.070
 4375SOL    HW213806   2.480   3.404   0.177
 4376SOL     OW13807   3.496   3.588   1.392
 4376SOL    HW113808   3.543   3.596   1.309
 4376SOL    HW213809   3.482   3.679   1.421
 4377SOL     OW13810   3.701   2.035   0.968
 4377SOL    HW113811   3.731   1.949   0.938
 4377SOL    HW213812   3.615   2.046   0.928
 4378SOL     OW13813   3.083   3.466   0.049
 4378SOL    HW113814   3.070   3.374   0.071
 4378SOL    HW213815   3.016   3.485  11.084
 4379SOL     OW13816   2.685   2.868   1.372
 4379SOL    HW113817   2.730   2.863   1.287
 4379SOL    HW213818   2.688   2.961   1.395
 4380SOL     OW13819   2.776   2.770   0.283
 4380SOL    HW113820   2.844   2.808   0.226
 4380SOL    HW213821   2.822   2.702   0.333
 4381SOL     OW13822   3.362   3.484   0.046
 4381SOL    HW113823   3.267   3.482   0.041
 4381SOL    HW213824   3.391   3.496  11.055
 4382SOL     OW13825   2.232   3.162   1.492
 4382SOL    HW113826   2.218   3.241   1.438
 4382SOL    HW213827   2.155   3.108   1.475
 4383SOL     OW13828   3.474   3.145   1.281
 4383SOL    HW113829   3.533   3.138   1.356
 4383SOL    HW213830   3.413   3.216   1.305
 4384SOL     OW13831   2.909   2.967   0.704
 4384SOL    HW113832   2.840   2.915   0.745
 4384SOL    HW213833   2.971   2.901   0.670
 4385SOL     OW13834   2.882   2.102   0.965
 4385SOL    HW113835   2.877   2.053   0.883
 4385SOL    HW213836   2.876   2.035   1.033
 4386SOL     OW13837   2.463   3.353   0.483
 4386SOL    HW113838   2.501   3.300   0.412
 4386SOL    HW213839   2.397   3.407   0.440
 4387SOL     OW13840   3.581   2.254   1.380
 4387SOL    HW113841   3.652   2.317   1.378
 4387SOL    HW213842   3.611   2.182   1.324
 4388SOL     OW13843   2.126   3.202   0.289
 4388SOL    HW113844   2.037   3.204   0.254
 4388SOL    HW213845   2.118   3.242   0.376
 4389SOL     OW13846   1.974   2.879   1.719
 4389SOL    HW113847   1.897   2.856   1.772
 4389SOL    HW213848   2.048   2.844   1.769
 4390SOL     OW13849   2.541   2.046   1.496
 4390SOL    HW113850   2.628   2.031   1.458
 4390SOL    HW213851   2.559   2.084   1.582
 4391SOL     OW13852   1.927   2.213   0.066
 4391SOL    HW113853   1.861   2.185   0.004
 4391SOL    HW213854   1.993   2.257   0.013
 4392SOL     OW13855   3.294   2.720   1.402
 4392SOL    HW113856   3.246   2.780   1.345
 4392SOL    HW213857   3.384   2.724   1.369
 4393SOL     OW13858   1.937   2.022   0.314
 4393SOL    HW113859   1.915   2.097   0.259
 4393SOL    HW213860   2.015   1.985   0.274
 4394SOL     OW13861   3.043   3.205   0.121
 4394SOL    HW113862   2.950   3.181   0.118
 4394SOL    HW213863   3.066   3.198   0.214
 4395SOL     OW13864   2.481   2.694   1.429
 4395SOL    HW113865   2.536   2.772   1.416
 4395SOL    HW213866   2.544   2.622   1.438
 4396SOL     OW13867   3.347   3.636   0.974
 4396SOL    HW113868   3.374   3.693   0.902
 4396SOL    HW213869   3.428   3.620   1.024
 4397SOL     OW13870   2.580   2.426   1.705
 4397SOL    HW113871   2.614   2.491   1.767
 4397SOL    HW213872   2.615   2.343   1.736
 4398SOL     OW13873   3.330   3.066   1.633
 4398SOL    HW113874   3.318   3.078   1.727
 4398SOL    HW213875   3.424   3.077   1.619
 4399SOL     OW13876   2.245   3.602   1.563
 4399SOL    HW113877   2.159   3.641   1.551
 4399SOL    HW213878   2.227   3.517   1.605
 4400SOL     OW13879   3.534   2.744   1.256
 4400SOL    HW113880   3.525   2.659   1.213
 4400SOL    HW213881   3.526   2.807   1.184
 4401SOL     OW13882   3.079   2.180   0.459
 4401SOL    HW113883   3.145   2.111   0.448
 4401SOL    HW213884   3.108   2.229   0.536
 4402SOL     OW13885   2.458   2.605   0.655
 4402SOL    HW113886   2.494   2.693   0.644
 4402SOL    HW213887   2.383   2.603   0.596
 4403SOL     OW13888   3.628   2.220   1.648
 4403SOL    HW113889   3.610   2.235   1.555
 4403SOL    HW213890   3.556   2.165   1.679
 4404SOL     OW13891   3.605   2.796   1.513
 4404SOL    HW113892   3.609   2.890   1.525
 4404SOL    HW213893   3.590   2.784   1.419
 4405SOL     OW13894   2.756   3.220   0.058
 4405SOL    HW113895   2.687   3.225   0.124
 4405SOL    HW213896   2.752   3.305   0.013
 4406SOL     OW13897   2.521   3.656   0.949
 4406SOL    HW113898   2.499   3.746   0.924
 4406SOL    HW213899   2.616   3.651   0.940
 4407SOL     OW13900   2.728   2.827   0.856
 4407SOL    HW113901   2.777   2.755   0.897
 4407SOL    HW213902   2.696   2.879   0.930
 4408SOL     OW13903   2.943   2.852   0.086
 4408SOL    HW113904   2.920   2.889   0.001
 4408SOL    HW213905   3.019   2.797   0.069
 4409SOL     OW13906   3.719   3.419   0.846
 4409SOL    HW113907   3.643   3.407   0.789
 4409SOL    HW213908   3.711   3.350   0.911
 4410SOL     OW13909   2.086   3.167   1.856
 4410SOL    HW113910   2.018   3.106   1.827
 4410SOL    HW213911   2.068   3.180   1.949
 4411SOL     OW13912   1.944   3.099   0.664
 4411SOL    HW113913   1.946   3.047   0.745
 4411SOL    HW213914   2.014   3.061   0.610
 4412SOL     OW13915   2.541   3.262   1.625
 4412SOL    HW113916   2.462   3.218   1.655
 4412SOL    HW213917   2.536   3.350   1.662
 4413SOL     OW13918   3.676   2.048   1.238
 4413SOL    HW113919   3.686   1.954   1.254
 4413SOL    HW213920   3.685   2.057   1.143
 4414SOL     OW13921   3.563   3.354   1.101
 4414SOL    HW113922   3.482   3.327   1.058
 4414SOL    HW213923   3.579   3.285   1.166
 4415SOL     OW13924   2.686   3.440   0.680
 4415SOL    HW113925   2.681   3.483   0.595
 4415SOL    HW213926   2.608   3.385   0.684
 4416SOL     OW13927   3.294   2.085   1.118
 4416SOL    HW113928   3.324   2.008   1.167
 4416SOL    HW213929   3.242   2.134   1.181
 4417SOL     OW13930   2.871   1.883   1.145
 4417SOL    HW113931   2.816   1.813   1.109
 4417SOL    HW213932   2.959   1.846   1.147
 4418SOL     OW13933   2.630   3.191   0.312
 4418SOL    HW113934   2.598   3.101   0.324
 4418SOL    HW213935   2.714   3.193   0.356
 4419SOL     OW13936   2.482   3.421   1.284
 4419SOL    HW113937   2.485   3.502   1.335
 4419SOL    HW213938   2.569   3.414   1.245
 4420SOL     OW13939   3.213   1.915   0.164
 4420SOL    HW113940   3.236   1.866   0.085
 4420SOL    HW213941   3.127   1.882   0.189
 4421SOL     OW13942   3.159   2.321   0.683
 4421SOL    HW113943   3.106   2.400   0.692
 4421SOL    HW213944   3.157   2.281   0.770
 4422SOL     OW13945   3.449   2.068   0.877
 4422SOL    HW113946   3.384   2.085   0.945
 4422SOL    HW213947   3.449   2.147   0.823
 4423SOL     OW13948   1.904   2.934   0.301
 4423SOL    HW113949   1.999   2.927   0.294
 4423SOL    HW213950   1.875   2.847   0.327
 4424SOL     OW13951   2.744   3.512   0.347
 4424SOL    HW113952   2.673   3.491   0.286
 4424SOL    HW213953   2.711   3.587   0.397
 4425SOL     OW13954   2.079   2.526   1.981
 4425SOL    HW113955   1.995   2.496   2.016
 4425SOL    HW213956   2.099   2.464   1.910
 4426SOL     OW13957   2.008   2.136   2.934
 4426SOL    HW113958   2.068   2.074   2.976
 4426SOL    HW213959   1.945   2.081   2.888
 4427SOL     OW13960   1.859   2.244   2.493
 4427SOL    HW113961   1.779   2.266   2.541
 4427SOL    HW213962   1.841   2.158   2.455
 4428SOL     OW13963   2.428   3.143   3.034
 4428SOL    HW113964   2.340   3.147   2.995
 4428SOL    HW213965   2.443   3.231   3.068
 4429SOL     OW13966   3.419   3.373   2.567
 4429SOL    HW113967   3.375   3.356   2.650
 4429SOL    HW213968   3.348   3.379   2.503
 4430SOL     OW13969   2.991   2.561   2.565
 4430SOL    HW113970   3.041   2.642   2.553
 4430SOL    HW213971   2.945   2.574   2.647
 4431SOL     OW13972   3.627   2.469   2.093
 4431SOL    HW113973   3.607   2.460   1.999
 4431SOL    HW213974   3.591   2.390   2.133
 4432SOL     OW13975   2.621   3.006   2.899
 4432SOL    HW113976   2.551   3.039   2.955
 4432SOL    HW213977   2.655   3.084   2.854
 4433SOL     OW13978   2.722   2.645   3.682
 4433SOL    HW113979   2.711   2.716   3.745
 4433SOL    HW213980   2.748   2.688   3.601
 4434SOL     OW13981   2.548   2.868   2.512
 4434SOL    HW113982   2.613   2.854   2.581
 4434SOL    HW213983   2.479   2.920   2.553
 4435SOL     OW13984   2.569   3.014   3.671
 4435SOL    HW113985   2.617   3.094   3.694
 4435SOL    HW213986   2.485   3.046   3.638
 4436SOL     OW13987   2.193   3.291   2.930
 4436SOL    HW113988   2.121   3.255   2.879
 4436SOL    HW213989   2.245   3.342   2.867
 4437SOL     OW13990   3.324   3.360   3.212
 4437SOL    HW113991   3.366   3.445   3.222
 4437SOL    HW213992   3.271   3.349   3.291
 4438SOL     OW13993   3.475   2.312   2.600
 4438SOL    HW113994   3.399   2.338   2.550
 4438SOL    HW213995   3.496   2.389   2.654
 4439SOL     OW13996   2.082   3.575   2.337
 4439SOL    HW113997   2.106   3.652   2.389
 4439SOL    HW213998   2.151   3.568   2.271
 4440SOL     OW13999   2.997   3.203   3.553
 4440SOL    HW114000   3.038   3.199   3.640
 4440SOL    HW214001   2.945   3.123   3.547
 4441SOL     OW14002   2.092   3.301   2.396
 4441SOL    HW114003   2.075   3.395   2.402
 4441SOL    HW214004   2.029   3.262   2.457
 4442SOL     OW14005   2.116   2.954   2.752
 4442SOL    HW114006   2.111   2.868   2.792
 4442SOL    HW214007   2.057   3.008   2.804
 4443SOL     OW14008   2.478   3.652   3.294
 4443SOL    HW114009   2.395   3.636   3.338
 4443SOL    HW214010   2.500   3.742   3.318
 4444SOL     OW14011   2.452   2.840   1.990
 4444SOL    HW114012   2.494   2.896   1.924
 4444SOL    HW214013   2.493   2.866   2.073
 4445SOL     OW14014   3.458   1.982   3.332
 4445SOL    HW114015   3.454   2.061   3.278
 4445SOL    HW214016   3.447   2.014   3.422
 4446SOL     OW14017   1.970   2.506   2.421
 4446SOL    HW114018   1.943   2.418   2.444
 4446SOL    HW214019   1.966   2.556   2.503
 4447SOL     OW14020   3.703   3.624   2.199
 4447SOL    HW114021   3.762   3.594   2.269
 4447SOL    HW214022   3.731   3.713   2.181
 4448SOL     OW14023   1.891   3.459   1.986
 4448SOL    HW114024   1.874   3.367   2.006
 4448SOL    HW214025   1.867   3.505   2.067
 4449SOL     OW14026   3.552   2.782   2.499
 4449SOL    HW114027   3.637   2.742   2.482
 4449SOL    HW214028   3.532   2.831   2.420
 4450SOL     OW14029   3.507   2.970   2.292
 4450SOL    HW114030   3.592   2.979   2.249
 4450SOL    HW214031   3.512   3.030   2.366
 4451SOL     OW14032   1.983   2.597   3.445
 4451SOL    HW114033   2.071   2.611   3.482
 4451SOL    HW214034   1.939   2.681   3.458
 4452SOL     OW14035   2.474   3.244   2.597
 4452SOL    HW114036   2.428   3.160   2.606
 4452SOL    HW214037   2.458   3.271   2.507
 4453SOL     OW14038   3.152   3.101   3.287
 4453SOL    HW114039   3.185   3.033   3.227
 4453SOL    HW214040   3.208   3.093   3.364
 4454SOL     OW14041   2.668   1.861   2.365
 4454SOL    HW114042   2.711   1.945   2.351
 4454SOL    HW214043   2.576   1.882   2.377
 4455SOL     OW14044   2.054   2.832   3.130
 4455SOL    HW114045   2.137   2.789   3.110
 4455SOL    HW214046   1.987   2.775   3.091
 4456SOL     OW14047   3.394   2.853   2.058
 4456SOL    HW114048   3.324   2.795   2.087
 4456SOL    HW214049   3.433   2.887   2.139
 4457SOL     OW14050   3.047   3.665   3.482
 4457SOL    HW114051   3.063   3.722   3.407
 4457SOL    HW214052   3.062   3.577   3.448
 4458SOL     OW14053   3.327   3.282   2.815
 4458SOL    HW114054   3.259   3.295   2.881
 4458SOL    HW214055   3.316   3.191   2.788
 4459SOL     OW14056   3.524   3.594   2.440
 4459SOL    HW114057   3.500   3.566   2.351
 4459SOL    HW214058   3.498   3.521   2.495
 4460SOL     OW14059   2.463   2.588   2.132
 4460SOL    HW114060   2.477   2.655   2.065
 4460SOL    HW214061   2.380   2.614   2.174
 4461SOL     OW14062   3.143   2.209   2.794
 4461SOL    HW114063   3.053   2.177   2.801
 4461SOL    HW214064   3.192   2.157   2.857
 4462SOL     OW14065   3.444   3.530   2.171
 4462SOL    HW114066   3.532   3.565   2.165
 4462SOL    HW214067   3.419   3.512   2.080
 4463SOL     OW14068   2.651   2.470   3.311
 4463SOL    HW114069   2.632   2.459   3.405
 4463SOL    HW214070   2.602   2.400   3.269
 4464SOL     OW14071   3.256   2.335   3.540
 4464SOL    HW114072   3.256   2.379   3.625
 4464SOL    HW214073   3.319   2.264   3.549
 4465SOL     OW14074   2.820   2.750   3.442
 4465SOL    HW114075   2.875   2.680   3.408
 4465SOL    HW214076   2.773   2.784   3.365
 4466SOL     OW14077   2.860   2.271   3.101
 4466SOL    HW114078   2.780   2.307   3.139
 4466SOL    HW214079   2.832   2.229   3.020
 4467SOL     OW14080   2.910   2.561   2.289
 4467SOL    HW114081   2.926   2.554   2.383
 4467SOL    HW214082   2.828   2.513   2.275
 4468SOL     OW14083   1.951   2.683   2.636
 4468SOL    HW114084   2.033   2.677   2.685
 4468SOL    HW214085   1.907   2.760   2.672
 4469SOL     OW14086   1.990   3.699   3.437
 4469SOL    HW114087   1.988   3.681   3.531
 4469SOL    HW214088   1.899   3.707   3.411
 4470SOL     OW14089   2.750   2.209   2.059
 4470SOL    HW114090   2.794   2.268   1.997
 4470SOL    HW214091   2.758   2.123   2.019
 4471SOL     OW14092   3.574   2.440   3.690
 4471SOL    HW114093   3.537   2.516   3.645
 4471SOL    HW214094   3.596   2.379   3.620
 4472SOL     OW14095   3.236   3.005   2.404
 4472SOL    HW114096   3.315   2.990   2.351
 4472SOL    HW214097   3.185   3.067   2.353
 4473SOL     OW14098   2.437   2.033   2.736
 4473SOL    HW114099   2.440   2.046   2.830
 4473SOL    HW214100   2.437   2.122   2.699
 4474SOL     OW14101   2.871   3.308   2.336
 4474SOL    HW114102   2.829   3.379   2.287
 4474SOL    HW214103   2.858   3.331   2.428
 4475SOL     OW14104   2.216   3.668   2.719
 4475SOL    HW114105   2.260   3.583   2.729
 4475SOL    HW214106   2.285   3.733   2.735
 4476SOL     OW14107   3.659   2.924   2.729
 4476SOL    HW114108   3.603   2.906   2.654
 4476SOL    HW214109   3.600   2.928   2.804
 4477SOL     OW14110   3.090   3.402   3.374
 4477SOL    HW114111   3.076   3.328   3.434
 4477SOL    HW214112   3.030   3.385   3.301
 4478SOL     OW14113   2.190   2.805   2.115
 4478SOL    HW114114   2.265   2.831   2.062
 4478SOL    HW214115   2.150   2.733   2.066
 4479SOL     OW14116   3.337   2.600   2.590
 4479SOL    HW114117   3.325   2.554   2.672
 4479SOL    HW214118   3.413   2.656   2.604
 4480SOL     OW14119   2.326   3.125   3.599
 4480SOL    HW114120   2.297   3.130   3.508
 4480SOL    HW214121   2.245   3.123   3.650
 4481SOL     OW14122   2.982   3.639   2.094
 4481SOL    HW114123   2.911   3.595   2.141
 4481SOL    HW214124   3.003   3.580   2.022
 4482SOL     OW14125   1.979   2.091   3.358
 4482SOL    HW114126   1.953   2.183   3.361
 4482SOL    HW214127   2.012   2.073   3.446
 4483SOL     OW14128   3.492   3.241   1.949
 4483SOL    HW114129   3.451   3.326   1.934
 4483SOL    HW214130   3.422   3.177   1.930
 4484SOL     OW14131   2.329   3.601   2.183
 4484SOL    HW114132   2.369   3.657   2.250
 4484SOL    HW214133   2.402   3.574   2.128
 4485SOL     OW14134   3.263   1.970   2.292
 4485SOL    HW114135   3.251   1.944   2.200
 4485SOL    HW214136   3.358   1.977   2.302
 4486SOL     OW14137   2.116   3.654   3.096
 4486SOL    HW114138   2.168   3.589   3.143
 4486SOL    HW214139   2.105   3.616   3.008
 4487SOL     OW14140   2.800   3.560   2.763
 4487SOL    HW114141   2.877   3.507   2.782
 4487SOL    HW214142   2.754   3.511   2.694
 4488SOL     OW14143   3.400   2.088   3.587
 4488SOL    HW114144   3.408   2.109   3.680
 4488SOL    HW214145   3.333   2.020   3.584
 4489SOL     OW14146   2.497   1.997   1.965
 4489SOL    HW114147   2.564   1.934   1.992
 4489SOL    HW214148   2.450   1.953   1.894
 4490SOL     OW14149   2.632   2.139   3.616
 4490SOL    HW114150   2.704   2.076   3.621
 4490SOL    HW214151   2.579   2.121   3.694
 4491SOL     OW14152   2.739   3.382   3.056
 4491SOL    HW114153   2.724   3.347   2.968
 4491SOL    HW214154   2.808   3.327   3.092
 4492SOL     OW14155   3.202   2.452   3.295
 4492SOL    HW114156   3.234   2.419   3.379
 4492SOL    HW214157   3.240   2.539   3.288
 4493SOL     OW14158   2.674   3.260   2.797
 4493SOL    HW114159   2.758   3.251   2.752
 4493SOL    HW214160   2.609   3.258   2.727
 4494SOL     OW14161   2.798   2.370   2.771
 4494SOL    HW114162   2.760   2.366   2.684
 4494SOL    HW214163   2.827   2.280   2.789
 4495SOL     OW14164   2.398   1.933   2.365
 4495SOL    HW114165   2.347   1.941   2.446
 4495SOL    HW214166   2.389   2.018   2.323
 4496SOL     OW14167   3.291   3.059   1.903
 4496SOL    HW114168   3.322   2.984   1.953
 4496SOL    HW214169   3.205   3.079   1.940
 4497SOL     OW14170   2.796   2.105   2.324
 4497SOL    HW114171   2.771   2.148   2.243
 4497SOL    HW214172   2.891   2.115   2.329
 4498SOL     OW14173   2.941   2.540   3.321
 4498SOL    HW114174   2.874   2.472   3.328
 4498SOL    HW214175   3.023   2.492   3.314
 4499SOL     OW14176   3.087   3.431   2.656
 4499SOL    HW114177   3.105   3.499   2.591
 4499SOL    HW214178   3.155   3.442   2.722
 4500SOL     OW14179   2.329   3.009   2.599
 4500SOL    HW114180   2.258   2.992   2.660
 4500SOL    HW214181   2.291   2.992   2.513
 4501SOL     OW14182   3.133   3.657   2.467
 4501SOL    HW114183   3.177   3.718   2.408
 4501SOL    HW214184   3.070   3.711   2.514
 4502SOL     OW14185   2.888   2.408   1.881
 4502SOL    HW114186   2.847   2.492   1.860
 4502SOL    HW214187   2.952   2.429   1.949
 4503SOL     OW14188   1.935   2.421   3.249
 4503SOL    HW114189   2.030   2.413   3.236
 4503SOL    HW214190   1.926   2.485   3.318
 4504SOL     OW14191   2.435   2.035   3.006
 4504SOL    HW114192   2.458   1.977   3.079
 4504SOL    HW214193   2.357   2.081   3.036
 4505SOL     OW14194   2.738   2.320   2.500
 4505SOL    HW114195   2.689   2.375   2.440
 4505SOL    HW214196   2.754   2.239   2.451
 4506SOL     OW14197   2.878   1.913   2.615
 4506SOL    HW114198   2.817   1.906   2.541
 4506SOL    HW214199   2.857   1.838   2.671
 4507SOL     OW14200   3.297   3.026   2.720
 4507SOL    HW114201   3.231   2.957   2.718
 4507SOL    HW214202   3.320   3.040   2.628
 4508SOL     OW14203   3.330   2.464   2.844
 4508SOL    HW114204   3.283   2.381   2.848
 4508SOL    HW214205   3.391   2.460   2.917
 4509SOL     OW14206   3.710   2.681   2.243
 4509SOL    HW114207   3.765   2.629   2.301
 4509SOL    HW214208   3.680   2.619   2.176
 4510SOL     OW14209   2.354   3.275   2.024
 4510SOL    HW114210   2.279   3.245   2.075
 4510SOL    HW214211   2.333   3.250   1.934
 4511SOL     OW14212   3.530   3.128   2.511
 4511SOL    HW114213   3.624   3.133   2.524
 4511SOL    HW214214   3.498   3.215   2.532
 4512SOL     OW14215   3.255   2.434   1.933
 4512SOL    HW114216   3.196   2.415   2.006
 4512SOL    HW214217   3.340   2.400   1.963
 4513SOL     OW14218   3.616   3.098   3.439
 4513SOL    HW114219   3.703   3.059   3.436
 4513SOL    HW214220   3.630   3.187   3.469
 4514SOL     OW14221   2.923   3.216   3.197
 4514SOL    HW114222   2.848   3.184   3.248
 4514SOL    HW214223   2.999   3.174   3.238
 4515SOL     OW14224   3.467   3.487   3.512
 4515SOL    HW114225   3.465   3.521   3.423
 4515SOL    HW214226   3.550   3.441   3.519
 4516SOL     OW14227   2.987   3.063   2.969
 4516SOL    HW114228   2.929   3.102   3.035
 4516SOL    HW214229   2.952   3.094   2.885
 4517SOL     OW14230   3.493   2.962   2.941
 4517SOL    HW114231   3.489   3.024   3.013
 4517SOL    HW214232   3.412   2.977   2.892
 4518SOL     OW14233   2.783   1.960   3.262
 4518SOL    HW114234   2.803   1.941   3.171
 4518SOL    HW214235   2.863   1.999   3.297
 4519SOL     OW14236   2.846   2.976   3.584
 4519SOL    HW114237   2.753   2.991   3.602
 4519SOL    HW214238   2.847   2.899   3.527
 4520SOL     OW14239   2.570   2.922   2.234
 4520SOL    HW114240   2.557   2.908   2.328
 4520SOL    HW214241   2.646   2.868   2.212
 4521SOL     OW14242   2.280   2.674   3.112
 4521SOL    HW114243   2.351   2.692   3.174
 4521SOL    HW214244   2.239   2.594   3.145
 4522SOL     OW14245   3.132   2.240   3.134
 4522SOL    HW114246   3.162   2.318   3.181
 4522SOL    HW214247   3.042   2.261   3.108
 4523SOL     OW14248   1.930   3.434   3.211
 4523SOL    HW114249   1.896   3.507   3.159
 4523SOL    HW214250   2.025   3.443   3.207
 4524SOL     OW14251   2.218   2.966   2.352
 4524SOL    HW114252   2.220   3.044   2.297
 4524SOL    HW214253   2.214   2.893   2.291
 4525SOL     OW14254   2.514   2.428   2.706
 4525SOL    HW114255   2.483   2.483   2.634
 4525SOL    HW214256   2.479   2.469   2.785
 4526SOL     OW14257   3.110   3.210   2.251
 4526SOL    HW114258   3.165   3.282   2.282
 4526SOL    HW214259   3.023   3.230   2.285
 4527SOL     OW14260   3.138   3.317   3.008
 4527SOL    HW114261   3.193   3.319   3.086
 4527SOL    HW214262   3.083   3.239   3.019
 4528SOL     OW14263   3.445   2.488   2.338
 4528SOL    HW114264   3.401   2.544   2.402
 4528SOL    HW214265   3.490   2.549   2.279
 4529SOL     OW14266   2.210   3.386   3.180
 4529SOL    HW114267   2.197   3.344   3.095
 4529SOL    HW214268   2.305   3.399   3.186
 4530SOL     OW14269   2.278   2.608   3.462
 4530SOL    HW114270   2.340   2.657   3.407
 4530SOL    HW214271   2.319   2.523   3.474
 4531SOL     OW14272   3.459   2.640   3.541
 4531SOL    HW114273   3.372   2.679   3.533
 4531SOL    HW214274   3.511   2.681   3.473
 4532SOL     OW14275   2.858   1.979   3.618
 4532SOL    HW114276   2.910   2.052   3.584
 4532SOL    HW214277   2.907   1.901   3.592
 4533SOL     OW14278   2.361   1.906   3.607
 4533SOL    HW114279   2.324   1.849   3.541
 4533SOL    HW214280   2.294   1.974   3.621
 4534SOL     OW14281   2.440   2.732   2.889
 4534SOL    HW114282   2.477   2.819   2.884
 4534SOL    HW214283   2.388   2.732   2.969
 4535SOL     OW14284   3.223   2.721   2.896
 4535SOL    HW114285   3.142   2.714   2.846
 4535SOL    HW214286   3.260   2.633   2.894
 4536SOL     OW14287   3.070   2.391   2.132
 4536SOL    HW114288   3.077   2.312   2.185
 4536SOL    HW214289   3.027   2.455   2.189
 4537SOL     OW14290   1.910   3.172   3.139
 4537SOL    HW114291   1.942   3.120   3.213
 4537SOL    HW214292   1.916   3.263   3.169
 4538SOL     OW14293   2.614   2.515   2.955
 4538SOL    HW114294   2.652   2.468   2.880
 4538SOL    HW214295   2.571   2.591   2.916
 4539SOL     OW14296   3.595   2.821   3.712
 4539SOL    HW114297   3.547   2.766   3.650
 4539SOL    HW214298   3.535   2.832   3.786
 4540SOL     OW14299   3.475   2.234   2.231
 4540SOL    HW114300   3.502   2.170   2.298
 4540SOL    HW214301   3.452   2.312   2.281
 4541SOL     OW14302   2.890   2.623   2.824
 4541SOL    HW114303   2.889   2.641   2.918
 4541SOL    HW214304   2.859   2.533   2.816
 4542SOL     OW14305   2.844   3.428   3.576
 4542SOL    HW114306   2.829   3.473   3.493
 4542SOL    HW214307   2.887   3.346   3.551
 4543SOL     OW14308   3.718   3.372   3.468
 4543SOL    HW114309   3.734   3.397   3.377
 4543SOL    HW214310   3.799   3.393   3.514
 4544SOL     OW14311   2.217   2.780   3.667
 4544SOL    HW114312   2.299   2.795   3.714
 4544SOL    HW214313   2.240   2.718   3.598
 4545SOL     OW14314   3.393   2.136   1.989
 4545SOL    HW114315   3.329   2.070   2.016
 4545SOL    HW214316   3.426   2.172   2.072
 4546SOL     OW14317   3.157   2.689   1.895
 4546SOL    HW114318   3.199   2.604   1.899
 4546SOL    HW214319   3.187   2.728   1.813
 4547SOL     OW14320   2.926   3.197   2.714
 4547SOL    HW114321   2.930   3.123   2.652
 4547SOL    HW214322   2.990   3.260   2.680
 4548SOL     OW14323   2.173   2.679   2.807
 4548SOL    HW114324   2.266   2.698   2.804
 4548SOL    HW214325   2.167   2.595   2.854
 4549SOL     OW14326   2.996   2.242   3.540
 4549SOL    HW114327   2.952   2.296   3.605
 4549SOL    HW214328   3.085   2.277   3.537
 4550SOL     OW14329   3.023   2.067   3.332
 4550SOL    HW114330   3.014   2.130   3.403
 4550SOL    HW214331   3.060   2.118   3.260
 4551SOL     OW14332   1.867   3.185   2.057
 4551SOL    HW114333   1.780   3.198   2.019
 4551SOL    HW214334   1.865   3.095   2.090
 4552SOL     OW14335   1.952   3.652   2.798
 4552SOL    HW114336   1.921   3.572   2.756
 4552SOL    HW214337   2.042   3.663   2.767
 4553SOL     OW14338   2.361   3.435   2.768
 4553SOL    HW114339   2.430   3.497   2.791
 4553SOL    HW214340   2.406   3.369   2.714
 4554SOL     OW14341   2.850   2.662   3.091
 4554SOL    HW114342   2.898   2.631   3.168
 4554SOL    HW214343   2.767   2.615   3.095
 4555SOL     OW14344   1.914   2.413   2.974
 4555SOL    HW114345   1.953   2.333   2.941
 4555SOL    HW214346   1.922   2.408   3.069
 4556SOL     OW14347   3.237   2.804   3.521
 4556SOL    HW114348   3.258   2.897   3.522
 4556SOL    HW214349   3.236   2.780   3.429
 4557SOL     OW14350   2.674   2.429   2.218
 4557SOL    HW114351   2.680   2.356   2.156
 4557SOL    HW214352   2.601   2.482   2.186
 4558SOL     OW14353   3.505   2.463   3.052
 4558SOL    HW114354   3.493   2.402   3.125
 4558SOL    HW214355   3.592   2.442   3.017
 4559SOL     OW14356   2.110   3.415   3.593
 4559SOL    HW114357   2.084   3.478   3.660
 4559SOL    HW214358   2.107   3.330   3.637
 4560SOL     OW14359   2.792   3.541   3.328
 4560SOL    HW114360   2.766   3.511   3.241
 4560SOL    HW214361   2.792   3.636   3.322
 4561SOL     OW14362   2.011   3.002   3.334
 4561SOL    HW114363   2.015   2.947   3.413
 4561SOL    HW214364   2.027   2.941   3.262
 4562SOL     OW14365   3.192   2.912   3.087
 4562SOL    HW114366   3.216   2.849   3.019
 4562SOL    HW214367   3.118   2.960   3.050
 4563SOL     OW14368   3.170   2.718   2.170
 4563SOL    HW114369   3.093   2.688   2.218
 4563SOL    HW214370   3.148   2.705   2.077
 4564SOL     OW14371   3.630   3.609   3.010
 4564SOL    HW114372   3.690   3.635   2.940
 4564SOL    HW214373   3.606   3.519   2.990
 4565SOL     OW14374   3.104   3.595   2.980
 4565SOL    HW114375   3.185   3.613   2.933
 4565SOL    HW214376   3.106   3.500   2.997
 4566SOL     OW14377   1.945   3.127   2.876
 4566SOL    HW114378   1.932   3.138   2.970
 4566SOL    HW214379   1.870   3.075   2.847
 4567SOL     OW14380   2.540   3.525   3.586
 4567SOL    HW114381   2.488   3.606   3.584
 4567SOL    HW214382   2.602   3.535   3.514
 4568SOL     OW14383   3.580   2.004   2.375
 4568SOL    HW114384   3.654   1.990   2.316
 4568SOL    HW214385   3.565   1.918   2.415
 4569SOL     OW14386   3.252   3.430   2.344
 4569SOL    HW114387   3.313   3.460   2.277
 4569SOL    HW214388   3.205   3.509   2.372
 4570SOL     OW14389   1.997   3.658   3.705
 4570SOL    HW114390   1.946   3.594   3.754
 4570SOL    HW214391   2.046   3.707   3.772
 4571SOL     OW14392   3.139   2.787   2.534
 4571SOL    HW114393   3.212   2.725   2.538
 4571SOL    HW214394   3.173   2.860   2.482
 4572SOL     OW14395   2.681   3.134   3.294
 4572SOL    HW114396   2.655   3.173   3.377
 4572SOL    HW214397   2.610   3.156   3.234
 4573SOL     OW14398   2.534   3.478   2.017
 4573SOL    HW114399   2.543   3.489   1.923
 4573SOL    HW214400   2.481   3.399   2.028
 4574SOL     OW14401   3.496   3.588   3.254
 4574SOL    HW114402   3.543   3.596   3.171
 4574SOL    HW214403   3.482   3.679   3.283
 4575SOL     OW14404   3.702   2.035   2.830
 4575SOL    HW114405   3.731   1.949   2.800
 4575SOL    HW214406   3.615   2.046   2.790
 4576SOL     OW14407   3.067   3.470   1.893
 4576SOL    HW114408   3.059   3.379   1.920
 4576SOL    HW214409   3.003   3.480   1.823
 4577SOL     OW14410   2.685   2.868   3.234
 4577SOL    HW114411   2.730   2.862   3.150
 4577SOL    HW214412   2.688   2.961   3.256
 4578SOL     OW14413   2.777   2.772   2.151
 4578SOL    HW114414   2.840   2.804   2.086
 4578SOL    HW214415   2.823   2.701   2.196
 4579SOL     OW14416   3.358   3.486   1.904
 4579SOL    HW114417   3.262   3.483   1.893
 4579SOL    HW214418   3.392   3.492   1.815
 4580SOL     OW14419   2.232   3.162   3.353
 4580SOL    HW114420   2.218   3.241   3.300
 4580SOL    HW214421   2.155   3.108   3.337
 4581SOL     OW14422   3.474   3.145   3.143
 4581SOL    HW114423   3.533   3.138   3.218
 4581SOL    HW214424   3.413   3.216   3.167
 4582SOL     OW14425   2.909   2.966   2.567
 4582SOL    HW114426   2.839   2.914   2.607
 4582SOL    HW214427   2.970   2.902   2.532
 4583SOL     OW14428   2.883   2.101   2.828
 4583SOL    HW114429   2.876   2.054   2.745
 4583SOL    HW214430   2.876   2.033   2.895
 4584SOL     OW14431   2.463   3.351   2.345
 4584SOL    HW114432   2.503   3.300   2.275
 4584SOL    HW214433   2.397   3.405   2.301
 4585SOL     OW14434   3.581   2.254   3.242
 4585SOL    HW114435   3.653   2.317   3.240
 4585SOL    HW214436   3.611   2.182   3.186
 4586SOL     OW14437   2.120   3.209   2.149
 4586SOL    HW114438   2.027   3.207   2.127
 4586SOL    HW214439   2.123   3.246   2.237
 4587SOL     OW14440   1.973   2.879   3.581
 4587SOL    HW114441   1.897   2.856   3.634
 4587SOL    HW214442   2.048   2.843   3.630
 4588SOL     OW14443   2.541   2.054   3.353
 4588SOL    HW114444   2.627   2.031   3.319
 4588SOL    HW214445   2.557   2.087   3.441
 4589SOL     OW14446   1.909   2.197   1.903
 4589SOL    HW114447   1.829   2.166   1.861
 4589SOL    HW214448   1.936   2.272   1.851
 4590SOL     OW14449   3.295   2.721   3.264
 4590SOL    HW114450   3.246   2.779   3.206
 4590SOL    HW214451   3.384   2.723   3.231
 4591SOL     OW14452   1.933   2.018   2.172
 4591SOL    HW114453   1.908   2.096   2.122
 4591SOL    HW214454   2.029   2.020   2.174
 4592SOL     OW14455   3.042   3.204   1.979
 4592SOL    HW114456   2.951   3.174   1.982
 4592SOL    HW214457   3.071   3.203   2.070
 4593SOL     OW14458   2.481   2.694   3.292
 4593SOL    HW114459   2.534   2.772   3.279
 4593SOL    HW214460   2.544   2.622   3.299
 4594SOL     OW14461   3.347   3.636   2.836
 4594SOL    HW114462   3.374   3.693   2.764
 4594SOL    HW214463   3.428   3.621   2.886
 4595SOL     OW14464   2.584   2.429   3.568
 4595SOL    HW114465   2.619   2.493   3.629
 4595SOL    HW214466   2.620   2.345   3.597
 4596SOL     OW14467   3.330   3.066   3.495
 4596SOL    HW114468   3.318   3.079   3.589
 4596SOL    HW214469   3.424   3.077   3.481
 4597SOL     OW14470   2.245   3.602   3.425
 4597SOL    HW114471   2.159   3.641   3.413
 4597SOL    HW214472   2.227   3.517   3.467
 4598SOL     OW14473   3.534   2.744   3.118
 4598SOL    HW114474   3.525   2.659   3.075
 4598SOL    HW214475   3.526   2.807   3.046
 4599SOL     OW14476   3.081   2.182   2.319
 4599SOL    HW114477   3.145   2.111   2.310
 4599SOL    HW214478   3.109   2.230   2.397
 4600SOL     OW14479   2.444   2.609   2.518
 4600SOL    HW114480   2.493   2.691   2.507
 4600SOL    HW214481   2.367   2.620   2.461
 4601SOL     OW14482   3.628   2.221   3.510
 4601SOL    HW114483   3.610   2.235   3.418
 4601SOL    HW214484   3.556   2.165   3.541
 4602SOL     OW14485   3.605   2.796   3.375
 4602SOL    HW114486   3.609   2.890   3.387
 4602SOL    HW214487   3.590   2.784   3.281
 4603SOL     OW14488   2.724   3.231   1.891
 4603SOL    HW114489   2.685   3.257   1.974
 4603SOL    HW214490   2.744   3.313   1.847
 4604SOL     OW14491   2.521   3.656   2.811
 4604SOL    HW114492   2.499   3.746   2.786
 4604SOL    HW214493   2.616   3.651   2.802
 4605SOL     OW14494   2.726   2.826   2.718
 4605SOL    HW114495   2.778   2.755   2.758
 4605SOL    HW214496   2.697   2.879   2.793
 4606SOL     OW14497   2.942   2.849   1.950
 4606SOL    HW114498   2.921   2.900   1.872
 4606SOL    HW214499   3.018   2.797   1.925
 4607SOL     OW14500   3.719   3.419   2.708
 4607SOL    HW114501   3.642   3.407   2.651
 4607SOL    HW214502   3.711   3.350   2.773
 4608SOL     OW14503   2.086   3.167   3.718
 4608SOL    HW114504   2.018   3.105   3.689
 4608SOL    HW214505   2.069   3.180   3.811
 4609SOL     OW14506   1.945   3.099   2.526
 4609SOL    HW114507   1.944   3.048   2.607
 4609SOL    HW214508   2.013   3.059   2.472
 4610SOL     OW14509   2.541   3.262   3.488
 4610SOL    HW114510   2.461   3.218   3.517
 4610SOL    HW214511   2.536   3.350   3.524
 4611SOL     OW14512   3.676   2.048   3.100
 4611SOL    HW114513   3.685   1.954   3.116
 4611SOL    HW214514   3.685   2.057   3.005
 4612SOL     OW14515   3.563   3.354   2.963
 4612SOL    HW114516   3.482   3.327   2.920
 4612SOL    HW214517   3.579   3.285   3.028
 4613SOL     OW14518   2.687   3.440   2.542
 4613SOL    HW114519   2.682   3.483   2.457
 4613SOL    HW214520   2.608   3.386   2.545
 4614SOL     OW14521   3.295   2.085   2.980
 4614SOL    HW114522   3.323   2.007   3.028
 4614SOL    HW214523   3.242   2.134   3.043
 4615SOL     OW14524   2.870   1.883   3.009
 4615SOL    HW114525   2.815   1.815   2.970
 4615SOL    HW214526   2.958   1.845   3.010
 4616SOL     OW14527   2.633   3.194   2.172
 4616SOL    HW114528   2.599   3.105   2.178
 4616SOL    HW214529   2.716   3.191   2.220
 4617SOL     OW14530   2.482   3.421   3.146
 4617SOL    HW114531   2.485   3.502   3.197
 4617SOL    HW214532   2.569   3.413   3.107
 4618SOL     OW14533   3.214   1.916   2.025
 4618SOL    HW114534   3.239   1.857   1.954
 4618SOL    HW214535   3.128   1.884   2.053
 4619SOL     OW14536   3.160   2.322   2.546
 4619SOL    HW114537   3.104   2.399   2.553
 4619SOL    HW214538   3.157   2.281   2.632
 4620SOL     OW14539   3.450   2.068   2.739
 4620SOL    HW114540   3.384   2.085   2.806
 4620SOL    HW214541   3.449   2.147   2.684
 4621SOL     OW14542   1.905   2.935   2.167
 4621SOL    HW114543   1.999   2.926   2.151
 4621SOL    HW214544   1.875   2.847   2.190
 4622SOL     OW14545   2.742   3.511   2.207
 4622SOL    HW114546   2.672   3.493   2.145
 4622SOL    HW214547   2.713   3.588   2.256
 4623SOL     OW14548   2.069   2.521   3.840
 4623SOL    HW114549   1.984   2.494   3.876
 4623SOL    HW214550   2.085   2.458   3.769
 4624SOL     OW14551   1.871   2.241   4.357
 4624SOL    HW114552   1.788   2.272   4.393
 4624SOL    HW214553   1.850   2.157   4.315
 4625SOL     OW14554   2.439   3.169   4.874
 4625SOL    HW114555   2.344   3.173   4.863
 4625SOL    HW214556   2.458   3.233   4.942
 4626SOL     OW14557   3.419   3.373   4.429
 4626SOL    HW114558   3.374   3.357   4.512
 4626SOL    HW214559   3.348   3.379   4.365
 4627SOL     OW14560   2.993   2.557   4.430
 4627SOL    HW114561   3.041   2.639   4.421
 4627SOL    HW214562   2.938   2.570   4.507
 4628SOL     OW14563   3.625   2.469   3.955
 4628SOL    HW114564   3.607   2.460   3.862
 4628SOL    HW214565   3.592   2.389   3.994
 4629SOL     OW14566   2.619   3.033   4.716
 4629SOL    HW114567   2.556   3.046   4.787
 4629SOL    HW214568   2.651   3.121   4.696
 4630SOL     OW14569   2.552   2.876   4.389
 4630SOL    HW114570   2.595   2.854   4.471
 4630SOL    HW214571   2.470   2.917   4.414
 4631SOL     OW14572   2.582   3.030   5.507
 4631SOL    HW114573   2.624   3.110   5.539
 4631SOL    HW214574   2.492   3.055   5.489
 4632SOL     OW14575   2.189   3.291   4.787
 4632SOL    HW114576   2.120   3.274   4.723
 4632SOL    HW214577   2.253   3.343   4.739
 4633SOL     OW14578   3.324   3.361   5.072
 4633SOL    HW114579   3.366   3.445   5.086
 4633SOL    HW214580   3.272   3.346   5.151
 4634SOL     OW14581   3.477   2.312   4.460
 4634SOL    HW114582   3.401   2.339   4.409
 4634SOL    HW214583   3.497   2.388   4.515
 4635SOL     OW14584   2.082   3.574   4.200
 4635SOL    HW114585   2.106   3.652   4.251
 4635SOL    HW214586   2.150   3.568   4.132
 4636SOL     OW14587   3.000   3.206   5.416
 4636SOL    HW114588   3.041   3.203   5.503
 4636SOL    HW214589   2.945   3.128   5.413
 4637SOL     OW14590   2.094   3.302   4.260
 4637SOL    HW114591   2.075   3.395   4.263
 4637SOL    HW214592   2.029   3.262   4.318
 4638SOL     OW14593   2.479   3.654   5.157
 4638SOL    HW114594   2.396   3.636   5.202
 4638SOL    HW214595   2.500   3.744   5.182
 4639SOL     OW14596   2.452   2.839   3.853
 4639SOL    HW114597   2.493   2.894   3.787
 4639SOL    HW214598   2.493   2.866   3.936
 4640SOL     OW14599   3.458   1.981   5.196
 4640SOL    HW114600   3.452   2.057   5.138
 4640SOL    HW214601   3.448   2.018   5.284
 4641SOL     OW14602   1.982   2.504   4.286
 4641SOL    HW114603   1.947   2.417   4.306
 4641SOL    HW214604   1.964   2.556   4.365
 4642SOL     OW14605   3.703   3.623   4.061
 4642SOL    HW114606   3.762   3.594   4.131
 4642SOL    HW214607   3.731   3.713   4.043
 4643SOL     OW14608   1.891   3.459   3.848
 4643SOL    HW114609   1.874   3.367   3.868
 4643SOL    HW214610   1.867   3.505   3.928
 4644SOL     OW14611   3.550   2.780   4.360
 4644SOL    HW114612   3.637   2.742   4.346
 4644SOL    HW214613   3.532   2.830   4.281
 4645SOL     OW14614   3.507   2.970   4.154
 4645SOL    HW114615   3.591   2.979   4.111
 4645SOL    HW214616   3.512   3.030   4.229
 4646SOL     OW14617   2.472   3.243   4.457
 4646SOL    HW114618   2.430   3.157   4.460
 4646SOL    HW214619   2.457   3.274   4.368
 4647SOL     OW14620   3.157   3.111   5.141
 4647SOL    HW114621   3.183   3.036   5.087
 4647SOL    HW214622   3.202   3.099   5.224
 4648SOL     OW14623   2.674   1.860   4.227
 4648SOL    HW114624   2.714   1.946   4.213
 4648SOL    HW214625   2.581   1.879   4.239
 4649SOL     OW14626   3.394   2.854   3.920
 4649SOL    HW114627   3.324   2.795   3.949
 4649SOL    HW214628   3.433   2.887   4.001
 4650SOL     OW14629   3.047   3.666   5.345
 4650SOL    HW114630   3.063   3.722   5.268
 4650SOL    HW214631   3.062   3.577   5.313
 4651SOL     OW14632   3.325   3.283   4.679
 4651SOL    HW114633   3.257   3.296   4.746
 4651SOL    HW214634   3.314   3.192   4.651
 4652SOL     OW14635   3.524   3.594   4.302
 4652SOL    HW114636   3.500   3.566   4.213
 4652SOL    HW214637   3.498   3.520   4.357
 4653SOL     OW14638   2.460   2.585   3.991
 4653SOL    HW114639   2.466   2.659   3.930
 4653SOL    HW214640   2.385   2.606   4.047
 4654SOL     OW14641   3.167   2.151   4.653
 4654SOL    HW114642   3.074   2.140   4.638
 4654SOL    HW214643   3.180   2.125   4.744
 4655SOL     OW14644   3.444   3.529   4.033
 4655SOL    HW114645   3.532   3.565   4.027
 4655SOL    HW214646   3.419   3.512   3.942
 4656SOL     OW14647   3.272   2.337   5.398
 4656SOL    HW114648   3.254   2.371   5.486
 4656SOL    HW214649   3.322   2.256   5.414
 4657SOL     OW14650   2.869   2.777   5.322
 4657SOL    HW114651   2.912   2.692   5.323
 4657SOL    HW214652   2.815   2.776   5.243
 4658SOL     OW14653   2.910   2.561   4.152
 4658SOL    HW114654   2.926   2.549   4.245
 4658SOL    HW214655   2.829   2.513   4.135
 4659SOL     OW14656   1.947   2.682   4.496
 4659SOL    HW114657   2.025   2.672   4.550
 4659SOL    HW214658   1.899   2.754   4.537
 4660SOL     OW14659   1.991   3.701   5.300
 4660SOL    HW114660   1.988   3.681   5.394
 4660SOL    HW214661   1.899   3.705   5.274
 4661SOL     OW14662   2.748   2.209   3.919
 4661SOL    HW114663   2.793   2.268   3.859
 4661SOL    HW214664   2.763   2.121   3.882
 4662SOL     OW14665   3.572   2.440   5.552
 4662SOL    HW114666   3.535   2.516   5.508
 4662SOL    HW214667   3.593   2.379   5.481
 4663SOL     OW14668   3.234   3.003   4.265
 4663SOL    HW114669   3.314   2.989   4.215
 4663SOL    HW214670   3.184   3.067   4.215
 4664SOL     OW14671   2.870   3.307   4.199
 4664SOL    HW114672   2.829   3.378   4.149
 4664SOL    HW214673   2.859   3.333   4.290
 4665SOL     OW14674   2.216   3.668   4.582
 4665SOL    HW114675   2.262   3.584   4.591
 4665SOL    HW214676   2.283   3.734   4.597
 4666SOL     OW14677   3.659   2.923   4.591
 4666SOL    HW114678   3.602   2.907   4.516
 4666SOL    HW214679   3.600   2.927   4.666
 4667SOL     OW14680   3.093   3.403   5.240
 4667SOL    HW114681   3.079   3.328   5.297
 4667SOL    HW214682   3.036   3.388   5.165
 4668SOL     OW14683   2.182   2.816   3.972
 4668SOL    HW114684   2.263   2.834   3.924
 4668SOL    HW214685   2.149   2.736   3.931
 4669SOL     OW14686   3.334   2.603   4.455
 4669SOL    HW114687   3.328   2.554   4.537
 4669SOL    HW214688   3.414   2.655   4.464
 4670SOL     OW14689   2.327   3.127   5.461
 4670SOL    HW114690   2.294   3.131   5.372
 4670SOL    HW214691   2.248   3.122   5.515
 4671SOL     OW14692   2.982   3.639   3.956
 4671SOL    HW114693   2.911   3.595   4.003
 4671SOL    HW214694   3.003   3.580   3.884
 4672SOL     OW14695   1.975   2.125   5.247
 4672SOL    HW114696   1.990   2.201   5.190
 4672SOL    HW214697   2.062   2.098   5.274
 4673SOL     OW14698   3.492   3.241   3.811
 4673SOL    HW114699   3.451   3.326   3.796
 4673SOL    HW214700   3.422   3.177   3.792
 4674SOL     OW14701   2.329   3.600   4.046
 4674SOL    HW114702   2.368   3.658   4.112
 4674SOL    HW214703   2.402   3.575   3.990
 4675SOL     OW14704   3.263   1.973   4.153
 4675SOL    HW114705   3.251   1.944   4.062
 4675SOL    HW214706   3.358   1.975   4.164
 4676SOL     OW14707   2.118   3.655   4.957
 4676SOL    HW114708   2.175   3.595   5.004
 4676SOL    HW214709   2.109   3.617   4.869
 4677SOL     OW14710   2.801   3.562   4.624
 4677SOL    HW114711   2.876   3.508   4.647
 4677SOL    HW214712   2.754   3.512   4.558
 4678SOL     OW14713   2.240   2.567   4.189
 4678SOL    HW114714   2.267   2.480   4.162
 4678SOL    HW214715   2.149   2.557   4.217
 4679SOL     OW14716   3.401   2.087   5.451
 4679SOL    HW114717   3.408   2.109   5.544
 4679SOL    HW214718   3.336   2.018   5.448
 4680SOL     OW14719   2.487   1.995   3.829
 4680SOL    HW114720   2.559   1.937   3.856
 4680SOL    HW214721   2.449   1.952   3.752
 4681SOL     OW14722   2.737   3.386   4.915
 4681SOL    HW114723   2.717   3.358   4.825
 4681SOL    HW214724   2.793   3.317   4.950
 4682SOL     OW14725   3.223   2.467   5.165
 4682SOL    HW114726   3.241   2.429   5.251
 4682SOL    HW214727   3.250   2.558   5.173
 4683SOL     OW14728   2.680   3.284   4.654
 4683SOL    HW114729   2.763   3.263   4.610
 4683SOL    HW214730   2.613   3.271   4.586
 4684SOL     OW14731   2.409   1.930   4.223
 4684SOL    HW114732   2.335   1.924   4.283
 4684SOL    HW214733   2.403   2.018   4.186
 4685SOL     OW14734   3.291   3.059   3.765
 4685SOL    HW114735   3.322   2.984   3.815
 4685SOL    HW214736   3.205   3.079   3.802
 4686SOL     OW14737   2.159   1.904   3.902
 4686SOL    HW114738   2.223   1.968   3.872
 4686SOL    HW214739   2.211   1.836   3.945
 4687SOL     OW14740   2.796   2.106   4.187
 4687SOL    HW114741   2.771   2.150   4.106
 4687SOL    HW214742   2.891   2.115   4.191
 4688SOL     OW14743   3.088   3.430   4.517
 4688SOL    HW114744   3.104   3.499   4.453
 4688SOL    HW214745   3.155   3.443   4.584
 4689SOL     OW14746   3.133   3.657   4.329
 4689SOL    HW114747   3.177   3.718   4.270
 4689SOL    HW214748   3.070   3.711   4.376
 4690SOL     OW14749   2.888   2.408   3.743
 4690SOL    HW114750   2.847   2.492   3.723
 4690SOL    HW214751   2.952   2.428   3.811
 4691SOL     OW14752   1.994   2.388   5.088
 4691SOL    HW114753   2.082   2.426   5.082
 4691SOL    HW214754   1.941   2.458   5.127
 4692SOL     OW14755   2.727   2.324   4.363
 4692SOL    HW114756   2.686   2.376   4.294
 4692SOL    HW214757   2.751   2.242   4.319
 4693SOL     OW14758   2.881   1.897   4.458
 4693SOL    HW114759   2.813   1.893   4.390
 4693SOL    HW214760   2.859   1.825   4.517
 4694SOL     OW14761   3.296   3.027   4.583
 4694SOL    HW114762   3.233   2.955   4.577
 4694SOL    HW214763   3.322   3.043   4.492
 4695SOL     OW14764   3.333   2.463   4.703
 4695SOL    HW114765   3.287   2.380   4.712
 4695SOL    HW214766   3.394   2.465   4.777
 4696SOL     OW14767   3.710   2.681   4.105
 4696SOL    HW114768   3.765   2.629   4.163
 4696SOL    HW214769   3.680   2.619   4.038
 4697SOL     OW14770   2.354   3.275   3.885
 4697SOL    HW114771   2.279   3.246   3.937
 4697SOL    HW214772   2.333   3.250   3.796
 4698SOL     OW14773   3.529   3.127   4.374
 4698SOL    HW114774   3.624   3.132   4.386
 4698SOL    HW214775   3.498   3.215   4.394
 4699SOL     OW14776   3.256   2.434   3.796
 4699SOL    HW114777   3.196   2.415   3.868
 4699SOL    HW214778   3.340   2.400   3.824
 4700SOL     OW14779   3.615   3.097   5.300
 4700SOL    HW114780   3.703   3.058   5.299
 4700SOL    HW214781   3.629   3.186   5.331
 4701SOL     OW14782   3.467   3.488   5.375
 4701SOL    HW114783   3.465   3.521   5.285
 4701SOL    HW214784   3.550   3.441   5.381
 4702SOL     OW14785   2.986   3.076   4.837
 4702SOL    HW114786   2.907   3.073   4.891
 4702SOL    HW214787   2.955   3.100   4.750
 4703SOL     OW14788   3.493   2.962   4.803
 4703SOL    HW114789   3.491   3.024   4.875
 4703SOL    HW214790   3.412   2.978   4.755
 4704SOL     OW14791   2.849   2.989   5.470
 4704SOL    HW114792   2.755   2.999   5.481
 4704SOL    HW214793   2.859   2.912   5.413
 4705SOL     OW14794   2.571   2.923   4.096
 4705SOL    HW114795   2.559   2.908   4.190
 4705SOL    HW214796   2.646   2.869   4.073
 4706SOL     OW14797   1.936   3.452   5.069
 4706SOL    HW114798   1.905   3.528   5.020
 4706SOL    HW214799   2.031   3.462   5.071
 4707SOL     OW14800   2.220   2.965   4.226
 4707SOL    HW114801   2.222   3.041   4.168
 4707SOL    HW214802   2.217   2.890   4.167
 4708SOL     OW14803   3.110   3.209   4.114
 4708SOL    HW114804   3.165   3.282   4.144
 4708SOL    HW214805   3.022   3.231   4.147
 4709SOL     OW14806   3.132   3.314   4.875
 4709SOL    HW114807   3.189   3.314   4.952
 4709SOL    HW214808   3.089   3.228   4.877
 4710SOL     OW14809   3.444   2.489   4.200
 4710SOL    HW114810   3.402   2.548   4.263
 4710SOL    HW214811   3.491   2.547   4.141
 4711SOL     OW14812   2.212   3.380   5.042
 4711SOL    HW114813   2.200   3.343   4.955
 4711SOL    HW214814   2.307   3.396   5.048
 4712SOL     OW14815   3.461   2.642   5.406
 4712SOL    HW114816   3.373   2.679   5.396
 4712SOL    HW214817   3.512   2.682   5.335
 4713SOL     OW14818   3.222   2.722   4.758
 4713SOL    HW114819   3.147   2.708   4.699
 4713SOL    HW214820   3.261   2.635   4.767
 4714SOL     OW14821   3.069   2.391   3.993
 4714SOL    HW114822   3.077   2.312   4.047
 4714SOL    HW214823   3.027   2.455   4.051
 4715SOL     OW14824   1.857   3.197   5.069
 4715SOL    HW114825   1.920   3.134   5.034
 4715SOL    HW214826   1.901   3.282   5.060
 4716SOL     OW14827   3.595   2.821   5.575
 4716SOL    HW114828   3.547   2.765   5.513
 4716SOL    HW214829   3.535   2.833   5.648
 4717SOL     OW14830   2.175   1.921   4.365
 4717SOL    HW114831   2.147   2.008   4.394
 4717SOL    HW214832   2.162   1.865   4.442
 4718SOL     OW14833   3.476   2.234   4.093
 4718SOL    HW114834   3.502   2.170   4.159
 4718SOL    HW214835   3.452   2.312   4.144
 4719SOL     OW14836   2.844   3.429   5.437
 4719SOL    HW114837   2.829   3.472   5.353
 4719SOL    HW214838   2.886   3.346   5.415
 4720SOL     OW14839   3.718   3.372   5.330
 4720SOL    HW114840   3.735   3.397   5.239
 4720SOL    HW214841   3.799   3.393   5.376
 4721SOL     OW14842   3.393   2.136   3.851
 4721SOL    HW114843   3.329   2.070   3.877
 4721SOL    HW214844   3.425   2.172   3.934
 4722SOL     OW14845   3.157   2.690   3.758
 4722SOL    HW114846   3.199   2.604   3.761
 4722SOL    HW214847   3.187   2.728   3.675
 4723SOL     OW14848   2.928   3.198   4.576
 4723SOL    HW114849   2.932   3.126   4.513
 4723SOL    HW214850   2.990   3.263   4.544
 4724SOL     OW14851   1.867   3.185   3.920
 4724SOL    HW114852   1.780   3.198   3.882
 4724SOL    HW214853   1.865   3.094   3.951
 4725SOL     OW14854   1.951   3.650   4.659
 4725SOL    HW114855   1.923   3.569   4.616
 4725SOL    HW214856   2.041   3.663   4.629
 4726SOL     OW14857   2.362   3.434   4.633
 4726SOL    HW114858   2.429   3.498   4.656
 4726SOL    HW214859   2.408   3.369   4.580
 4727SOL     OW14860   1.901   2.418   4.833
 4727SOL    HW114861   1.974   2.371   4.792
 4727SOL    HW214862   1.910   2.401   4.926
 4728SOL     OW14863   3.237   2.805   5.384
 4728SOL    HW114864   3.256   2.899   5.385
 4728SOL    HW214865   3.238   2.781   5.292
 4729SOL     OW14866   2.677   2.431   4.078
 4729SOL    HW114867   2.680   2.356   4.018
 4729SOL    HW214868   2.601   2.481   4.049
 4730SOL     OW14869   3.504   2.465   4.912
 4730SOL    HW114870   3.490   2.410   4.989
 4730SOL    HW214871   3.592   2.440   4.881
 4731SOL     OW14872   2.110   3.416   5.455
 4731SOL    HW114873   2.085   3.477   5.523
 4731SOL    HW214874   2.107   3.330   5.497
 4732SOL     OW14875   2.557   2.320   4.954
 4732SOL    HW114876   2.506   2.245   4.922
 4732SOL    HW214877   2.553   2.383   4.882
 4733SOL     OW14878   2.798   3.540   5.186
 4733SOL    HW114879   2.762   3.514   5.101
 4733SOL    HW214880   2.795   3.636   5.185
 4734SOL     OW14881   3.191   2.911   4.950
 4734SOL    HW114882   3.214   2.849   4.880
 4734SOL    HW214883   3.122   2.965   4.912
 4735SOL     OW14884   3.169   2.718   4.032
 4735SOL    HW114885   3.091   2.687   4.078
 4735SOL    HW214886   3.149   2.705   3.939
 4736SOL     OW14887   3.629   3.610   4.872
 4736SOL    HW114888   3.690   3.635   4.802
 4736SOL    HW214889   3.606   3.519   4.852
 4737SOL     OW14890   3.103   3.594   4.841
 4737SOL    HW114891   3.185   3.612   4.795
 4737SOL    HW214892   3.106   3.500   4.860
 4738SOL     OW14893   2.541   3.532   5.456
 4738SOL    HW114894   2.490   3.612   5.447
 4738SOL    HW214895   2.600   3.532   5.380
 4739SOL     OW14896   3.581   2.003   4.238
 4739SOL    HW114897   3.654   1.990   4.178
 4739SOL    HW214898   3.565   1.917   4.276
 4740SOL     OW14899   3.251   3.430   4.206
 4740SOL    HW114900   3.313   3.460   4.139
 4740SOL    HW214901   3.205   3.509   4.234
 4741SOL     OW14902   1.995   3.658   5.569
 4741SOL    HW114903   1.948   3.592   5.618
 4741SOL    HW214904   2.045   3.706   5.635
 4742SOL     OW14905   3.137   2.787   4.399
 4742SOL    HW114906   3.209   2.724   4.402
 4742SOL    HW214907   3.170   2.859   4.345
 4743SOL     OW14908   2.535   3.478   3.879
 4743SOL    HW114909   2.543   3.489   3.785
 4743SOL    HW214910   2.481   3.399   3.890
 4744SOL     OW14911   3.496   3.588   5.116
 4744SOL    HW114912   3.542   3.596   5.033
 4744SOL    HW214913   3.482   3.679   5.145
 4745SOL     OW14914   3.702   2.036   4.692
 4745SOL    HW114915   3.729   1.949   4.661
 4745SOL    HW214916   3.613   2.047   4.657
 4746SOL     OW14917   3.067   3.470   3.755
 4746SOL    HW114918   3.060   3.379   3.782
 4746SOL    HW214919   3.003   3.480   3.685
 4747SOL     OW14920   2.779   2.775   4.016
 4747SOL    HW114921   2.840   2.804   3.948
 4747SOL    HW214922   2.823   2.700   4.057
 4748SOL     OW14923   3.358   3.486   3.766
 4748SOL    HW114924   3.263   3.483   3.755
 4748SOL    HW214925   3.392   3.492   3.677
 4749SOL     OW14926   2.211   3.159   5.223
 4749SOL    HW114927   2.216   3.239   5.171
 4749SOL    HW214928   2.147   3.104   5.177
 4750SOL     OW14929   3.475   3.146   5.005
 4750SOL    HW114930   3.532   3.137   5.081
 4750SOL    HW214931   3.413   3.215   5.029
 4751SOL     OW14932   2.914   2.973   4.425
 4751SOL    HW114933   2.833   2.923   4.440
 4751SOL    HW214934   2.974   2.909   4.388
 4752SOL     OW14935   2.885   2.069   4.663
 4752SOL    HW114936   2.877   2.018   4.582
 4752SOL    HW214937   2.869   2.005   4.733
 4753SOL     OW14938   2.462   3.349   4.208
 4753SOL    HW114939   2.503   3.300   4.137
 4753SOL    HW214940   2.398   3.406   4.164
 4754SOL     OW14941   3.582   2.253   5.104
 4754SOL    HW114942   3.653   2.317   5.102
 4754SOL    HW214943   3.612   2.181   5.048
 4755SOL     OW14944   2.120   3.210   4.011
 4755SOL    HW114945   2.027   3.208   3.989
 4755SOL    HW214946   2.123   3.246   4.099
 4756SOL     OW14947   1.971   2.918   5.471
 4756SOL    HW114948   1.890   2.879   5.506
 4756SOL    HW214949   2.031   2.844   5.461
 4757SOL     OW14950   1.923   2.203   3.773
 4757SOL    HW114951   1.842   2.177   3.729
 4757SOL    HW214952   1.963   2.266   3.713
 4758SOL     OW14953   3.299   2.732   5.132
 4758SOL    HW114954   3.249   2.787   5.070
 4758SOL    HW214955   3.387   2.728   5.093
 4759SOL     OW14956   1.937   2.021   4.038
 4759SOL    HW114957   1.914   2.096   3.983
 4759SOL    HW214958   2.017   1.986   3.998
 4760SOL     OW14959   3.042   3.204   3.841
 4760SOL    HW114960   2.951   3.175   3.844
 4760SOL    HW214961   3.071   3.203   3.932
 4761SOL     OW14962   3.348   3.635   4.698
 4761SOL    HW114963   3.374   3.694   4.627
 4761SOL    HW214964   3.428   3.621   4.748
 4762SOL     OW14965   3.328   3.067   5.357
 4762SOL    HW114966   3.317   3.079   5.451
 4762SOL    HW214967   3.422   3.077   5.342
 4763SOL     OW14968   2.245   3.601   5.286
 4763SOL    HW114969   2.158   3.641   5.276
 4763SOL    HW214970   2.228   3.517   5.329
 4764SOL     OW14971   3.534   2.744   4.980
 4764SOL    HW114972   3.525   2.658   4.938
 4764SOL    HW214973   3.526   2.806   4.908
 4765SOL     OW14974   3.081   2.183   4.180
 4765SOL    HW114975   3.144   2.111   4.170
 4765SOL    HW214976   3.111   2.230   4.258
 4766SOL     OW14977   2.456   2.607   4.349
 4766SOL    HW114978   2.490   2.697   4.344
 4766SOL    HW214979   2.376   2.609   4.297
 4767SOL     OW14980   3.629   2.219   5.372
 4767SOL    HW114981   3.609   2.236   5.280
 4767SOL    HW214982   3.556   2.165   5.402
 4768SOL     OW14983   3.608   2.795   5.236
 4768SOL    HW114984   3.608   2.890   5.249
 4768SOL    HW214985   3.591   2.784   5.143
 4769SOL     OW14986   2.725   3.231   3.754
 4769SOL    HW114987   2.684   3.259   3.836
 4769SOL    HW214988   2.745   3.313   3.708
 4770SOL     OW14989   2.520   3.656   4.670
 4770SOL    HW114990   2.499   3.746   4.648
 4770SOL    HW214991   2.615   3.651   4.665
 4771SOL     OW14992   2.941   2.848   3.812
 4771SOL    HW114993   2.920   2.900   3.734
 4771SOL    HW214994   3.018   2.797   3.788
 4772SOL     OW14995   3.720   3.419   4.569
 4772SOL    HW114996   3.642   3.407   4.514
 4772SOL    HW214997   3.711   3.350   4.636
 4773SOL     OW14998   2.083   3.170   5.579
 4773SOL    HW114999   2.023   3.099   5.556
 4773SOL    HW215000   2.079   3.174   5.675
 4774SOL     OW15001   1.948   3.101   4.394
 4774SOL    HW115002   1.925   3.037   4.461
 4774SOL    HW215003   2.012   3.056   4.339
 4775SOL     OW15004   2.522   3.282   5.338
 4775SOL    HW115005   2.455   3.226   5.378
 4775SOL    HW215006   2.522   3.361   5.392
 4776SOL     OW15007   3.679   2.048   4.962
 4776SOL    HW115008   3.682   1.953   4.978
 4776SOL    HW215009   3.688   2.056   4.867
 4777SOL     OW15010   3.564   3.353   4.824
 4777SOL    HW115011   3.482   3.328   4.782
 4777SOL    HW215012   3.579   3.286   4.891
 4778SOL     OW15013   2.688   3.441   4.400
 4778SOL    HW115014   2.684   3.486   4.316
 4778SOL    HW215015   2.607   3.390   4.403
 4779SOL     OW15016   2.632   3.195   4.035
 4779SOL    HW115017   2.599   3.105   4.040
 4779SOL    HW215018   2.716   3.192   4.080
 4780SOL     OW15019   2.478   3.428   5.004
 4780SOL    HW115020   2.485   3.506   5.060
 4780SOL    HW215021   2.566   3.415   4.970
 4781SOL     OW15022   3.213   1.916   3.887
 4781SOL    HW115023   3.240   1.856   3.817
 4781SOL    HW215024   3.127   1.884   3.915
 4782SOL     OW15025   3.164   2.318   4.408
 4782SOL    HW115026   3.106   2.393   4.421
 4782SOL    HW215027   3.164   2.272   4.492
 4783SOL     OW15028   3.445   2.079   4.608
 4783SOL    HW115029   3.351   2.082   4.624
 4783SOL    HW215030   3.461   2.152   4.548
 4784SOL     OW15031   1.907   2.935   4.030
 4784SOL    HW115032   2.000   2.924   4.010
 4784SOL    HW215033   1.876   2.847   4.052
 4785SOL     OW15034   2.742   3.510   4.070
 4785SOL    HW115035   2.672   3.493   4.007
 4785SOL    HW215036   2.713   3.588   4.118
 4786SOL     OW15037   2.034   2.455   5.736
 4786SOL    HW115038   1.973   2.530   5.737
 4786SOL    HW215039   2.074   2.459   5.649
 4787SOL     OW15040   1.867   2.235   6.237
 4787SOL    HW115041   1.779   2.254   6.272
 4787SOL    HW215042   1.852   2.172   6.167
 4788SOL     OW15043   2.430   3.144   6.754
 4788SOL    HW115044   2.339   3.144   6.725
 4788SOL    HW215045   2.443   3.232   6.790
 4789SOL     OW15046   3.419   3.374   6.291
 4789SOL    HW115047   3.375   3.355   6.374
 4789SOL    HW215048   3.348   3.377   6.227
 4790SOL     OW15049   3.628   2.470   5.816
 4790SOL    HW115050   3.608   2.460   5.722
 4790SOL    HW215051   3.593   2.390   5.856
 4791SOL     OW15052   2.633   3.009   6.623
 4791SOL    HW115053   2.556   3.031   6.676
 4791SOL    HW215054   2.658   3.092   6.582
 4792SOL     OW15055   2.722   2.644   7.407
 4792SOL    HW115056   2.711   2.715   7.470
 4792SOL    HW215057   2.747   2.689   7.326
 4793SOL     OW15058   2.569   3.014   7.394
 4793SOL    HW115059   2.616   3.094   7.418
 4793SOL    HW215060   2.485   3.046   7.361
 4794SOL     OW15061   2.192   3.287   6.655
 4794SOL    HW115062   2.118   3.255   6.602
 4794SOL    HW215063   2.242   3.342   6.595
 4795SOL     OW15064   3.324   3.360   6.936
 4795SOL    HW115065   3.366   3.445   6.946
 4795SOL    HW215066   3.271   3.349   7.015
 4796SOL     OW15067   3.481   2.317   6.329
 4796SOL    HW115068   3.421   2.361   6.268
 4796SOL    HW215069   3.510   2.387   6.388
 4797SOL     OW15070   2.082   3.575   6.061
 4797SOL    HW115071   2.106   3.652   6.113
 4797SOL    HW215072   2.150   3.569   5.994
 4798SOL     OW15073   2.998   3.203   7.277
 4798SOL    HW115074   3.037   3.200   7.364
 4798SOL    HW215075   2.944   3.123   7.272
 4799SOL     OW15076   2.097   3.303   6.118
 4799SOL    HW115077   2.079   3.397   6.120
 4799SOL    HW215078   2.034   3.264   6.178
 4800SOL     OW15079   2.478   3.652   7.018
 4800SOL    HW115080   2.395   3.635   7.062
 4800SOL    HW215081   2.500   3.742   7.042
 4801SOL     OW15082   2.454   2.898   5.697
 4801SOL    HW115083   2.514   2.929   5.629
 4801SOL    HW215084   2.499   2.822   5.734
 4802SOL     OW15085   3.459   1.982   7.056
 4802SOL    HW115086   3.453   2.060   7.001
 4802SOL    HW215087   3.448   2.015   7.146
 4803SOL     OW15088   2.023   2.460   6.152
 4803SOL    HW115089   1.973   2.385   6.185
 4803SOL    HW215090   1.972   2.536   6.179
 4804SOL     OW15091   3.703   3.624   5.923
 4804SOL    HW115092   3.762   3.594   5.993
 4804SOL    HW215093   3.731   3.713   5.905
 4805SOL     OW15094   1.891   3.452   5.712
 4805SOL    HW115095   1.834   3.376   5.712
 4805SOL    HW215096   1.868   3.500   5.791
 4806SOL     OW15097   3.552   2.784   6.224
 4806SOL    HW115098   3.637   2.742   6.205
 4806SOL    HW215099   3.531   2.832   6.144
 4807SOL     OW15100   3.507   2.969   6.016
 4807SOL    HW115101   3.592   2.979   5.973
 4807SOL    HW215102   3.509   3.029   6.090
 4808SOL     OW15103   1.982   2.596   7.175
 4808SOL    HW115104   2.071   2.611   7.205
 4808SOL    HW215105   1.939   2.681   7.180
 4809SOL     OW15106   2.446   3.264   6.322
 4809SOL    HW115107   2.420   3.172   6.324
 4809SOL    HW215108   2.436   3.290   6.231
 4810SOL     OW15109   3.152   3.100   7.010
 4810SOL    HW115110   3.185   3.033   6.951
 4810SOL    HW215111   3.208   3.093   7.088
 4811SOL     OW15112   2.053   2.832   6.854
 4811SOL    HW115113   2.137   2.789   6.840
 4811SOL    HW215114   1.990   2.780   6.804
 4812SOL     OW15115   3.395   2.853   5.782
 4812SOL    HW115116   3.326   2.793   5.810
 4812SOL    HW215117   3.432   2.887   5.863
 4813SOL     OW15118   3.047   3.665   7.206
 4813SOL    HW115119   3.063   3.722   7.131
 4813SOL    HW215120   3.062   3.577   7.172
 4814SOL     OW15121   3.327   3.282   6.539
 4814SOL    HW115122   3.259   3.295   6.605
 4814SOL    HW215123   3.317   3.192   6.511
 4815SOL     OW15124   3.524   3.594   6.163
 4815SOL    HW115125   3.500   3.566   6.075
 4815SOL    HW215126   3.497   3.521   6.219
 4816SOL     OW15127   3.443   3.530   5.895
 4816SOL    HW115128   3.532   3.565   5.889
 4816SOL    HW215129   3.419   3.512   5.804
 4817SOL     OW15130   2.655   2.465   7.034
 4817SOL    HW115131   2.636   2.458   7.127
 4817SOL    HW215132   2.596   2.402   6.993
 4818SOL     OW15133   3.256   2.335   7.264
 4818SOL    HW115134   3.256   2.379   7.349
 4818SOL    HW215135   3.320   2.265   7.273
 4819SOL     OW15136   2.819   2.750   7.167
 4819SOL    HW115137   2.875   2.680   7.132
 4819SOL    HW215138   2.775   2.785   7.090
 4820SOL     OW15139   2.857   2.277   6.817
 4820SOL    HW115140   2.786   2.307   6.873
 4820SOL    HW215141   2.819   2.207   6.764
 4821SOL     OW15142   1.991   3.701   7.161
 4821SOL    HW115143   1.988   3.682   7.255
 4821SOL    HW215144   1.899   3.704   7.135
 4822SOL     OW15145   3.573   2.440   7.414
 4822SOL    HW115146   3.536   2.516   7.369
 4822SOL    HW215147   3.596   2.379   7.344
 4823SOL     OW15148   3.230   3.012   6.139
 4823SOL    HW115149   3.303   2.977   6.088
 4823SOL    HW215150   3.186   3.072   6.080
 4824SOL     OW15151   2.451   2.102   6.436
 4824SOL    HW115152   2.449   2.090   6.531
 4824SOL    HW215153   2.450   2.196   6.423
 4825SOL     OW15154   2.869   3.305   6.061
 4825SOL    HW115155   2.829   3.377   6.011
 4825SOL    HW215156   2.860   3.331   6.152
 4826SOL     OW15157   2.215   3.670   6.443
 4826SOL    HW115158   2.258   3.586   6.457
 4826SOL    HW215159   2.284   3.735   6.459
 4827SOL     OW15160   3.660   2.924   6.453
 4827SOL    HW115161   3.604   2.905   6.378
 4827SOL    HW215162   3.600   2.928   6.527
 4828SOL     OW15163   3.090   3.402   7.098
 4828SOL    HW115164   3.076   3.329   7.158
 4828SOL    HW215165   3.030   3.385   7.026
 4829SOL     OW15166   3.348   2.576   6.312
 4829SOL    HW115167   3.323   2.553   6.402
 4829SOL    HW215168   3.394   2.660   6.321
 4830SOL     OW15169   2.326   3.125   7.323
 4830SOL    HW115170   2.297   3.130   7.232
 4830SOL    HW215171   2.245   3.123   7.374
 4831SOL     OW15172   2.982   3.639   5.818
 4831SOL    HW115173   2.911   3.595   5.865
 4831SOL    HW215174   3.004   3.581   5.746
 4832SOL     OW15175   3.492   3.241   5.672
 4832SOL    HW115176   3.450   3.326   5.657
 4832SOL    HW215177   3.423   3.177   5.655
 4833SOL     OW15178   2.329   3.600   5.908
 4833SOL    HW115179   2.369   3.657   5.974
 4833SOL    HW215180   2.402   3.574   5.852
 4834SOL     OW15181   3.268   1.985   5.988
 4834SOL    HW115182   3.241   1.907   5.940
 4834SOL    HW215183   3.356   1.964   6.021
 4835SOL     OW15184   2.117   3.654   6.819
 4835SOL    HW115185   2.168   3.589   6.867
 4835SOL    HW215186   2.104   3.616   6.733
 4836SOL     OW15187   2.801   3.560   6.486
 4836SOL    HW115188   2.878   3.507   6.506
 4836SOL    HW215189   2.755   3.510   6.418
 4837SOL     OW15190   3.401   2.088   7.311
 4837SOL    HW115191   3.408   2.110   7.404
 4837SOL    HW215192   3.333   2.020   7.308
 4838SOL     OW15193   2.631   2.139   7.339
 4838SOL    HW115194   2.703   2.076   7.346
 4838SOL    HW215195   2.579   2.123   7.418
 4839SOL     OW15196   2.739   3.383   6.780
 4839SOL    HW115197   2.724   3.346   6.693
 4839SOL    HW215198   2.808   3.328   6.817
 4840SOL     OW15199   3.202   2.451   7.019
 4840SOL    HW115200   3.234   2.418   7.103
 4840SOL    HW215201   3.240   2.539   7.011
 4841SOL     OW15202   2.672   3.262   6.522
 4841SOL    HW115203   2.756   3.253   6.476
 4841SOL    HW215204   2.608   3.273   6.451
 4842SOL     OW15205   2.765   2.398   6.503
 4842SOL    HW115206   2.719   2.383   6.421
 4842SOL    HW215207   2.812   2.317   6.520
 4843SOL     OW15208   2.398   1.994   6.071
 4843SOL    HW115209   2.333   1.960   6.133
 4843SOL    HW215210   2.349   2.055   6.016
 4844SOL     OW15211   3.291   3.060   5.627
 4844SOL    HW115212   3.322   2.983   5.676
 4844SOL    HW215213   3.204   3.077   5.662
 4845SOL     OW15214   2.942   2.540   7.047
 4845SOL    HW115215   2.875   2.473   7.056
 4845SOL    HW215216   3.024   2.492   7.040
 4846SOL     OW15217   3.087   3.432   6.379
 4846SOL    HW115218   3.107   3.500   6.315
 4846SOL    HW215219   3.155   3.442   6.446
 4847SOL     OW15220   3.133   3.657   6.190
 4847SOL    HW115221   3.177   3.718   6.131
 4847SOL    HW215222   3.070   3.711   6.238
 4848SOL     OW15223   1.938   2.429   6.968
 4848SOL    HW115224   2.033   2.412   6.970
 4848SOL    HW215225   1.923   2.491   7.039
 4849SOL     OW15226   2.433   2.038   6.720
 4849SOL    HW115227   2.467   1.984   6.791
 4849SOL    HW215228   2.347   2.067   6.752
 4850SOL     OW15229   2.691   2.317   6.235
 4850SOL    HW115230   2.657   2.383   6.175
 4850SOL    HW215231   2.742   2.259   6.180
 4851SOL     OW15232   3.298   3.027   6.443
 4851SOL    HW115233   3.230   2.960   6.445
 4851SOL    HW215234   3.317   3.040   6.350
 4852SOL     OW15235   3.327   2.462   6.577
 4852SOL    HW115236   3.294   2.372   6.582
 4852SOL    HW215237   3.393   2.467   6.646
 4853SOL     OW15238   3.710   2.681   5.967
 4853SOL    HW115239   3.765   2.628   6.025
 4853SOL    HW215240   3.681   2.620   5.900
 4854SOL     OW15241   2.353   3.276   5.751
 4854SOL    HW115242   2.277   3.243   5.799
 4854SOL    HW215243   2.339   3.247   5.661
 4855SOL     OW15244   3.530   3.128   6.234
 4855SOL    HW115245   3.625   3.134   6.247
 4855SOL    HW215246   3.498   3.215   6.256
 4856SOL     OW15247   3.254   2.430   5.659
 4856SOL    HW115248   3.207   2.411   5.740
 4856SOL    HW215249   3.344   2.405   5.677
 4857SOL     OW15250   3.616   3.097   7.163
 4857SOL    HW115251   3.703   3.059   7.160
 4857SOL    HW215252   3.630   3.187   7.193
 4858SOL     OW15253   2.923   3.216   6.922
 4858SOL    HW115254   2.848   3.184   6.973
 4858SOL    HW215255   2.999   3.174   6.962
 4859SOL     OW15256   3.467   3.487   7.236
 4859SOL    HW115257   3.465   3.521   7.147
 4859SOL    HW215258   3.550   3.441   7.243
 4860SOL     OW15259   2.988   3.064   6.694
 4860SOL    HW115260   2.929   3.101   6.760
 4860SOL    HW215261   2.950   3.091   6.610
 4861SOL     OW15262   3.493   2.962   6.665
 4861SOL    HW115263   3.489   3.024   6.737
 4861SOL    HW215264   3.413   2.977   6.615
 4862SOL     OW15265   2.781   1.965   6.992
 4862SOL    HW115266   2.804   1.940   6.902
 4862SOL    HW215267   2.862   2.001   7.028
 4863SOL     OW15268   2.846   2.976   7.308
 4863SOL    HW115269   2.753   2.991   7.327
 4863SOL    HW215270   2.846   2.898   7.252
 4864SOL     OW15271   2.277   2.682   6.870
 4864SOL    HW115272   2.360   2.690   6.917
 4864SOL    HW215273   2.247   2.593   6.887
 4865SOL     OW15274   3.129   2.241   6.856
 4865SOL    HW115275   3.161   2.318   6.903
 4865SOL    HW215276   3.040   2.265   6.830
 4866SOL     OW15277   1.929   3.435   6.937
 4866SOL    HW115278   1.896   3.507   6.883
 4866SOL    HW215279   2.025   3.442   6.931
 4867SOL     OW15280   2.486   2.422   6.421
 4867SOL    HW115281   2.434   2.485   6.371
 4867SOL    HW215282   2.495   2.461   6.508
 4868SOL     OW15283   3.108   3.210   5.975
 4868SOL    HW115284   3.165   3.280   6.005
 4868SOL    HW215285   3.021   3.232   6.009
 4869SOL     OW15286   3.138   3.317   6.731
 4869SOL    HW115287   3.193   3.319   6.810
 4869SOL    HW215288   3.083   3.239   6.742
 4870SOL     OW15289   3.450   2.491   6.060
 4870SOL    HW115290   3.407   2.544   6.127
 4870SOL    HW215291   3.493   2.555   6.004
 4871SOL     OW15292   2.210   3.387   6.904
 4871SOL    HW115293   2.196   3.342   6.820
 4871SOL    HW215294   2.304   3.399   6.909
 4872SOL     OW15295   2.276   2.614   7.187
 4872SOL    HW115296   2.336   2.662   7.130
 4872SOL    HW215297   2.320   2.530   7.203
 4873SOL     OW15298   3.459   2.639   7.265
 4873SOL    HW115299   3.372   2.679   7.257
 4873SOL    HW215300   3.511   2.681   7.197
 4874SOL     OW15301   2.858   1.979   7.342
 4874SOL    HW115302   2.909   2.052   7.309
 4874SOL    HW215303   2.908   1.901   7.316
 4875SOL     OW15304   2.360   1.908   7.331
 4875SOL    HW115305   2.321   1.851   7.265
 4875SOL    HW215306   2.296   1.979   7.342
 4876SOL     OW15307   3.221   2.721   6.617
 4876SOL    HW115308   3.136   2.711   6.575
 4876SOL    HW215309   3.257   2.632   6.619
 4877SOL     OW15310   1.916   3.173   6.859
 4877SOL    HW115311   1.943   3.119   6.933
 4877SOL    HW215312   1.917   3.263   6.894
 4878SOL     OW15313   2.579   2.516   6.660
 4878SOL    HW115314   2.648   2.469   6.613
 4878SOL    HW215315   2.591   2.608   6.638
 4879SOL     OW15316   3.595   2.821   7.437
 4879SOL    HW115317   3.547   2.766   7.374
 4879SOL    HW215318   3.535   2.832   7.510
 4880SOL     OW15319   3.482   2.238   5.953
 4880SOL    HW115320   3.499   2.169   6.018
 4880SOL    HW215321   3.460   2.315   6.005
 4881SOL     OW15322   2.906   2.632   6.558
 4881SOL    HW115323   2.896   2.639   6.653
 4881SOL    HW215324   2.865   2.548   6.536
 4882SOL     OW15325   2.845   3.428   7.300
 4882SOL    HW115326   2.829   3.473   7.216
 4882SOL    HW215327   2.887   3.346   7.276
 4883SOL     OW15328   3.718   3.372   7.192
 4883SOL    HW115329   3.735   3.397   7.101
 4883SOL    HW215330   3.799   3.393   7.238
 4884SOL     OW15331   2.217   2.781   7.395
 4884SOL    HW115332   2.301   2.796   7.438
 4884SOL    HW215333   2.237   2.721   7.323
 4885SOL     OW15334   3.392   2.137   5.716
 4885SOL    HW115335   3.335   2.070   5.754
 4885SOL    HW215336   3.432   2.180   5.792
 4886SOL     OW15337   3.160   2.690   5.617
 4886SOL    HW115338   3.201   2.603   5.619
 4886SOL    HW215339   3.190   2.728   5.534
 4887SOL     OW15340   2.923   3.205   6.437
 4887SOL    HW115341   2.935   3.125   6.385
 4887SOL    HW215342   2.991   3.265   6.405
 4888SOL     OW15343   2.210   2.633   6.604
 4888SOL    HW115344   2.264   2.687   6.546
 4888SOL    HW215345   2.249   2.546   6.598
 4889SOL     OW15346   2.996   2.243   7.264
 4889SOL    HW115347   2.951   2.297   7.330
 4889SOL    HW215348   3.085   2.278   7.261
 4890SOL     OW15349   3.023   2.067   7.057
 4890SOL    HW115350   3.015   2.131   7.128
 4890SOL    HW215351   3.062   2.116   6.985
 4891SOL     OW15352   1.952   3.652   6.522
 4891SOL    HW115353   1.921   3.572   6.480
 4891SOL    HW215354   2.041   3.663   6.490
 4892SOL     OW15355   2.355   3.442   6.501
 4892SOL    HW115356   2.427   3.502   6.522
 4892SOL    HW215357   2.393   3.379   6.440
 4893SOL     OW15358   2.849   2.655   6.818
 4893SOL    HW115359   2.902   2.630   6.893
 4893SOL    HW215360   2.762   2.620   6.838
 4894SOL     OW15361   1.900   2.398   6.701
 4894SOL    HW115362   1.977   2.352   6.668
 4894SOL    HW215363   1.919   2.414   6.793
 4895SOL     OW15364   3.237   2.804   7.245
 4895SOL    HW115365   3.258   2.897   7.246
 4895SOL    HW215366   3.236   2.780   7.152
 4896SOL     OW15367   3.507   2.465   6.777
 4896SOL    HW115368   3.494   2.403   6.849
 4896SOL    HW215369   3.593   2.443   6.742
 4897SOL     OW15370   2.111   3.415   7.317
 4897SOL    HW115371   2.084   3.478   7.385
 4897SOL    HW215372   2.107   3.330   7.361
 4898SOL     OW15373   2.793   3.541   7.052
 4898SOL    HW115374   2.766   3.511   6.965
 4898SOL    HW215375   2.792   3.636   7.046
 4899SOL     OW15376   2.011   3.002   7.058
 4899SOL    HW115377   2.015   2.947   7.136
 4899SOL    HW215378   2.027   2.941   6.986
 4900SOL     OW15379   3.191   2.911   6.811
 4900SOL    HW115380   3.216   2.849   6.742
 4900SOL    HW215381   3.119   2.961   6.774
 4901SOL     OW15382   3.179   2.710   5.891
 4901SOL    HW115383   3.103   2.695   5.947
 4901SOL    HW215384   3.144   2.707   5.802
 4902SOL     OW15385   3.630   3.609   6.734
 4902SOL    HW115386   3.690   3.635   6.664
 4902SOL    HW215387   3.606   3.519   6.714
 4903SOL     OW15388   3.104   3.595   6.704
 4903SOL    HW115389   3.185   3.613   6.657
 4903SOL    HW215390   3.106   3.500   6.721
 4904SOL     OW15391   1.934   3.124   6.592
 4904SOL    HW115392   1.941   3.137   6.686
 4904SOL    HW215393   1.859   3.065   6.581
 4905SOL     OW15394   2.540   3.526   7.310
 4905SOL    HW115395   2.488   3.606   7.308
 4905SOL    HW215396   2.602   3.535   7.237
 4906SOL     OW15397   3.582   2.004   6.099
 4906SOL    HW115398   3.655   1.990   6.040
 4906SOL    HW215399   3.566   1.919   6.139
 4907SOL     OW15400   3.251   3.429   6.068
 4907SOL    HW115401   3.312   3.460   6.001
 4907SOL    HW215402   3.205   3.509   6.096
 4908SOL     OW15403   1.997   3.659   7.429
 4908SOL    HW115404   1.946   3.594   7.478
 4908SOL    HW215405   2.045   3.707   7.496
 4909SOL     OW15406   2.681   3.133   7.018
 4909SOL    HW115407   2.655   3.172   7.101
 4909SOL    HW215408   2.609   3.155   6.958
 4910SOL     OW15409   2.534   3.479   5.742
 4910SOL    HW115410   2.543   3.491   5.647
 4910SOL    HW215411   2.481   3.400   5.752
 4911SOL     OW15412   3.496   3.588   6.978
 4911SOL    HW115413   3.543   3.596   6.895
 4911SOL    HW215414   3.482   3.679   7.007
 4912SOL     OW15415   3.700   2.035   6.554
 4912SOL    HW115416   3.730   1.949   6.524
 4912SOL    HW215417   3.614   2.046   6.514
 4913SOL     OW15418   3.067   3.471   5.617
 4913SOL    HW115419   3.060   3.379   5.644
 4913SOL    HW215420   3.003   3.480   5.546
 4914SOL     OW15421   2.689   2.868   6.957
 4914SOL    HW115422   2.728   2.868   6.870
 4914SOL    HW215423   2.688   2.961   6.982
 4915SOL     OW15424   3.357   3.486   5.628
 4915SOL    HW115425   3.262   3.483   5.617
 4915SOL    HW215426   3.392   3.492   5.539
 4916SOL     OW15427   2.232   3.163   7.077
 4916SOL    HW115428   2.216   3.241   7.024
 4916SOL    HW215429   2.156   3.107   7.061
 4917SOL     OW15430   3.473   3.145   6.867
 4917SOL    HW115431   3.533   3.138   6.942
 4917SOL    HW215432   3.413   3.216   6.891
 4918SOL     OW15433   2.926   2.966   6.315
 4918SOL    HW115434   2.851   2.914   6.344
 4918SOL    HW215435   2.958   2.922   6.237
 4919SOL     OW15436   2.461   3.353   6.068
 4919SOL    HW115437   2.503   3.303   5.998
 4919SOL    HW215438   2.396   3.408   6.023
 4920SOL     OW15439   3.581   2.254   6.966
 4920SOL    HW115440   3.653   2.317   6.964
 4920SOL    HW215441   3.610   2.182   6.910
 4921SOL     OW15442   2.101   3.214   5.860
 4921SOL    HW115443   2.007   3.198   5.867
 4921SOL    HW215444   2.127   3.243   5.947
 4922SOL     OW15445   1.974   2.882   7.307
 4922SOL    HW115446   1.897   2.857   7.358
 4922SOL    HW215447   2.048   2.843   7.355
 4923SOL     OW15448   2.540   2.052   7.078
 4923SOL    HW115449   2.627   2.030   7.045
 4923SOL    HW215450   2.555   2.087   7.166
 4924SOL     OW15451   3.294   2.720   6.988
 4924SOL    HW115452   3.246   2.780   6.930
 4924SOL    HW215453   3.384   2.723   6.955
 4925SOL     OW15454   3.043   3.205   5.702
 4925SOL    HW115455   2.953   3.171   5.703
 4925SOL    HW215456   3.070   3.203   5.794
 4926SOL     OW15457   2.490   2.692   7.027
 4926SOL    HW115458   2.540   2.772   7.007
 4926SOL    HW215459   2.555   2.623   7.029
 4927SOL     OW15460   3.347   3.636   6.560
 4927SOL    HW115461   3.374   3.693   6.488
 4927SOL    HW215462   3.428   3.620   6.610
 4928SOL     OW15463   2.583   2.428   7.290
 4928SOL    HW115464   2.616   2.493   7.353
 4928SOL    HW215465   2.619   2.345   7.322
 4929SOL     OW15466   3.330   3.066   7.219
 4929SOL    HW115467   3.318   3.079   7.313
 4929SOL    HW215468   3.424   3.077   7.205
 4930SOL     OW15469   2.245   3.602   7.149
 4930SOL    HW115470   2.159   3.641   7.137
 4930SOL    HW215471   2.227   3.517   7.191
 4931SOL     OW15472   3.534   2.744   6.842
 4931SOL    HW115473   3.526   2.659   6.800
 4931SOL    HW215474   3.526   2.807   6.770
 4932SOL     OW15475   3.628   2.220   7.234
 4932SOL    HW115476   3.610   2.235   7.141
 4932SOL    HW215477   3.556   2.165   7.265
 4933SOL     OW15478   3.605   2.796   7.099
 4933SOL    HW115479   3.609   2.890   7.112
 4933SOL    HW215480   3.590   2.784   7.005
 4934SOL     OW15481   2.722   3.238   5.616
 4934SOL    HW115482   2.686   3.266   5.700
 4934SOL    HW215483   2.746   3.320   5.572
 4935SOL     OW15484   2.522   3.657   6.533
 4935SOL    HW115485   2.500   3.747   6.509
 4935SOL    HW215486   2.618   3.654   6.526
 4936SOL     OW15487   2.727   2.809   6.455
 4936SOL    HW115488   2.793   2.754   6.498
 4936SOL    HW215489   2.699   2.870   6.523
 4937SOL     OW15490   2.943   2.841   5.672
 4937SOL    HW115491   2.917   2.895   5.597
 4937SOL    HW215492   3.018   2.790   5.640
 4938SOL     OW15493   3.719   3.419   6.432
 4938SOL    HW115494   3.642   3.407   6.375
 4938SOL    HW215495   3.711   3.350   6.497
 4939SOL     OW15496   2.086   3.167   7.441
 4939SOL    HW115497   2.019   3.105   7.412
 4939SOL    HW215498   2.067   3.180   7.534
 4940SOL     OW15499   1.940   3.123   6.254
 4940SOL    HW115500   1.947   3.073   6.335
 4940SOL    HW215501   1.986   3.071   6.189
 4941SOL     OW15502   2.541   3.262   7.211
 4941SOL    HW115503   2.462   3.218   7.241
 4941SOL    HW215504   2.536   3.350   7.248
 4942SOL     OW15505   3.677   2.048   6.824
 4942SOL    HW115506   3.685   1.954   6.840
 4942SOL    HW215507   3.685   2.057   6.729
 4943SOL     OW15508   3.563   3.354   6.687
 4943SOL    HW115509   3.482   3.327   6.644
 4943SOL    HW215510   3.579   3.285   6.752
 4944SOL     OW15511   2.683   3.437   6.266
 4944SOL    HW115512   2.688   3.484   6.183
 4944SOL    HW215513   2.598   3.394   6.264
 4945SOL     OW15514   3.299   2.095   6.695
 4945SOL    HW115515   3.316   2.014   6.743
 4945SOL    HW215516   3.235   2.142   6.750
 4946SOL     OW15517   2.872   1.886   6.754
 4946SOL    HW115518   2.815   1.835   6.696
 4946SOL    HW215519   2.959   1.850   6.738
 4947SOL     OW15520   2.636   3.204   5.896
 4947SOL    HW115521   2.591   3.119   5.904
 4947SOL    HW215522   2.716   3.193   5.947
 4948SOL     OW15523   2.482   3.421   6.870
 4948SOL    HW115524   2.485   3.502   6.921
 4948SOL    HW215525   2.569   3.414   6.832
 4949SOL     OW15526   3.447   2.068   6.463
 4949SOL    HW115527   3.385   2.085   6.533
 4949SOL    HW215528   3.448   2.148   6.411
 4950SOL     OW15529   2.743   3.511   5.932
 4950SOL    HW115530   2.673   3.492   5.870
 4950SOL    HW215531   2.713   3.588   5.980
 4951SOL     OW15532   2.070   2.522   7.563
 4951SOL    HW115533   1.988   2.495   7.604
 4951SOL    HW215534   2.079   2.465   7.486
 4952SOL     OW15535   1.867   2.245   8.080
 4952SOL    HW115536   1.787   2.265   8.129
 4952SOL    HW215537   1.850   2.160   8.039
 4953SOL     OW15538   2.428   3.143   8.620
 4953SOL    HW115539   2.341   3.146   8.581
 4953SOL    HW215540   2.443   3.232   8.654
 4954SOL     OW15541   3.419   3.373   8.153
 4954SOL    HW115542   3.375   3.356   8.236
 4954SOL    HW215543   3.348   3.379   8.089
 4955SOL     OW15544   2.991   2.561   8.152
 4955SOL    HW115545   3.041   2.641   8.137
 4955SOL    HW215546   2.946   2.576   8.235
 4956SOL     OW15547   3.626   2.469   7.679
 4956SOL    HW115548   3.607   2.460   7.585
 4956SOL    HW215549   3.591   2.390   7.719
 4957SOL     OW15550   2.621   3.006   8.485
 4957SOL    HW115551   2.551   3.040   8.541
 4957SOL    HW215552   2.655   3.084   8.440
 4958SOL     OW15553   2.721   2.645   9.269
 4958SOL    HW115554   2.713   2.717   9.332
 4958SOL    HW215555   2.747   2.688   9.187
 4959SOL     OW15556   2.547   2.867   8.099
 4959SOL    HW115557   2.612   2.854   8.168
 4959SOL    HW215558   2.478   2.919   8.140
 4960SOL     OW15559   2.569   3.014   9.256
 4960SOL    HW115560   2.617   3.094   9.280
 4960SOL    HW215561   2.485   3.046   9.223
 4961SOL     OW15562   2.193   3.291   8.516
 4961SOL    HW115563   2.121   3.255   8.465
 4961SOL    HW215564   2.245   3.342   8.453
 4962SOL     OW15565   3.324   3.360   8.798
 4962SOL    HW115566   3.366   3.445   8.808
 4962SOL    HW215567   3.271   3.349   8.877
 4963SOL     OW15568   3.475   2.312   8.187
 4963SOL    HW115569   3.399   2.339   8.135
 4963SOL    HW215570   3.497   2.389   8.240
 4964SOL     OW15571   2.082   3.575   7.923
 4964SOL    HW115572   2.106   3.652   7.975
 4964SOL    HW215573   2.151   3.568   7.856
 4965SOL     OW15574   2.997   3.203   9.139
 4965SOL    HW115575   3.037   3.199   9.226
 4965SOL    HW215576   2.945   3.123   9.134
 4966SOL     OW15577   2.092   3.301   7.983
 4966SOL    HW115578   2.075   3.395   7.988
 4966SOL    HW215579   2.029   3.262   8.043
 4967SOL     OW15580   2.116   2.953   8.338
 4967SOL    HW115581   2.112   2.867   8.380
 4967SOL    HW215582   2.057   3.008   8.390
 4968SOL     OW15583   2.478   3.652   8.880
 4968SOL    HW115584   2.395   3.635   8.924
 4968SOL    HW215585   2.500   3.742   8.904
 4969SOL     OW15586   2.453   2.840   7.577
 4969SOL    HW115587   2.494   2.896   7.511
 4969SOL    HW215588   2.493   2.867   7.659
 4970SOL     OW15589   3.458   1.982   8.918
 4970SOL    HW115590   3.455   2.061   8.864
 4970SOL    HW215591   3.447   2.014   9.008
 4971SOL     OW15592   1.970   2.506   8.007
 4971SOL    HW115593   1.945   2.417   8.031
 4971SOL    HW215594   1.967   2.555   8.089
 4972SOL     OW15595   3.703   3.624   7.785
 4972SOL    HW115596   3.762   3.594   7.855
 4972SOL    HW215597   3.731   3.713   7.767
 4973SOL     OW15598   1.892   3.459   7.572
 4973SOL    HW115599   1.874   3.367   7.591
 4973SOL    HW215600   1.867   3.505   7.653
 4974SOL     OW15601   3.551   2.781   8.085
 4974SOL    HW115602   3.637   2.742   8.068
 4974SOL    HW215603   3.532   2.831   8.006
 4975SOL     OW15604   3.507   2.970   7.878
 4975SOL    HW115605   3.592   2.979   7.835
 4975SOL    HW215606   3.512   3.030   7.952
 4976SOL     OW15607   1.984   2.596   9.030
 4976SOL    HW115608   2.071   2.613   9.067
 4976SOL    HW215609   1.937   2.678   9.041
 4977SOL     OW15610   2.474   3.244   8.183
 4977SOL    HW115611   2.428   3.160   8.192
 4977SOL    HW215612   2.458   3.271   8.093
 4978SOL     OW15613   3.153   3.101   8.873
 4978SOL    HW115614   3.185   3.033   8.813
 4978SOL    HW215615   3.208   3.093   8.950
 4979SOL     OW15616   2.673   1.861   7.952
 4979SOL    HW115617   2.715   1.946   7.937
 4979SOL    HW215618   2.580   1.881   7.963
 4980SOL     OW15619   2.054   2.832   8.716
 4980SOL    HW115620   2.137   2.789   8.697
 4980SOL    HW215621   1.987   2.775   8.677
 4981SOL     OW15622   3.394   2.853   7.644
 4981SOL    HW115623   3.324   2.795   7.673
 4981SOL    HW215624   3.433   2.887   7.725
 4982SOL     OW15625   3.047   3.665   9.068
 4982SOL    HW115626   3.063   3.722   8.993
 4982SOL    HW215627   3.062   3.577   9.034
 4983SOL     OW15628   3.327   3.282   8.401
 4983SOL    HW115629   3.259   3.295   8.467
 4983SOL    HW215630   3.316   3.191   8.374
 4984SOL     OW15631   3.524   3.594   8.026
 4984SOL    HW115632   3.500   3.566   7.937
 4984SOL    HW215633   3.497   3.521   8.081
 4985SOL     OW15634   2.465   2.586   7.712
 4985SOL    HW115635   2.473   2.660   7.651
 4985SOL    HW215636   2.385   2.604   7.760
 4986SOL     OW15637   3.142   2.209   8.380
 4986SOL    HW115638   3.053   2.176   8.388
 4986SOL    HW215639   3.192   2.157   8.443
 4987SOL     OW15640   3.444   3.530   7.757
 4987SOL    HW115641   3.532   3.565   7.751
 4987SOL    HW215642   3.419   3.512   7.666
 4988SOL     OW15643   2.653   2.471   8.895
 4988SOL    HW115644   2.635   2.459   8.989
 4988SOL    HW215645   2.604   2.400   8.853
 4989SOL     OW15646   3.256   2.335   9.126
 4989SOL    HW115647   3.256   2.380   9.211
 4989SOL    HW215648   3.319   2.265   9.135
 4990SOL     OW15649   2.819   2.750   9.028
 4990SOL    HW115650   2.875   2.680   8.994
 4990SOL    HW215651   2.773   2.784   8.952
 4991SOL     OW15652   2.860   2.270   8.687
 4991SOL    HW115653   2.782   2.310   8.725
 4991SOL    HW215654   2.830   2.230   8.606
 4992SOL     OW15655   2.911   2.560   7.874
 4992SOL    HW115656   2.925   2.555   7.969
 4992SOL    HW215657   2.828   2.514   7.860
 4993SOL     OW15658   1.951   2.682   8.223
 4993SOL    HW115659   2.034   2.677   8.272
 4993SOL    HW215660   1.907   2.759   8.258
 4994SOL     OW15661   1.990   3.699   9.023
 4994SOL    HW115662   1.988   3.681   9.117
 4994SOL    HW215663   1.899   3.706   8.997
 4995SOL     OW15664   2.749   2.207   7.643
 4995SOL    HW115665   2.793   2.269   7.584
 4995SOL    HW215666   2.765   2.121   7.605
 4996SOL     OW15667   3.573   2.440   9.276
 4996SOL    HW115668   3.536   2.516   9.231
 4996SOL    HW215669   3.596   2.379   9.205
 4997SOL     OW15670   3.236   3.004   7.990
 4997SOL    HW115671   3.315   2.990   7.938
 4997SOL    HW215672   3.184   3.067   7.939
 4998SOL     OW15673   2.871   3.308   7.922
 4998SOL    HW115674   2.830   3.379   7.873
 4998SOL    HW215675   2.857   3.331   8.014
 4999SOL     OW15676   2.216   3.668   8.305
 4999SOL    HW115677   2.260   3.583   8.315
 4999SOL    HW215678   2.285   3.733   8.321
 5000SOL     OW15679   3.659   2.923   8.315
 5000SOL    HW115680   3.602   2.907   8.240
 5000SOL    HW215681   3.600   2.928   8.390
 5001SOL     OW15682   3.090   3.402   8.960
 5001SOL    HW115683   3.076   3.329   9.020
 5001SOL    HW215684   3.030   3.385   8.888
 5002SOL     OW15685   2.189   2.807   7.700
 5002SOL    HW115686   2.265   2.831   7.647
 5002SOL    HW215687   2.149   2.734   7.653
 5003SOL     OW15688   3.337   2.600   8.176
 5003SOL    HW115689   3.326   2.554   8.259
 5003SOL    HW215690   3.413   2.656   8.189
 5004SOL     OW15691   2.326   3.125   9.185
 5004SOL    HW115692   2.297   3.130   9.094
 5004SOL    HW215693   2.245   3.123   9.236
 5005SOL     OW15694   2.982   3.639   7.680
 5005SOL    HW115695   2.911   3.595   7.727
 5005SOL    HW215696   3.003   3.580   7.608
 5006SOL     OW15697   1.967   2.104   8.951
 5006SOL    HW115698   1.988   2.195   8.929
 5006SOL    HW215699   2.037   2.077   9.011
 5007SOL     OW15700   3.492   3.241   7.535
 5007SOL    HW115701   3.451   3.326   7.520
 5007SOL    HW215702   3.422   3.177   7.516
 5008SOL     OW15703   2.329   3.601   7.769
 5008SOL    HW115704   2.369   3.657   7.836
 5008SOL    HW215705   2.402   3.574   7.714
 5009SOL     OW15706   3.263   1.970   7.878
 5009SOL    HW115707   3.251   1.945   7.786
 5009SOL    HW215708   3.358   1.977   7.889
 5010SOL     OW15709   2.116   3.654   8.681
 5010SOL    HW115710   2.168   3.589   8.729
 5010SOL    HW215711   2.105   3.616   8.594
 5011SOL     OW15712   2.800   3.560   8.349
 5011SOL    HW115713   2.877   3.507   8.368
 5011SOL    HW215714   2.754   3.511   8.280
 5012SOL     OW15715   3.401   2.088   9.173
 5012SOL    HW115716   3.408   2.109   9.266
 5012SOL    HW215717   3.333   2.021   9.170
 5013SOL     OW15718   2.485   1.992   7.556
 5013SOL    HW115719   2.560   1.937   7.576
 5013SOL    HW215720   2.447   1.952   7.477
 5014SOL     OW15721   2.630   2.140   9.200
 5014SOL    HW115722   2.701   2.077   9.209
 5014SOL    HW215723   2.575   2.126   9.277
 5015SOL     OW15724   2.739   3.382   8.642
 5015SOL    HW115725   2.724   3.347   8.554
 5015SOL    HW215726   2.808   3.327   8.678
 5016SOL     OW15727   3.203   2.451   8.881
 5016SOL    HW115728   3.234   2.419   8.965
 5016SOL    HW215729   3.240   2.539   8.874
 5017SOL     OW15730   2.674   3.261   8.383
 5017SOL    HW115731   2.758   3.251   8.338
 5017SOL    HW215732   2.609   3.258   8.313
 5018SOL     OW15733   2.786   2.368   8.352
 5018SOL    HW115734   2.763   2.361   8.260
 5018SOL    HW215735   2.824   2.282   8.374
 5019SOL     OW15736   2.409   1.931   7.949
 5019SOL    HW115737   2.329   1.928   8.001
 5019SOL    HW215738   2.406   2.017   7.906
 5020SOL     OW15739   3.291   3.059   7.489
 5020SOL    HW115740   3.322   2.984   7.539
 5020SOL    HW215741   3.205   3.079   7.526
 5021SOL     OW15742   2.156   1.895   7.627
 5021SOL    HW115743   2.218   1.962   7.598
 5021SOL    HW215744   2.211   1.829   7.671
 5022SOL     OW15745   2.797   2.106   7.911
 5022SOL    HW115746   2.770   2.149   7.830
 5022SOL    HW215747   2.892   2.117   7.914
 5023SOL     OW15748   2.941   2.541   8.907
 5023SOL    HW115749   2.874   2.473   8.915
 5023SOL    HW215750   3.023   2.492   8.900
 5024SOL     OW15751   3.087   3.431   8.241
 5024SOL    HW115752   3.105   3.499   8.177
 5024SOL    HW215753   3.155   3.442   8.308
 5025SOL     OW15754   2.329   3.010   8.185
 5025SOL    HW115755   2.258   2.992   8.246
 5025SOL    HW215756   2.291   2.992   8.099
 5026SOL     OW15757   3.133   3.657   8.053
 5026SOL    HW115758   3.177   3.718   7.994
 5026SOL    HW215759   3.070   3.711   8.100
 5027SOL     OW15760   2.888   2.408   7.467
 5027SOL    HW115761   2.847   2.492   7.447
 5027SOL    HW215762   2.952   2.428   7.535
 5028SOL     OW15763   1.948   2.413   8.833
 5028SOL    HW115764   2.043   2.399   8.835
 5028SOL    HW215765   1.933   2.480   8.900
 5029SOL     OW15766   2.727   2.318   8.089
 5029SOL    HW115767   2.687   2.377   8.025
 5029SOL    HW215768   2.750   2.241   8.037
 5030SOL     OW15769   2.875   1.914   8.202
 5030SOL    HW115770   2.818   1.904   8.126
 5030SOL    HW215771   2.856   1.838   8.257
 5031SOL     OW15772   3.297   3.026   8.306
 5031SOL    HW115773   3.231   2.957   8.304
 5031SOL    HW215774   3.320   3.040   8.214
 5032SOL     OW15775   3.330   2.464   8.430
 5032SOL    HW115776   3.283   2.380   8.434
 5032SOL    HW215777   3.391   2.461   8.503
 5033SOL     OW15778   3.710   2.681   7.829
 5033SOL    HW115779   3.765   2.629   7.887
 5033SOL    HW215780   3.680   2.619   7.762
 5034SOL     OW15781   2.354   3.275   7.610
 5034SOL    HW115782   2.279   3.246   7.661
 5034SOL    HW215783   2.333   3.250   7.520
 5035SOL     OW15784   3.530   3.127   8.097
 5035SOL    HW115785   3.625   3.133   8.110
 5035SOL    HW215786   3.498   3.215   8.118
 5036SOL     OW15787   3.255   2.434   7.519
 5036SOL    HW115788   3.196   2.415   7.592
 5036SOL    HW215789   3.340   2.401   7.549
 5037SOL     OW15790   3.616   3.098   9.025
 5037SOL    HW115791   3.703   3.059   9.022
 5037SOL    HW215792   3.630   3.187   9.055
 5038SOL     OW15793   2.923   3.216   8.783
 5038SOL    HW115794   2.848   3.185   8.834
 5038SOL    HW215795   2.999   3.174   8.824
 5039SOL     OW15796   3.467   3.487   9.098
 5039SOL    HW115797   3.465   3.521   9.009
 5039SOL    HW215798   3.550   3.441   9.105
 5040SOL     OW15799   2.987   3.063   8.555
 5040SOL    HW115800   2.929   3.101   8.621
 5040SOL    HW215801   2.952   3.093   8.472
 5041SOL     OW15802   3.493   2.962   8.527
 5041SOL    HW115803   3.489   3.024   8.599
 5041SOL    HW215804   3.412   2.977   8.478
 5042SOL     OW15805   2.785   1.958   8.848
 5042SOL    HW115806   2.805   1.940   8.756
 5042SOL    HW215807   2.865   1.998   8.883
 5043SOL     OW15808   2.846   2.976   9.169
 5043SOL    HW115809   2.753   2.991   9.188
 5043SOL    HW215810   2.847   2.899   9.113
 5044SOL     OW15811   2.570   2.922   7.820
 5044SOL    HW115812   2.556   2.908   7.914
 5044SOL    HW215813   2.646   2.868   7.798
 5045SOL     OW15814   2.279   2.674   8.699
 5045SOL    HW115815   2.351   2.691   8.761
 5045SOL    HW215816   2.243   2.590   8.726
 5046SOL     OW15817   3.132   2.240   8.720
 5046SOL    HW115818   3.162   2.318   8.767
 5046SOL    HW215819   3.042   2.261   8.694
 5047SOL     OW15820   1.930   3.434   8.797
 5047SOL    HW115821   1.896   3.507   8.745
 5047SOL    HW215822   2.025   3.443   8.793
 5048SOL     OW15823   2.218   2.966   7.938
 5048SOL    HW115824   2.220   3.043   7.882
 5048SOL    HW215825   2.214   2.892   7.877
 5049SOL     OW15826   3.110   3.210   7.837
 5049SOL    HW115827   3.165   3.282   7.868
 5049SOL    HW215828   3.023   3.230   7.871
 5050SOL     OW15829   3.138   3.317   8.594
 5050SOL    HW115830   3.193   3.319   8.672
 5050SOL    HW215831   3.083   3.240   8.604
 5051SOL     OW15832   3.445   2.488   7.924
 5051SOL    HW115833   3.402   2.544   7.988
 5051SOL    HW215834   3.490   2.549   7.865
 5052SOL     OW15835   2.210   3.386   8.766
 5052SOL    HW115836   2.197   3.344   8.681
 5052SOL    HW215837   2.305   3.399   8.772
 5053SOL     OW15838   2.277   2.624   9.051
 5053SOL    HW115839   2.340   2.666   8.993
 5053SOL    HW215840   2.321   2.546   9.082
 5054SOL     OW15841   3.459   2.639   9.127
 5054SOL    HW115842   3.372   2.679   9.119
 5054SOL    HW215843   3.511   2.681   9.059
 5055SOL     OW15844   2.858   1.979   9.205
 5055SOL    HW115845   2.909   2.052   9.171
 5055SOL    HW215846   2.907   1.901   9.178
 5056SOL     OW15847   2.365   1.900   9.193
 5056SOL    HW115848   2.326   1.844   9.126
 5056SOL    HW215849   2.302   1.972   9.203
 5057SOL     OW15850   2.437   2.736   8.474
 5057SOL    HW115851   2.479   2.822   8.473
 5057SOL    HW215852   2.387   2.734   8.556
 5058SOL     OW15853   3.223   2.721   8.482
 5058SOL    HW115854   3.141   2.715   8.433
 5058SOL    HW215855   3.259   2.633   8.480
 5059SOL     OW15856   3.069   2.391   7.717
 5059SOL    HW115857   3.077   2.312   7.772
 5059SOL    HW215858   3.028   2.455   7.774
 5060SOL     OW15859   1.910   3.172   8.725
 5060SOL    HW115860   1.942   3.120   8.799
 5060SOL    HW215861   1.916   3.263   8.755
 5061SOL     OW15862   2.612   2.513   8.531
 5061SOL    HW115863   2.649   2.466   8.457
 5061SOL    HW215864   2.554   2.578   8.492
 5062SOL     OW15865   3.595   2.821   9.298
 5062SOL    HW115866   3.547   2.766   9.237
 5062SOL    HW215867   3.535   2.832   9.372
 5063SOL     OW15868   2.166   1.933   8.075
 5063SOL    HW115869   2.141   2.021   8.103
 5063SOL    HW215870   2.164   1.881   8.155
 5064SOL     OW15871   3.475   2.234   7.818
 5064SOL    HW115872   3.502   2.171   7.884
 5064SOL    HW215873   3.452   2.312   7.867
 5065SOL     OW15874   2.891   2.621   8.410
 5065SOL    HW115875   2.889   2.641   8.503
 5065SOL    HW215876   2.855   2.532   8.404
 5066SOL     OW15877   2.844   3.428   9.162
 5066SOL    HW115878   2.829   3.473   9.078
 5066SOL    HW215879   2.887   3.346   9.138
 5067SOL     OW15880   3.718   3.372   9.054
 5067SOL    HW115881   3.735   3.397   8.963
 5067SOL    HW215882   3.799   3.393   9.100
 5068SOL     OW15883   2.216   2.784   9.261
 5068SOL    HW115884   2.301   2.798   9.303
 5068SOL    HW215885   2.236   2.727   9.187
 5069SOL     OW15886   3.393   2.136   7.575
 5069SOL    HW115887   3.329   2.070   7.602
 5069SOL    HW215888   3.426   2.172   7.657
 5070SOL     OW15889   3.157   2.689   7.481
 5070SOL    HW115890   3.199   2.604   7.485
 5070SOL    HW215891   3.187   2.728   7.399
 5071SOL     OW15892   2.926   3.197   8.300
 5071SOL    HW115893   2.929   3.124   8.238
 5071SOL    HW215894   2.990   3.260   8.266
 5072SOL     OW15895   2.175   2.675   8.392
 5072SOL    HW115896   2.268   2.699   8.389
 5072SOL    HW215897   2.173   2.593   8.440
 5073SOL     OW15898   2.996   2.242   9.126
 5073SOL    HW115899   2.951   2.296   9.191
 5073SOL    HW215900   3.085   2.277   9.123
 5074SOL     OW15901   3.024   2.067   8.918
 5074SOL    HW115902   3.014   2.129   8.990
 5074SOL    HW215903   3.061   2.119   8.846
 5075SOL     OW15904   1.867   3.185   7.643
 5075SOL    HW115905   1.780   3.198   7.606
 5075SOL    HW215906   1.865   3.095   7.675
 5076SOL     OW15907   1.952   3.652   8.384
 5076SOL    HW115908   1.921   3.572   8.342
 5076SOL    HW215909   2.042   3.662   8.353
 5077SOL     OW15910   2.361   3.435   8.354
 5077SOL    HW115911   2.430   3.497   8.377
 5077SOL    HW215912   2.406   3.369   8.300
 5078SOL     OW15913   2.851   2.661   8.676
 5078SOL    HW115914   2.897   2.630   8.754
 5078SOL    HW215915   2.766   2.617   8.679
 5079SOL     OW15916   1.903   2.422   8.563
 5079SOL    HW115917   1.957   2.356   8.521
 5079SOL    HW215918   1.921   2.412   8.657
 5080SOL     OW15919   3.237   2.804   9.107
 5080SOL    HW115920   3.258   2.897   9.108
 5080SOL    HW215921   3.236   2.780   9.015
 5081SOL     OW15922   2.677   2.429   7.803
 5081SOL    HW115923   2.678   2.355   7.743
 5081SOL    HW215924   2.602   2.482   7.775
 5082SOL     OW15925   3.505   2.463   8.638
 5082SOL    HW115926   3.494   2.403   8.711
 5082SOL    HW215927   3.592   2.442   8.603
 5083SOL     OW15928   2.110   3.415   9.179
 5083SOL    HW115929   2.084   3.478   9.246
 5083SOL    HW215930   2.107   3.330   9.224
 5084SOL     OW15931   2.793   3.541   8.914
 5084SOL    HW115932   2.766   3.511   8.827
 5084SOL    HW215933   2.792   3.636   8.908
 5085SOL     OW15934   2.011   3.002   8.920
 5085SOL    HW115935   2.015   2.947   8.998
 5085SOL    HW215936   2.027   2.941   8.848
 5086SOL     OW15937   3.192   2.911   8.673
 5086SOL    HW115938   3.216   2.849   8.605
 5086SOL    HW215939   3.119   2.960   8.636
 5087SOL     OW15940   3.170   2.718   7.755
 5087SOL    HW115941   3.093   2.689   7.804
 5087SOL    HW215942   3.148   2.705   7.663
 5088SOL     OW15943   3.629   3.609   8.596
 5088SOL    HW115944   3.690   3.635   8.526
 5088SOL    HW215945   3.606   3.519   8.576
 5089SOL     OW15946   3.104   3.595   8.566
 5089SOL    HW115947   3.185   3.612   8.518
 5089SOL    HW215948   3.106   3.500   8.583
 5090SOL     OW15949   1.945   3.127   8.462
 5090SOL    HW115950   1.932   3.138   8.556
 5090SOL    HW215951   1.870   3.075   8.433
 5091SOL     OW15952   2.540   3.525   9.171
 5091SOL    HW115953   2.489   3.606   9.170
 5091SOL    HW215954   2.602   3.535   9.100
 5092SOL     OW15955   3.580   2.004   7.961
 5092SOL    HW115956   3.654   1.990   7.902
 5092SOL    HW215957   3.565   1.918   8.000
 5093SOL     OW15958   3.252   3.430   7.930
 5093SOL    HW115959   3.313   3.460   7.863
 5093SOL    HW215960   3.205   3.508   7.958
 5094SOL     OW15961   1.997   3.658   9.291
 5094SOL    HW115962   1.946   3.594   9.340
 5094SOL    HW215963   2.046   3.707   9.358
 5095SOL     OW15964   3.139   2.786   8.119
 5095SOL    HW115965   3.212   2.724   8.123
 5095SOL    HW215966   3.173   2.859   8.067
 5096SOL     OW15967   2.681   3.134   8.879
 5096SOL    HW115968   2.655   3.173   8.963
 5096SOL    HW215969   2.610   3.156   8.820
 5097SOL     OW15970   2.534   3.478   7.603
 5097SOL    HW115971   2.543   3.489   7.509
 5097SOL    HW215972   2.481   3.399   7.614
 5098SOL     OW15973   3.496   3.588   8.840
 5098SOL    HW115974   3.543   3.596   8.757
 5098SOL    HW215975   3.482   3.679   8.869
 5099SOL     OW15976   3.701   2.035   8.416
 5099SOL    HW115977   3.731   1.949   8.386
 5099SOL    HW215978   3.615   2.046   8.376
 5100SOL     OW15979   3.067   3.470   7.479
 5100SOL    HW115980   3.059   3.379   7.506
 5100SOL    HW215981   3.002   3.480   7.409
 5101SOL     OW15982   2.685   2.868   8.820
 5101SOL    HW115983   2.730   2.862   8.736
 5101SOL    HW215984   2.688   2.961   8.842
 5102SOL     OW15985   2.778   2.773   7.737
 5102SOL    HW115986   2.840   2.804   7.671
 5102SOL    HW215987   2.823   2.701   7.781
 5103SOL     OW15988   3.358   3.486   7.490
 5103SOL    HW115989   3.262   3.483   7.479
 5103SOL    HW215990   3.392   3.492   7.401
 5104SOL     OW15991   2.232   3.162   8.939
 5104SOL    HW115992   2.218   3.241   8.886
 5104SOL    HW215993   2.155   3.108   8.923
 5105SOL     OW15994   3.474   3.145   8.729
 5105SOL    HW115995   3.533   3.138   8.804
 5105SOL    HW215996   3.413   3.216   8.753
 5106SOL     OW15997   2.910   2.967   8.153
 5106SOL    HW115998   2.840   2.915   8.193
 5106SOL    HW215999   2.970   2.901   8.118
 5107SOL     OW16000   2.881   2.101   8.413
 5107SOL    HW116001   2.877   2.052   8.331
 5107SOL    HW216002   2.877   2.034   8.481
 5108SOL     OW16003   2.463   3.351   7.931
 5108SOL    HW116004   2.503   3.300   7.861
 5108SOL    HW216005   2.397   3.405   7.887
 5109SOL     OW16006   3.581   2.254   8.828
 5109SOL    HW116007   3.652   2.317   8.826
 5109SOL    HW216008   3.611   2.182   8.772
 5110SOL     OW16009   2.120   3.209   7.735
 5110SOL    HW116010   2.027   3.207   7.713
 5110SOL    HW216011   2.123   3.246   7.823
 5111SOL     OW16012   1.974   2.879   9.167
 5111SOL    HW116013   1.897   2.857   9.220
 5111SOL    HW216014   2.048   2.844   9.217
 5112SOL     OW16015   2.546   2.051   8.941
 5112SOL    HW116016   2.631   2.026   8.906
 5112SOL    HW216017   2.564   2.083   9.029
 5113SOL     OW16018   1.922   2.205   7.496
 5113SOL    HW116019   1.843   2.179   7.449
 5113SOL    HW216020   1.972   2.256   7.432
 5114SOL     OW16021   3.294   2.720   8.850
 5114SOL    HW116022   3.246   2.779   8.792
 5114SOL    HW216023   3.384   2.723   8.817
 5115SOL     OW16024   1.936   2.020   7.762
 5115SOL    HW116025   1.914   2.097   7.709
 5115SOL    HW216026   2.016   1.986   7.722
 5116SOL     OW16027   3.042   3.204   7.565
 5116SOL    HW116028   2.951   3.175   7.568
 5116SOL    HW216029   3.071   3.203   7.656
 5117SOL     OW16030   2.482   2.693   8.879
 5117SOL    HW116031   2.534   2.772   8.865
 5117SOL    HW216032   2.546   2.622   8.884
 5118SOL     OW16033   3.347   3.636   8.422
 5118SOL    HW116034   3.374   3.693   8.350
 5118SOL    HW216035   3.428   3.621   8.472
 5119SOL     OW16036   2.582   2.427   9.149
 5119SOL    HW116037   2.613   2.490   9.214
 5119SOL    HW216038   2.611   2.342   9.182
 5120SOL     OW16039   3.330   3.066   9.081
 5120SOL    HW116040   3.318   3.078   9.175
 5120SOL    HW216041   3.424   3.077   9.067
 5121SOL     OW16042   2.245   3.602   9.011
 5121SOL    HW116043   2.158   3.641   8.999
 5121SOL    HW216044   2.227   3.517   9.053
 5122SOL     OW16045   3.534   2.744   8.704
 5122SOL    HW116046   3.525   2.659   8.661
 5122SOL    HW216047   3.526   2.807   8.632
 5123SOL     OW16048   3.080   2.181   7.905
 5123SOL    HW116049   3.145   2.111   7.896
 5123SOL    HW216050   3.109   2.230   7.983
 5124SOL     OW16051   2.457   2.602   8.092
 5124SOL    HW116052   2.499   2.688   8.091
 5124SOL    HW216053   2.371   2.616   8.055
 5125SOL     OW16054   3.628   2.220   9.096
 5125SOL    HW116055   3.610   2.235   9.003
 5125SOL    HW216056   3.556   2.165   9.127
 5126SOL     OW16057   3.605   2.796   8.961
 5126SOL    HW116058   3.609   2.890   8.973
 5126SOL    HW216059   3.590   2.784   8.867
 5127SOL     OW16060   2.725   3.231   7.477
 5127SOL    HW116061   2.685   3.256   7.560
 5127SOL    HW216062   2.744   3.314   7.434
 5128SOL     OW16063   2.521   3.656   8.397
 5128SOL    HW116064   2.499   3.746   8.372
 5128SOL    HW216065   2.616   3.651   8.388
 5129SOL     OW16066   2.728   2.827   8.305
 5129SOL    HW116067   2.777   2.755   8.345
 5129SOL    HW216068   2.696   2.879   8.378
 5130SOL     OW16069   2.942   2.849   7.536
 5130SOL    HW116070   2.921   2.900   7.458
 5130SOL    HW216071   3.018   2.797   7.511
 5131SOL     OW16072   3.719   3.419   8.293
 5131SOL    HW116073   3.642   3.407   8.237
 5131SOL    HW216074   3.711   3.350   8.359
 5132SOL     OW16075   2.086   3.167   9.304
 5132SOL    HW116076   2.018   3.106   9.275
 5132SOL    HW216077   2.068   3.180   9.397
 5133SOL     OW16078   1.945   3.099   8.112
 5133SOL    HW116079   1.944   3.048   8.192
 5133SOL    HW216080   2.013   3.059   8.058
 5134SOL     OW16081   2.541   3.262   9.073
 5134SOL    HW116082   2.461   3.218   9.103
 5134SOL    HW216083   2.536   3.350   9.110
 5135SOL     OW16084   3.676   2.048   8.686
 5135SOL    HW116085   3.686   1.954   8.702
 5135SOL    HW216086   3.685   2.057   8.591
 5136SOL     OW16087   3.563   3.354   8.549
 5136SOL    HW116088   3.482   3.327   8.506
 5136SOL    HW216089   3.579   3.285   8.614
 5137SOL     OW16090   2.687   3.440   8.128
 5137SOL    HW116091   2.682   3.483   8.043
 5137SOL    HW216092   2.608   3.386   8.132
 5138SOL     OW16093   3.294   2.085   8.566
 5138SOL    HW116094   3.324   2.008   8.614
 5138SOL    HW216095   3.242   2.134   8.629
 5139SOL     OW16096   2.870   1.883   8.593
 5139SOL    HW116097   2.816   1.812   8.558
 5139SOL    HW216098   2.959   1.847   8.596
 5140SOL     OW16099   2.633   3.194   7.758
 5140SOL    HW116100   2.599   3.105   7.764
 5140SOL    HW216101   2.716   3.191   7.806
 5141SOL     OW16102   2.482   3.421   8.732
 5141SOL    HW116103   2.485   3.502   8.783
 5141SOL    HW216104   2.569   3.413   8.693
 5142SOL     OW16105   3.214   1.916   7.612
 5142SOL    HW116106   3.240   1.857   7.541
 5142SOL    HW216107   3.128   1.884   7.639
 5143SOL     OW16108   3.159   2.321   8.131
 5143SOL    HW116109   3.105   2.400   8.140
 5143SOL    HW216110   3.157   2.281   8.218
 5144SOL     OW16111   3.450   2.068   8.325
 5144SOL    HW116112   3.384   2.085   8.393
 5144SOL    HW216113   3.449   2.147   8.270
 5145SOL     OW16114   1.905   2.935   7.754
 5145SOL    HW116115   1.999   2.925   7.736
 5145SOL    HW216116   1.875   2.847   7.776
 5146SOL     OW16117   2.742   3.511   7.793
 5146SOL    HW116118   2.672   3.493   7.731
 5146SOL    HW216119   2.713   3.588   7.842
 5147SOL     OW16120   2.077   2.524   9.427
 5147SOL    HW116121   1.995   2.496   9.466
 5147SOL    HW216122   2.085   2.471   9.347
 5148SOL     OW16123   1.864   2.241   9.946
 5148SOL    HW116124   1.784   2.264   9.993
 5148SOL    HW216125   1.843   2.159   9.901
 5149SOL     OW16126   2.428   3.143  10.482
 5149SOL    HW116127   2.341   3.146  10.444
 5149SOL    HW216128   2.442   3.232  10.516
 5150SOL     OW16129   3.419   3.373  10.015
 5150SOL    HW116130   3.375   3.356  10.098
 5150SOL    HW216131   3.348   3.379   9.951
 5151SOL     OW16132   2.992   2.561  10.013
 5151SOL    HW116133   3.042   2.642  10.001
 5151SOL    HW216134   2.945   2.574  10.095
 5152SOL     OW16135   3.627   2.469   9.541
 5152SOL    HW116136   3.607   2.460   9.447
 5152SOL    HW216137   3.591   2.390   9.581
 5153SOL     OW16138   2.622   3.007  10.347
 5153SOL    HW116139   2.551   3.040  10.403
 5153SOL    HW216140   2.655   3.084  10.302
 5154SOL     OW16141   2.710   2.647   0.019
 5154SOL    HW116142   2.717   2.703   0.096
 5154SOL    HW216143   2.745   2.699  11.048
 5155SOL     OW16144   2.549   2.870   9.960
 5155SOL    HW116145   2.613   2.855  10.029
 5155SOL    HW216146   2.479   2.921  10.001
 5156SOL     OW16147   2.194   3.290  10.377
 5156SOL    HW116148   2.121   3.255  10.327
 5156SOL    HW216149   2.245   3.342  10.314
 5157SOL     OW16150   3.324   3.362  10.656
 5157SOL    HW116151   3.374   3.443  10.667
 5157SOL    HW216152   3.283   3.348  10.741
 5158SOL     OW16153   3.475   2.312  10.049
 5158SOL    HW116154   3.399   2.338   9.998
 5158SOL    HW216155   3.496   2.389  10.101
 5159SOL     OW16156   2.082   3.575   9.785
 5159SOL    HW116157   2.106   3.652   9.837
 5159SOL    HW216158   2.151   3.569   9.719
 5160SOL     OW16159   2.092   3.301   9.844
 5160SOL    HW116160   2.075   3.395   9.850
 5160SOL    HW216161   2.029   3.262   9.905
 5161SOL     OW16162   2.116   2.954  10.200
 5161SOL    HW116163   2.111   2.868  10.241
 5161SOL    HW216164   2.057   3.009  10.252
 5162SOL     OW16165   2.477   3.652  10.741
 5162SOL    HW116166   2.396   3.633  10.788
 5162SOL    HW216167   2.499   3.741  10.765
 5163SOL     OW16168   2.453   2.840   9.438
 5163SOL    HW116169   2.495   2.896   9.372
 5163SOL    HW216170   2.493   2.866   9.521
 5164SOL     OW16171   3.451   1.978  10.780
 5164SOL    HW116172   3.457   2.057  10.727
 5164SOL    HW216173   3.453   2.010  10.871
 5165SOL     OW16174   1.969   2.507   9.868
 5165SOL    HW116175   1.944   2.418   9.893
 5165SOL    HW216176   1.967   2.556   9.951
 5166SOL     OW16177   3.703   3.623   9.647
 5166SOL    HW116178   3.762   3.594   9.717
 5166SOL    HW216179   3.731   3.713   9.629
 5167SOL     OW16180   1.891   3.459   9.434
 5167SOL    HW116181   1.874   3.367   9.454
 5167SOL    HW216182   1.867   3.505   9.514
 5168SOL     OW16183   3.551   2.781   9.947
 5168SOL    HW116184   3.637   2.742   9.930
 5168SOL    HW216185   3.532   2.831   9.867
 5169SOL     OW16186   3.507   2.970   9.740
 5169SOL    HW116187   3.592   2.979   9.697
 5169SOL    HW216188   3.512   3.030   9.814
 5170SOL     OW16189   1.981   2.597  10.890
 5170SOL    HW116190   2.065   2.606  10.936
 5170SOL    HW216191   1.937   2.681  10.904
 5171SOL     OW16192   2.474   3.243  10.045
 5171SOL    HW116193   2.428   3.160  10.054
 5171SOL    HW216194   2.458   3.271   9.955
 5172SOL     OW16195   3.159   3.100  10.750
 5172SOL    HW116196   3.183   3.038  10.681
 5172SOL    HW216197   3.214   3.075  10.824
 5173SOL     OW16198   2.672   1.860   9.814
 5173SOL    HW116199   2.714   1.945   9.799
 5173SOL    HW216200   2.580   1.881   9.826
 5174SOL     OW16201   2.055   2.832  10.574
 5174SOL    HW116202   2.137   2.786  10.557
 5174SOL    HW216203   1.987   2.773  10.543
 5175SOL     OW16204   3.394   2.853   9.506
 5175SOL    HW116205   3.324   2.795   9.535
 5175SOL    HW216206   3.433   2.887   9.587
 5176SOL     OW16207   3.056   3.667  10.926
 5176SOL    HW116208   3.060   3.728  10.852
 5176SOL    HW216209   3.064   3.580  10.885
 5177SOL     OW16210   3.328   3.282  10.263
 5177SOL    HW116211   3.259   3.296  10.328
 5177SOL    HW216212   3.316   3.191  10.235
 5178SOL     OW16213   3.524   3.594   9.887
 5178SOL    HW116214   3.500   3.566   9.799
 5178SOL    HW216215   3.498   3.521   9.943
 5179SOL     OW16216   2.462   2.587   9.579
 5179SOL    HW116217   2.477   2.655   9.513
 5179SOL    HW216218   2.381   2.613   9.623
 5180SOL     OW16219   3.143   2.210  10.243
 5180SOL    HW116220   3.053   2.177  10.249
 5180SOL    HW216221   3.192   2.156  10.305
 5181SOL     OW16222   3.444   3.530   9.619
 5181SOL    HW116223   3.532   3.565   9.613
 5181SOL    HW216224   3.419   3.512   9.528
 5182SOL     OW16225   2.654   2.467  10.761
 5182SOL    HW116226   2.631   2.457  10.853
 5182SOL    HW216227   2.597   2.404  10.716
 5183SOL     OW16228   2.827   2.758  10.897
 5183SOL    HW116229   2.877   2.686  10.858
 5183SOL    HW216230   2.778   2.796  10.824
 5184SOL     OW16231   2.859   2.269  10.551
 5184SOL    HW116232   2.780   2.311  10.585
 5184SOL    HW216233   2.831   2.231  10.467
 5185SOL     OW16234   2.910   2.560   9.737
 5185SOL    HW116235   2.926   2.554   9.831
 5185SOL    HW216236   2.828   2.513   9.723
 5186SOL     OW16237   1.951   2.683  10.084
 5186SOL    HW116238   2.033   2.677  10.133
 5186SOL    HW216239   1.907   2.759  10.120
 5187SOL     OW16240   1.991   3.698  10.893
 5187SOL    HW116241   1.972   3.668  10.982
 5187SOL    HW216242   1.905   3.709  10.852
 5188SOL     OW16243   2.747   2.209   9.505
 5188SOL    HW116244   2.793   2.268   9.445
 5188SOL    HW216245   2.763   2.122   9.468
 5189SOL     OW16246   3.236   3.005   9.852
 5189SOL    HW116247   3.315   2.990   9.800
 5189SOL    HW216248   3.185   3.067   9.801
 5190SOL     OW16249   2.871   3.308   9.784
 5190SOL    HW116250   2.829   3.379   9.735
 5190SOL    HW216251   2.857   3.331   9.876
 5191SOL     OW16252   2.216   3.668  10.167
 5191SOL    HW116253   2.260   3.583  10.177
 5191SOL    HW216254   2.284   3.733  10.183
 5192SOL     OW16255   3.659   2.923  10.177
 5192SOL    HW116256   3.602   2.906  10.102
 5192SOL    HW216257   3.600   2.927  10.252
 5193SOL     OW16258   3.087   3.403  10.825
 5193SOL    HW116259   3.097   3.317  10.865
 5193SOL    HW216260   3.031   3.389  10.749
 5194SOL     OW16261   2.191   2.805   9.564
 5194SOL    HW116262   2.265   2.831   9.510
 5194SOL    HW216263   2.150   2.734   9.514
 5195SOL     OW16264   3.337   2.600  10.038
 5195SOL    HW116265   3.325   2.554  10.121
 5195SOL    HW216266   3.413   2.656  10.052
 5196SOL     OW16267   2.315   3.131  11.052
 5196SOL    HW116268   2.287   3.138  10.961
 5196SOL    HW216269   2.250   3.074  11.093
 5197SOL     OW16270   2.982   3.639   9.542
 5197SOL    HW116271   2.911   3.595   9.589
 5197SOL    HW216272   3.003   3.580   9.470
 5198SOL     OW16273   3.492   3.241   9.397
 5198SOL    HW116274   3.451   3.326   9.382
 5198SOL    HW216275   3.422   3.177   9.378
 5199SOL     OW16276   2.329   3.601   9.631
 5199SOL    HW116277   2.368   3.657   9.698
 5199SOL    HW216278   2.402   3.574   9.576
 5200SOL     OW16279   3.263   1.970   9.740
 5200SOL    HW116280   3.251   1.944   9.648
 5200SOL    HW216281   3.358   1.977   9.751
 5201SOL     OW16282   2.115   3.654  10.544
 5201SOL    HW116283   2.168   3.592  10.594
 5201SOL    HW216284   2.106   3.614  10.458
 5202SOL     OW16285   2.800   3.560  10.211
 5202SOL    HW116286   2.878   3.507  10.230
 5202SOL    HW216287   2.754   3.512  10.142
 5203SOL     OW16288   2.486   1.994   9.416
 5203SOL    HW116289   2.560   1.939   9.441
 5203SOL    HW216290   2.449   1.950   9.339
 5204SOL     OW16291   2.630   2.131  11.046
 5204SOL    HW116292   2.698   2.075  11.083
 5204SOL    HW216293   2.573   2.153   0.020
 5205SOL     OW16294   2.738   3.382  10.503
 5205SOL    HW116295   2.724   3.347  10.415
 5205SOL    HW216296   2.809   3.329  10.539
 5206SOL     OW16297   3.204   2.452  10.752
 5206SOL    HW116298   3.254   2.429  10.831
 5206SOL    HW216299   3.234   2.540  10.730
 5207SOL     OW16300   2.675   3.260  10.245
 5207SOL    HW116301   2.758   3.251  10.200
 5207SOL    HW216302   2.609   3.258  10.175
 5208SOL     OW16303   2.798   2.370  10.220
 5208SOL    HW116304   2.761   2.367  10.131
 5208SOL    HW216305   2.827   2.280  10.236
 5209SOL     OW16306   2.406   1.929   9.810
 5209SOL    HW116307   2.328   1.920   9.864
 5209SOL    HW216308   2.399   2.016   9.771
 5210SOL     OW16309   3.291   3.059   9.351
 5210SOL    HW116310   3.322   2.984   9.401
 5210SOL    HW216311   3.205   3.079   9.388
 5211SOL     OW16312   2.160   1.904   9.495
 5211SOL    HW116313   2.225   1.973   9.478
 5211SOL    HW216314   2.210   1.834   9.535
 5212SOL     OW16315   2.796   2.104   9.772
 5212SOL    HW116316   2.771   2.149   9.691
 5212SOL    HW216317   2.891   2.116   9.777
 5213SOL     OW16318   2.939   2.543  10.770
 5213SOL    HW116319   2.871   2.477  10.776
 5213SOL    HW216320   3.021   2.493  10.765
 5214SOL     OW16321   3.086   3.431  10.104
 5214SOL    HW116322   3.105   3.499  10.039
 5214SOL    HW216323   3.155   3.442  10.170
 5215SOL     OW16324   2.329   3.009  10.047
 5215SOL    HW116325   2.258   2.992  10.109
 5215SOL    HW216326   2.291   2.992   9.961
 5216SOL     OW16327   3.133   3.657   9.915
 5216SOL    HW116328   3.177   3.718   9.856
 5216SOL    HW216329   3.070   3.711   9.962
 5217SOL     OW16330   2.888   2.408   9.329
 5217SOL    HW116331   2.847   2.492   9.309
 5217SOL    HW216332   2.952   2.429   9.397
 5218SOL     OW16333   1.942   2.423  10.691
 5218SOL    HW116334   2.035   2.402  10.699
 5218SOL    HW216335   1.926   2.487  10.760
 5219SOL     OW16336   2.440   2.006  10.435
 5219SOL    HW116337   2.465   1.973  10.521
 5219SOL    HW216338   2.363   2.060  10.452
 5220SOL     OW16339   2.743   2.321   9.948
 5220SOL    HW116340   2.686   2.375   9.893
 5220SOL    HW216341   2.754   2.239   9.899
 5221SOL     OW16342   2.877   1.913  10.064
 5221SOL    HW116343   2.817   1.906   9.989
 5221SOL    HW216344   2.856   1.838  10.119
 5222SOL     OW16345   3.297   3.026  10.168
 5222SOL    HW116346   3.231   2.957  10.166
 5222SOL    HW216347   3.320   3.040  10.076
 5223SOL     OW16348   3.329   2.464  10.291
 5223SOL    HW116349   3.283   2.381  10.295
 5223SOL    HW216350   3.391   2.461  10.365
 5224SOL     OW16351   3.710   2.681   9.691
 5224SOL    HW116352   3.765   2.629   9.749
 5224SOL    HW216353   3.680   2.619   9.624
 5225SOL     OW16354   2.354   3.275   9.472
 5225SOL    HW116355   2.279   3.245   9.523
 5225SOL    HW216356   2.333   3.251   9.382
 5226SOL     OW16357   3.530   3.127   9.959
 5226SOL    HW116358   3.624   3.133   9.972
 5226SOL    HW216359   3.498   3.215   9.980
 5227SOL     OW16360   3.255   2.434   9.381
 5227SOL    HW116361   3.196   2.415   9.454
 5227SOL    HW216362   3.340   2.400   9.411
 5228SOL     OW16363   3.622   3.091  10.875
 5228SOL    HW116364   3.713   3.060  10.880
 5228SOL    HW216365   3.624   3.178  10.915
 5229SOL     OW16366   2.927   3.215  10.650
 5229SOL    HW116367   2.850   3.183  10.695
 5229SOL    HW216368   3.000   3.168  10.690
 5230SOL     OW16369   2.987   3.065  10.418
 5230SOL    HW116370   2.924   3.102  10.480
 5230SOL    HW216371   2.954   3.093  10.332
 5231SOL     OW16372   3.493   2.962  10.389
 5231SOL    HW116373   3.490   3.024  10.462
 5231SOL    HW216374   3.412   2.978  10.340
 5232SOL     OW16375   2.783   1.959  10.710
 5232SOL    HW116376   2.804   1.941  10.618
 5232SOL    HW216377   2.862   2.001  10.745
 5233SOL     OW16378   2.570   2.922   9.682
 5233SOL    HW116379   2.557   2.909   9.776
 5233SOL    HW216380   2.646   2.868   9.660
 5234SOL     OW16381   2.280   2.669  10.561
 5234SOL    HW116382   2.351   2.690  10.621
 5234SOL    HW216383   2.237   2.593  10.600
 5235SOL     OW16384   3.132   2.240  10.585
 5235SOL    HW116385   3.162   2.320  10.630
 5235SOL    HW216386   3.043   2.261  10.556
 5236SOL     OW16387   1.929   3.436  10.657
 5236SOL    HW116388   1.898   3.510  10.605
 5236SOL    HW216389   2.025   3.443  10.653
 5237SOL     OW16390   2.219   2.966   9.800
 5237SOL    HW116391   2.220   3.044   9.745
 5237SOL    HW216392   2.214   2.893   9.738
 5238SOL     OW16393   2.514   2.428  10.147
 5238SOL    HW116394   2.485   2.486  10.076
 5238SOL    HW216395   2.475   2.465  10.226
 5239SOL     OW16396   3.110   3.210   9.699
 5239SOL    HW116397   3.165   3.282   9.730
 5239SOL    HW216398   3.023   3.230   9.733
 5240SOL     OW16399   3.137   3.318  10.454
 5240SOL    HW116400   3.193   3.321  10.532
 5240SOL    HW216401   3.084   3.239  10.466
 5241SOL     OW16402   3.445   2.488   9.786
 5241SOL    HW116403   3.402   2.544   9.850
 5241SOL    HW216404   3.490   2.549   9.728
 5242SOL     OW16405   2.209   3.384  10.628
 5242SOL    HW116406   2.197   3.342  10.543
 5242SOL    HW216407   2.304   3.399  10.633
 5243SOL     OW16408   2.279   2.601  10.905
 5243SOL    HW116409   2.342   2.648  10.850
 5243SOL    HW216410   2.324   2.521  10.931
 5244SOL     OW16411   3.452   2.626  10.972
 5244SOL    HW116412   3.375   2.681  10.965
 5244SOL    HW216413   3.521   2.675  10.928
 5245SOL     OW16414   2.440   2.732  10.337
 5245SOL    HW116415   2.477   2.820  10.332
 5245SOL    HW216416   2.388   2.731  10.417
 5246SOL     OW16417   3.222   2.722  10.346
 5246SOL    HW116418   3.142   2.716  10.295
 5246SOL    HW216419   3.260   2.635  10.343
 5247SOL     OW16420   3.069   2.391   9.580
 5247SOL    HW116421   3.077   2.313   9.634
 5247SOL    HW216422   3.027   2.455   9.637
 5248SOL     OW16423   1.912   3.173  10.586
 5248SOL    HW116424   1.939   3.120  10.661
 5248SOL    HW216425   1.915   3.263  10.618
 5249SOL     OW16426   2.612   2.513  10.400
 5249SOL    HW116427   2.650   2.467  10.325
 5249SOL    HW216428   2.568   2.589  10.362
 5250SOL     OW16429   2.161   1.906   9.938
 5250SOL    HW116430   2.121   1.990   9.960
 5250SOL    HW216431   2.169   1.861  10.022
 5251SOL     OW16432   3.475   2.234   9.679
 5251SOL    HW116433   3.502   2.170   9.746
 5251SOL    HW216434   3.452   2.312   9.729
 5252SOL     OW16435   2.890   2.623  10.272
 5252SOL    HW116436   2.889   2.641  10.366
 5252SOL    HW216437   2.859   2.533  10.264
 5253SOL     OW16438   2.836   3.434  11.004
 5253SOL    HW116439   2.822   3.483  10.924
 5253SOL    HW216440   2.870   3.349  10.976
 5254SOL     OW16441   3.721   3.360  10.912
 5254SOL    HW116442   3.735   3.394  10.824
 5254SOL    HW216443   3.789   3.402  10.965
 5255SOL     OW16444   2.224   2.790  11.090
 5255SOL    HW116445   2.308   2.795   0.036
 5255SOL    HW216446   2.235   2.717  11.029
 5256SOL     OW16447   3.393   2.136   9.437
 5256SOL    HW116448   3.329   2.070   9.464
 5256SOL    HW216449   3.426   2.172   9.520
 5257SOL     OW16450   3.157   2.689   9.343
 5257SOL    HW116451   3.199   2.604   9.347
 5257SOL    HW216452   3.187   2.728   9.261
 5258SOL     OW16453   2.927   3.196  10.162
 5258SOL    HW116454   2.930   3.123  10.100
 5258SOL    HW216455   2.990   3.260  10.128
 5259SOL     OW16456   2.174   2.677  10.254
 5259SOL    HW116457   2.267   2.699  10.251
 5259SOL    HW216458   2.169   2.596  10.304
 5260SOL     OW16459   3.019   2.072  10.782
 5260SOL    HW116460   3.031   2.130  10.857
 5260SOL    HW216461   3.057   2.120  10.708
 5261SOL     OW16462   1.867   3.184   9.505
 5261SOL    HW116463   1.780   3.198   9.467
 5261SOL    HW216464   1.865   3.095   9.538
 5262SOL     OW16465   1.951   3.652  10.245
 5262SOL    HW116466   1.921   3.571  10.203
 5262SOL    HW216467   2.042   3.663  10.215
 5263SOL     OW16468   2.361   3.435  10.215
 5263SOL    HW116469   2.430   3.497  10.239
 5263SOL    HW216470   2.406   3.369  10.162
 5264SOL     OW16471   2.851   2.661  10.539
 5264SOL    HW116472   2.898   2.633  10.617
 5264SOL    HW216473   2.766   2.617  10.543
 5265SOL     OW16474   1.906   2.418  10.422
 5265SOL    HW116475   1.961   2.349  10.386
 5265SOL    HW216476   1.922   2.415  10.516
 5266SOL     OW16477   2.675   2.429   9.664
 5266SOL    HW116478   2.680   2.356   9.603
 5266SOL    HW216479   2.601   2.482   9.634
 5267SOL     OW16480   3.505   2.463  10.499
 5267SOL    HW116481   3.495   2.403  10.573
 5267SOL    HW216482   3.592   2.443  10.464
 5268SOL     OW16483   2.118   3.426  11.055
 5268SOL    HW116484   2.066   3.467   0.023
 5268SOL    HW216485   2.113   3.332  11.075
 5269SOL     OW16486   2.803   3.544  10.761
 5269SOL    HW116487   2.764   3.514  10.679
 5269SOL    HW216488   2.791   3.639  10.760
 5270SOL     OW16489   2.017   3.000  10.781
 5270SOL    HW116490   2.011   2.943  10.858
 5270SOL    HW216491   2.029   2.939  10.707
 5271SOL     OW16492   3.190   2.916  10.539
 5271SOL    HW116493   3.218   2.851  10.474
 5271SOL    HW216494   3.117   2.962  10.497
 5272SOL     OW16495   3.170   2.718   9.617
 5272SOL    HW116496   3.093   2.688   9.666
 5272SOL    HW216497   3.148   2.705   9.525
 5273SOL     OW16498   3.631   3.610  10.460
 5273SOL    HW116499   3.690   3.635  10.389
 5273SOL    HW216500   3.606   3.520  10.440
 5274SOL     OW16501   3.104   3.595  10.427
 5274SOL    HW116502   3.185   3.613  10.381
 5274SOL    HW216503   3.106   3.501  10.444
 5275SOL     OW16504   1.945   3.128  10.323
 5275SOL    HW116505   1.934   3.139  10.418
 5275SOL    HW216506   1.870   3.075  10.296
 5276SOL     OW16507   3.580   2.004   9.823
 5276SOL    HW116508   3.654   1.990   9.764
 5276SOL    HW216509   3.565   1.918   9.862
 5277SOL     OW16510   3.252   3.430   9.792
 5277SOL    HW116511   3.313   3.460   9.725
 5277SOL    HW216512   3.205   3.509   9.820
 5278SOL     OW16513   3.139   2.787   9.982
 5278SOL    HW116514   3.212   2.725   9.985
 5278SOL    HW216515   3.173   2.860   9.930
 5279SOL     OW16516   2.684   3.134  10.739
 5279SOL    HW116517   2.656   3.168  10.824
 5279SOL    HW216518   2.613   3.156  10.679
 5280SOL     OW16519   2.534   3.478   9.465
 5280SOL    HW116520   2.543   3.489   9.371
 5280SOL    HW216521   2.481   3.399   9.476
 5281SOL     OW16522   3.490   3.581  10.701
 5281SOL    HW116523   3.542   3.595  10.621
 5281SOL    HW216524   3.476   3.669  10.736
 5282SOL     OW16525   3.701   2.035  10.278
 5282SOL    HW116526   3.731   1.949  10.248
 5282SOL    HW216527   3.615   2.046  10.238
 5283SOL     OW16528   3.067   3.470   9.341
 5283SOL    HW116529   3.059   3.379   9.368
 5283SOL    HW216530   3.003   3.480   9.271
 5284SOL     OW16531   2.686   2.868  10.684
 5284SOL    HW116532   2.730   2.861  10.599
 5284SOL    HW216533   2.689   2.961  10.706
 5285SOL     OW16534   2.777   2.772   9.599
 5285SOL    HW116535   2.839   2.804   9.534
 5285SOL    HW216536   2.823   2.701   9.644
 5286SOL     OW16537   3.358   3.486   9.352
 5286SOL    HW116538   3.262   3.483   9.341
 5286SOL    HW216539   3.392   3.492   9.263
 5287SOL     OW16540   2.231   3.164  10.804
 5287SOL    HW116541   2.217   3.240  10.748
 5287SOL    HW216542   2.156   3.108  10.786
 5288SOL     OW16543   3.474   3.145  10.593
 5288SOL    HW116544   3.531   3.136  10.669
 5288SOL    HW216545   3.417   3.219  10.614
 5289SOL     OW16546   2.909   2.966  10.015
 5289SOL    HW116547   2.839   2.914  10.055
 5289SOL    HW216548   2.970   2.902   9.980
 5290SOL     OW16549   2.883   2.101  10.276
 5290SOL    HW116550   2.876   2.054  10.193
 5290SOL    HW216551   2.876   2.033  10.343
 5291SOL     OW16552   2.463   3.351   9.793
 5291SOL    HW116553   2.503   3.300   9.722
 5291SOL    HW216554   2.397   3.405   9.749
 5292SOL     OW16555   3.577   2.255  10.688
 5292SOL    HW116556   3.650   2.318  10.688
 5292SOL    HW216557   3.608   2.184  10.632
 5293SOL     OW16558   2.120   3.209   9.597
 5293SOL    HW116559   2.027   3.207   9.575
 5293SOL    HW216560   2.123   3.246   9.685
 5294SOL     OW16561   1.973   2.872  11.022
 5294SOL    HW116562   1.903   2.853  11.084
 5294SOL    HW216563   2.053   2.843  11.066
 5295SOL     OW16564   2.541   2.051  10.800
 5295SOL    HW116565   2.626   2.029  10.761
 5295SOL    HW216566   2.563   2.090  10.884
 5296SOL     OW16567   1.901   2.194   9.349
 5296SOL    HW116568   1.821   2.165   9.304
 5296SOL    HW216569   1.929   2.271   9.300
 5297SOL     OW16570   3.293   2.711  10.710
 5297SOL    HW116571   3.245   2.778  10.661
 5297SOL    HW216572   3.384   2.721  10.682
 5298SOL     OW16573   1.934   2.020   9.626
 5298SOL    HW116574   1.912   2.097   9.573
 5298SOL    HW216575   2.019   1.991   9.592
 5299SOL     OW16576   3.042   3.204   9.427
 5299SOL    HW116577   2.951   3.174   9.431
 5299SOL    HW216578   3.071   3.203   9.518
 5300SOL     OW16579   2.482   2.694  10.740
 5300SOL    HW116580   2.535   2.772  10.727
 5300SOL    HW216581   2.546   2.622  10.747
 5301SOL     OW16582   3.347   3.636  10.284
 5301SOL    HW116583   3.374   3.693  10.213
 5301SOL    HW216584   3.427   3.620  10.334
 5302SOL     OW16585   2.578   2.427  11.017
 5302SOL    HW116586   2.609   2.499  11.072
 5302SOL    HW216587   2.632   2.353  11.043
 5303SOL     OW16588   2.247   3.594  10.869
 5303SOL    HW116589   2.166   3.646  10.864
 5303SOL    HW216590   2.224   3.519  10.924
 5304SOL     OW16591   3.535   2.745  10.567
 5304SOL    HW116592   3.525   2.659  10.524
 5304SOL    HW216593   3.527   2.808  10.495
 5305SOL     OW16594   3.081   2.182   9.767
 5305SOL    HW116595   3.145   2.111   9.758
 5305SOL    HW216596   3.109   2.230   9.845
 5306SOL     OW16597   2.444   2.613   9.964
 5306SOL    HW116598   2.491   2.696   9.953
 5306SOL    HW216599   2.367   2.621   9.908
 5307SOL     OW16600   3.619   2.184  10.949
 5307SOL    HW116601   3.599   2.220  10.863
 5307SOL    HW216602   3.537   2.193  10.998
 5308SOL     OW16603   3.610   2.797  10.825
 5308SOL    HW116604   3.605   2.892  10.838
 5308SOL    HW216605   3.592   2.785  10.732
 5309SOL     OW16606   2.724   3.231   9.339
 5309SOL    HW116607   2.685   3.257   9.422
 5309SOL    HW216608   2.744   3.313   9.295
 5310SOL     OW16609   2.521   3.656  10.258
 5310SOL    HW116610   2.499   3.746  10.234
 5310SOL    HW216611   2.616   3.652  10.250
 5311SOL     OW16612   2.726   2.826  10.166
 5311SOL    HW116613   2.777   2.755  10.206
 5311SOL    HW216614   2.697   2.879  10.241
 5312SOL     OW16615   2.941   2.849   9.398
 5312SOL    HW116616   2.921   2.900   9.320
 5312SOL    HW216617   3.018   2.797   9.373
 5313SOL     OW16618   3.719   3.419  10.155
 5313SOL    HW116619   3.642   3.407  10.100
 5313SOL    HW216620   3.712   3.350  10.222
 5314SOL     OW16621   1.945   3.099   9.974
 5314SOL    HW116622   1.944   3.048  10.055
 5314SOL    HW216623   2.013   3.059   9.921
 5315SOL     OW16624   2.539   3.255  10.933
 5315SOL    HW116625   2.465   3.206  10.970
 5315SOL    HW216626   2.514   3.347  10.944
 5316SOL     OW16627   3.674   2.047  10.549
 5316SOL    HW116628   3.684   1.953  10.564
 5316SOL    HW216629   3.685   2.058  10.454
 5317SOL     OW16630   3.564   3.354  10.411
 5317SOL    HW116631   3.483   3.326  10.368
 5317SOL    HW216632   3.581   3.286  10.476
 5318SOL     OW16633   2.687   3.440   9.990
 5318SOL    HW116634   2.682   3.484   9.905
 5318SOL    HW216635   2.608   3.386   9.994
 5319SOL     OW16636   3.294   2.084  10.428
 5319SOL    HW116637   3.324   2.007  10.476
 5319SOL    HW216638   3.242   2.133  10.492
 5320SOL     OW16639   2.870   1.882  10.457
 5320SOL    HW116640   2.816   1.814  10.416
 5320SOL    HW216641   2.958   1.845  10.458
 5321SOL     OW16642   2.633   3.194   9.620
 5321SOL    HW116643   2.599   3.105   9.626
 5321SOL    HW216644   2.716   3.191   9.668
 5322SOL     OW16645   2.481   3.420  10.595
 5322SOL    HW116646   2.483   3.502  10.644
 5322SOL    HW216647   2.568   3.414  10.555
 5323SOL     OW16648   3.214   1.916   9.473
 5323SOL    HW116649   3.239   1.857   9.402
 5323SOL    HW216650   3.128   1.884   9.501
 5324SOL     OW16651   3.160   2.322   9.993
 5324SOL    HW116652   3.104   2.399  10.001
 5324SOL    HW216653   3.157   2.281  10.080
 5325SOL     OW16654   3.450   2.068  10.187
 5325SOL    HW116655   3.384   2.085  10.254
 5325SOL    HW216656   3.449   2.147  10.132
 5326SOL     OW16657   1.905   2.935   9.615
 5326SOL    HW116658   1.999   2.926   9.599
 5326SOL    HW216659   1.875   2.847   9.638
 5327SOL     OW16660   2.742   3.511   9.655
 5327SOL    HW116661   2.672   3.493   9.593
 5327SOL    HW216662   2.713   3.588   9.704
 5328SOL     OW16663   2.069   4.295   0.090
 5328SOL    HW116664   2.036   4.351   0.160
 5328SOL    HW216665   2.082   4.353   0.016
 5329SOL     OW16666   2.086   4.001   0.990
 5329SOL    HW116667   2.114   3.969   1.076
 5329SOL    HW216668   1.996   3.969   0.981
 5330SOL     OW16669   1.868   4.102   0.643
 5330SOL    HW116670   1.784   4.128   0.681
 5330SOL    HW216671   1.848   4.025   0.590
 5331SOL     OW16672   3.600   4.333   0.228
 5331SOL    HW116673   3.607   4.305   0.137
 5331SOL    HW216674   3.591   4.251   0.278
 5332SOL     OW16675   2.590   0.266   0.681
 5332SOL    HW116676   2.589   0.205   0.755
 5332SOL    HW216677   2.498   0.284   0.664
 5333SOL     OW16678   2.308   4.119   1.488
 5333SOL    HW116679   2.385   4.062   1.495
 5333SOL    HW216680   2.233   4.060   1.503
 5334SOL     OW16681   3.477   4.173   0.739
 5334SOL    HW116682   3.405   4.200   0.683
 5334SOL    HW216683   3.488   4.245   0.801
 5335SOL     OW16684   3.459   3.844   1.470
 5335SOL    HW116685   3.454   3.923   1.416
 5335SOL    HW216686   3.447   3.876   1.560
 5336SOL     OW16687   1.953   4.365   0.561
 5336SOL    HW116688   1.935   4.275   0.588
 5336SOL    HW216689   1.996   4.405   0.636
 5337SOL     OW16690   1.982   4.472   1.584
 5337SOL    HW116691   2.053   4.485   1.647
 5337SOL    HW216692   1.949   0.060   1.567
 5338SOL     OW16693   2.674   3.724   0.504
 5338SOL    HW116694   2.713   3.810   0.491
 5338SOL    HW216695   2.580   3.741   0.515
 5339SOL     OW16696   2.192   3.976   1.804
 5339SOL    HW116697   2.237   4.058   1.822
 5339SOL    HW216698   2.103   3.989   1.838
 5340SOL     OW16699   3.140   4.070   0.932
 5340SOL    HW116700   3.051   4.035   0.941
 5340SOL    HW216701   3.192   4.019   0.995
 5341SOL     OW16702   2.684   4.310   1.452
 5341SOL    HW116703   2.642   4.316   1.538
 5341SOL    HW216704   2.619   4.268   1.396
 5342SOL     OW16705   3.258   4.199   1.677
 5342SOL    HW116706   3.257   4.242   1.762
 5342SOL    HW216707   3.318   4.126   1.687
 5343SOL     OW16708   2.857   4.146   1.235
 5343SOL    HW116709   2.783   4.167   1.292
 5343SOL    HW216710   2.821   4.088   1.168
 5344SOL     OW16711   2.921   4.403   0.424
 5344SOL    HW116712   2.921   4.448   0.508
 5344SOL    HW216713   2.829   4.384   0.406
 5345SOL     OW16714   2.744   4.072   0.207
 5345SOL    HW116715   2.793   4.129   0.147
 5345SOL    HW216716   2.760   3.983   0.175
 5346SOL     OW16717   3.568   4.298   1.828
 5346SOL    HW116718   3.576   4.387   1.795
 5346SOL    HW216719   3.591   4.243   1.753
 5347SOL     OW16720   2.412   3.908   0.891
 5347SOL    HW116721   2.413   3.934   0.983
 5347SOL    HW216722   2.411   3.990   0.843
 5348SOL     OW16723   3.347   4.460   0.736
 5348SOL    HW116724   3.328   4.407   0.813
 5348SOL    HW216725   3.390   0.038   0.770
 5349SOL     OW16726   2.060   4.006   1.501
 5349SOL    HW116727   1.977   4.052   1.492
 5349SOL    HW216728   2.046   3.945   1.573
 5350SOL     OW16729   3.263   3.831   0.429
 5350SOL    HW116730   3.253   3.808   0.337
 5350SOL    HW216731   3.358   3.840   0.441
 5351SOL     OW16732   2.219   4.381   0.410
 5351SOL    HW116733   2.260   4.309   0.458
 5351SOL    HW216734   2.149   4.412   0.467
 5352SOL     OW16735   3.400   3.951   1.725
 5352SOL    HW116736   3.408   3.972   1.818
 5352SOL    HW216737   3.333   3.883   1.722
 5353SOL     OW16738   2.476   3.831   0.124
 5353SOL    HW116739   2.567   3.802   0.121
 5353SOL    HW216740   2.444   3.818   0.035
 5354SOL     OW16741   2.631   4.000   1.752
 5354SOL    HW116742   2.703   3.938   1.760
 5354SOL    HW216743   2.578   3.987   1.831
 5355SOL     OW16744   3.208   4.311   1.428
 5355SOL    HW116745   3.230   4.274   1.514
 5355SOL    HW216746   3.243   4.400   1.430
 5356SOL     OW16747   2.784   4.236   0.900
 5356SOL    HW116748   2.762   4.220   0.808
 5356SOL    HW216749   2.824   4.155   0.930
 5357SOL     OW16750   2.410   3.787   0.507
 5357SOL    HW116751   2.328   3.787   0.556
 5357SOL    HW216752   2.405   3.865   0.452
 5358SOL     OW16753   2.149   3.770   0.198
 5358SOL    HW116754   2.191   3.825   0.132
 5358SOL    HW216755   2.216   3.707   0.223
 5359SOL     OW16756   2.799   3.969   0.466
 5359SOL    HW116757   2.770   4.011   0.385
 5359SOL    HW216758   2.893   3.981   0.467
 5360SOL     OW16759   2.940   4.396   1.510
 5360SOL    HW116760   2.856   4.364   1.477
 5360SOL    HW216761   3.005   4.351   1.455
 5361SOL     OW16762   2.871   4.267   0.039
 5361SOL    HW116763   2.877   4.331  11.068
 5361SOL    HW216764   2.953   4.278   0.088
 5362SOL     OW16765   1.936   4.280   1.391
 5362SOL    HW116766   2.027   4.272   1.363
 5362SOL    HW216767   1.936   4.352   1.453
 5363SOL     OW16768   2.423   3.950   1.162
 5363SOL    HW116769   2.462   3.871   1.199
 5363SOL    HW216770   2.333   3.949   1.193
 5364SOL     OW16771   2.732   4.188   0.639
 5364SOL    HW116772   2.697   4.248   0.574
 5364SOL    HW216773   2.749   4.107   0.591
 5365SOL     OW16774   2.876   3.777   0.754
 5365SOL    HW116775   2.817   3.768   0.679
 5365SOL    HW216776   2.856   3.700   0.809
 5366SOL     OW16777   3.338   4.313   0.971
 5366SOL    HW116778   3.285   4.236   0.991
 5366SOL    HW216779   3.391   4.326   1.050
 5367SOL     OW16780   3.261   4.295   0.073
 5367SOL    HW116781   3.197   4.277   0.142
 5367SOL    HW216782   3.332   4.233   0.089
 5368SOL     OW16783   2.390   3.990   0.327
 5368SOL    HW116784   2.415   3.929   0.257
 5368SOL    HW216785   2.374   4.073   0.282
 5369SOL     OW16786   2.780   3.822   1.399
 5369SOL    HW116787   2.803   3.802   1.308
 5369SOL    HW216788   2.859   3.861   1.436
 5370SOL     OW16789   2.294   0.008   1.265
 5370SOL    HW116790   2.359   0.009   1.335
 5370SOL    HW216791   2.252   4.422   1.273
 5371SOL     OW16792   3.129   4.101   1.272
 5371SOL    HW116793   3.162   4.178   1.318
 5371SOL    HW216794   3.040   4.125   1.246
 5372SOL     OW16795   2.417   4.257   0.865
 5372SOL    HW116796   2.438   4.305   0.785
 5372SOL    HW216797   2.480   4.289   0.930
 5373SOL     OW16798   3.443   4.344   0.477
 5373SOL    HW116799   3.398   4.407   0.534
 5373SOL    HW216800   3.488   4.398   0.412
 5374SOL     OW16801   2.859   3.841   1.758
 5374SOL    HW116802   2.909   3.915   1.724
 5374SOL    HW216803   2.909   3.764   1.730
 5375SOL     OW16804   2.361   3.768   1.746
 5375SOL    HW116805   2.320   3.713   1.679
 5375SOL    HW216806   2.299   3.840   1.758
 5376SOL     OW16807   3.075   4.252   0.268
 5376SOL    HW116808   3.084   4.173   0.321
 5376SOL    HW216809   3.026   4.313   0.323
 5377SOL     OW16810   2.163   3.925   1.245
 5377SOL    HW116811   2.127   3.958   1.327
 5377SOL    HW216812   2.143   3.831   1.245
 5378SOL     OW16813   2.592   4.360   1.049
 5378SOL    HW116814   2.665   4.326   0.998
 5378SOL    HW216815   2.595   4.454   1.035
 5379SOL     OW16816   3.611   0.137   1.857
 5379SOL    HW116817   3.550   0.148   1.784
 5379SOL    HW216818   3.563   0.169   1.933
 5380SOL     OW16819   2.164   3.791   0.623
 5380SOL    HW116820   2.146   3.881   0.649
 5380SOL    HW216821   2.168   3.743   0.706
 5381SOL     OW16822   3.474   4.092   0.370
 5381SOL    HW116823   3.503   4.030   0.436
 5381SOL    HW216824   3.453   4.171   0.419
 5382SOL     OW16825   3.399   4.008   0.118
 5382SOL    HW116826   3.338   3.936   0.135
 5382SOL    HW216827   3.429   4.035   0.205
 5383SOL     OW16828   2.179   0.012   0.922
 5383SOL    HW116829   2.256   0.068   0.934
 5383SOL    HW216830   2.191   4.441   0.985
 5384SOL     OW16831   2.199   4.239   1.019
 5384SOL    HW116832   2.159   4.154   0.999
 5384SOL    HW216833   2.272   4.247   0.957
 5385SOL     OW16834   3.000   4.097   1.683
 5385SOL    HW116835   2.950   4.155   1.739
 5385SOL    HW216836   3.085   4.139   1.674
 5386SOL     OW16837   3.022   3.928   1.469
 5386SOL    HW116838   3.013   3.989   1.542
 5386SOL    HW216839   3.060   3.981   1.398
 5387SOL     OW16840   1.899   4.270   1.115
 5387SOL    HW116841   1.980   4.249   1.069
 5387SOL    HW216842   1.924   4.274   1.207
 5388SOL     OW16843   2.053   4.243   1.717
 5388SOL    HW116844   2.111   4.201   1.653
 5388SOL    HW216845   1.998   4.301   1.665
 5389SOL     OW16846   2.677   4.306   0.327
 5389SOL    HW116847   2.685   4.220   0.286
 5389SOL    HW216848   2.583   4.319   0.339
 5390SOL     OW16849   3.501   4.320   1.190
 5390SOL    HW116850   3.494   4.260   1.265
 5390SOL    HW216851   3.588   4.304   1.155
 5391SOL     OW16852   2.546   4.182   1.259
 5391SOL    HW116853   2.502   4.104   1.227
 5391SOL    HW216854   2.549   4.241   1.184
 5392SOL     OW16855   2.338   4.219   0.186
 5392SOL    HW116856   2.379   4.305   0.202
 5392SOL    HW216857   2.244   4.237   0.187
 5393SOL     OW16858   2.778   3.815   0.112
 5393SOL    HW116859   2.830   3.781   0.039
 5393SOL    HW216860   2.814   3.771   0.189
 5394SOL     OW16861   3.580   3.866   0.513
 5394SOL    HW116862   3.654   3.853   0.453
 5394SOL    HW216863   3.565   3.780   0.552
 5395SOL     OW16864   3.141   0.139   0.681
 5395SOL    HW116865   3.198   0.062   0.684
 5395SOL    HW216866   3.189   0.202   0.628
 5396SOL     OW16867   3.701   3.897   0.968
 5396SOL    HW116868   3.730   3.811   0.938
 5396SOL    HW216869   3.615   3.908   0.928
 5397SOL     OW16870   2.126   4.043   0.719
 5397SOL    HW116871   2.040   4.075   0.693
 5397SOL    HW216872   2.119   4.031   0.814
 5398SOL     OW16873   2.925   0.307   0.719
 5398SOL    HW116874   2.839   0.269   0.704
 5398SOL    HW216875   2.987   0.238   0.694
 5399SOL     OW16876   2.881   3.964   0.965
 5399SOL    HW116877   2.875   3.915   0.883
 5399SOL    HW216878   2.876   3.897   1.033
 5400SOL     OW16879   3.581   4.114   1.380
 5400SOL    HW116880   3.652   4.178   1.377
 5400SOL    HW216881   3.610   4.043   1.324
 5401SOL     OW16882   2.534   3.919   1.499
 5401SOL    HW116883   2.618   3.902   1.456
 5401SOL    HW216884   2.558   3.949   1.587
 5402SOL     OW16885   1.939   4.052   0.052
 5402SOL    HW116886   1.869   4.044  11.088
 5402SOL    HW216887   1.969   4.142   0.044
 5403SOL     OW16888   1.932   3.884   0.316
 5403SOL    HW116889   1.918   3.960   0.260
 5403SOL    HW216890   2.015   3.846   0.285
 5404SOL     OW16891   2.586   4.289   1.704
 5404SOL    HW116892   2.595   4.337   1.787
 5404SOL    HW216893   2.617   4.201   1.725
 5405SOL     OW16894   3.080   4.041   0.456
 5405SOL    HW116895   3.145   3.971   0.446
 5405SOL    HW216896   3.109   4.090   0.533
 5406SOL     OW16897   3.626   4.087   1.647
 5406SOL    HW116898   3.608   4.097   1.554
 5406SOL    HW216899   3.557   4.029   1.679
 5407SOL     OW16900   2.960   0.203   0.051
 5407SOL    HW116901   2.960   0.287   0.005
 5407SOL    HW216902   3.052   0.177   0.052
 5408SOL     OW16903   3.677   3.909   1.238
 5408SOL    HW116904   3.686   3.815   1.254
 5408SOL    HW216905   3.685   3.919   1.143
 5409SOL     OW16906   2.306   4.153   0.538
 5409SOL    HW116907   2.325   4.083   0.475
 5409SOL    HW216908   2.249   4.111   0.603
 5410SOL     OW16909   2.185   4.265   1.293
 5410SOL    HW116910   2.241   4.210   1.348
 5410SOL    HW216911   2.206   4.239   1.203
 5411SOL     OW16912   3.294   3.947   1.118
 5411SOL    HW116913   3.324   3.870   1.166
 5411SOL    HW216914   3.241   3.996   1.181
 5412SOL     OW16915   2.870   3.745   1.146
 5412SOL    HW116916   2.815   3.677   1.108
 5412SOL    HW216917   2.958   3.708   1.148
 5413SOL     OW16918   3.213   3.777   0.164
 5413SOL    HW116919   3.236   3.728   0.085
 5413SOL    HW216920   3.127   3.744   0.189
 5414SOL     OW16921   3.162   4.176   0.683
 5414SOL    HW116922   3.118   4.260   0.696
 5414SOL    HW216923   3.162   4.136   0.769
 5415SOL     OW16924   3.449   3.930   0.877
 5415SOL    HW116925   3.385   3.948   0.945
 5415SOL    HW216926   3.450   4.009   0.823
 5416SOL     OW16927   2.088   4.293   1.985
 5416SOL    HW116928   2.025   4.356   2.021
 5416SOL    HW216929   2.077   4.299   1.890
 5417SOL     OW16930   2.086   4.000   2.852
 5417SOL    HW116931   2.114   3.969   2.938
 5417SOL    HW216932   1.996   3.969   2.843
 5418SOL     OW16933   1.868   4.102   2.505
 5418SOL    HW116934   1.785   4.129   2.543
 5418SOL    HW216935   1.847   4.025   2.452
 5419SOL     OW16936   3.598   4.335   2.098
 5419SOL    HW116937   3.596   4.320   2.003
 5419SOL    HW216938   3.595   4.247   2.136
 5420SOL     OW16939   2.586   0.265   2.543
 5420SOL    HW116940   2.587   0.209   2.620
 5420SOL    HW216941   2.494   0.285   2.528
 5421SOL     OW16942   2.308   4.119   3.350
 5421SOL    HW116943   2.385   4.063   3.357
 5421SOL    HW216944   2.233   4.060   3.364
 5422SOL     OW16945   3.477   4.174   2.600
 5422SOL    HW116946   3.404   4.201   2.545
 5422SOL    HW216947   3.488   4.245   2.663
 5423SOL     OW16948   3.458   3.844   3.332
 5423SOL    HW116949   3.454   3.923   3.278
 5423SOL    HW216950   3.447   3.876   3.422
 5424SOL     OW16951   1.946   4.368   2.427
 5424SOL    HW116952   1.935   4.276   2.451
 5424SOL    HW216953   1.999   4.406   2.497
 5425SOL     OW16954   1.982   4.472   3.447
 5425SOL    HW116955   2.053   4.485   3.509
 5425SOL    HW216956   1.949   0.060   3.428
 5426SOL     OW16957   2.673   3.723   2.367
 5426SOL    HW116958   2.714   3.808   2.352
 5426SOL    HW216959   2.580   3.742   2.378
 5427SOL     OW16960   2.192   3.976   3.667
 5427SOL    HW116961   2.237   4.058   3.683
 5427SOL    HW216962   2.103   3.990   3.700
 5428SOL     OW16963   3.140   4.069   2.794
 5428SOL    HW116964   3.051   4.035   2.803
 5428SOL    HW216965   3.192   4.019   2.857
 5429SOL     OW16966   2.684   4.310   3.314
 5429SOL    HW116967   2.642   4.316   3.399
 5429SOL    HW216968   2.619   4.268   3.258
 5430SOL     OW16969   3.258   4.199   3.539
 5430SOL    HW116970   3.257   4.242   3.624
 5430SOL    HW216971   3.318   4.126   3.549
 5431SOL     OW16972   2.857   4.146   3.097
 5431SOL    HW116973   2.783   4.167   3.154
 5431SOL    HW216974   2.821   4.088   3.030
 5432SOL     OW16975   2.919   4.409   2.283
 5432SOL    HW116976   2.920   4.443   2.373
 5432SOL    HW216977   2.830   4.375   2.271
 5433SOL     OW16978   2.746   4.063   2.053
 5433SOL    HW116979   2.792   4.125   1.996
 5433SOL    HW216980   2.767   3.977   2.016
 5434SOL     OW16981   3.568   4.298   3.690
 5434SOL    HW116982   3.576   4.388   3.657
 5434SOL    HW216983   3.591   4.243   3.615
 5435SOL     OW16984   2.411   3.908   2.753
 5435SOL    HW116985   2.413   3.934   2.845
 5435SOL    HW216986   2.411   3.991   2.705
 5436SOL     OW16987   3.349   4.460   2.597
 5436SOL    HW116988   3.328   4.407   2.674
 5436SOL    HW216989   3.391   0.039   2.633
 5437SOL     OW16990   2.060   4.006   3.363
 5437SOL    HW116991   1.977   4.053   3.354
 5437SOL    HW216992   2.046   3.945   3.436
 5438SOL     OW16993   3.263   3.831   2.292
 5438SOL    HW116994   3.252   3.806   2.200
 5438SOL    HW216995   3.357   3.840   2.303
 5439SOL     OW16996   2.219   4.384   2.274
 5439SOL    HW116997   2.259   4.310   2.321
 5439SOL    HW216998   2.149   4.413   2.332
 5440SOL     OW16999   3.400   3.951   3.587
 5440SOL    HW117000   3.408   3.972   3.680
 5440SOL    HW217001   3.333   3.883   3.584
 5441SOL     OW17002   2.490   3.849   1.969
 5441SOL    HW117003   2.567   3.792   1.979
 5441SOL    HW217004   2.445   3.816   1.892
 5442SOL     OW17005   2.630   4.000   3.614
 5442SOL    HW117006   2.703   3.937   3.622
 5442SOL    HW217007   2.579   3.988   3.694
 5443SOL     OW17008   3.208   4.311   3.290
 5443SOL    HW117009   3.230   4.274   3.376
 5443SOL    HW217010   3.243   4.400   3.292
 5444SOL     OW17011   2.784   4.236   2.761
 5444SOL    HW117012   2.762   4.220   2.670
 5444SOL    HW217013   2.824   4.155   2.792
 5445SOL     OW17014   2.410   3.787   2.367
 5445SOL    HW117015   2.329   3.788   2.419
 5445SOL    HW217016   2.404   3.866   2.313
 5446SOL     OW17017   2.155   3.770   2.046
 5446SOL    HW117018   2.213   3.837   2.008
 5446SOL    HW217019   2.214   3.706   2.086
 5447SOL     OW17020   2.797   3.969   2.327
 5447SOL    HW117021   2.769   4.009   2.245
 5447SOL    HW217022   2.892   3.979   2.327
 5448SOL     OW17023   2.940   4.395   3.373
 5448SOL    HW117024   2.856   4.364   3.339
 5448SOL    HW217025   3.005   4.351   3.317
 5449SOL     OW17026   2.888   4.270   1.885
 5449SOL    HW117027   2.867   4.357   1.852
 5449SOL    HW217028   2.950   4.285   1.955
 5450SOL     OW17029   1.936   4.280   3.253
 5450SOL    HW117030   2.027   4.272   3.225
 5450SOL    HW217031   1.936   4.353   3.315
 5451SOL     OW17032   2.423   3.950   3.024
 5451SOL    HW117033   2.462   3.871   3.062
 5451SOL    HW217034   2.333   3.949   3.054
 5452SOL     OW17035   2.733   4.188   2.500
 5452SOL    HW117036   2.694   4.246   2.434
 5452SOL    HW217037   2.750   4.107   2.453
 5453SOL     OW17038   2.875   3.777   2.616
 5453SOL    HW117039   2.817   3.768   2.540
 5453SOL    HW217040   2.856   3.700   2.671
 5454SOL     OW17041   3.339   4.313   2.833
 5454SOL    HW117042   3.285   4.236   2.853
 5454SOL    HW217043   3.391   4.327   2.911
 5455SOL     OW17044   3.262   4.296   1.934
 5455SOL    HW117045   3.201   4.270   2.004
 5455SOL    HW217046   3.345   4.255   1.960
 5456SOL     OW17047   2.386   3.987   2.183
 5456SOL    HW117048   2.426   3.936   2.112
 5456SOL    HW217049   2.372   4.074   2.145
 5457SOL     OW17050   2.780   3.822   3.261
 5457SOL    HW117051   2.803   3.802   3.170
 5457SOL    HW217052   2.859   3.862   3.298
 5458SOL     OW17053   2.294   0.008   3.127
 5458SOL    HW117054   2.359   0.010   3.197
 5458SOL    HW217055   2.252   4.422   3.135
 5459SOL     OW17056   3.129   4.101   3.134
 5459SOL    HW117057   3.162   4.178   3.180
 5459SOL    HW217058   3.040   4.125   3.108
 5460SOL     OW17059   2.417   4.257   2.727
 5460SOL    HW117060   2.437   4.305   2.647
 5460SOL    HW217061   2.480   4.289   2.792
 5461SOL     OW17062   3.435   4.343   2.336
 5461SOL    HW117063   3.402   4.408   2.398
 5461SOL    HW217064   3.493   4.392   2.278
 5462SOL     OW17065   2.859   3.840   3.620
 5462SOL    HW117066   2.909   3.915   3.587
 5462SOL    HW217067   2.909   3.764   3.592
 5463SOL     OW17068   2.361   3.768   3.608
 5463SOL    HW117069   2.320   3.713   3.541
 5463SOL    HW217070   2.299   3.840   3.620
 5464SOL     OW17071   3.074   4.256   2.130
 5464SOL    HW117072   3.084   4.176   2.181
 5464SOL    HW217073   3.025   4.315   2.186
 5465SOL     OW17074   2.163   3.925   3.107
 5465SOL    HW117075   2.127   3.958   3.189
 5465SOL    HW217076   2.142   3.831   3.108
 5466SOL     OW17077   2.592   4.360   2.911
 5466SOL    HW117078   2.665   4.326   2.860
 5466SOL    HW217079   2.595   4.454   2.898
 5467SOL     OW17080   3.611   0.136   3.719
 5467SOL    HW117081   3.550   0.149   3.646
 5467SOL    HW217082   3.563   0.169   3.795
 5468SOL     OW17083   2.164   3.790   2.485
 5468SOL    HW117084   2.146   3.881   2.510
 5468SOL    HW217085   2.169   3.743   2.567
 5469SOL     OW17086   3.473   4.091   2.232
 5469SOL    HW117087   3.502   4.030   2.300
 5469SOL    HW217088   3.452   4.171   2.279
 5470SOL     OW17089   3.391   3.999   1.989
 5470SOL    HW117090   3.329   3.931   2.015
 5470SOL    HW217091   3.425   4.034   2.071
 5471SOL     OW17092   2.179   0.012   2.785
 5471SOL    HW117093   2.256   0.068   2.796
 5471SOL    HW217094   2.192   4.441   2.848
 5472SOL     OW17095   2.199   4.239   2.881
 5472SOL    HW117096   2.160   4.154   2.861
 5472SOL    HW217097   2.272   4.247   2.820
 5473SOL     OW17098   3.000   4.096   3.545
 5473SOL    HW117099   2.949   4.156   3.601
 5473SOL    HW217100   3.085   4.139   3.536
 5474SOL     OW17101   3.022   3.928   3.331
 5474SOL    HW117102   3.013   3.989   3.404
 5474SOL    HW217103   3.059   3.981   3.260
 5475SOL     OW17104   1.899   4.269   2.977
 5475SOL    HW117105   1.981   4.250   2.931
 5475SOL    HW217106   1.924   4.274   3.069
 5476SOL     OW17107   2.053   4.243   3.579
 5476SOL    HW117108   2.111   4.201   3.515
 5476SOL    HW217109   1.998   4.301   3.527
 5477SOL     OW17110   2.681   4.286   2.203
 5477SOL    HW117111   2.678   4.209   2.147
 5477SOL    HW217112   2.593   4.323   2.197
 5478SOL     OW17113   3.501   4.319   3.052
 5478SOL    HW117114   3.494   4.260   3.127
 5478SOL    HW217115   3.588   4.304   3.017
 5479SOL     OW17116   2.545   4.182   3.121
 5479SOL    HW117117   2.501   4.104   3.088
 5479SOL    HW217118   2.549   4.241   3.046
 5480SOL     OW17119   2.343   4.222   2.053
 5480SOL    HW117120   2.379   4.309   2.069
 5480SOL    HW217121   2.249   4.236   2.045
 5481SOL     OW17122   3.580   3.866   2.375
 5481SOL    HW117123   3.654   3.852   2.316
 5481SOL    HW217124   3.565   3.780   2.414
 5482SOL     OW17125   3.142   0.138   2.541
 5482SOL    HW117126   3.200   0.062   2.545
 5482SOL    HW217127   3.191   0.204   2.491
 5483SOL     OW17128   3.701   3.897   2.831
 5483SOL    HW117129   3.730   3.811   2.800
 5483SOL    HW217130   3.615   3.908   2.790
 5484SOL     OW17131   2.126   4.042   2.580
 5484SOL    HW117132   2.040   4.075   2.555
 5484SOL    HW217133   2.120   4.031   2.675
 5485SOL     OW17134   2.774   0.093   2.089
 5485SOL    HW117135   2.855   0.136   2.062
 5485SOL    HW217136   2.796   0.050   2.172
 5486SOL     OW17137   2.929   0.307   2.597
 5486SOL    HW117138   2.843   0.286   2.560
 5486SOL    HW217139   2.988   0.240   2.560
 5487SOL     OW17140   2.881   3.964   2.827
 5487SOL    HW117141   2.876   3.915   2.745
 5487SOL    HW217142   2.876   3.897   2.895
 5488SOL     OW17143   3.581   4.114   3.243
 5488SOL    HW117144   3.652   4.178   3.239
 5488SOL    HW217145   3.610   4.043   3.186
 5489SOL     OW17146   2.534   3.919   3.361
 5489SOL    HW117147   2.618   3.903   3.318
 5489SOL    HW217148   2.558   3.949   3.448
 5490SOL     OW17149   1.937   4.049   1.892
 5490SOL    HW117150   1.848   4.039   1.857
 5490SOL    HW217151   1.968   4.132   1.858
 5491SOL     OW17152   1.933   3.882   2.176
 5491SOL    HW117153   1.917   3.962   2.126
 5491SOL    HW217154   2.018   3.850   2.145
 5492SOL     OW17155   2.585   4.289   3.566
 5492SOL    HW117156   2.595   4.338   3.648
 5492SOL    HW217157   2.618   4.201   3.587
 5493SOL     OW17158   3.082   4.043   2.317
 5493SOL    HW117159   3.145   3.972   2.308
 5493SOL    HW217160   3.110   4.091   2.395
 5494SOL     OW17161   3.626   4.087   3.509
 5494SOL    HW117162   3.608   4.097   3.416
 5494SOL    HW217163   3.557   4.029   3.541
 5495SOL     OW17164   2.971   0.230   1.967
 5495SOL    HW117165   2.947   0.269   1.882
 5495SOL    HW217166   3.048   0.176   1.948
 5496SOL     OW17167   3.676   3.909   3.100
 5496SOL    HW117168   3.686   3.815   3.116
 5496SOL    HW217169   3.685   3.919   3.005
 5497SOL     OW17170   2.307   4.152   2.400
 5497SOL    HW117171   2.323   4.084   2.335
 5497SOL    HW217172   2.249   4.111   2.465
 5498SOL     OW17173   2.184   4.265   3.155
 5498SOL    HW117174   2.241   4.210   3.210
 5498SOL    HW217175   2.206   4.239   3.065
 5499SOL     OW17176   3.294   3.947   2.980
 5499SOL    HW117177   3.324   3.870   3.028
 5499SOL    HW217178   3.242   3.996   3.043
 5500SOL     OW17179   2.870   3.745   3.008
 5500SOL    HW117180   2.815   3.676   2.970
 5500SOL    HW217181   2.958   3.708   3.010
 5501SOL     OW17182   3.214   3.778   2.025
 5501SOL    HW117183   3.239   3.719   1.954
 5501SOL    HW217184   3.128   3.746   2.053
 5502SOL     OW17185   3.161   4.177   2.545
 5502SOL    HW117186   3.118   4.261   2.559
 5502SOL    HW217187   3.162   4.135   2.631
 5503SOL     OW17188   3.449   3.930   2.738
 5503SOL    HW117189   3.385   3.948   2.807
 5503SOL    HW217190   3.450   4.009   2.684
 5504SOL     OW17191   2.087   4.292   3.847
 5504SOL    HW117192   2.026   4.356   3.883
 5504SOL    HW217193   2.078   4.299   3.752
 5505SOL     OW17194   2.086   4.000   4.713
 5505SOL    HW117195   2.114   3.970   4.800
 5505SOL    HW217196   1.996   3.969   4.706
 5506SOL     OW17197   1.868   4.101   4.368
 5506SOL    HW117198   1.785   4.129   4.405
 5506SOL    HW217199   1.847   4.025   4.314
 5507SOL     OW17200   3.598   4.335   3.960
 5507SOL    HW117201   3.597   4.320   3.865
 5507SOL    HW217202   3.595   4.247   3.998
 5508SOL     OW17203   2.586   0.263   4.403
 5508SOL    HW117204   2.587   0.211   4.483
 5508SOL    HW217205   2.494   0.287   4.391
 5509SOL     OW17206   2.308   4.119   5.212
 5509SOL    HW117207   2.385   4.063   5.220
 5509SOL    HW217208   2.234   4.060   5.227
 5510SOL     OW17209   3.477   4.174   4.462
 5510SOL    HW117210   3.404   4.201   4.407
 5510SOL    HW217211   3.488   4.245   4.525
 5511SOL     OW17212   3.459   3.844   5.194
 5511SOL    HW117213   3.454   3.923   5.140
 5511SOL    HW217214   3.447   3.876   5.284
 5512SOL     OW17215   1.946   4.368   4.289
 5512SOL    HW117216   1.936   4.276   4.314
 5512SOL    HW217217   1.999   4.406   4.359
 5513SOL     OW17218   1.982   4.472   5.308
 5513SOL    HW117219   2.053   4.485   5.371
 5513SOL    HW217220   1.949   0.060   5.290
 5514SOL     OW17221   2.673   3.722   4.228
 5514SOL    HW117222   2.714   3.808   4.214
 5514SOL    HW217223   2.580   3.742   4.240
 5515SOL     OW17224   2.192   3.976   5.528
 5515SOL    HW117225   2.237   4.058   5.546
 5515SOL    HW217226   2.103   3.989   5.562
 5516SOL     OW17227   3.140   4.069   4.656
 5516SOL    HW117228   3.051   4.036   4.665
 5516SOL    HW217229   3.192   4.019   4.719
 5517SOL     OW17230   2.684   4.309   5.176
 5517SOL    HW117231   2.642   4.316   5.262
 5517SOL    HW217232   2.619   4.268   5.120
 5518SOL     OW17233   3.258   4.199   5.401
 5518SOL    HW117234   3.257   4.242   5.486
 5518SOL    HW217235   3.318   4.126   5.411
 5519SOL     OW17236   2.857   4.146   4.959
 5519SOL    HW117237   2.783   4.167   5.016
 5519SOL    HW217238   2.820   4.088   4.892
 5520SOL     OW17239   2.919   4.409   4.145
 5520SOL    HW117240   2.920   4.443   4.235
 5520SOL    HW217241   2.830   4.376   4.134
 5521SOL     OW17242   2.746   4.063   3.914
 5521SOL    HW117243   2.791   4.126   3.858
 5521SOL    HW217244   2.769   3.977   3.878
 5522SOL     OW17245   3.568   4.298   5.552
 5522SOL    HW117246   3.575   4.388   5.519
 5522SOL    HW217247   3.591   4.243   5.477
 5523SOL     OW17248   2.411   3.908   4.615
 5523SOL    HW117249   2.413   3.933   4.707
 5523SOL    HW217250   2.412   3.991   4.567
 5524SOL     OW17251   3.349   4.460   4.459
 5524SOL    HW117252   3.328   4.407   4.536
 5524SOL    HW217253   3.390   0.039   4.495
 5525SOL     OW17254   2.060   4.006   5.225
 5525SOL    HW117255   1.977   4.053   5.217
 5525SOL    HW217256   2.046   3.945   5.297
 5526SOL     OW17257   3.263   3.831   4.154
 5526SOL    HW117258   3.252   3.806   4.062
 5526SOL    HW217259   3.357   3.841   4.165
 5527SOL     OW17260   2.218   4.383   4.135
 5527SOL    HW117261   2.259   4.311   4.183
 5527SOL    HW217262   2.149   4.414   4.194
 5528SOL     OW17263   3.400   3.950   5.449
 5528SOL    HW117264   3.408   3.972   5.542
 5528SOL    HW217265   3.333   3.882   5.446
 5529SOL     OW17266   2.489   3.848   3.832
 5529SOL    HW117267   2.567   3.793   3.840
 5529SOL    HW217268   2.445   3.816   3.754
 5530SOL     OW17269   2.630   4.000   5.476
 5530SOL    HW117270   2.703   3.938   5.484
 5530SOL    HW217271   2.578   3.987   5.555
 5531SOL     OW17272   3.208   4.311   5.152
 5531SOL    HW117273   3.230   4.274   5.238
 5531SOL    HW217274   3.243   4.400   5.154
 5532SOL     OW17275   2.783   4.236   4.623
 5532SOL    HW117276   2.762   4.220   4.532
 5532SOL    HW217277   2.824   4.155   4.654
 5533SOL     OW17278   2.409   3.787   4.229
 5533SOL    HW117279   2.329   3.788   4.281
 5533SOL    HW217280   2.405   3.866   4.175
 5534SOL     OW17281   2.155   3.770   3.908
 5534SOL    HW117282   2.212   3.837   3.870
 5534SOL    HW217283   2.214   3.706   3.947
 5535SOL     OW17284   2.797   3.968   4.189
 5535SOL    HW117285   2.769   4.009   4.108
 5535SOL    HW217286   2.892   3.979   4.189
 5536SOL     OW17287   2.940   4.395   5.235
 5536SOL    HW117288   2.856   4.364   5.202
 5536SOL    HW217289   3.005   4.351   5.179
 5537SOL     OW17290   2.887   4.270   3.747
 5537SOL    HW117291   2.867   4.357   3.714
 5537SOL    HW217292   2.950   4.285   3.817
 5538SOL     OW17293   1.936   4.280   5.115
 5538SOL    HW117294   2.027   4.272   5.087
 5538SOL    HW217295   1.936   4.353   5.177
 5539SOL     OW17296   2.423   3.949   4.885
 5539SOL    HW117297   2.462   3.872   4.926
 5539SOL    HW217298   2.333   3.949   4.917
 5540SOL     OW17299   2.732   4.188   4.362
 5540SOL    HW117300   2.695   4.246   4.296
 5540SOL    HW217301   2.749   4.107   4.315
 5541SOL     OW17302   2.876   3.777   4.477
 5541SOL    HW117303   2.817   3.768   4.402
 5541SOL    HW217304   2.856   3.701   4.532
 5542SOL     OW17305   3.339   4.312   4.694
 5542SOL    HW117306   3.285   4.236   4.715
 5542SOL    HW217307   3.391   4.327   4.773
 5543SOL     OW17308   3.262   4.296   3.796
 5543SOL    HW117309   3.201   4.270   3.866
 5543SOL    HW217310   3.345   4.256   3.822
 5544SOL     OW17311   2.386   3.987   4.045
 5544SOL    HW117312   2.426   3.936   3.974
 5544SOL    HW217313   2.372   4.074   4.008
 5545SOL     OW17314   2.780   3.823   5.123
 5545SOL    HW117315   2.803   3.802   5.032
 5545SOL    HW217316   2.859   3.862   5.160
 5546SOL     OW17317   2.294   0.008   4.990
 5546SOL    HW117318   2.360   0.009   5.059
 5546SOL    HW217319   2.252   4.422   4.998
 5547SOL     OW17320   3.129   4.101   4.996
 5547SOL    HW117321   3.162   4.178   5.041
 5547SOL    HW217322   3.040   4.125   4.970
 5548SOL     OW17323   2.417   4.257   4.589
 5548SOL    HW117324   2.437   4.305   4.509
 5548SOL    HW217325   2.480   4.289   4.654
 5549SOL     OW17326   3.436   4.343   4.199
 5549SOL    HW117327   3.402   4.408   4.260
 5549SOL    HW217328   3.493   4.392   4.140
 5550SOL     OW17329   2.859   3.841   5.482
 5550SOL    HW117330   2.909   3.915   5.448
 5550SOL    HW217331   2.908   3.764   5.455
 5551SOL     OW17332   2.360   3.769   5.469
 5551SOL    HW117333   2.319   3.713   5.403
 5551SOL    HW217334   2.299   3.841   5.482
 5552SOL     OW17335   3.074   4.255   3.992
 5552SOL    HW117336   3.084   4.176   4.044
 5552SOL    HW217337   3.025   4.315   4.048
 5553SOL     OW17338   2.163   3.926   4.969
 5553SOL    HW117339   2.127   3.959   5.051
 5553SOL    HW217340   2.142   3.832   4.970
 5554SOL     OW17341   2.592   4.359   4.773
 5554SOL    HW117342   2.665   4.326   4.722
 5554SOL    HW217343   2.595   4.454   4.761
 5555SOL     OW17344   3.611   0.137   5.581
 5555SOL    HW117345   3.551   0.149   5.508
 5555SOL    HW217346   3.563   0.169   5.657
 5556SOL     OW17347   2.163   3.790   4.347
 5556SOL    HW117348   2.146   3.881   4.372
 5556SOL    HW217349   2.169   3.743   4.430
 5557SOL     OW17350   3.473   4.091   4.094
 5557SOL    HW117351   3.502   4.030   4.162
 5557SOL    HW217352   3.452   4.172   4.141
 5558SOL     OW17353   3.391   3.999   3.851
 5558SOL    HW117354   3.329   3.931   3.877
 5558SOL    HW217355   3.425   4.034   3.933
 5559SOL     OW17356   2.179   0.012   4.646
 5559SOL    HW117357   2.255   0.069   4.658
 5559SOL    HW217358   2.192   4.442   4.710
 5560SOL     OW17359   2.199   4.238   4.743
 5560SOL    HW117360   2.160   4.154   4.722
 5560SOL    HW217361   2.272   4.247   4.682
 5561SOL     OW17362   3.000   4.096   5.407
 5561SOL    HW117363   2.949   4.155   5.463
 5561SOL    HW217364   3.085   4.139   5.398
 5562SOL     OW17365   3.022   3.928   5.193
 5562SOL    HW117366   3.013   3.989   5.266
 5562SOL    HW217367   3.059   3.981   5.122
 5563SOL     OW17368   1.899   4.269   4.839
 5563SOL    HW117369   1.981   4.251   4.793
 5563SOL    HW217370   1.923   4.274   4.931
 5564SOL     OW17371   2.053   4.243   5.441
 5564SOL    HW117372   2.111   4.201   5.378
 5564SOL    HW217373   1.998   4.301   5.389
 5565SOL     OW17374   2.681   4.285   4.066
 5565SOL    HW117375   2.677   4.208   4.009
 5565SOL    HW217376   2.594   4.324   4.059
 5566SOL     OW17377   3.501   4.319   4.914
 5566SOL    HW117378   3.494   4.260   4.989
 5566SOL    HW217379   3.588   4.304   4.879
 5567SOL     OW17380   2.545   4.182   4.983
 5567SOL    HW117381   2.501   4.104   4.950
 5567SOL    HW217382   2.549   4.241   4.908
 5568SOL     OW17383   2.343   4.222   3.915
 5568SOL    HW117384   2.379   4.309   3.930
 5568SOL    HW217385   2.248   4.236   3.908
 5569SOL     OW17386   3.580   3.866   4.237
 5569SOL    HW117387   3.654   3.852   4.178
 5569SOL    HW217388   3.565   3.780   4.276
 5570SOL     OW17389   3.142   0.138   4.402
 5570SOL    HW117390   3.201   0.063   4.406
 5570SOL    HW217391   3.191   0.204   4.355
 5571SOL     OW17392   3.701   3.897   4.692
 5571SOL    HW117393   3.730   3.811   4.662
 5571SOL    HW217394   3.615   3.908   4.652
 5572SOL     OW17395   2.126   4.042   4.442
 5572SOL    HW117396   2.040   4.075   4.417
 5572SOL    HW217397   2.120   4.031   4.537
 5573SOL     OW17398   2.774   0.093   3.951
 5573SOL    HW117399   2.855   0.136   3.924
 5573SOL    HW217400   2.796   0.051   4.034
 5574SOL     OW17401   2.929   0.307   4.459
 5574SOL    HW117402   2.843   0.287   4.422
 5574SOL    HW217403   2.987   0.240   4.422
 5575SOL     OW17404   2.881   3.964   4.689
 5575SOL    HW117405   2.876   3.915   4.607
 5575SOL    HW217406   2.876   3.897   4.757
 5576SOL     OW17407   3.581   4.114   5.104
 5576SOL    HW117408   3.652   4.178   5.101
 5576SOL    HW217409   3.610   4.043   5.048
 5577SOL     OW17410   2.534   3.920   5.223
 5577SOL    HW117411   2.618   3.903   5.180
 5577SOL    HW217412   2.557   3.949   5.311
 5578SOL     OW17413   1.936   4.048   3.754
 5578SOL    HW117414   1.848   4.040   3.718
 5578SOL    HW217415   1.968   4.132   3.721
 5579SOL     OW17416   1.933   3.882   4.038
 5579SOL    HW117417   1.917   3.962   3.988
 5579SOL    HW217418   2.018   3.850   4.007
 5580SOL     OW17419   2.585   4.289   5.428
 5580SOL    HW117420   2.595   4.337   5.510
 5580SOL    HW217421   2.617   4.201   5.449
 5581SOL     OW17422   3.082   4.043   4.179
 5581SOL    HW117423   3.145   3.972   4.170
 5581SOL    HW217424   3.110   4.091   4.257
 5582SOL     OW17425   3.626   4.087   5.371
 5582SOL    HW117426   3.608   4.097   5.278
 5582SOL    HW217427   3.557   4.029   5.403
 5583SOL     OW17428   2.971   0.230   3.829
 5583SOL    HW117429   2.948   0.270   3.745
 5583SOL    HW217430   3.048   0.176   3.810
 5584SOL     OW17431   3.676   3.909   4.962
 5584SOL    HW117432   3.686   3.815   4.978
 5584SOL    HW217433   3.685   3.919   4.867
 5585SOL     OW17434   2.307   4.152   4.263
 5585SOL    HW117435   2.323   4.084   4.197
 5585SOL    HW217436   2.249   4.111   4.327
 5586SOL     OW17437   2.184   4.264   5.017
 5586SOL    HW117438   2.241   4.210   5.072
 5586SOL    HW217439   2.207   4.239   4.927
 5587SOL     OW17440   3.294   3.946   4.842
 5587SOL    HW117441   3.325   3.870   4.891
 5587SOL    HW217442   3.241   3.996   4.905
 5588SOL     OW17443   2.870   3.746   4.870
 5588SOL    HW117444   2.815   3.676   4.833
 5588SOL    HW217445   2.958   3.709   4.872
 5589SOL     OW17446   3.214   3.778   3.888
 5589SOL    HW117447   3.239   3.719   3.816
 5589SOL    HW217448   3.128   3.746   3.915
 5590SOL     OW17449   3.161   4.176   4.407
 5590SOL    HW117450   3.118   4.261   4.421
 5590SOL    HW217451   3.162   4.135   4.493
 5591SOL     OW17452   3.449   3.930   4.600
 5591SOL    HW117453   3.385   3.948   4.669
 5591SOL    HW217454   3.450   4.009   4.547
 5592SOL     OW17455   2.088   4.293   5.709
 5592SOL    HW117456   2.025   4.356   5.745
 5592SOL    HW217457   2.077   4.299   5.614
 5593SOL     OW17458   2.086   4.000   6.576
 5593SOL    HW117459   2.114   3.969   6.662
 5593SOL    HW217460   1.996   3.969   6.567
 5594SOL     OW17461   1.869   4.102   6.229
 5594SOL    HW117462   1.785   4.129   6.267
 5594SOL    HW217463   1.847   4.025   6.177
 5595SOL     OW17464   3.598   4.335   5.822
 5595SOL    HW117465   3.597   4.320   5.728
 5595SOL    HW217466   3.595   4.247   5.860
 5596SOL     OW17467   2.586   0.265   6.267
 5596SOL    HW117468   2.587   0.209   6.344
 5596SOL    HW217469   2.494   0.285   6.252
 5597SOL     OW17470   2.308   4.119   7.074
 5597SOL    HW117471   2.385   4.062   7.081
 5597SOL    HW217472   2.234   4.061   7.089
 5598SOL     OW17473   3.477   4.174   6.324
 5598SOL    HW117474   3.404   4.201   6.269
 5598SOL    HW217475   3.488   4.245   6.387
 5599SOL     OW17476   3.458   3.844   7.056
 5599SOL    HW117477   3.454   3.923   7.002
 5599SOL    HW217478   3.447   3.876   7.146
 5600SOL     OW17479   1.946   4.368   6.151
 5600SOL    HW117480   1.935   4.276   6.175
 5600SOL    HW217481   1.999   4.405   6.221
 5601SOL     OW17482   1.982   4.472   7.170
 5601SOL    HW117483   2.053   4.485   7.233
 5601SOL    HW217484   1.949   0.060   7.153
 5602SOL     OW17485   2.673   3.723   6.092
 5602SOL    HW117486   2.714   3.808   6.077
 5602SOL    HW217487   2.580   3.742   6.103
 5603SOL     OW17488   2.192   3.976   7.390
 5603SOL    HW117489   2.237   4.059   7.408
 5603SOL    HW217490   2.103   3.989   7.424
 5604SOL     OW17491   3.140   4.069   6.518
 5604SOL    HW117492   3.051   4.035   6.527
 5604SOL    HW217493   3.192   4.019   6.581
 5605SOL     OW17494   2.684   4.310   7.038
 5605SOL    HW117495   2.642   4.316   7.124
 5605SOL    HW217496   2.619   4.268   6.982
 5606SOL     OW17497   3.258   4.199   7.263
 5606SOL    HW117498   3.257   4.242   7.348
 5606SOL    HW217499   3.318   4.126   7.273
 5607SOL     OW17500   2.857   4.146   6.821
 5607SOL    HW117501   2.783   4.167   6.878
 5607SOL    HW217502   2.821   4.088   6.754
 5608SOL     OW17503   2.918   4.409   6.007
 5608SOL    HW117504   2.920   4.443   6.097
 5608SOL    HW217505   2.830   4.375   5.996
 5609SOL     OW17506   2.746   4.063   5.777
 5609SOL    HW117507   2.792   4.125   5.720
 5609SOL    HW217508   2.768   3.977   5.740
 5610SOL     OW17509   3.568   4.298   7.414
 5610SOL    HW117510   3.576   4.387   7.381
 5610SOL    HW217511   3.591   4.243   7.339
 5611SOL     OW17512   2.412   3.908   6.477
 5611SOL    HW117513   2.413   3.934   6.569
 5611SOL    HW217514   2.411   3.991   6.429
 5612SOL     OW17515   3.349   4.460   6.321
 5612SOL    HW117516   3.328   4.407   6.398
 5612SOL    HW217517   3.391   0.039   6.357
 5613SOL     OW17518   2.060   4.007   7.087
 5613SOL    HW117519   1.976   4.052   7.079
 5613SOL    HW217520   2.046   3.944   7.158
 5614SOL     OW17521   3.263   3.831   6.015
 5614SOL    HW117522   3.252   3.806   5.924
 5614SOL    HW217523   3.357   3.840   6.027
 5615SOL     OW17524   2.219   4.384   5.998
 5615SOL    HW117525   2.259   4.310   6.045
 5615SOL    HW217526   2.149   4.413   6.056
 5616SOL     OW17527   3.400   3.951   7.311
 5616SOL    HW117528   3.408   3.972   7.404
 5616SOL    HW217529   3.333   3.883   7.308
 5617SOL     OW17530   2.490   3.849   5.693
 5617SOL    HW117531   2.567   3.792   5.703
 5617SOL    HW217532   2.445   3.816   5.615
 5618SOL     OW17533   2.631   4.000   7.338
 5618SOL    HW117534   2.703   3.938   7.346
 5618SOL    HW217535   2.578   3.986   7.417
 5619SOL     OW17536   3.208   4.311   7.014
 5619SOL    HW117537   3.230   4.274   7.100
 5619SOL    HW217538   3.243   4.400   7.016
 5620SOL     OW17539   2.784   4.236   6.485
 5620SOL    HW117540   2.762   4.220   6.394
 5620SOL    HW217541   2.823   4.155   6.516
 5621SOL     OW17542   2.410   3.787   6.091
 5621SOL    HW117543   2.329   3.788   6.143
 5621SOL    HW217544   2.404   3.866   6.037
 5622SOL     OW17545   2.155   3.770   5.769
 5622SOL    HW117546   2.213   3.836   5.733
 5622SOL    HW217547   2.213   3.706   5.809
 5623SOL     OW17548   2.797   3.968   6.051
 5623SOL    HW117549   2.769   4.009   5.969
 5623SOL    HW217550   2.892   3.979   6.051
 5624SOL     OW17551   2.940   4.395   7.096
 5624SOL    HW117552   2.856   4.364   7.063
 5624SOL    HW217553   3.005   4.351   7.041
 5625SOL     OW17554   2.887   4.270   5.609
 5625SOL    HW117555   2.867   4.357   5.575
 5625SOL    HW217556   2.950   4.285   5.679
 5626SOL     OW17557   1.936   4.280   6.977
 5626SOL    HW117558   2.027   4.272   6.949
 5626SOL    HW217559   1.936   4.353   7.039
 5627SOL     OW17560   2.423   3.950   6.748
 5627SOL    HW117561   2.462   3.871   6.786
 5627SOL    HW217562   2.332   3.949   6.779
 5628SOL     OW17563   2.733   4.188   6.224
 5628SOL    HW117564   2.694   4.246   6.158
 5628SOL    HW217565   2.750   4.107   6.177
 5629SOL     OW17566   2.876   3.777   6.340
 5629SOL    HW117567   2.817   3.768   6.265
 5629SOL    HW217568   2.856   3.701   6.395
 5630SOL     OW17569   3.339   4.313   6.557
 5630SOL    HW117570   3.285   4.236   6.577
 5630SOL    HW217571   3.391   4.327   6.635
 5631SOL     OW17572   3.262   4.296   5.658
 5631SOL    HW117573   3.201   4.270   5.728
 5631SOL    HW217574   3.345   4.255   5.684
 5632SOL     OW17575   2.386   3.987   5.907
 5632SOL    HW117576   2.426   3.936   5.836
 5632SOL    HW217577   2.372   4.074   5.870
 5633SOL     OW17578   2.780   3.822   6.985
 5633SOL    HW117579   2.803   3.802   6.894
 5633SOL    HW217580   2.859   3.861   7.022
 5634SOL     OW17581   2.294   0.008   6.851
 5634SOL    HW117582   2.360   0.009   6.921
 5634SOL    HW217583   2.252   4.422   6.859
 5635SOL     OW17584   3.129   4.101   6.858
 5635SOL    HW117585   3.162   4.178   6.904
 5635SOL    HW217586   3.040   4.125   6.832
 5636SOL     OW17587   2.417   4.257   6.451
 5636SOL    HW117588   2.438   4.305   6.371
 5636SOL    HW217589   2.480   4.289   6.516
 5637SOL     OW17590   3.435   4.343   6.060
 5637SOL    HW117591   3.402   4.408   6.122
 5637SOL    HW217592   3.493   4.392   6.002
 5638SOL     OW17593   2.859   3.841   7.344
 5638SOL    HW117594   2.909   3.915   7.310
 5638SOL    HW217595   2.909   3.764   7.316
 5639SOL     OW17596   2.361   3.768   7.332
 5639SOL    HW117597   2.320   3.713   7.265
 5639SOL    HW217598   2.299   3.840   7.344
 5640SOL     OW17599   3.074   4.256   5.854
 5640SOL    HW117600   3.084   4.176   5.905
 5640SOL    HW217601   3.025   4.315   5.910
 5641SOL     OW17602   2.163   3.925   6.831
 5641SOL    HW117603   2.127   3.958   6.913
 5641SOL    HW217604   2.143   3.832   6.831
 5642SOL     OW17605   2.592   4.360   6.635
 5642SOL    HW117606   2.665   4.326   6.584
 5642SOL    HW217607   2.595   4.454   6.622
 5643SOL     OW17608   3.611   0.137   7.443
 5643SOL    HW117609   3.550   0.148   7.370
 5643SOL    HW217610   3.563   0.169   7.519
 5644SOL     OW17611   2.164   3.791   6.208
 5644SOL    HW117612   2.146   3.881   6.234
 5644SOL    HW217613   2.169   3.743   6.291
 5645SOL     OW17614   3.473   4.091   5.956
 5645SOL    HW117615   3.502   4.030   6.024
 5645SOL    HW217616   3.452   4.171   6.004
 5646SOL     OW17617   3.391   3.999   5.713
 5646SOL    HW117618   3.329   3.931   5.739
 5646SOL    HW217619   3.425   4.034   5.795
 5647SOL     OW17620   2.179   0.012   6.509
 5647SOL    HW117621   2.256   0.068   6.520
 5647SOL    HW217622   2.191   4.441   6.572
 5648SOL     OW17623   2.199   4.239   6.605
 5648SOL    HW117624   2.160   4.154   6.585
 5648SOL    HW217625   2.272   4.247   6.543
 5649SOL     OW17626   3.000   4.097   7.269
 5649SOL    HW117627   2.949   4.155   7.325
 5649SOL    HW217628   3.085   4.139   7.260
 5650SOL     OW17629   3.022   3.928   7.055
 5650SOL    HW117630   3.013   3.989   7.128
 5650SOL    HW217631   3.060   3.981   6.984
 5651SOL     OW17632   1.899   4.270   6.701
 5651SOL    HW117633   1.980   4.250   6.655
 5651SOL    HW217634   1.923   4.274   6.793
 5652SOL     OW17635   2.053   4.243   7.303
 5652SOL    HW117636   2.111   4.200   7.240
 5652SOL    HW217637   1.998   4.301   7.251
 5653SOL     OW17638   2.681   4.286   5.927
 5653SOL    HW117639   2.678   4.209   5.871
 5653SOL    HW217640   2.593   4.323   5.921
 5654SOL     OW17641   3.501   4.319   6.776
 5654SOL    HW117642   3.494   4.260   6.851
 5654SOL    HW217643   3.588   4.304   6.741
 5655SOL     OW17644   2.546   4.182   6.845
 5655SOL    HW117645   2.501   4.104   6.812
 5655SOL    HW217646   2.549   4.241   6.770
 5656SOL     OW17647   2.343   4.222   5.777
 5656SOL    HW117648   2.379   4.309   5.792
 5656SOL    HW217649   2.249   4.236   5.770
 5657SOL     OW17650   3.580   3.866   6.099
 5657SOL    HW117651   3.654   3.852   6.040
 5657SOL    HW217652   3.565   3.780   6.138
 5658SOL     OW17653   3.142   0.138   6.265
 5658SOL    HW117654   3.200   0.063   6.270
 5658SOL    HW217655   3.191   0.203   6.215
 5659SOL     OW17656   3.701   3.897   6.554
 5659SOL    HW117657   3.730   3.811   6.524
 5659SOL    HW217658   3.615   3.908   6.514
 5660SOL     OW17659   2.126   4.043   6.305
 5660SOL    HW117660   2.039   4.075   6.279
 5660SOL    HW217661   2.120   4.031   6.399
 5661SOL     OW17662   2.774   0.093   5.813
 5661SOL    HW117663   2.855   0.136   5.786
 5661SOL    HW217664   2.797   0.050   5.896
 5662SOL     OW17665   2.929   0.307   6.321
 5662SOL    HW117666   2.843   0.286   6.284
 5662SOL    HW217667   2.988   0.241   6.284
 5663SOL     OW17668   2.881   3.964   6.551
 5663SOL    HW117669   2.876   3.915   6.469
 5663SOL    HW217670   2.876   3.897   6.619
 5664SOL     OW17671   3.581   4.114   6.967
 5664SOL    HW117672   3.652   4.178   6.963
 5664SOL    HW217673   3.610   4.043   6.910
 5665SOL     OW17674   2.534   3.919   7.085
 5665SOL    HW117675   2.618   3.902   7.042
 5665SOL    HW217676   2.558   3.949   7.173
 5666SOL     OW17677   1.936   4.049   5.616
 5666SOL    HW117678   1.848   4.039   5.581
 5666SOL    HW217679   1.968   4.132   5.582
 5667SOL     OW17680   1.933   3.882   5.900
 5667SOL    HW117681   1.917   3.962   5.850
 5667SOL    HW217682   2.018   3.850   5.869
 5668SOL     OW17683   2.586   4.289   7.290
 5668SOL    HW117684   2.595   4.337   7.373
 5668SOL    HW217685   2.617   4.200   7.311
 5669SOL     OW17686   3.082   4.043   6.041
 5669SOL    HW117687   3.145   3.972   6.031
 5669SOL    HW217688   3.110   4.090   6.119
 5670SOL     OW17689   3.626   4.087   7.233
 5670SOL    HW117690   3.608   4.097   7.140
 5670SOL    HW217691   3.557   4.029   7.265
 5671SOL     OW17692   2.971   0.230   5.691
 5671SOL    HW117693   2.948   0.270   5.607
 5671SOL    HW217694   3.048   0.176   5.672
 5672SOL     OW17695   3.676   3.909   6.824
 5672SOL    HW117696   3.686   3.815   6.840
 5672SOL    HW217697   3.685   3.919   6.729
 5673SOL     OW17698   2.307   4.152   6.124
 5673SOL    HW117699   2.323   4.084   6.059
 5673SOL    HW217700   2.249   4.111   6.189
 5674SOL     OW17701   2.185   4.265   6.879
 5674SOL    HW117702   2.241   4.210   6.934
 5674SOL    HW217703   2.206   4.239   6.789
 5675SOL     OW17704   3.294   3.947   6.704
 5675SOL    HW117705   3.324   3.870   6.752
 5675SOL    HW217706   3.242   3.996   6.767
 5676SOL     OW17707   2.870   3.745   6.732
 5676SOL    HW117708   2.815   3.676   6.695
 5676SOL    HW217709   2.958   3.708   6.734
 5677SOL     OW17710   3.214   3.777   5.749
 5677SOL    HW117711   3.240   3.718   5.679
 5677SOL    HW217712   3.128   3.746   5.776
 5678SOL     OW17713   3.161   4.177   6.269
 5678SOL    HW117714   3.118   4.261   6.283
 5678SOL    HW217715   3.162   4.135   6.355
 5679SOL     OW17716   3.449   3.930   6.462
 5679SOL    HW117717   3.385   3.948   6.531
 5679SOL    HW217718   3.450   4.009   6.408
 5680SOL     OW17719   2.088   4.293   7.571
 5680SOL    HW117720   2.025   4.355   7.607
 5680SOL    HW217721   2.077   4.299   7.476
 5681SOL     OW17722   2.086   4.000   8.438
 5681SOL    HW117723   2.114   3.969   8.524
 5681SOL    HW217724   1.996   3.969   8.429
 5682SOL     OW17725   1.868   4.102   8.091
 5682SOL    HW117726   1.785   4.129   8.129
 5682SOL    HW217727   1.847   4.025   8.038
 5683SOL     OW17728   3.598   4.335   7.684
 5683SOL    HW117729   3.596   4.320   7.589
 5683SOL    HW217730   3.595   4.247   7.722
 5684SOL     OW17731   2.586   0.265   8.129
 5684SOL    HW117732   2.587   0.209   8.206
 5684SOL    HW217733   2.494   0.284   8.114
 5685SOL     OW17734   2.308   4.119   8.936
 5685SOL    HW117735   2.385   4.062   8.943
 5685SOL    HW217736   2.233   4.060   8.951
 5686SOL     OW17737   3.477   4.174   8.186
 5686SOL    HW117738   3.404   4.201   8.131
 5686SOL    HW217739   3.488   4.245   8.249
 5687SOL     OW17740   3.458   3.844   8.918
 5687SOL    HW117741   3.454   3.923   8.864
 5687SOL    HW217742   3.447   3.876   9.008
 5688SOL     OW17743   1.947   4.368   8.012
 5688SOL    HW117744   1.935   4.276   8.037
 5688SOL    HW217745   1.999   4.405   8.083
 5689SOL     OW17746   1.982   4.472   9.032
 5689SOL    HW117747   2.053   4.485   9.095
 5689SOL    HW217748   1.949   0.060   9.015
 5690SOL     OW17749   2.673   3.723   7.953
 5690SOL    HW117750   2.714   3.808   7.939
 5690SOL    HW217751   2.580   3.742   7.964
 5691SOL     OW17752   2.192   3.976   9.252
 5691SOL    HW117753   2.237   4.058   9.270
 5691SOL    HW217754   2.103   3.989   9.286
 5692SOL     OW17755   3.140   4.069   8.380
 5692SOL    HW117756   3.051   4.035   8.389
 5692SOL    HW217757   3.192   4.019   8.443
 5693SOL     OW17758   2.684   4.310   8.900
 5693SOL    HW117759   2.642   4.316   8.986
 5693SOL    HW217760   2.619   4.268   8.844
 5694SOL     OW17761   3.258   4.199   9.125
 5694SOL    HW117762   3.257   4.242   9.210
 5694SOL    HW217763   3.318   4.126   9.135
 5695SOL     OW17764   2.857   4.146   8.683
 5695SOL    HW117765   2.783   4.167   8.740
 5695SOL    HW217766   2.821   4.088   8.616
 5696SOL     OW17767   2.918   4.410   7.869
 5696SOL    HW117768   2.920   4.442   7.959
 5696SOL    HW217769   2.830   4.375   7.857
 5697SOL     OW17770   2.746   4.063   7.639
 5697SOL    HW117771   2.792   4.125   7.582
 5697SOL    HW217772   2.767   3.977   7.602
 5698SOL     OW17773   3.568   4.298   9.276
 5698SOL    HW117774   3.576   4.387   9.243
 5698SOL    HW217775   3.591   4.243   9.201
 5699SOL     OW17776   2.412   3.908   8.339
 5699SOL    HW117777   2.413   3.934   8.431
 5699SOL    HW217778   2.411   3.991   8.291
 5700SOL     OW17779   3.349   4.461   8.183
 5700SOL    HW117780   3.328   4.407   8.260
 5700SOL    HW217781   3.391   0.039   8.219
 5701SOL     OW17782   2.060   4.006   8.949
 5701SOL    HW117783   1.977   4.053   8.941
 5701SOL    HW217784   2.046   3.945   9.021
 5702SOL     OW17785   3.263   3.831   7.878
 5702SOL    HW117786   3.252   3.806   7.786
 5702SOL    HW217787   3.357   3.840   7.889
 5703SOL     OW17788   2.219   4.384   7.860
 5703SOL    HW117789   2.259   4.310   7.907
 5703SOL    HW217790   2.149   4.413   7.918
 5704SOL     OW17791   3.400   3.951   9.173
 5704SOL    HW117792   3.408   3.972   9.266
 5704SOL    HW217793   3.333   3.883   9.170
 5705SOL     OW17794   2.490   3.849   7.555
 5705SOL    HW117795   2.566   3.792   7.565
 5705SOL    HW217796   2.445   3.816   7.478
 5706SOL     OW17797   2.631   4.000   9.200
 5706SOL    HW117798   2.703   3.938   9.208
 5706SOL    HW217799   2.578   3.987   9.279
 5707SOL     OW17800   3.208   4.311   8.876
 5707SOL    HW117801   3.230   4.274   8.962
 5707SOL    HW217802   3.243   4.400   8.878
 5708SOL     OW17803   2.784   4.236   8.347
 5708SOL    HW117804   2.762   4.220   8.256
 5708SOL    HW217805   2.823   4.155   8.378
 5709SOL     OW17806   2.410   3.787   7.953
 5709SOL    HW117807   2.329   3.788   8.005
 5709SOL    HW217808   2.404   3.866   7.899
 5710SOL     OW17809   2.155   3.770   7.632
 5710SOL    HW117810   2.213   3.836   7.594
 5710SOL    HW217811   2.213   3.706   7.672
 5711SOL     OW17812   2.797   3.969   7.913
 5711SOL    HW117813   2.769   4.009   7.831
 5711SOL    HW217814   2.892   3.979   7.913
 5712SOL     OW17815   2.940   4.395   8.958
 5712SOL    HW117816   2.856   4.364   8.925
 5712SOL    HW217817   3.005   4.351   8.903
 5713SOL     OW17818   2.887   4.270   7.471
 5713SOL    HW117819   2.867   4.357   7.438
 5713SOL    HW217820   2.950   4.285   7.541
 5714SOL     OW17821   1.936   4.280   8.839
 5714SOL    HW117822   2.027   4.272   8.811
 5714SOL    HW217823   1.936   4.352   8.901
 5715SOL     OW17824   2.423   3.950   8.610
 5715SOL    HW117825   2.462   3.871   8.648
 5715SOL    HW217826   2.333   3.949   8.641
 5716SOL     OW17827   2.733   4.189   8.086
 5716SOL    HW117828   2.694   4.246   8.020
 5716SOL    HW217829   2.750   4.107   8.039
 5717SOL     OW17830   2.875   3.777   8.202
 5717SOL    HW117831   2.817   3.767   8.126
 5717SOL    HW217832   2.856   3.700   8.257
 5718SOL     OW17833   3.339   4.313   8.419
 5718SOL    HW117834   3.285   4.236   8.439
 5718SOL    HW217835   3.391   4.327   8.497
 5719SOL     OW17836   3.262   4.296   7.520
 5719SOL    HW117837   3.201   4.270   7.590
 5719SOL    HW217838   3.345   4.255   7.546
 5720SOL     OW17839   2.386   3.987   7.769
 5720SOL    HW117840   2.426   3.936   7.698
 5720SOL    HW217841   2.372   4.074   7.731
 5721SOL     OW17842   2.780   3.822   8.847
 5721SOL    HW117843   2.803   3.802   8.756
 5721SOL    HW217844   2.859   3.861   8.884
 5722SOL     OW17845   2.294   0.008   8.713
 5722SOL    HW117846   2.360   0.009   8.783
 5722SOL    HW217847   2.252   4.422   8.721
 5723SOL     OW17848   3.129   4.101   8.720
 5723SOL    HW117849   3.162   4.178   8.766
 5723SOL    HW217850   3.040   4.125   8.694
 5724SOL     OW17851   2.417   4.257   8.313
 5724SOL    HW117852   2.438   4.305   8.233
 5724SOL    HW217853   2.480   4.289   8.378
 5725SOL     OW17854   3.435   4.343   7.922
 5725SOL    HW117855   3.402   4.408   7.984
 5725SOL    HW217856   3.493   4.392   7.864
 5726SOL     OW17857   2.859   3.840   9.206
 5726SOL    HW117858   2.909   3.915   9.172
 5726SOL    HW217859   2.909   3.764   9.178
 5727SOL     OW17860   2.361   3.768   9.194
 5727SOL    HW117861   2.320   3.713   9.127
 5727SOL    HW217862   2.299   3.840   9.206
 5728SOL     OW17863   3.074   4.256   7.716
 5728SOL    HW117864   3.084   4.176   7.767
 5728SOL    HW217865   3.025   4.315   7.772
 5729SOL     OW17866   2.163   3.925   8.693
 5729SOL    HW117867   2.127   3.958   8.775
 5729SOL    HW217868   2.143   3.831   8.693
 5730SOL     OW17869   2.592   4.360   8.497
 5730SOL    HW117870   2.665   4.326   8.446
 5730SOL    HW217871   2.595   4.454   8.484
 5731SOL     OW17872   3.611   0.137   9.305
 5731SOL    HW117873   3.551   0.148   9.232
 5731SOL    HW217874   3.563   0.169   9.381
 5732SOL     OW17875   2.164   3.791   8.071
 5732SOL    HW117876   2.146   3.881   8.096
 5732SOL    HW217877   2.169   3.743   8.153
 5733SOL     OW17878   3.473   4.091   7.818
 5733SOL    HW117879   3.502   4.030   7.886
 5733SOL    HW217880   3.452   4.171   7.865
 5734SOL     OW17881   3.391   3.999   7.575
 5734SOL    HW117882   3.329   3.931   7.601
 5734SOL    HW217883   3.425   4.034   7.657
 5735SOL     OW17884   2.179   0.012   8.371
 5735SOL    HW117885   2.256   0.068   8.382
 5735SOL    HW217886   2.192   4.441   8.434
 5736SOL     OW17887   2.199   4.239   8.467
 5736SOL    HW117888   2.160   4.154   8.447
 5736SOL    HW217889   2.272   4.247   8.405
 5737SOL     OW17890   3.000   4.097   9.131
 5737SOL    HW117891   2.949   4.155   9.187
 5737SOL    HW217892   3.085   4.139   9.122
 5738SOL     OW17893   3.022   3.928   8.917
 5738SOL    HW117894   3.013   3.989   8.990
 5738SOL    HW217895   3.059   3.981   8.846
 5739SOL     OW17896   1.899   4.270   8.563
 5739SOL    HW117897   1.980   4.250   8.517
 5739SOL    HW217898   1.924   4.274   8.655
 5740SOL     OW17899   2.053   4.243   9.165
 5740SOL    HW117900   2.111   4.201   9.101
 5740SOL    HW217901   1.998   4.301   9.113
 5741SOL     OW17902   2.681   4.286   7.789
 5741SOL    HW117903   2.678   4.209   7.733
 5741SOL    HW217904   2.593   4.323   7.783
 5742SOL     OW17905   3.501   4.319   8.638
 5742SOL    HW117906   3.494   4.260   8.713
 5742SOL    HW217907   3.588   4.304   8.603
 5743SOL     OW17908   2.546   4.182   8.707
 5743SOL    HW117909   2.501   4.104   8.674
 5743SOL    HW217910   2.549   4.241   8.632
 5744SOL     OW17911   2.343   4.222   7.639
 5744SOL    HW117912   2.379   4.309   7.655
 5744SOL    HW217913   2.249   4.236   7.631
 5745SOL     OW17914   3.580   3.866   7.961
 5745SOL    HW117915   3.654   3.852   7.902
 5745SOL    HW217916   3.565   3.780   8.000
 5746SOL     OW17917   3.142   0.138   8.127
 5746SOL    HW117918   3.200   0.063   8.132
 5746SOL    HW217919   3.191   0.203   8.077
 5747SOL     OW17920   3.701   3.897   8.416
 5747SOL    HW117921   3.730   3.811   8.386
 5747SOL    HW217922   3.615   3.908   8.376
 5748SOL     OW17923   2.126   4.043   8.167
 5748SOL    HW117924   2.040   4.075   8.141
 5748SOL    HW217925   2.120   4.031   8.261
 5749SOL     OW17926   2.774   0.093   7.675
 5749SOL    HW117927   2.855   0.136   7.648
 5749SOL    HW217928   2.797   0.050   7.758
 5750SOL     OW17929   2.929   0.307   8.183
 5750SOL    HW117930   2.844   0.286   8.146
 5750SOL    HW217931   2.988   0.240   8.146
 5751SOL     OW17932   2.881   3.964   8.413
 5751SOL    HW117933   2.875   3.915   8.331
 5751SOL    HW217934   2.876   3.897   8.481
 5752SOL     OW17935   3.581   4.114   8.829
 5752SOL    HW117936   3.652   4.178   8.825
 5752SOL    HW217937   3.610   4.043   8.772
 5753SOL     OW17938   2.534   3.919   8.947
 5753SOL    HW117939   2.618   3.903   8.904
 5753SOL    HW217940   2.558   3.949   9.034
 5754SOL     OW17941   1.937   4.049   7.478
 5754SOL    HW117942   1.848   4.039   7.443
 5754SOL    HW217943   1.967   4.132   7.443
 5755SOL     OW17944   1.933   3.882   7.762
 5755SOL    HW117945   1.918   3.962   7.712
 5755SOL    HW217946   2.018   3.850   7.731
 5756SOL     OW17947   2.586   4.289   9.152
 5756SOL    HW117948   2.595   4.337   9.235
 5756SOL    HW217949   2.617   4.201   9.173
 5757SOL     OW17950   3.082   4.043   7.903
 5757SOL    HW117951   3.145   3.972   7.893
 5757SOL    HW217952   3.110   4.091   7.981
 5758SOL     OW17953   3.626   4.087   9.095
 5758SOL    HW117954   3.608   4.097   9.002
 5758SOL    HW217955   3.557   4.029   9.127
 5759SOL     OW17956   2.971   0.231   7.553
 5759SOL    HW117957   2.947   0.269   7.468
 5759SOL    HW217958   3.048   0.176   7.534
 5760SOL     OW17959   3.676   3.909   8.686
 5760SOL    HW117960   3.686   3.815   8.702
 5760SOL    HW217961   3.685   3.919   8.591
 5761SOL     OW17962   2.307   4.152   7.986
 5761SOL    HW117963   2.323   4.084   7.921
 5761SOL    HW217964   2.249   4.111   8.051
 5762SOL     OW17965   2.185   4.265   8.741
 5762SOL    HW117966   2.241   4.210   8.796
 5762SOL    HW217967   2.206   4.239   8.651
 5763SOL     OW17968   3.294   3.947   8.566
 5763SOL    HW117969   3.324   3.870   8.614
 5763SOL    HW217970   3.242   3.996   8.629
 5764SOL     OW17971   2.870   3.745   8.594
 5764SOL    HW117972   2.815   3.676   8.556
 5764SOL    HW217973   2.958   3.708   8.596
 5765SOL     OW17974   3.214   3.778   7.611
 5765SOL    HW117975   3.239   3.719   7.540
 5765SOL    HW217976   3.128   3.746   7.639
 5766SOL     OW17977   3.161   4.177   8.131
 5766SOL    HW117978   3.118   4.261   8.145
 5766SOL    HW217979   3.162   4.135   8.217
 5767SOL     OW17980   3.449   3.930   8.324
 5767SOL    HW117981   3.385   3.948   8.393
 5767SOL    HW217982   3.450   4.009   8.270
 5768SOL     OW17983   2.088   4.293   9.433
 5768SOL    HW117984   2.025   4.356   9.469
 5768SOL    HW217985   2.077   4.299   9.338
 5769SOL     OW17986   2.086   4.000  10.300
 5769SOL    HW117987   2.114   3.970  10.386
 5769SOL    HW217988   1.996   3.969  10.291
 5770SOL     OW17989   1.868   4.102   9.953
 5770SOL    HW117990   1.785   4.129   9.991
 5770SOL    HW217991   1.847   4.025   9.901
 5771SOL     OW17992   3.598   4.335   9.546
 5771SOL    HW117993   3.596   4.320   9.452
 5771SOL    HW217994   3.595   4.247   9.584
 5772SOL     OW17995   2.586   0.265   9.991
 5772SOL    HW117996   2.586   0.209  10.068
 5772SOL    HW217997   2.494   0.284   9.976
 5773SOL     OW17998   2.313   4.120  10.795
 5773SOL    HW117999   2.383   4.055  10.802
 5773SOL    HW218000   2.233   4.071  10.816
 5774SOL     OW18001   3.477   4.174  10.048
 5774SOL    HW118002   3.404   4.201   9.993
 5774SOL    HW218003   3.488   4.245  10.110
 5775SOL     OW18004   3.452   3.839  10.780
 5775SOL    HW118005   3.457   3.919  10.727
 5775SOL    HW218006   3.450   3.871  10.871
 5776SOL     OW18007   1.947   4.368   9.875
 5776SOL    HW118008   1.935   4.276   9.899
 5776SOL    HW218009   1.999   4.405   9.945
 5777SOL     OW18010   1.988   4.458  10.908
 5777SOL    HW118011   2.083   4.464  10.914
 5777SOL    HW218012   1.959   0.048  10.892
 5778SOL     OW18013   2.673   3.723   9.815
 5778SOL    HW118014   2.714   3.808   9.800
 5778SOL    HW218015   2.580   3.742   9.826
 5779SOL     OW18016   2.201   3.979   0.014
 5779SOL    HW118017   2.246   4.062   0.032
 5779SOL    HW218018   2.109   3.997   0.034
 5780SOL     OW18019   3.140   4.070  10.242
 5780SOL    HW118020   3.051   4.035  10.251
 5780SOL    HW218021   3.192   4.018  10.305
 5781SOL     OW18022   2.684   4.305  10.767
 5781SOL    HW118023   2.636   4.318  10.849
 5781SOL    HW218024   2.620   4.266  10.708
 5782SOL     OW18025   2.857   4.145  10.546
 5782SOL    HW118026   2.780   4.167  10.600
 5782SOL    HW218027   2.822   4.089  10.477
 5783SOL     OW18028   2.918   4.409   9.731
 5783SOL    HW118029   2.920   4.442   9.821
 5783SOL    HW218030   2.830   4.375   9.719
 5784SOL     OW18031   2.746   4.063   9.501
 5784SOL    HW118032   2.792   4.125   9.444
 5784SOL    HW218033   2.767   3.977   9.464
 5785SOL     OW18034   2.412   3.908  10.201
 5785SOL    HW118035   2.413   3.934  10.294
 5785SOL    HW218036   2.411   3.991  10.153
 5786SOL     OW18037   3.349   4.460  10.045
 5786SOL    HW118038   3.328   4.407  10.122
 5786SOL    HW218039   3.391   0.039  10.081
 5787SOL     OW18040   2.062   4.005  10.806
 5787SOL    HW118041   1.982   4.058  10.805
 5787SOL    HW218042   2.053   3.948  10.882
 5788SOL     OW18043   3.263   3.831   9.740
 5788SOL    HW118044   3.252   3.806   9.648
 5788SOL    HW218045   3.357   3.840   9.751
 5789SOL     OW18046   2.219   4.384   9.722
 5789SOL    HW118047   2.259   4.310   9.769
 5789SOL    HW218048   2.149   4.413   9.780
 5790SOL     OW18049   2.490   3.849   9.417
 5790SOL    HW118050   2.567   3.792   9.427
 5790SOL    HW218051   2.445   3.816   9.340
 5791SOL     OW18052   2.631   3.997  11.045
 5791SOL    HW118053   2.697   3.940  11.085
 5791SOL    HW218054   2.571   4.017   0.017
 5792SOL     OW18055   3.214   4.308  10.744
 5792SOL    HW118056   3.238   4.285  10.834
 5792SOL    HW218057   3.237   4.400  10.735
 5793SOL     OW18058   2.784   4.236  10.209
 5793SOL    HW118059   2.762   4.220  10.118
 5793SOL    HW218060   2.823   4.154  10.239
 5794SOL     OW18061   2.410   3.787   9.815
 5794SOL    HW118062   2.329   3.788   9.867
 5794SOL    HW218063   2.404   3.866   9.761
 5795SOL     OW18064   2.155   3.770   9.493
 5795SOL    HW118065   2.213   3.837   9.457
 5795SOL    HW218066   2.214   3.706   9.534
 5796SOL     OW18067   2.797   3.969   9.775
 5796SOL    HW118068   2.769   4.009   9.693
 5796SOL    HW218069   2.892   3.979   9.775
 5797SOL     OW18070   2.942   4.390  10.810
 5797SOL    HW118071   2.856   4.362  10.779
 5797SOL    HW218072   3.004   4.343  10.754
 5798SOL     OW18073   2.887   4.270   9.333
 5798SOL    HW118074   2.867   4.357   9.300
 5798SOL    HW218075   2.950   4.285   9.403
 5799SOL     OW18076   1.934   4.282  10.703
 5799SOL    HW118077   2.025   4.274  10.675
 5799SOL    HW218078   1.936   4.342  10.777
 5800SOL     OW18079   2.423   3.950  10.472
 5800SOL    HW118080   2.461   3.870  10.510
 5800SOL    HW218081   2.332   3.950  10.503
 5801SOL     OW18082   2.733   4.189   9.948
 5801SOL    HW118083   2.694   4.246   9.882
 5801SOL    HW218084   2.750   4.107   9.901
 5802SOL     OW18085   2.875   3.777  10.064
 5802SOL    HW118086   2.817   3.768   9.989
 5802SOL    HW218087   2.856   3.700  10.119
 5803SOL     OW18088   3.338   4.313  10.280
 5803SOL    HW118089   3.285   4.236  10.300
 5803SOL    HW218090   3.391   4.326  10.359
 5804SOL     OW18091   3.262   4.296   9.382
 5804SOL    HW118092   3.201   4.270   9.452
 5804SOL    HW218093   3.345   4.256   9.408
 5805SOL     OW18094   2.386   3.987   9.631
 5805SOL    HW118095   2.426   3.936   9.560
 5805SOL    HW218096   2.372   4.074   9.593
 5806SOL     OW18097   2.780   3.822  10.710
 5806SOL    HW118098   2.803   3.802  10.619
 5806SOL    HW218099   2.859   3.863  10.746
 5807SOL     OW18100   2.296   0.006  10.570
 5807SOL    HW118101   2.355   0.011  10.644
 5807SOL    HW218102   2.250   4.423  10.582
 5808SOL     OW18103   3.129   4.101  10.584
 5808SOL    HW118104   3.163   4.178  10.628
 5808SOL    HW218105   3.041   4.126  10.556
 5809SOL     OW18106   2.418   4.256  10.175
 5809SOL    HW118107   2.437   4.306  10.095
 5809SOL    HW218108   2.480   4.289  10.240
 5810SOL     OW18109   3.435   4.343   9.784
 5810SOL    HW118110   3.403   4.408   9.846
 5810SOL    HW218111   3.493   4.392   9.726
 5811SOL     OW18112   2.265   4.464  10.907
 5811SOL    HW118113   2.331   0.029  10.884
 5811SOL    HW218114   2.315   4.384  10.922
 5812SOL     OW18115   3.074   4.256   9.578
 5812SOL    HW118116   3.084   4.176   9.629
 5812SOL    HW218117   3.025   4.315   9.634
 5813SOL     OW18118   2.163   3.925  10.554
 5813SOL    HW118119   2.129   3.959  10.637
 5813SOL    HW218120   2.142   3.832  10.556
 5814SOL     OW18121   2.592   4.360  10.359
 5814SOL    HW118122   2.665   4.326  10.307
 5814SOL    HW218123   2.594   4.455  10.345
 5815SOL     OW18124   2.164   3.791   9.932
 5815SOL    HW118125   2.146   3.881   9.958
 5815SOL    HW218126   2.168   3.743  10.015
 5816SOL     OW18127   3.473   4.091   9.680
 5816SOL    HW118128   3.502   4.030   9.748
 5816SOL    HW218129   3.452   4.171   9.727
 5817SOL     OW18130   3.391   3.999   9.437
 5817SOL    HW118131   3.329   3.931   9.463
 5817SOL    HW218132   3.425   4.034   9.519
 5818SOL     OW18133   2.180   0.012  10.232
 5818SOL    HW118134   2.256   0.068  10.245
 5818SOL    HW218135   2.191   4.442  10.296
 5819SOL     OW18136   2.199   4.238  10.328
 5819SOL    HW118137   2.160   4.154  10.308
 5819SOL    HW218138   2.272   4.246  10.267
 5820SOL     OW18139   3.019   3.933  10.781
 5820SOL    HW118140   3.026   3.993  10.856
 5820SOL    HW218141   3.058   3.982  10.708
 5821SOL     OW18142   1.899   4.271  10.425
 5821SOL    HW118143   1.981   4.250  10.381
 5821SOL    HW218144   1.923   4.275  10.518
 5822SOL     OW18145   3.220   0.180  10.989
 5822SOL    HW118146   3.274   0.259  10.997
 5822SOL    HW218147   3.228   0.155  10.897
 5823SOL     OW18148   2.681   4.286   9.651
 5823SOL    HW118149   2.678   4.209   9.595
 5823SOL    HW218150   2.593   4.323   9.645
 5824SOL     OW18151   3.501   4.319  10.499
 5824SOL    HW118152   3.495   4.260  10.574
 5824SOL    HW218153   3.588   4.305  10.464
 5825SOL     OW18154   2.550   4.181  10.569
 5825SOL    HW118155   2.502   4.104  10.538
 5825SOL    HW218156   2.549   4.241  10.494
 5826SOL     OW18157   2.343   4.222   9.501
 5826SOL    HW118158   2.379   4.309   9.517
 5826SOL    HW218159   2.249   4.236   9.493
 5827SOL     OW18160   3.580   3.866   9.823
 5827SOL    HW118161   3.654   3.852   9.764
 5827SOL    HW218162   3.565   3.780   9.862
 5828SOL     OW18163   3.142   0.139   9.989
 5828SOL    HW118164   3.200   0.063   9.994
 5828SOL    HW218165   3.192   0.203   9.938
 5829SOL     OW18166   3.701   3.897  10.279
 5829SOL    HW118167   3.731   3.811  10.248
 5829SOL    HW218168   3.615   3.908  10.238
 5830SOL     OW18169   2.126   4.043  10.028
 5830SOL    HW118170   2.040   4.075  10.003
 5830SOL    HW218171   2.120   4.031  10.123
 5831SOL     OW18172   2.774   0.093   9.537
 5831SOL    HW118173   2.855   0.136   9.510
 5831SOL    HW218174   2.797   0.050   9.620
 5832SOL     OW18175   2.929   0.307  10.045
 5832SOL    HW118176   2.843   0.287  10.008
 5832SOL    HW218177   2.988   0.240  10.008
 5833SOL     OW18178   2.881   3.964  10.275
 5833SOL    HW118179   2.875   3.915  10.193
 5833SOL    HW218180   2.876   3.896  10.343
 5834SOL     OW18181   3.578   4.116  10.689
 5834SOL    HW118182   3.649   4.180  10.688
 5834SOL    HW218183   3.608   4.045  10.633
 5835SOL     OW18184   2.534   3.918  10.805
 5835SOL    HW118185   2.616   3.900  10.759
 5835SOL    HW218186   2.561   3.952  10.890
 5836SOL     OW18187   1.937   4.049   9.340
 5836SOL    HW118188   1.848   4.039   9.305
 5836SOL    HW218189   1.968   4.132   9.306
 5837SOL     OW18190   1.933   3.882   9.624
 5837SOL    HW118191   1.917   3.962   9.574
 5837SOL    HW218192   2.018   3.850   9.593
 5838SOL     OW18193   2.579   4.298  11.025
 5838SOL    HW118194   2.615   4.344   0.001
 5838SOL    HW218195   2.623   4.212  11.027
 5839SOL     OW18196   3.082   4.043   9.765
 5839SOL    HW118197   3.145   3.972   9.755
 5839SOL    HW218198   3.110   4.090   9.843
 5840SOL     OW18199   3.618   4.052  10.951
 5840SOL    HW118200   3.597   4.082  10.863
 5840SOL    HW218201   3.535   4.052  10.997
 5841SOL     OW18202   2.971   0.230   9.415
 5841SOL    HW118203   2.947   0.269   9.331
 5841SOL    HW218204   3.048   0.176   9.396
 5842SOL     OW18205   3.674   3.909  10.549
 5842SOL    HW118206   3.685   3.815  10.564
 5842SOL    HW218207   3.684   3.919  10.454
 5843SOL     OW18208   2.307   4.152   9.848
 5843SOL    HW118209   2.323   4.084   9.783
 5843SOL    HW218210   2.249   4.111   9.913
 5844SOL     OW18211   2.183   4.264  10.602
 5844SOL    HW118212   2.239   4.210  10.659
 5844SOL    HW218213   2.206   4.238  10.513
 5845SOL     OW18214   3.293   3.946  10.428
 5845SOL    HW118215   3.325   3.870  10.475
 5845SOL    HW218216   3.242   3.995  10.492
 5846SOL     OW18217   2.870   3.745  10.456
 5846SOL    HW118218   2.815   3.677  10.418
 5846SOL    HW218219   2.958   3.708  10.458
 5847SOL     OW18220   3.214   3.778   9.473
 5847SOL    HW118221   3.239   3.719   9.402
 5847SOL    HW218222   3.128   3.746   9.501
 5848SOL     OW18223   3.161   4.177   9.993
 5848SOL    HW118224   3.118   4.261  10.007
 5848SOL    HW218225   3.162   4.136  10.080
 5849SOL     OW18226   3.449   3.930  10.186
 5849SOL    HW118227   3.385   3.948  10.255
 5849SOL    HW218228   3.450   4.009  10.132
 5850SOL     OW18229   3.952   0.616   0.119
 5850SOL    HW118230   3.865   0.621   0.159
 5850SOL    HW218231   3.936   0.625   0.025
 5851SOL     OW18232   3.933   0.298   0.988
 5851SOL    HW118233   3.967   0.270   1.073
 5851SOL    HW218234   3.852   0.248   0.976
 5852SOL     OW18235   3.732   0.383   0.639
 5852SOL    HW118236   3.646   0.404   0.676
 5852SOL    HW218237   3.716   0.307   0.584
 5853SOL     OW18238   4.270   1.252   1.147
 5853SOL    HW118239   4.193   1.303   1.124
 5853SOL    HW218240   4.328   1.314   1.192
 5854SOL     OW18241   0.026   0.782   1.857
 5854SOL    HW118242   0.072   0.836   1.922
 5854SOL    HW218243   0.066   0.806   1.774
 5855SOL     OW18244   4.398   0.996   0.644
 5855SOL    HW118245   4.471   0.993   0.706
 5855SOL    HW218246   4.334   1.054   0.685
 5856SOL     OW18247   4.418   1.161   1.815
 5856SOL    HW118248   4.462   1.242   1.791
 5856SOL    HW218249   4.328   1.174   1.786
 5857SOL     OW18250   4.058   1.434   1.069
 5857SOL    HW118251   3.987   1.393   1.020
 5857SOL    HW218252   4.108   1.482   1.003
 5858SOL     OW18253   4.163   0.396   1.490
 5858SOL    HW118254   4.242   0.342   1.491
 5858SOL    HW218255   4.092   0.334   1.503
 5859SOL     OW18256   3.943   1.712   0.477
 5859SOL    HW118257   3.967   1.790   0.528
 5859SOL    HW218258   4.010   1.707   0.409
 5860SOL     OW18259   3.951   1.439   0.532
 5860SOL    HW118260   3.936   1.533   0.539
 5860SOL    HW218261   3.890   1.401   0.595
 5861SOL     OW18262   3.973   1.089   0.886
 5861SOL    HW118263   3.977   1.005   0.932
 5861SOL    HW218264   3.919   1.144   0.943
 5862SOL     OW18265   4.359   1.798   1.451
 5862SOL    HW118266   4.273   1.764   1.476
 5862SOL    HW218267   4.349   1.893   1.453
 5863SOL     OW18268   4.303   0.998   0.136
 5863SOL    HW118269   4.320   1.063   0.068
 5863SOL    HW218270   4.381   1.001   0.192
 5864SOL     OW18271   3.838   0.650   0.559
 5864SOL    HW118272   3.809   0.562   0.582
 5864SOL    HW218273   3.830   0.699   0.641
 5865SOL     OW18274   3.765   1.602   0.121
 5865SOL    HW118275   3.738   1.513   0.142
 5865SOL    HW218276   3.737   1.654   0.196
 5866SOL     OW18277   3.845   0.742   1.586
 5866SOL    HW118278   3.936   0.764   1.603
 5866SOL    HW218279   3.799   0.826   1.592
 5867SOL     OW18280   4.315   1.385   0.737
 5867SOL    HW118281   4.278   1.296   0.741
 5867SOL    HW218282   4.313   1.407   0.644
 5868SOL     OW18283   0.016   0.010   0.506
 5868SOL    HW118284   0.049   0.080   0.449
 5868SOL    HW218285   4.427   0.037   0.528
 5869SOL     OW18286   3.914   0.968   1.269
 5869SOL    HW118287   3.999   0.927   1.251
 5869SOL    HW218288   3.851   0.912   1.226
 5870SOL     OW18289   4.039   0.254   1.785
 5870SOL    HW118290   4.102   0.320   1.814
 5870SOL    HW218291   3.964   0.264   1.843
 5871SOL     OW18292   4.308   0.720   0.269
 5871SOL    HW118293   4.330   0.795   0.212
 5871SOL    HW218294   4.244   0.755   0.331
 5872SOL     OW18295   3.813   0.820   0.775
 5872SOL    HW118296   3.895   0.812   0.824
 5872SOL    HW218297   3.771   0.898   0.810
 5873SOL     OW18298   3.853   1.836   1.575
 5873SOL    HW118299   3.850   1.819   1.669
 5873SOL    HW218300   3.762   1.845   1.549
 5874SOL     OW18301   4.254   0.201   0.893
 5874SOL    HW118302   4.285   0.218   0.982
 5874SOL    HW218303   4.266   0.284   0.848
 5875SOL     OW18304   4.081   1.808   0.859
 5875SOL    HW118305   4.128   1.726   0.866
 5875SOL    HW218306   4.148   1.876   0.869
 5876SOL     OW18307   4.042   0.956   0.273
 5876SOL    HW118308   4.120   0.983   0.223
 5876SOL    HW218309   4.014   0.875   0.231
 5877SOL     OW18310   4.179   1.254   1.735
 5877SOL    HW118311   4.152   1.265   1.644
 5877SOL    HW218312   4.099   1.263   1.786
 5878SOL     OW18313   3.914   0.270   1.508
 5878SOL    HW118314   3.847   0.335   1.490
 5878SOL    HW218315   3.919   0.267   1.604
 5879SOL     OW18316   4.193   1.734   0.325
 5879SOL    HW118317   4.223   1.794   0.394
 5879SOL    HW218318   4.268   1.726   0.266
 5880SOL     OW18319   3.978   1.793   1.234
 5880SOL    HW118320   4.027   1.725   1.281
 5880SOL    HW218321   3.965   1.756   1.146
 5881SOL     OW18322   4.108   0.694   0.476
 5881SOL    HW118323   4.136   0.603   0.488
 5881SOL    HW218324   4.015   0.694   0.499
 5882SOL     OW18325   4.343   0.132   0.102
 5882SOL    HW118326   4.426   0.096   0.133
 5882SOL    HW218327   4.320   0.079   0.026
 5883SOL     OW18328   0.017   1.426   0.916
 5883SOL    HW118329   0.091   1.454   0.861
 5883SOL    HW218330   4.446   1.410   0.854
 5884SOL     OW18331   4.271   0.106   0.537
 5884SOL    HW118332   4.186   0.070   0.561
 5884SOL    HW218333   4.254   0.156   0.457
 5885SOL     OW18334   4.013   0.059   0.196
 5885SOL    HW118335   4.078   0.112   0.152
 5885SOL    HW218336   4.063   0.005   0.258
 5886SOL     OW18337   0.320   0.682   1.454
 5886SOL    HW118338   0.244   0.624   1.449
 5886SOL    HW218339   0.395   0.626   1.434
 5887SOL     OW18340   4.190   1.145   0.739
 5887SOL    HW118341   4.119   1.127   0.800
 5887SOL    HW218342   4.151   1.128   0.652
 5888SOL     OW18343   3.804   0.552   1.393
 5888SOL    HW118344   3.894   0.555   1.362
 5888SOL    HW218345   3.797   0.624   1.456
 5889SOL     OW18346   4.294   0.234   1.157
 5889SOL    HW118347   4.308   0.142   1.178
 5889SOL    HW218348   4.205   0.253   1.187
 5890SOL     OW18349   4.233   1.401   0.189
 5890SOL    HW118350   4.148   1.385   0.229
 5890SOL    HW218351   4.218   1.390   0.095
 5891SOL     OW18352   4.246   0.266   0.319
 5891SOL    HW118353   4.286   0.213   0.250
 5891SOL    HW218354   4.229   0.350   0.278
 5892SOL     OW18355   4.139   0.813   1.250
 5892SOL    HW118356   4.206   0.824   1.317
 5892SOL    HW218357   4.104   0.725   1.265
 5893SOL     OW18358   3.792   1.572   1.349
 5893SOL    HW118359   3.758   1.645   1.297
 5893SOL    HW218360   3.887   1.581   1.344
 5894SOL     OW18361   4.077   1.110   0.496
 5894SOL    HW118362   4.077   1.184   0.435
 5894SOL    HW218363   4.072   1.033   0.440
 5895SOL     OW18364   4.299   0.539   0.862
 5895SOL    HW118365   4.302   0.605   0.793
 5895SOL    HW218366   4.360   0.571   0.929
 5896SOL     OW18367   4.073   1.529   1.319
 5896SOL    HW118368   4.065   1.486   1.234
 5896SOL    HW218369   4.168   1.533   1.335
 5897SOL     OW18370   4.135   0.743   1.604
 5897SOL    HW118371   4.193   0.789   1.543
 5897SOL    HW218372   4.181   0.660   1.621
 5898SOL     OW18373   4.235   0.068   1.729
 5898SOL    HW118374   4.201   4.488   1.690
 5898SOL    HW218375   4.158   0.121   1.748
 5899SOL     OW18376   4.292   0.884   1.026
 5899SOL    HW118377   4.326   0.973   1.038
 5899SOL    HW218378   4.243   0.867   1.106
 5900SOL     OW18379   4.014   0.238   1.240
 5900SOL    HW118380   3.974   0.250   1.326
 5900SOL    HW218381   4.044   0.147   1.240
 5901SOL     OW18382   3.770   1.310   1.277
 5901SOL    HW118383   3.803   1.257   1.350
 5901SOL    HW218384   3.777   1.400   1.308
 5902SOL     OW18385   4.018   0.062   0.654
 5902SOL    HW118386   4.011   0.157   0.661
 5902SOL    HW218387   4.033   0.032   0.744
 5903SOL     OW18388   4.076   0.916   1.807
 5903SOL    HW118389   4.158   0.932   1.854
 5903SOL    HW218390   4.099   0.852   1.739
 5904SOL     OW18391   4.033   0.809   0.947
 5904SOL    HW118392   4.124   0.836   0.946
 5904SOL    HW218393   4.034   0.720   0.981
 5905SOL     OW18394   4.066   0.528   1.010
 5905SOL    HW118395   4.023   0.445   0.991
 5905SOL    HW218396   4.143   0.529   0.953
 5906SOL     OW18397   3.731   1.328   0.195
 5906SOL    HW118398   3.643   1.339   0.157
 5906SOL    HW218399   3.732   1.237   0.225
 5907SOL     OW18400   3.815   1.790   0.936
 5907SOL    HW118401   3.784   1.710   0.894
 5907SOL    HW218402   3.905   1.801   0.905
 5908SOL     OW18403   4.232   1.580   0.906
 5908SOL    HW118404   4.316   1.620   0.930
 5908SOL    HW218405   4.255   1.507   0.848
 5909SOL     OW18406   3.758   0.543   1.117
 5909SOL    HW118407   3.836   0.519   1.067
 5909SOL    HW218408   3.789   0.549   1.208
 5910SOL     OW18409   3.909   0.517   1.720
 5910SOL    HW118410   3.980   0.495   1.660
 5910SOL    HW218411   3.865   0.591   1.679
 5911SOL     OW18412   0.032   0.555   0.272
 5911SOL    HW118413   0.016   0.479   0.328
 5911SOL    HW218414   4.464   0.617   0.297
 5912SOL     OW18415   3.973   1.554   1.731
 5912SOL    HW118416   3.945   1.616   1.798
 5912SOL    HW218417   3.968   1.469   1.774
 5913SOL     OW18418   4.192   0.491   0.178
 5913SOL    HW118419   4.249   0.563   0.205
 5913SOL    HW218420   4.104   0.529   0.176
 5914SOL     OW18421   3.873   1.139   1.471
 5914SOL    HW118422   3.877   1.085   1.550
 5914SOL    HW218423   3.889   1.078   1.399
 5915SOL     OW18424   3.807   1.267   1.014
 5915SOL    HW118425   3.794   1.276   1.108
 5915SOL    HW218426   3.735   1.213   0.984
 5916SOL     OW18427   4.390   1.652   1.703
 5916SOL    HW118428   4.357   1.739   1.724
 5916SOL    HW218429   4.443   1.665   1.624
 5917SOL     OW18430   3.859   1.797   1.844
 5917SOL    HW118431   3.808   1.732   1.893
 5917SOL    HW218432   3.908   1.845   1.911
 5918SOL     OW18433   3.991   0.328   0.719
 5918SOL    HW118434   3.904   0.359   0.693
 5918SOL    HW218435   3.984   0.315   0.813
 5919SOL     OW18436   4.090   1.304   1.491
 5919SOL    HW118437   4.072   1.381   1.437
 5919SOL    HW218438   4.016   1.245   1.474
 5920SOL     OW18439   4.324   1.489   0.483
 5920SOL    HW118440   4.345   1.433   0.408
 5920SOL    HW218441   4.259   1.551   0.448
 5921SOL     OW18442   3.988   1.344   0.286
 5921SOL    HW118443   3.899   1.344   0.252
 5921SOL    HW218444   3.980   1.382   0.374
 5922SOL     OW18445   3.835   1.018   1.719
 5922SOL    HW118446   3.759   0.995   1.773
 5922SOL    HW218447   3.910   0.982   1.767
 5923SOL     OW18448   4.375   0.205   1.489
 5923SOL    HW118449   4.464   0.215   1.456
 5923SOL    HW218450   4.386   0.183   1.582
 5924SOL     OW18451   3.802   0.350   0.053
 5924SOL    HW118452   3.724   0.312   0.011
 5924SOL    HW218453   3.821   0.428   0.000
 5925SOL     OW18454   3.791   0.177   0.326
 5925SOL    HW118455   3.785   0.246   0.259
 5925SOL    HW218456   3.865   0.123   0.299
 5926SOL     OW18457   4.337   0.840   1.433
 5926SOL    HW118458   4.382   0.923   1.419
 5926SOL    HW218459   4.407   0.776   1.444
 5927SOL     OW18460   4.403   0.558   1.731
 5927SOL    HW118461   4.428   0.634   1.784
 5927SOL    HW218462   4.486   0.514   1.711
 5928SOL     OW18463   4.109   1.739   1.560
 5928SOL    HW118464   4.022   1.778   1.549
 5928SOL    HW218465   4.092   1.656   1.605
 5929SOL     OW18466   4.311   0.733   0.663
 5929SOL    HW118467   4.354   0.818   0.653
 5929SOL    HW218468   4.239   0.734   0.600
 5930SOL     OW18469   3.945   1.307   1.855
 5930SOL    HW118470   3.878   1.244   1.828
 5930SOL    HW218471   3.930   1.319   1.949
 5931SOL     OW18472   3.807   1.236   0.664
 5931SOL    HW118473   3.809   1.185   0.746
 5931SOL    HW218474   3.878   1.199   0.611
 5932SOL     OW18475   4.411   1.387   1.650
 5932SOL    HW118476   4.322   1.353   1.653
 5932SOL    HW218477   4.401   1.481   1.668
 5933SOL     OW18478   4.161   0.432   0.527
 5933SOL    HW118479   4.181   0.359   0.469
 5933SOL    HW218480   4.108   0.394   0.597
 5934SOL     OW18481   4.051   0.554   1.289
 5934SOL    HW118482   4.104   0.495   1.343
 5934SOL    HW218483   4.071   0.527   1.199
 5935SOL     OW18484   0.037   1.593   0.685
 5935SOL    HW118485   0.059   1.648   0.610
 5935SOL    HW218486   4.463   1.540   0.655
 5936SOL     OW18487   3.766   1.072   0.300
 5936SOL    HW118488   3.862   1.066   0.296
 5936SOL    HW218489   3.737   0.985   0.327
 5937SOL     OW18490   3.955   0.628   1.981
 5937SOL    HW118491   3.867   0.621   2.018
 5937SOL    HW218492   3.946   0.594   1.892
 5938SOL     OW18493   3.932   0.298   2.850
 5938SOL    HW118494   3.966   0.270   2.935
 5938SOL    HW218495   3.852   0.248   2.838
 5939SOL     OW18496   3.732   0.384   2.502
 5939SOL    HW118497   3.646   0.404   2.538
 5939SOL    HW218498   3.718   0.308   2.445
 5940SOL     OW18499   4.272   1.252   3.008
 5940SOL    HW118500   4.193   1.302   2.986
 5940SOL    HW218501   4.327   1.314   3.055
 5941SOL     OW18502   0.027   0.782   3.719
 5941SOL    HW118503   0.072   0.836   3.784
 5941SOL    HW218504   0.066   0.806   3.636
 5942SOL     OW18505   4.399   0.998   2.506
 5942SOL    HW118506   4.469   0.990   2.570
 5942SOL    HW218507   4.334   1.054   2.548
 5943SOL     OW18508   4.418   1.161   3.677
 5943SOL    HW118509   4.462   1.242   3.653
 5943SOL    HW218510   4.328   1.174   3.648
 5944SOL     OW18511   4.058   1.434   2.931
 5944SOL    HW118512   3.986   1.393   2.883
 5944SOL    HW218513   4.108   1.482   2.864
 5945SOL     OW18514   4.163   0.396   3.352
 5945SOL    HW118515   4.242   0.342   3.353
 5945SOL    HW218516   4.091   0.334   3.365
 5946SOL     OW18517   3.944   1.713   2.338
 5946SOL    HW118518   3.967   1.790   2.390
 5946SOL    HW218519   4.014   1.706   2.273
 5947SOL     OW18520   3.953   1.439   2.395
 5947SOL    HW118521   3.936   1.533   2.403
 5947SOL    HW218522   3.892   1.399   2.457
 5948SOL     OW18523   3.973   1.089   2.749
 5948SOL    HW118524   3.977   1.005   2.794
 5948SOL    HW218525   3.919   1.144   2.805
 5949SOL     OW18526   4.359   1.798   3.313
 5949SOL    HW118527   4.273   1.764   3.338
 5949SOL    HW218528   4.348   1.893   3.315
 5950SOL     OW18529   4.311   0.984   1.998
 5950SOL    HW118530   4.339   1.039   1.925
 5950SOL    HW218531   4.379   0.996   2.065
 5951SOL     OW18532   3.839   0.651   2.421
 5951SOL    HW118533   3.810   0.562   2.443
 5951SOL    HW218534   3.830   0.699   2.503
 5952SOL     OW18535   3.754   1.597   1.986
 5952SOL    HW118536   3.736   1.505   2.005
 5952SOL    HW218537   3.729   1.643   2.066
 5953SOL     OW18538   3.845   0.742   3.448
 5953SOL    HW118539   3.936   0.764   3.466
 5953SOL    HW218540   3.799   0.826   3.454
 5954SOL     OW18541   4.315   1.385   2.599
 5954SOL    HW118542   4.278   1.296   2.603
 5954SOL    HW218543   4.313   1.407   2.506
 5955SOL     OW18544   0.019   0.018   2.376
 5955SOL    HW118545   0.048   0.081   2.311
 5955SOL    HW218546   4.427   0.041   2.392
 5956SOL     OW18547   3.914   0.969   3.131
 5956SOL    HW118548   3.999   0.927   3.113
 5956SOL    HW218549   3.850   0.912   3.088
 5957SOL     OW18550   4.039   0.254   3.647
 5957SOL    HW118551   4.101   0.320   3.676
 5957SOL    HW218552   3.964   0.264   3.705
 5958SOL     OW18553   4.312   0.729   2.131
 5958SOL    HW118554   4.314   0.804   2.072
 5958SOL    HW218555   4.243   0.750   2.194
 5959SOL     OW18556   3.813   0.820   2.637
 5959SOL    HW118557   3.895   0.812   2.687
 5959SOL    HW218558   3.771   0.899   2.673
 5960SOL     OW18559   3.853   1.837   3.437
 5960SOL    HW118560   3.850   1.819   3.531
 5960SOL    HW218561   3.762   1.844   3.411
 5961SOL     OW18562   4.252   0.201   2.757
 5961SOL    HW118563   4.286   0.218   2.844
 5961SOL    HW218564   4.265   0.282   2.709
 5962SOL     OW18565   4.081   1.808   2.720
 5962SOL    HW118566   4.128   1.726   2.728
 5962SOL    HW218567   4.148   1.876   2.732
 5963SOL     OW18568   4.045   0.956   2.110
 5963SOL    HW118569   4.127   0.974   2.064
 5963SOL    HW218570   4.014   0.873   2.071
 5964SOL     OW18571   4.179   1.255   3.597
 5964SOL    HW118572   4.151   1.265   3.506
 5964SOL    HW218573   4.099   1.263   3.648
 5965SOL     OW18574   3.914   0.270   3.370
 5965SOL    HW118575   3.847   0.335   3.351
 5965SOL    HW218576   3.919   0.267   3.466
 5966SOL     OW18577   4.193   1.735   2.187
 5966SOL    HW118578   4.223   1.794   2.256
 5966SOL    HW218579   4.264   1.736   2.122
 5967SOL     OW18580   3.979   1.793   3.096
 5967SOL    HW118581   4.027   1.725   3.143
 5967SOL    HW218582   3.965   1.756   3.008
 5968SOL     OW18583   4.110   0.695   2.337
 5968SOL    HW118584   4.137   0.604   2.348
 5968SOL    HW218585   4.017   0.695   2.358
 5969SOL     OW18586   4.328   0.124   1.978
 5969SOL    HW118587   4.414   0.085   1.993
 5969SOL    HW218588   4.305   0.099   1.889
 5970SOL     OW18589   0.017   1.427   2.778
 5970SOL    HW118590   0.091   1.452   2.723
 5970SOL    HW218591   4.446   1.410   2.716
 5971SOL     OW18592   4.270   0.106   2.400
 5971SOL    HW118593   4.185   0.066   2.418
 5971SOL    HW218594   4.256   0.157   2.320
 5972SOL     OW18595   4.023   0.074   2.052
 5972SOL    HW118596   4.102   0.124   2.034
 5972SOL    HW218597   4.053   4.499   2.104
 5973SOL     OW18598   0.320   0.682   3.317
 5973SOL    HW118599   0.244   0.624   3.310
 5973SOL    HW218600   0.395   0.626   3.296
 5974SOL     OW18601   4.189   1.145   2.599
 5974SOL    HW118602   4.119   1.127   2.661
 5974SOL    HW218603   4.150   1.127   2.513
 5975SOL     OW18604   3.804   0.551   3.255
 5975SOL    HW118605   3.894   0.555   3.224
 5975SOL    HW218606   3.797   0.624   3.318
 5976SOL     OW18607   4.295   0.235   3.020
 5976SOL    HW118608   4.307   0.142   3.039
 5976SOL    HW218609   4.205   0.253   3.049
 5977SOL     OW18610   4.229   1.387   2.034
 5977SOL    HW118611   4.145   1.372   2.077
 5977SOL    HW218612   4.206   1.405   1.943
 5978SOL     OW18613   4.247   0.269   2.185
 5978SOL    HW118614   4.285   0.213   2.118
 5978SOL    HW218615   4.228   0.352   2.140
 5979SOL     OW18616   4.139   0.813   3.112
 5979SOL    HW118617   4.206   0.824   3.179
 5979SOL    HW218618   4.104   0.725   3.126
 5980SOL     OW18619   3.792   1.572   3.211
 5980SOL    HW118620   3.757   1.644   3.159
 5980SOL    HW218621   3.887   1.581   3.206
 5981SOL     OW18622   4.077   1.106   2.354
 5981SOL    HW118623   4.078   1.179   2.292
 5981SOL    HW218624   4.075   1.028   2.298
 5982SOL     OW18625   4.299   0.539   2.724
 5982SOL    HW118626   4.301   0.605   2.655
 5982SOL    HW218627   4.360   0.572   2.791
 5983SOL     OW18628   4.073   1.529   3.181
 5983SOL    HW118629   4.065   1.486   3.096
 5983SOL    HW218630   4.168   1.533   3.197
 5984SOL     OW18631   4.135   0.743   3.466
 5984SOL    HW118632   4.193   0.789   3.405
 5984SOL    HW218633   4.181   0.660   3.483
 5985SOL     OW18634   4.235   0.068   3.592
 5985SOL    HW118635   4.201   4.488   3.551
 5985SOL    HW218636   4.158   0.121   3.610
 5986SOL     OW18637   4.292   0.885   2.888
 5986SOL    HW118638   4.326   0.973   2.901
 5986SOL    HW218639   4.243   0.866   2.968
 5987SOL     OW18640   4.014   0.238   3.102
 5987SOL    HW118641   3.974   0.250   3.188
 5987SOL    HW218642   4.044   0.147   3.102
 5988SOL     OW18643   3.771   1.310   3.139
 5988SOL    HW118644   3.803   1.257   3.212
 5988SOL    HW218645   3.777   1.400   3.170
 5989SOL     OW18646   4.013   0.060   2.518
 5989SOL    HW118647   4.011   0.156   2.522
 5989SOL    HW218648   4.033   0.033   2.608
 5990SOL     OW18649   4.077   0.916   3.669
 5990SOL    HW118650   4.159   0.931   3.716
 5990SOL    HW218651   4.099   0.852   3.601
 5991SOL     OW18652   4.032   0.810   2.809
 5991SOL    HW118653   4.124   0.836   2.808
 5991SOL    HW218654   4.034   0.720   2.843
 5992SOL     OW18655   4.066   0.528   2.872
 5992SOL    HW118656   4.023   0.445   2.853
 5992SOL    HW218657   4.143   0.529   2.815
 5993SOL     OW18658   3.729   1.323   2.057
 5993SOL    HW118659   3.642   1.336   2.020
 5993SOL    HW218660   3.728   1.233   2.090
 5994SOL     OW18661   3.815   1.790   2.798
 5994SOL    HW118662   3.784   1.710   2.756
 5994SOL    HW218663   3.905   1.801   2.767
 5995SOL     OW18664   4.232   1.581   2.767
 5995SOL    HW118665   4.316   1.619   2.792
 5995SOL    HW218666   4.255   1.507   2.711
 5996SOL     OW18667   3.758   0.543   2.979
 5996SOL    HW118668   3.836   0.519   2.929
 5996SOL    HW218669   3.789   0.548   3.070
 5997SOL     OW18670   3.909   0.517   3.582
 5997SOL    HW118671   3.980   0.495   3.521
 5997SOL    HW218672   3.865   0.591   3.541
 5998SOL     OW18673   0.033   0.556   2.129
 5998SOL    HW118674   0.020   0.480   2.186
 5998SOL    HW218675   4.464   0.617   2.155
 5999SOL     OW18676   3.973   1.554   3.593
 5999SOL    HW118677   3.944   1.616   3.660
 5999SOL    HW218678   3.968   1.469   3.636
 6000SOL     OW18679   4.194   0.494   2.048
 6000SOL    HW118680   4.250   0.569   2.068
 6000SOL    HW218681   4.106   0.532   2.039
 6001SOL     OW18682   3.873   1.139   3.333
 6001SOL    HW118683   3.877   1.085   3.412
 6001SOL    HW218684   3.889   1.078   3.261
 6002SOL     OW18685   3.808   1.267   2.876
 6002SOL    HW118686   3.794   1.276   2.970
 6002SOL    HW218687   3.735   1.213   2.846
 6003SOL     OW18688   4.391   1.652   3.565
 6003SOL    HW118689   4.357   1.739   3.586
 6003SOL    HW218690   4.443   1.665   3.486
 6004SOL     OW18691   3.859   1.797   3.706
 6004SOL    HW118692   3.808   1.732   3.754
 6004SOL    HW218693   3.908   1.845   3.773
 6005SOL     OW18694   3.991   0.328   2.581
 6005SOL    HW118695   3.904   0.360   2.555
 6005SOL    HW218696   3.984   0.315   2.676
 6006SOL     OW18697   4.090   1.304   3.353
 6006SOL    HW118698   4.072   1.381   3.299
 6006SOL    HW218699   4.016   1.245   3.336
 6007SOL     OW18700   4.324   1.490   2.344
 6007SOL    HW118701   4.344   1.431   2.271
 6007SOL    HW218702   4.260   1.552   2.309
 6008SOL     OW18703   3.983   1.351   2.147
 6008SOL    HW118704   3.890   1.347   2.125
 6008SOL    HW218705   3.985   1.386   2.236
 6009SOL     OW18706   3.835   1.018   3.581
 6009SOL    HW118707   3.759   0.995   3.635
 6009SOL    HW218708   3.910   0.982   3.630
 6010SOL     OW18709   4.375   0.205   3.351
 6010SOL    HW118710   4.464   0.215   3.318
 6010SOL    HW218711   4.386   0.183   3.444
 6011SOL     OW18712   3.804   0.344   1.908
 6011SOL    HW118713   3.731   0.293   1.872
 6011SOL    HW218714   3.820   0.412   1.842
 6012SOL     OW18715   3.790   0.179   2.185
 6012SOL    HW118716   3.786   0.245   2.116
 6012SOL    HW218717   3.866   0.125   2.162
 6013SOL     OW18718   4.337   0.840   3.295
 6013SOL    HW118719   4.382   0.923   3.281
 6013SOL    HW218720   4.407   0.776   3.306
 6014SOL     OW18721   4.403   0.557   3.593
 6014SOL    HW118722   4.428   0.633   3.646
 6014SOL    HW218723   4.486   0.514   3.572
 6015SOL     OW18724   4.109   1.739   3.422
 6015SOL    HW118725   4.022   1.778   3.411
 6015SOL    HW218726   4.092   1.656   3.467
 6016SOL     OW18727   4.311   0.734   2.526
 6016SOL    HW118728   4.354   0.818   2.514
 6016SOL    HW218729   4.240   0.733   2.462
 6017SOL     OW18730   3.945   1.307   3.717
 6017SOL    HW118731   3.878   1.244   3.690
 6017SOL    HW218732   3.930   1.319   3.811
 6018SOL     OW18733   3.808   1.236   2.526
 6018SOL    HW118734   3.808   1.186   2.607
 6018SOL    HW218735   3.877   1.197   2.473
 6019SOL     OW18736   4.411   1.388   3.512
 6019SOL    HW118737   4.322   1.353   3.515
 6019SOL    HW218738   4.401   1.481   3.530
 6020SOL     OW18739   4.162   0.434   2.391
 6020SOL    HW118740   4.182   0.363   2.330
 6020SOL    HW218741   4.109   0.393   2.459
 6021SOL     OW18742   4.052   0.554   3.151
 6021SOL    HW118743   4.104   0.495   3.205
 6021SOL    HW218744   4.071   0.528   3.061
 6022SOL     OW18745   0.038   1.594   2.547
 6022SOL    HW118746   0.057   1.649   2.471
 6022SOL    HW218747   4.464   1.540   2.519
 6023SOL     OW18748   3.768   1.073   2.166
 6023SOL    HW118749   3.862   1.063   2.150
 6023SOL    HW218750   3.738   0.986   2.190
 6024SOL     OW18751   3.955   0.628   3.843
 6024SOL    HW118752   3.867   0.621   3.880
 6024SOL    HW218753   3.946   0.594   3.754
 6025SOL     OW18754   3.932   0.298   4.712
 6025SOL    HW118755   3.966   0.270   4.797
 6025SOL    HW218756   3.852   0.248   4.701
 6026SOL     OW18757   3.732   0.384   4.364
 6026SOL    HW118758   3.646   0.404   4.400
 6026SOL    HW218759   3.717   0.308   4.307
 6027SOL     OW18760   4.272   1.252   4.869
 6027SOL    HW118761   4.193   1.301   4.848
 6027SOL    HW218762   4.327   1.315   4.917
 6028SOL     OW18763   0.026   0.782   5.581
 6028SOL    HW118764   0.072   0.836   5.646
 6028SOL    HW218765   0.066   0.806   5.497
 6029SOL     OW18766   4.400   0.998   4.367
 6029SOL    HW118767   4.469   0.989   4.433
 6029SOL    HW218768   4.334   1.054   4.409
 6030SOL     OW18769   4.418   1.161   5.539
 6030SOL    HW118770   4.462   1.242   5.515
 6030SOL    HW218771   4.327   1.173   5.510
 6031SOL     OW18772   4.058   1.434   4.793
 6031SOL    HW118773   3.986   1.393   4.745
 6031SOL    HW218774   4.107   1.482   4.726
 6032SOL     OW18775   4.164   0.396   5.215
 6032SOL    HW118776   4.242   0.342   5.215
 6032SOL    HW218777   4.091   0.335   5.227
 6033SOL     OW18778   3.943   1.713   4.199
 6033SOL    HW118779   3.967   1.790   4.252
 6033SOL    HW218780   4.014   1.706   4.135
 6034SOL     OW18781   3.953   1.439   4.258
 6034SOL    HW118782   3.935   1.533   4.265
 6034SOL    HW218783   3.892   1.398   4.319
 6035SOL     OW18784   3.974   1.089   4.611
 6035SOL    HW118785   3.976   1.004   4.656
 6035SOL    HW218786   3.919   1.144   4.667
 6036SOL     OW18787   4.359   1.798   5.176
 6036SOL    HW118788   4.273   1.763   5.200
 6036SOL    HW218789   4.348   1.893   5.177
 6037SOL     OW18790   4.311   0.983   3.860
 6037SOL    HW118791   4.340   1.038   3.787
 6037SOL    HW218792   4.378   0.996   3.927
 6038SOL     OW18793   3.839   0.650   4.283
 6038SOL    HW118794   3.810   0.562   4.305
 6038SOL    HW218795   3.830   0.699   4.365
 6039SOL     OW18796   3.754   1.597   3.848
 6039SOL    HW118797   3.736   1.505   3.867
 6039SOL    HW218798   3.729   1.643   3.928
 6040SOL     OW18799   3.845   0.742   5.310
 6040SOL    HW118800   3.936   0.764   5.328
 6040SOL    HW218801   3.798   0.826   5.315
 6041SOL     OW18802   4.316   1.384   4.461
 6041SOL    HW118803   4.278   1.296   4.465
 6041SOL    HW218804   4.313   1.407   4.368
 6042SOL     OW18805   0.019   0.018   4.238
 6042SOL    HW118806   0.048   0.081   4.173
 6042SOL    HW218807   4.428   0.041   4.254
 6043SOL     OW18808   3.914   0.968   4.994
 6043SOL    HW118809   3.999   0.927   4.975
 6043SOL    HW218810   3.850   0.913   4.950
 6044SOL     OW18811   4.039   0.254   5.509
 6044SOL    HW118812   4.101   0.320   5.538
 6044SOL    HW218813   3.964   0.264   5.567
 6045SOL     OW18814   4.313   0.729   3.993
 6045SOL    HW118815   4.313   0.804   3.934
 6045SOL    HW218816   4.243   0.749   4.056
 6046SOL     OW18817   3.813   0.820   4.499
 6046SOL    HW118818   3.895   0.812   4.549
 6046SOL    HW218819   3.771   0.898   4.534
 6047SOL     OW18820   3.854   1.837   5.299
 6047SOL    HW118821   3.850   1.820   5.393
 6047SOL    HW218822   3.762   1.844   5.272
 6048SOL     OW18823   4.252   0.200   4.619
 6048SOL    HW118824   4.286   0.218   4.706
 6048SOL    HW218825   4.265   0.282   4.571
 6049SOL     OW18826   4.081   1.808   4.582
 6049SOL    HW118827   4.128   1.726   4.590
 6049SOL    HW218828   4.148   1.876   4.594
 6050SOL     OW18829   4.045   0.956   3.972
 6050SOL    HW118830   4.127   0.974   3.925
 6050SOL    HW218831   4.014   0.874   3.934
 6051SOL     OW18832   4.179   1.254   5.459
 6051SOL    HW118833   4.152   1.265   5.368
 6051SOL    HW218834   4.098   1.263   5.510
 6052SOL     OW18835   3.914   0.270   5.232
 6052SOL    HW118836   3.847   0.335   5.213
 6052SOL    HW218837   3.919   0.267   5.327
 6053SOL     OW18838   4.193   1.736   4.049
 6053SOL    HW118839   4.223   1.794   4.118
 6053SOL    HW218840   4.264   1.736   3.984
 6054SOL     OW18841   3.981   1.793   4.957
 6054SOL    HW118842   4.027   1.724   5.005
 6054SOL    HW218843   3.963   1.756   4.871
 6055SOL     OW18844   4.110   0.695   4.199
 6055SOL    HW118845   4.137   0.603   4.211
 6055SOL    HW218846   4.017   0.695   4.221
 6056SOL     OW18847   4.328   0.124   3.840
 6056SOL    HW118848   4.415   0.085   3.854
 6056SOL    HW218849   4.305   0.099   3.751
 6057SOL     OW18850   0.017   1.428   4.640
 6057SOL    HW118851   0.091   1.452   4.585
 6057SOL    HW218852   4.446   1.410   4.579
 6058SOL     OW18853   4.270   0.106   4.262
 6058SOL    HW118854   4.185   0.066   4.280
 6058SOL    HW218855   4.256   0.157   4.182
 6059SOL     OW18856   4.023   0.073   3.914
 6059SOL    HW118857   4.102   0.124   3.896
 6059SOL    HW218858   4.053   4.499   3.967
 6060SOL     OW18859   0.321   0.681   5.180
 6060SOL    HW118860   0.244   0.624   5.173
 6060SOL    HW218861   0.395   0.625   5.157
 6061SOL     OW18862   4.189   1.145   4.461
 6061SOL    HW118863   4.119   1.127   4.523
 6061SOL    HW218864   4.150   1.127   4.375
 6062SOL     OW18865   3.804   0.551   5.117
 6062SOL    HW118866   3.894   0.555   5.086
 6062SOL    HW218867   3.797   0.624   5.180
 6063SOL     OW18868   4.295   0.235   4.882
 6063SOL    HW118869   4.307   0.142   4.901
 6063SOL    HW218870   4.206   0.253   4.911
 6064SOL     OW18871   4.229   1.387   3.896
 6064SOL    HW118872   4.145   1.372   3.939
 6064SOL    HW218873   4.206   1.405   3.805
 6065SOL     OW18874   4.247   0.269   4.047
 6065SOL    HW118875   4.285   0.213   3.980
 6065SOL    HW218876   4.228   0.352   4.003
 6066SOL     OW18877   4.139   0.813   4.973
 6066SOL    HW118878   4.206   0.824   5.041
 6066SOL    HW218879   4.104   0.725   4.988
 6067SOL     OW18880   3.791   1.572   5.074
 6067SOL    HW118881   3.755   1.643   5.020
 6067SOL    HW218882   3.886   1.583   5.068
 6068SOL     OW18883   4.078   1.106   4.215
 6068SOL    HW118884   4.077   1.179   4.154
 6068SOL    HW218885   4.075   1.028   4.160
 6069SOL     OW18886   4.299   0.539   4.586
 6069SOL    HW118887   4.301   0.605   4.517
 6069SOL    HW218888   4.360   0.572   4.653
 6070SOL     OW18889   4.073   1.529   5.043
 6070SOL    HW118890   4.065   1.486   4.958
 6070SOL    HW218891   4.168   1.533   5.059
 6071SOL     OW18892   4.135   0.743   5.328
 6071SOL    HW118893   4.193   0.789   5.267
 6071SOL    HW218894   4.180   0.660   5.345
 6072SOL     OW18895   4.235   0.068   5.453
 6072SOL    HW118896   4.201   4.488   5.414
 6072SOL    HW218897   4.158   0.121   5.472
 6073SOL     OW18898   4.293   0.884   4.750
 6073SOL    HW118899   4.325   0.974   4.763
 6073SOL    HW218900   4.243   0.866   4.830
 6074SOL     OW18901   4.014   0.238   4.964
 6074SOL    HW118902   3.974   0.250   5.050
 6074SOL    HW218903   4.044   0.147   4.964
 6075SOL     OW18904   3.772   1.310   5.001
 6075SOL    HW118905   3.804   1.258   5.074
 6075SOL    HW218906   3.777   1.401   5.032
 6076SOL     OW18907   4.013   0.060   4.380
 6076SOL    HW118908   4.011   0.156   4.384
 6076SOL    HW218909   4.033   0.033   4.470
 6077SOL     OW18910   4.077   0.916   5.531
 6077SOL    HW118911   4.159   0.931   5.578
 6077SOL    HW218912   4.099   0.852   5.463
 6078SOL     OW18913   4.033   0.810   4.671
 6078SOL    HW118914   4.125   0.836   4.670
 6078SOL    HW218915   4.034   0.720   4.705
 6079SOL     OW18916   4.066   0.528   4.734
 6079SOL    HW118917   4.023   0.445   4.715
 6079SOL    HW218918   4.143   0.529   4.677
 6080SOL     OW18919   3.729   1.323   3.919
 6080SOL    HW118920   3.642   1.336   3.882
 6080SOL    HW218921   3.728   1.233   3.952
 6081SOL     OW18922   3.814   1.790   4.659
 6081SOL    HW118923   3.784   1.709   4.617
 6081SOL    HW218924   3.904   1.801   4.628
 6082SOL     OW18925   4.232   1.581   4.629
 6082SOL    HW118926   4.316   1.619   4.654
 6082SOL    HW218927   4.255   1.507   4.573
 6083SOL     OW18928   3.758   0.542   4.841
 6083SOL    HW118929   3.836   0.519   4.791
 6083SOL    HW218930   3.789   0.549   4.932
 6084SOL     OW18931   3.910   0.517   5.444
 6084SOL    HW118932   3.980   0.495   5.383
 6084SOL    HW218933   3.865   0.591   5.403
 6085SOL     OW18934   0.033   0.556   3.991
 6085SOL    HW118935   0.020   0.480   4.047
 6085SOL    HW218936   4.464   0.617   4.017
 6086SOL     OW18937   3.973   1.554   5.455
 6086SOL    HW118938   3.945   1.616   5.522
 6086SOL    HW218939   3.968   1.469   5.499
 6087SOL     OW18940   4.194   0.494   3.910
 6087SOL    HW118941   4.250   0.569   3.930
 6087SOL    HW218942   4.106   0.532   3.901
 6088SOL     OW18943   3.873   1.140   5.196
 6088SOL    HW118944   3.877   1.085   5.274
 6088SOL    HW218945   3.888   1.079   5.123
 6089SOL     OW18946   3.808   1.267   4.738
 6089SOL    HW118947   3.794   1.276   4.832
 6089SOL    HW218948   3.734   1.214   4.708
 6090SOL     OW18949   4.391   1.652   5.427
 6090SOL    HW118950   4.356   1.739   5.447
 6090SOL    HW218951   4.442   1.665   5.347
 6091SOL     OW18952   3.859   1.797   5.568
 6091SOL    HW118953   3.808   1.732   5.617
 6091SOL    HW218954   3.908   1.845   5.635
 6092SOL     OW18955   3.991   0.328   4.443
 6092SOL    HW118956   3.904   0.360   4.417
 6092SOL    HW218957   3.984   0.315   4.538
 6093SOL     OW18958   4.090   1.304   5.215
 6093SOL    HW118959   4.072   1.381   5.161
 6093SOL    HW218960   4.016   1.245   5.198
 6094SOL     OW18961   4.325   1.491   4.206
 6094SOL    HW118962   4.343   1.431   4.134
 6094SOL    HW218963   4.260   1.552   4.171
 6095SOL     OW18964   3.983   1.351   4.009
 6095SOL    HW118965   3.890   1.347   3.987
 6095SOL    HW218966   3.985   1.386   4.098
 6096SOL     OW18967   3.835   1.019   5.444
 6096SOL    HW118968   3.759   0.995   5.497
 6096SOL    HW218969   3.910   0.982   5.492
 6097SOL     OW18970   4.375   0.205   5.213
 6097SOL    HW118971   4.464   0.214   5.180
 6097SOL    HW218972   4.386   0.183   5.306
 6098SOL     OW18973   3.804   0.344   3.770
 6098SOL    HW118974   3.731   0.294   3.734
 6098SOL    HW218975   3.820   0.412   3.704
 6099SOL     OW18976   3.790   0.179   4.047
 6099SOL    HW118977   3.786   0.245   3.978
 6099SOL    HW218978   3.866   0.125   4.024
 6100SOL     OW18979   4.336   0.840   5.158
 6100SOL    HW118980   4.382   0.923   5.143
 6100SOL    HW218981   4.407   0.776   5.168
 6101SOL     OW18982   4.403   0.557   5.455
 6101SOL    HW118983   4.428   0.633   5.508
 6101SOL    HW218984   4.486   0.514   5.435
 6102SOL     OW18985   4.109   1.739   5.284
 6102SOL    HW118986   4.022   1.778   5.273
 6102SOL    HW218987   4.092   1.656   5.329
 6103SOL     OW18988   4.311   0.734   4.388
 6103SOL    HW118989   4.354   0.819   4.375
 6103SOL    HW218990   4.240   0.733   4.324
 6104SOL     OW18991   3.944   1.307   5.579
 6104SOL    HW118992   3.878   1.244   5.551
 6104SOL    HW218993   3.930   1.318   5.673
 6105SOL     OW18994   3.808   1.236   4.388
 6105SOL    HW118995   3.807   1.186   4.469
 6105SOL    HW218996   3.878   1.196   4.336
 6106SOL     OW18997   4.411   1.388   5.374
 6106SOL    HW118998   4.322   1.353   5.377
 6106SOL    HW218999   4.401   1.481   5.392
 6107SOL     OW19000   4.162   0.434   4.254
 6107SOL    HW119001   4.182   0.363   4.192
 6107SOL    HW219002   4.109   0.393   4.321
 6108SOL     OW19003   4.052   0.554   5.013
 6108SOL    HW119004   4.104   0.495   5.067
 6108SOL    HW219005   4.071   0.528   4.923
 6109SOL     OW19006   0.038   1.594   4.409
 6109SOL    HW119007   0.057   1.649   4.333
 6109SOL    HW219008   4.464   1.539   4.381
 6110SOL     OW19009   3.768   1.074   4.028
 6110SOL    HW119010   3.862   1.062   4.012
 6110SOL    HW219011   3.737   0.986   4.052
 6111SOL     OW19012   3.955   0.628   5.705
 6111SOL    HW119013   3.867   0.621   5.742
 6111SOL    HW219014   3.946   0.594   5.615
 6112SOL     OW19015   3.932   0.298   6.574
 6112SOL    HW119016   3.966   0.270   6.659
 6112SOL    HW219017   3.852   0.248   6.562
 6113SOL     OW19018   3.732   0.384   6.226
 6113SOL    HW119019   3.646   0.403   6.262
 6113SOL    HW219020   3.718   0.308   6.169
 6114SOL     OW19021   4.271   1.252   6.732
 6114SOL    HW119022   4.193   1.303   6.710
 6114SOL    HW219023   4.328   1.314   6.779
 6115SOL     OW19024   0.026   0.782   7.443
 6115SOL    HW119025   0.072   0.836   7.508
 6115SOL    HW219026   0.066   0.806   7.360
 6116SOL     OW19027   4.399   0.998   6.230
 6116SOL    HW119028   4.469   0.990   6.294
 6116SOL    HW219029   4.334   1.054   6.272
 6117SOL     OW19030   4.418   1.161   7.401
 6117SOL    HW119031   4.463   1.242   7.377
 6117SOL    HW219032   4.328   1.174   7.372
 6118SOL     OW19033   4.058   1.434   6.655
 6118SOL    HW119034   3.986   1.393   6.607
 6118SOL    HW219035   4.108   1.482   6.588
 6119SOL     OW19036   4.163   0.396   7.077
 6119SOL    HW119037   4.242   0.342   7.077
 6119SOL    HW219038   4.092   0.334   7.089
 6120SOL     OW19039   3.943   1.713   6.061
 6120SOL    HW119040   3.967   1.790   6.114
 6120SOL    HW219041   4.013   1.706   5.997
 6121SOL     OW19042   3.953   1.439   6.119
 6121SOL    HW119043   3.936   1.533   6.127
 6121SOL    HW219044   3.892   1.399   6.181
 6122SOL     OW19045   3.973   1.089   6.473
 6122SOL    HW119046   3.977   1.005   6.518
 6122SOL    HW219047   3.919   1.144   6.529
 6123SOL     OW19048   4.359   1.798   7.037
 6123SOL    HW119049   4.273   1.764   7.062
 6123SOL    HW219050   4.349   1.893   7.039
 6124SOL     OW19051   4.311   0.984   5.722
 6124SOL    HW119052   4.340   1.039   5.649
 6124SOL    HW219053   4.379   0.996   5.789
 6125SOL     OW19054   3.839   0.651   6.145
 6125SOL    HW119055   3.810   0.562   6.167
 6125SOL    HW219056   3.830   0.699   6.227
 6126SOL     OW19057   3.754   1.597   5.711
 6126SOL    HW119058   3.736   1.505   5.729
 6126SOL    HW219059   3.729   1.643   5.791
 6127SOL     OW19060   3.845   0.742   7.172
 6127SOL    HW119061   3.937   0.764   7.189
 6127SOL    HW219062   3.799   0.826   7.178
 6128SOL     OW19063   4.315   1.385   6.323
 6128SOL    HW119064   4.278   1.296   6.327
 6128SOL    HW219065   4.313   1.407   6.230
 6129SOL     OW19066   0.019   0.018   6.100
 6129SOL    HW119067   0.048   0.081   6.035
 6129SOL    HW219068   4.427   0.041   6.116
 6130SOL     OW19069   3.914   0.968   6.855
 6130SOL    HW119070   3.999   0.927   6.837
 6130SOL    HW219071   3.851   0.912   6.812
 6131SOL     OW19072   4.039   0.254   7.371
 6131SOL    HW119073   4.102   0.320   7.400
 6131SOL    HW219074   3.964   0.264   7.429
 6132SOL     OW19075   4.313   0.729   5.855
 6132SOL    HW119076   4.313   0.804   5.796
 6132SOL    HW219077   4.243   0.750   5.918
 6133SOL     OW19078   3.813   0.820   6.362
 6133SOL    HW119079   3.895   0.812   6.411
 6133SOL    HW219080   3.772   0.899   6.397
 6134SOL     OW19081   3.853   1.836   7.161
 6134SOL    HW119082   3.850   1.819   7.255
 6134SOL    HW219083   3.762   1.845   7.135
 6135SOL     OW19084   4.252   0.200   6.481
 6135SOL    HW119085   4.286   0.218   6.568
 6135SOL    HW219086   4.265   0.282   6.433
 6136SOL     OW19087   4.081   1.808   6.444
 6136SOL    HW119088   4.129   1.726   6.452
 6136SOL    HW219089   4.147   1.876   6.456
 6137SOL     OW19090   4.045   0.955   5.834
 6137SOL    HW119091   4.127   0.974   5.787
 6137SOL    HW219092   4.014   0.874   5.795
 6138SOL     OW19093   4.179   1.254   7.321
 6138SOL    HW119094   4.152   1.265   7.230
 6138SOL    HW219095   4.098   1.263   7.372
 6139SOL     OW19096   3.914   0.270   7.094
 6139SOL    HW119097   3.847   0.335   7.075
 6139SOL    HW219098   3.919   0.267   7.190
 6140SOL     OW19099   4.193   1.735   5.911
 6140SOL    HW119100   4.223   1.794   5.980
 6140SOL    HW219101   4.263   1.736   5.846
 6141SOL     OW19102   3.978   1.793   6.820
 6141SOL    HW119103   4.027   1.725   6.867
 6141SOL    HW219104   3.965   1.756   6.732
 6142SOL     OW19105   4.110   0.695   6.061
 6142SOL    HW119106   4.137   0.604   6.072
 6142SOL    HW219107   4.017   0.695   6.082
 6143SOL     OW19108   4.328   0.124   5.702
 6143SOL    HW119109   4.414   0.085   5.717
 6143SOL    HW219110   4.305   0.099   5.613
 6144SOL     OW19111   0.017   1.427   6.502
 6144SOL    HW119112   0.091   1.452   6.447
 6144SOL    HW219113   4.446   1.410   6.440
 6145SOL     OW19114   4.270   0.106   6.124
 6145SOL    HW119115   4.185   0.066   6.142
 6145SOL    HW219116   4.256   0.157   6.044
 6146SOL     OW19117   4.023   0.074   5.776
 6146SOL    HW119118   4.102   0.124   5.758
 6146SOL    HW219119   4.053   4.499   5.828
 6147SOL     OW19120   0.320   0.682   7.041
 6147SOL    HW119121   0.244   0.624   7.034
 6147SOL    HW219122   0.395   0.626   7.020
 6148SOL     OW19123   4.189   1.145   6.323
 6148SOL    HW119124   4.118   1.127   6.385
 6148SOL    HW219125   4.150   1.127   6.237
 6149SOL     OW19126   3.804   0.551   6.979
 6149SOL    HW119127   3.894   0.555   6.948
 6149SOL    HW219128   3.797   0.624   7.042
 6150SOL     OW19129   4.295   0.235   6.744
 6150SOL    HW119130   4.308   0.142   6.763
 6150SOL    HW219131   4.205   0.253   6.773
 6151SOL     OW19132   4.229   1.387   5.758
 6151SOL    HW119133   4.145   1.372   5.801
 6151SOL    HW219134   4.206   1.405   5.667
 6152SOL     OW19135   4.247   0.269   5.909
 6152SOL    HW119136   4.285   0.213   5.842
 6152SOL    HW219137   4.228   0.352   5.864
 6153SOL     OW19138   4.139   0.813   6.836
 6153SOL    HW119139   4.206   0.824   6.903
 6153SOL    HW219140   4.104   0.725   6.850
 6154SOL     OW19141   3.791   1.572   6.935
 6154SOL    HW119142   3.757   1.645   6.883
 6154SOL    HW219143   3.887   1.581   6.930
 6155SOL     OW19144   4.077   1.106   6.077
 6155SOL    HW119145   4.077   1.179   6.015
 6155SOL    HW219146   4.075   1.028   6.023
 6156SOL     OW19147   4.299   0.539   6.448
 6156SOL    HW119148   4.301   0.605   6.379
 6156SOL    HW219149   4.360   0.572   6.515
 6157SOL     OW19150   4.073   1.529   6.905
 6157SOL    HW119151   4.065   1.486   6.820
 6157SOL    HW219152   4.168   1.533   6.921
 6158SOL     OW19153   4.135   0.743   7.190
 6158SOL    HW119154   4.193   0.789   7.129
 6158SOL    HW219155   4.180   0.660   7.207
 6159SOL     OW19156   4.235   0.068   7.315
 6159SOL    HW119157   4.201   4.488   7.276
 6159SOL    HW219158   4.158   0.121   7.334
 6160SOL     OW19159   4.292   0.885   6.612
 6160SOL    HW119160   4.326   0.973   6.625
 6160SOL    HW219161   4.243   0.866   6.692
 6161SOL     OW19162   4.014   0.238   6.826
 6161SOL    HW119163   3.974   0.250   6.912
 6161SOL    HW219164   4.044   0.147   6.826
 6162SOL     OW19165   3.770   1.310   6.863
 6162SOL    HW119166   3.803   1.257   6.936
 6162SOL    HW219167   3.777   1.400   6.894
 6163SOL     OW19168   4.013   0.060   6.242
 6163SOL    HW119169   4.011   0.156   6.246
 6163SOL    HW219170   4.033   0.033   6.332
 6164SOL     OW19171   4.076   0.916   7.393
 6164SOL    HW119172   4.158   0.932   7.440
 6164SOL    HW219173   4.099   0.852   7.325
 6165SOL     OW19174   4.032   0.810   6.533
 6165SOL    HW119175   4.124   0.836   6.532
 6165SOL    HW219176   4.034   0.720   6.567
 6166SOL     OW19177   4.066   0.528   6.596
 6166SOL    HW119178   4.023   0.445   6.577
 6166SOL    HW219179   4.143   0.529   6.539
 6167SOL     OW19180   3.729   1.323   5.781
 6167SOL    HW119181   3.642   1.336   5.744
 6167SOL    HW219182   3.728   1.233   5.814
 6168SOL     OW19183   3.815   1.790   6.522
 6168SOL    HW119184   3.784   1.710   6.480
 6168SOL    HW219185   3.904   1.802   6.491
 6169SOL     OW19186   4.232   1.581   6.491
 6169SOL    HW119187   4.316   1.619   6.516
 6169SOL    HW219188   4.255   1.507   6.435
 6170SOL     OW19189   3.758   0.543   6.703
 6170SOL    HW119190   3.835   0.518   6.653
 6170SOL    HW219191   3.789   0.548   6.794
 6171SOL     OW19192   3.909   0.517   7.306
 6171SOL    HW119193   3.980   0.495   7.246
 6171SOL    HW219194   3.865   0.591   7.265
 6172SOL     OW19195   0.033   0.556   5.853
 6172SOL    HW119196   0.020   0.480   5.909
 6172SOL    HW219197   4.464   0.617   5.879
 6173SOL     OW19198   3.972   1.554   7.317
 6173SOL    HW119199   3.945   1.616   7.384
 6173SOL    HW219200   3.968   1.469   7.360
 6174SOL     OW19201   4.194   0.494   5.772
 6174SOL    HW119202   4.250   0.569   5.792
 6174SOL    HW219203   4.106   0.532   5.763
 6175SOL     OW19204   3.873   1.139   7.057
 6175SOL    HW119205   3.877   1.085   7.136
 6175SOL    HW219206   3.888   1.078   6.985
 6176SOL     OW19207   3.807   1.267   6.600
 6176SOL    HW119208   3.794   1.276   6.694
 6176SOL    HW219209   3.735   1.213   6.570
 6177SOL     OW19210   4.390   1.652   7.289
 6177SOL    HW119211   4.357   1.739   7.310
 6177SOL    HW219212   4.444   1.665   7.210
 6178SOL     OW19213   3.859   1.797   7.430
 6178SOL    HW119214   3.808   1.732   7.479
 6178SOL    HW219215   3.908   1.845   7.497
 6179SOL     OW19216   3.991   0.328   6.305
 6179SOL    HW119217   3.904   0.360   6.279
 6179SOL    HW219218   3.984   0.315   6.400
 6180SOL     OW19219   4.090   1.303   7.077
 6180SOL    HW119220   4.072   1.381   7.024
 6180SOL    HW219221   4.016   1.245   7.060
 6181SOL     OW19222   4.324   1.490   6.068
 6181SOL    HW119223   4.344   1.431   5.995
 6181SOL    HW219224   4.260   1.552   6.033
 6182SOL     OW19225   3.983   1.351   5.871
 6182SOL    HW119226   3.890   1.347   5.849
 6182SOL    HW219227   3.985   1.386   5.960
 6183SOL     OW19228   3.835   1.018   7.306
 6183SOL    HW119229   3.759   0.995   7.359
 6183SOL    HW219230   3.910   0.982   7.353
 6184SOL     OW19231   4.375   0.205   7.075
 6184SOL    HW119232   4.464   0.214   7.042
 6184SOL    HW219233   4.386   0.183   7.168
 6185SOL     OW19234   3.804   0.344   5.632
 6185SOL    HW119235   3.731   0.294   5.596
 6185SOL    HW219236   3.820   0.412   5.566
 6186SOL     OW19237   3.790   0.179   5.909
 6186SOL    HW119238   3.786   0.245   5.840
 6186SOL    HW219239   3.866   0.125   5.886
 6187SOL     OW19240   4.337   0.840   7.019
 6187SOL    HW119241   4.382   0.923   7.005
 6187SOL    HW219242   4.407   0.775   7.030
 6188SOL     OW19243   4.403   0.558   7.317
 6188SOL    HW119244   4.428   0.634   7.370
 6188SOL    HW219245   4.486   0.514   7.296
 6189SOL     OW19246   4.109   1.739   7.146
 6189SOL    HW119247   4.022   1.778   7.135
 6189SOL    HW219248   4.092   1.656   7.191
 6190SOL     OW19249   4.311   0.734   6.250
 6190SOL    HW119250   4.354   0.818   6.238
 6190SOL    HW219251   4.240   0.733   6.186
 6191SOL     OW19252   3.944   1.307   7.441
 6191SOL    HW119253   3.878   1.244   7.414
 6191SOL    HW219254   3.931   1.318   7.535
 6192SOL     OW19255   3.808   1.236   6.250
 6192SOL    HW119256   3.808   1.186   6.331
 6192SOL    HW219257   3.877   1.197   6.197
 6193SOL     OW19258   4.411   1.388   7.236
 6193SOL    HW119259   4.322   1.353   7.240
 6193SOL    HW219260   4.401   1.481   7.253
 6194SOL     OW19261   4.162   0.434   6.115
 6194SOL    HW119262   4.182   0.363   6.054
 6194SOL    HW219263   4.109   0.392   6.183
 6195SOL     OW19264   4.052   0.554   6.875
 6195SOL    HW119265   4.104   0.495   6.929
 6195SOL    HW219266   4.071   0.527   6.785
 6196SOL     OW19267   0.038   1.593   6.271
 6196SOL    HW119268   0.057   1.649   6.195
 6196SOL    HW219269   4.464   1.539   6.243
 6197SOL     OW19270   3.768   1.074   5.890
 6197SOL    HW119271   3.862   1.063   5.874
 6197SOL    HW219272   3.738   0.986   5.914
 6198SOL     OW19273   3.955   0.628   7.567
 6198SOL    HW119274   3.867   0.621   7.604
 6198SOL    HW219275   3.946   0.594   7.477
 6199SOL     OW19276   3.932   0.298   8.436
 6199SOL    HW119277   3.967   0.270   8.521
 6199SOL    HW219278   3.852   0.248   8.424
 6200SOL     OW19279   3.732   0.384   8.088
 6200SOL    HW119280   3.646   0.403   8.124
 6200SOL    HW219281   3.718   0.308   8.031
 6201SOL     OW19282   4.271   1.252   8.594
 6201SOL    HW119283   4.193   1.303   8.572
 6201SOL    HW219284   4.328   1.314   8.640
 6202SOL     OW19285   0.026   0.782   9.305
 6202SOL    HW119286   0.073   0.836   9.370
 6202SOL    HW219287   0.066   0.806   9.222
 6203SOL     OW19288   4.399   0.998   8.092
 6203SOL    HW119289   4.470   0.990   8.156
 6203SOL    HW219290   4.334   1.054   8.134
 6204SOL     OW19291   4.418   1.161   9.263
 6204SOL    HW119292   4.463   1.242   9.239
 6204SOL    HW219293   4.328   1.174   9.234
 6205SOL     OW19294   4.058   1.434   8.517
 6205SOL    HW119295   3.987   1.393   8.469
 6205SOL    HW219296   4.108   1.482   8.450
 6206SOL     OW19297   4.163   0.396   8.939
 6206SOL    HW119298   4.242   0.342   8.939
 6206SOL    HW219299   4.092   0.334   8.951
 6207SOL     OW19300   3.943   1.713   7.923
 6207SOL    HW119301   3.967   1.790   7.976
 6207SOL    HW219302   4.014   1.706   7.859
 6208SOL     OW19303   3.953   1.439   7.981
 6208SOL    HW119304   3.936   1.533   7.989
 6208SOL    HW219305   3.892   1.399   8.043
 6209SOL     OW19306   3.973   1.089   8.335
 6209SOL    HW119307   3.977   1.005   8.380
 6209SOL    HW219308   3.919   1.144   8.391
 6210SOL     OW19309   4.359   1.798   8.899
 6210SOL    HW119310   4.273   1.764   8.924
 6210SOL    HW219311   4.349   1.893   8.901
 6211SOL     OW19312   4.311   0.984   7.584
 6211SOL    HW119313   4.339   1.038   7.511
 6211SOL    HW219314   4.379   0.996   7.651
 6212SOL     OW19315   3.839   0.651   8.007
 6212SOL    HW119316   3.810   0.562   8.029
 6212SOL    HW219317   3.830   0.699   8.089
 6213SOL     OW19318   3.753   1.597   7.572
 6213SOL    HW119319   3.736   1.505   7.591
 6213SOL    HW219320   3.729   1.643   7.653
 6214SOL     OW19321   3.845   0.742   9.034
 6214SOL    HW119322   3.937   0.764   9.051
 6214SOL    HW219323   3.799   0.826   9.040
 6215SOL     OW19324   4.315   1.385   8.185
 6215SOL    HW119325   4.278   1.296   8.189
 6215SOL    HW219326   4.313   1.407   8.092
 6216SOL     OW19327   0.019   0.018   7.962
 6216SOL    HW119328   0.048   0.081   7.897
 6216SOL    HW219329   4.427   0.041   7.978
 6217SOL     OW19330   3.914   0.968   8.717
 6217SOL    HW119331   3.999   0.927   8.699
 6217SOL    HW219332   3.851   0.911   8.674
 6218SOL     OW19333   4.039   0.254   9.233
 6218SOL    HW119334   4.102   0.320   9.262
 6218SOL    HW219335   3.964   0.264   9.291
 6219SOL     OW19336   4.312   0.729   7.717
 6219SOL    HW119337   4.314   0.804   7.658
 6219SOL    HW219338   4.243   0.750   7.780
 6220SOL     OW19339   3.813   0.820   8.223
 6220SOL    HW119340   3.895   0.812   8.272
 6220SOL    HW219341   3.772   0.899   8.259
 6221SOL     OW19342   3.853   1.836   9.023
 6221SOL    HW119343   3.850   1.819   9.117
 6221SOL    HW219344   3.762   1.845   8.997
 6222SOL     OW19345   4.252   0.201   8.343
 6222SOL    HW119346   4.286   0.218   8.430
 6222SOL    HW219347   4.266   0.282   8.295
 6223SOL     OW19348   4.081   1.808   8.306
 6223SOL    HW119349   4.129   1.726   8.314
 6223SOL    HW219350   4.148   1.876   8.318
 6224SOL     OW19351   4.045   0.956   7.696
 6224SOL    HW119352   4.127   0.974   7.650
 6224SOL    HW219353   4.014   0.873   7.657
 6225SOL     OW19354   4.179   1.255   9.183
 6225SOL    HW119355   4.152   1.265   9.092
 6225SOL    HW219356   4.098   1.263   9.234
 6226SOL     OW19357   3.914   0.270   8.956
 6226SOL    HW119358   3.847   0.335   8.937
 6226SOL    HW219359   3.919   0.267   9.052
 6227SOL     OW19360   4.193   1.735   7.773
 6227SOL    HW119361   4.223   1.794   7.842
 6227SOL    HW219362   4.263   1.736   7.708
 6228SOL     OW19363   3.978   1.793   8.682
 6228SOL    HW119364   4.027   1.725   8.729
 6228SOL    HW219365   3.965   1.756   8.594
 6229SOL     OW19366   4.110   0.695   7.923
 6229SOL    HW119367   4.137   0.604   7.934
 6229SOL    HW219368   4.017   0.695   7.944
 6230SOL     OW19369   4.328   0.124   7.564
 6230SOL    HW119370   4.414   0.085   7.579
 6230SOL    HW219371   4.305   0.099   7.475
 6231SOL     OW19372   0.017   1.427   8.364
 6231SOL    HW119373   0.091   1.452   8.309
 6231SOL    HW219374   4.446   1.410   8.302
 6232SOL     OW19375   4.270   0.106   7.986
 6232SOL    HW119376   4.185   0.066   8.004
 6232SOL    HW219377   4.256   0.157   7.906
 6233SOL     OW19378   4.023   0.074   7.638
 6233SOL    HW119379   4.102   0.124   7.620
 6233SOL    HW219380   4.053   4.499   7.690
 6234SOL     OW19381   0.320   0.682   8.903
 6234SOL    HW119382   0.244   0.624   8.896
 6234SOL    HW219383   0.395   0.626   8.882
 6235SOL     OW19384   4.189   1.145   8.185
 6235SOL    HW119385   4.118   1.127   8.247
 6235SOL    HW219386   4.150   1.127   8.099
 6236SOL     OW19387   3.804   0.551   8.841
 6236SOL    HW119388   3.894   0.555   8.810
 6236SOL    HW219389   3.797   0.624   8.904
 6237SOL     OW19390   4.295   0.235   8.606
 6237SOL    HW119391   4.308   0.142   8.625
 6237SOL    HW219392   4.205   0.253   8.635
 6238SOL     OW19393   4.229   1.387   7.620
 6238SOL    HW119394   4.145   1.372   7.663
 6238SOL    HW219395   4.206   1.405   7.529
 6239SOL     OW19396   4.247   0.269   7.772
 6239SOL    HW119397   4.285   0.213   7.704
 6239SOL    HW219398   4.228   0.352   7.726
 6240SOL     OW19399   4.139   0.813   8.698
 6240SOL    HW119400   4.206   0.824   8.765
 6240SOL    HW219401   4.104   0.725   8.712
 6241SOL     OW19402   3.792   1.572   8.797
 6241SOL    HW119403   3.758   1.645   8.745
 6241SOL    HW219404   3.887   1.581   8.792
 6242SOL     OW19405   4.077   1.106   7.940
 6242SOL    HW119406   4.078   1.179   7.878
 6242SOL    HW219407   4.075   1.028   7.885
 6243SOL     OW19408   4.299   0.539   8.310
 6243SOL    HW119409   4.301   0.605   8.241
 6243SOL    HW219410   4.360   0.572   8.377
 6244SOL     OW19411   4.073   1.529   8.767
 6244SOL    HW119412   4.065   1.486   8.682
 6244SOL    HW219413   4.168   1.533   8.783
 6245SOL     OW19414   4.135   0.743   9.052
 6245SOL    HW119415   4.193   0.789   8.991
 6245SOL    HW219416   4.180   0.660   9.069
 6246SOL     OW19417   4.235   0.068   9.177
 6246SOL    HW119418   4.201   4.488   9.137
 6246SOL    HW219419   4.158   0.121   9.196
 6247SOL     OW19420   4.292   0.885   8.474
 6247SOL    HW119421   4.326   0.973   8.487
 6247SOL    HW219422   4.243   0.866   8.554
 6248SOL     OW19423   4.014   0.238   8.688
 6248SOL    HW119424   3.974   0.250   8.774
 6248SOL    HW219425   4.044   0.147   8.688
 6249SOL     OW19426   3.770   1.310   8.725
 6249SOL    HW119427   3.803   1.257   8.798
 6249SOL    HW219428   3.777   1.400   8.756
 6250SOL     OW19429   4.013   0.060   8.104
 6250SOL    HW119430   4.011   0.156   8.108
 6250SOL    HW219431   4.033   0.033   8.194
 6251SOL     OW19432   4.076   0.916   9.255
 6251SOL    HW119433   4.159   0.932   9.302
 6251SOL    HW219434   4.099   0.852   9.187
 6252SOL     OW19435   4.032   0.810   8.395
 6252SOL    HW119436   4.124   0.836   8.394
 6252SOL    HW219437   4.034   0.720   8.429
 6253SOL     OW19438   4.066   0.528   8.458
 6253SOL    HW119439   4.023   0.445   8.439
 6253SOL    HW219440   4.143   0.529   8.401
 6254SOL     OW19441   3.729   1.323   7.643
 6254SOL    HW119442   3.642   1.336   7.606
 6254SOL    HW219443   3.728   1.233   7.676
 6255SOL     OW19444   3.815   1.790   8.384
 6255SOL    HW119445   3.784   1.710   8.342
 6255SOL    HW219446   3.905   1.801   8.353
 6256SOL     OW19447   4.232   1.581   8.353
 6256SOL    HW119448   4.316   1.619   8.378
 6256SOL    HW219449   4.255   1.507   8.297
 6257SOL     OW19450   3.758   0.543   8.565
 6257SOL    HW119451   3.836   0.518   8.515
 6257SOL    HW219452   3.789   0.548   8.656
 6258SOL     OW19453   3.909   0.517   9.168
 6258SOL    HW119454   3.980   0.495   9.108
 6258SOL    HW219455   3.865   0.591   9.127
 6259SOL     OW19456   0.033   0.556   7.714
 6259SOL    HW119457   0.021   0.480   7.772
 6259SOL    HW219458   4.464   0.617   7.741
 6260SOL     OW19459   3.973   1.554   9.179
 6260SOL    HW119460   3.945   1.616   9.246
 6260SOL    HW219461   3.968   1.469   9.222
 6261SOL     OW19462   4.194   0.494   7.634
 6261SOL    HW119463   4.250   0.569   7.654
 6261SOL    HW219464   4.106   0.532   7.625
 6262SOL     OW19465   3.873   1.139   8.919
 6262SOL    HW119466   3.877   1.085   8.998
 6262SOL    HW219467   3.888   1.078   8.847
 6263SOL     OW19468   3.807   1.267   8.462
 6263SOL    HW119469   3.794   1.276   8.556
 6263SOL    HW219470   3.735   1.212   8.432
 6264SOL     OW19471   4.390   1.652   9.151
 6264SOL    HW119472   4.357   1.739   9.172
 6264SOL    HW219473   4.443   1.665   9.072
 6265SOL     OW19474   3.859   1.797   9.292
 6265SOL    HW119475   3.808   1.733   9.341
 6265SOL    HW219476   3.908   1.845   9.359
 6266SOL     OW19477   3.991   0.328   8.167
 6266SOL    HW119478   3.904   0.360   8.141
 6266SOL    HW219479   3.984   0.315   8.262
 6267SOL     OW19480   4.090   1.304   8.939
 6267SOL    HW119481   4.072   1.381   8.885
 6267SOL    HW219482   4.016   1.245   8.922
 6268SOL     OW19483   4.324   1.490   7.930
 6268SOL    HW119484   4.344   1.431   7.857
 6268SOL    HW219485   4.261   1.552   7.894
 6269SOL     OW19486   3.983   1.351   7.733
 6269SOL    HW119487   3.890   1.347   7.711
 6269SOL    HW219488   3.985   1.386   7.822
 6270SOL     OW19489   3.835   1.018   9.168
 6270SOL    HW119490   3.759   0.995   9.221
 6270SOL    HW219491   3.910   0.982   9.215
 6271SOL     OW19492   4.375   0.205   8.937
 6271SOL    HW119493   4.464   0.215   8.904
 6271SOL    HW219494   4.386   0.183   9.030
 6272SOL     OW19495   3.804   0.344   7.494
 6272SOL    HW119496   3.731   0.293   7.458
 6272SOL    HW219497   3.820   0.412   7.428
 6273SOL     OW19498   3.790   0.179   7.771
 6273SOL    HW119499   3.786   0.245   7.702
 6273SOL    HW219500   3.866   0.125   7.748
 6274SOL     OW19501   4.337   0.840   8.881
 6274SOL    HW119502   4.382   0.923   8.867
 6274SOL    HW219503   4.407   0.775   8.892
 6275SOL     OW19504   4.403   0.558   9.179
 6275SOL    HW119505   4.428   0.634   9.232
 6275SOL    HW219506   4.486   0.514   9.158
 6276SOL     OW19507   4.109   1.739   9.008
 6276SOL    HW119508   4.022   1.778   8.997
 6276SOL    HW219509   4.092   1.656   9.053
 6277SOL     OW19510   4.311   0.734   8.112
 6277SOL    HW119511   4.354   0.818   8.100
 6277SOL    HW219512   4.240   0.733   8.048
 6278SOL     OW19513   3.944   1.307   9.303
 6278SOL    HW119514   3.878   1.244   9.276
 6278SOL    HW219515   3.930   1.318   9.397
 6279SOL     OW19516   3.807   1.236   8.112
 6279SOL    HW119517   3.808   1.186   8.193
 6279SOL    HW219518   3.877   1.197   8.059
 6280SOL     OW19519   4.411   1.388   9.098
 6280SOL    HW119520   4.322   1.353   9.101
 6280SOL    HW219521   4.401   1.481   9.116
 6281SOL     OW19522   4.162   0.434   7.977
 6281SOL    HW119523   4.182   0.363   7.916
 6281SOL    HW219524   4.109   0.392   8.045
 6282SOL     OW19525   4.052   0.554   8.737
 6282SOL    HW119526   4.104   0.495   8.791
 6282SOL    HW219527   4.071   0.527   8.647
 6283SOL     OW19528   0.038   1.594   8.133
 6283SOL    HW119529   0.057   1.649   8.057
 6283SOL    HW219530   4.464   1.540   8.105
 6284SOL     OW19531   3.768   1.073   7.752
 6284SOL    HW119532   3.861   1.063   7.736
 6284SOL    HW219533   3.738   0.986   7.776
 6285SOL     OW19534   3.955   0.628   9.429
 6285SOL    HW119535   3.867   0.621   9.466
 6285SOL    HW219536   3.946   0.594   9.339
 6286SOL     OW19537   3.932   0.298  10.298
 6286SOL    HW119538   3.967   0.270  10.383
 6286SOL    HW219539   3.852   0.247  10.286
 6287SOL     OW19540   3.732   0.384   9.950
 6287SOL    HW119541   3.646   0.403   9.986
 6287SOL    HW219542   3.718   0.308   9.893
 6288SOL     OW19543   4.272   1.252  10.456
 6288SOL    HW119544   4.193   1.302  10.434
 6288SOL    HW219545   4.327   1.314  10.503
 6289SOL     OW19546   0.027   0.807   0.077
 6289SOL    HW119547   0.096   0.854   0.123
 6289SOL    HW219548   0.059   0.797  11.088
 6290SOL     OW19549   4.399   0.998   9.954
 6290SOL    HW119550   4.469   0.990  10.018
 6290SOL    HW219551   4.334   1.054   9.996
 6291SOL     OW19552   4.059   1.434  10.379
 6291SOL    HW119553   3.986   1.393  10.331
 6291SOL    HW219554   4.108   1.482  10.312
 6292SOL     OW19555   4.173   0.397  10.799
 6292SOL    HW119556   4.242   0.331  10.798
 6292SOL    HW219557   4.093   0.348  10.819
 6293SOL     OW19558   3.943   1.713   9.786
 6293SOL    HW119559   3.967   1.790   9.838
 6293SOL    HW219560   4.014   1.706   9.721
 6294SOL     OW19561   3.953   1.439   9.843
 6294SOL    HW119562   3.936   1.533   9.851
 6294SOL    HW219563   3.892   1.399   9.905
 6295SOL     OW19564   3.973   1.089  10.197
 6295SOL    HW119565   3.977   1.005  10.242
 6295SOL    HW219566   3.919   1.144  10.253
 6296SOL     OW19567   4.357   1.797  10.759
 6296SOL    HW119568   4.269   1.767  10.783
 6296SOL    HW219569   4.352   1.893  10.763
 6297SOL     OW19570   4.311   0.984   9.446
 6297SOL    HW119571   4.339   1.038   9.373
 6297SOL    HW219572   4.379   0.996   9.513
 6298SOL     OW19573   3.839   0.651   9.869
 6298SOL    HW119574   3.810   0.562   9.891
 6298SOL    HW219575   3.830   0.699   9.951
 6299SOL     OW19576   3.754   1.597   9.434
 6299SOL    HW119577   3.736   1.505   9.453
 6299SOL    HW219578   3.729   1.643   9.515
 6300SOL     OW19579   3.847   0.728  10.911
 6300SOL    HW119580   3.940   0.749  10.913
 6300SOL    HW219581   3.803   0.812  10.904
 6301SOL     OW19582   4.315   1.385  10.047
 6301SOL    HW119583   4.278   1.296  10.051
 6301SOL    HW219584   4.313   1.407   9.954
 6302SOL     OW19585   0.018   0.017   9.823
 6302SOL    HW119586   0.048   0.081   9.759
 6302SOL    HW219587   4.427   0.041   9.840
 6303SOL     OW19588   3.914   0.968  10.577
 6303SOL    HW119589   3.999   0.926  10.559
 6303SOL    HW219590   3.850   0.910  10.536
 6304SOL     OW19591   4.056   0.274  11.088
 6304SOL    HW119592   4.114   0.334   0.035
 6304SOL    HW219593   3.972   0.281   0.035
 6305SOL     OW19594   4.312   0.729   9.579
 6305SOL    HW119595   4.314   0.804   9.520
 6305SOL    HW219596   4.243   0.750   9.642
 6306SOL     OW19597   3.813   0.820  10.086
 6306SOL    HW119598   3.894   0.812  10.134
 6306SOL    HW219599   3.772   0.899  10.121
 6307SOL     OW19600   3.854   1.839  10.894
 6307SOL    HW119601   3.835   1.804  10.981
 6307SOL    HW219602   3.769   1.844  10.850
 6308SOL     OW19603   4.251   0.201  10.207
 6308SOL    HW119604   4.288   0.221  10.294
 6308SOL    HW219605   4.265   0.281  10.157
 6309SOL     OW19606   4.081   1.808  10.168
 6309SOL    HW119607   4.129   1.726  10.176
 6309SOL    HW219608   4.148   1.876  10.180
 6310SOL     OW19609   4.045   0.956   9.558
 6310SOL    HW119610   4.127   0.974   9.512
 6310SOL    HW219611   4.014   0.873   9.519
 6311SOL     OW19612   4.180   1.262  11.052
 6311SOL    HW119613   4.154   1.271  10.961
 6311SOL    HW219614   4.106   1.218  11.095
 6312SOL     OW19615   3.921   0.272  10.812
 6312SOL    HW119616   3.848   0.334  10.802
 6312SOL    HW219617   3.928   0.258  10.906
 6313SOL     OW19618   4.193   1.735   9.635
 6313SOL    HW119619   4.223   1.794   9.704
 6313SOL    HW219620   4.263   1.736   9.570
 6314SOL     OW19621   3.978   1.793  10.544
 6314SOL    HW119622   4.027   1.726  10.592
 6314SOL    HW219623   3.965   1.756  10.457
 6315SOL     OW19624   4.110   0.695   9.785
 6315SOL    HW119625   4.137   0.604   9.796
 6315SOL    HW219626   4.017   0.695   9.806
 6316SOL     OW19627   4.328   0.124   9.426
 6316SOL    HW119628   4.414   0.085   9.441
 6316SOL    HW219629   4.305   0.099   9.337
 6317SOL     OW19630   0.017   1.428  10.226
 6317SOL    HW119631   0.091   1.452  10.171
 6317SOL    HW219632   4.446   1.410  10.164
 6318SOL     OW19633   4.270   0.107   9.848
 6318SOL    HW119634   4.185   0.065   9.866
 6318SOL    HW219635   4.256   0.157   9.768
 6319SOL     OW19636   4.023   0.074   9.500
 6319SOL    HW119637   4.102   0.124   9.482
 6319SOL    HW219638   4.053   4.499   9.552
 6320SOL     OW19639   0.310   0.684  10.766
 6320SOL    HW119640   0.241   0.618  10.773
 6320SOL    HW219641   0.389   0.635  10.746
 6321SOL     OW19642   4.189   1.145  10.047
 6321SOL    HW119643   4.118   1.127  10.109
 6321SOL    HW219644   4.150   1.127   9.961
 6322SOL     OW19645   3.802   0.551  10.704
 6322SOL    HW119646   3.893   0.555  10.674
 6322SOL    HW219647   3.798   0.617  10.774
 6323SOL     OW19648   4.296   0.234  10.473
 6323SOL    HW119649   4.305   0.140  10.482
 6323SOL    HW219650   4.204   0.252  10.496
 6324SOL     OW19651   4.229   1.387   9.482
 6324SOL    HW119652   4.145   1.372   9.525
 6324SOL    HW219653   4.206   1.405   9.391
 6325SOL     OW19654   4.247   0.269   9.634
 6325SOL    HW119655   4.285   0.213   9.566
 6325SOL    HW219656   4.228   0.352   9.588
 6326SOL     OW19657   4.139   0.813  10.560
 6326SOL    HW119658   4.207   0.823  10.626
 6326SOL    HW219659   4.105   0.725  10.574
 6327SOL     OW19660   3.792   1.575  10.658
 6327SOL    HW119661   3.759   1.646  10.604
 6327SOL    HW219662   3.887   1.581  10.652
 6328SOL     OW19663   4.077   1.106   9.802
 6328SOL    HW119664   4.078   1.179   9.740
 6328SOL    HW219665   4.075   1.028   9.747
 6329SOL     OW19666   4.299   0.539  10.173
 6329SOL    HW119667   4.302   0.605  10.104
 6329SOL    HW219668   4.360   0.571  10.239
 6330SOL     OW19669   4.073   1.528  10.629
 6330SOL    HW119670   4.066   1.485  10.544
 6330SOL    HW219671   4.167   1.532  10.645
 6331SOL     OW19672   4.134   0.738  10.906
 6331SOL    HW119673   4.195   0.784  10.849
 6331SOL    HW219674   4.168   0.649  10.910
 6332SOL     OW19675   4.292   0.885  10.336
 6332SOL    HW119676   4.326   0.973  10.349
 6332SOL    HW219677   4.242   0.867  10.416
 6333SOL     OW19678   4.014   0.238  10.549
 6333SOL    HW119679   3.976   0.252  10.636
 6333SOL    HW219680   4.043   0.147  10.549
 6334SOL     OW19681   3.772   1.311  10.586
 6334SOL    HW119682   3.801   1.257  10.660
 6334SOL    HW219683   3.776   1.401  10.619
 6335SOL     OW19684   4.013   0.060   9.966
 6335SOL    HW119685   4.011   0.156   9.970
 6335SOL    HW219686   4.033   0.033  10.056
 6336SOL     OW19687   4.080   0.919  11.096
 6336SOL    HW119688   4.164   0.933   0.039
 6336SOL    HW219689   4.098   0.852  11.029
 6337SOL     OW19690   4.033   0.810  10.257
 6337SOL    HW119691   4.125   0.836  10.256
 6337SOL    HW219692   4.034   0.720  10.291
 6338SOL     OW19693   4.066   0.528  10.320
 6338SOL    HW119694   4.023   0.445  10.301
 6338SOL    HW219695   4.143   0.529  10.264
 6339SOL     OW19696   3.729   1.323   9.505
 6339SOL    HW119697   3.642   1.336   9.468
 6339SOL    HW219698   3.728   1.233   9.538
 6340SOL     OW19699   3.815   1.790  10.246
 6340SOL    HW119700   3.784   1.710  10.204
 6340SOL    HW219701   3.904   1.801  10.215
 6341SOL     OW19702   4.232   1.581  10.215
 6341SOL    HW119703   4.316   1.619  10.240
 6341SOL    HW219704   4.255   1.507  10.159
 6342SOL     OW19705   3.758   0.543  10.427
 6342SOL    HW119706   3.836   0.519  10.377
 6342SOL    HW219707   3.789   0.549  10.518
 6343SOL     OW19708   0.033   0.556   9.576
 6343SOL    HW119709   0.021   0.480   9.634
 6343SOL    HW219710   4.464   0.617   9.603
 6344SOL     OW19711   3.979   1.566  11.055
 6344SOL    HW119712   3.925   1.605   0.024
 6344SOL    HW219713   3.975   1.471  11.072
 6345SOL     OW19714   4.194   0.494   9.496
 6345SOL    HW119715   4.250   0.569   9.516
 6345SOL    HW219716   4.106   0.532   9.487
 6346SOL     OW19717   3.878   1.138  10.780
 6346SOL    HW119718   3.873   1.081  10.857
 6346SOL    HW219719   3.890   1.077  10.706
 6347SOL     OW19720   3.807   1.268  10.323
 6347SOL    HW119721   3.795   1.277  10.418
 6347SOL    HW219722   3.735   1.212  10.295
 6348SOL     OW19723   4.396   1.666  11.007
 6348SOL    HW119724   4.324   1.726  10.993
 6348SOL    HW219725   4.434   1.652  10.921
 6349SOL     OW19726   3.991   0.328  10.029
 6349SOL    HW119727   3.904   0.359  10.003
 6349SOL    HW219728   3.984   0.315  10.124
 6350SOL     OW19729   4.087   1.306  10.808
 6350SOL    HW119730   4.074   1.380  10.749
 6350SOL    HW219731   4.015   1.245  10.786
 6351SOL     OW19732   4.324   1.490   9.792
 6351SOL    HW119733   4.344   1.431   9.719
 6351SOL    HW219734   4.261   1.552   9.756
 6352SOL     OW19735   3.983   1.351   9.595
 6352SOL    HW119736   3.890   1.347   9.573
 6352SOL    HW219737   3.985   1.386   9.684
 6353SOL     OW19738   3.836   1.011  11.021
 6353SOL    HW119739   3.765   0.994  11.083
 6353SOL    HW219740   3.915   0.982  11.067
 6354SOL     OW19741   4.382   0.184  10.812
 6354SOL    HW119742   4.453   0.206  10.752
 6354SOL    HW219743   4.415   0.210  10.898
 6355SOL     OW19744   3.804   0.344   9.356
 6355SOL    HW119745   3.731   0.293   9.320
 6355SOL    HW219746   3.820   0.412   9.290
 6356SOL     OW19747   3.790   0.179   9.633
 6356SOL    HW119748   3.786   0.245   9.564
 6356SOL    HW219749   3.866   0.125   9.610
 6357SOL     OW19750   4.337   0.839  10.744
 6357SOL    HW119751   4.380   0.923  10.729
 6357SOL    HW219752   4.410   0.776  10.748
 6358SOL     OW19753   4.114   1.735  10.869
 6358SOL    HW119754   4.032   1.785  10.863
 6358SOL    HW219755   4.091   1.658  10.921
 6359SOL     OW19756   4.311   0.734   9.974
 6359SOL    HW119757   4.354   0.818   9.962
 6359SOL    HW219758   4.240   0.733   9.910
 6360SOL     OW19759   3.807   1.236   9.974
 6360SOL    HW119760   3.808   1.186  10.055
 6360SOL    HW219761   3.877   1.197   9.921
 6361SOL     OW19762   4.404   1.393  10.939
 6361SOL    HW119763   4.330   1.343  10.972
 6361SOL    HW219764   4.396   1.479  10.980
 6362SOL     OW19765   4.162   0.434   9.839
 6362SOL    HW119766   4.182   0.363   9.778
 6362SOL    HW219767   4.109   0.392   9.907
 6363SOL     OW19768   4.052   0.554  10.599
 6363SOL    HW119769   4.104   0.494  10.652
 6363SOL    HW219770   4.070   0.528  10.509
 6364SOL     OW19771   0.038   1.594   9.995
 6364SOL    HW119772   0.057   1.649   9.919
 6364SOL    HW219773   4.464   1.540   9.967
 6365SOL     OW19774   3.768   1.073   9.614
 6365SOL    HW119775   3.861   1.063   9.598
 6365SOL    HW219776   3.738   0.986   9.638
 6366SOL     OW19777   3.952   2.478   0.119
 6366SOL    HW119778   3.865   2.483   0.158
 6366SOL    HW219779   3.937   2.487   0.025
 6367SOL     OW19780   3.947   2.144   0.990
 6367SOL    HW119781   3.979   2.110   1.074
 6367SOL    HW219782   3.858   2.109   0.983
 6368SOL     OW19783   3.730   2.244   0.638
 6368SOL    HW119784   3.647   2.267   0.679
 6368SOL    HW219785   3.711   2.163   0.590
 6369SOL     OW19786   4.271   3.114   1.147
 6369SOL    HW119787   4.193   3.165   1.124
 6369SOL    HW219788   4.328   3.176   1.192
 6370SOL     OW19789   0.025   2.646   1.857
 6370SOL    HW119790   0.073   2.697   1.921
 6370SOL    HW219791   0.066   2.666   1.773
 6371SOL     OW19792   4.398   2.859   0.643
 6371SOL    HW119793   4.470   2.853   0.706
 6371SOL    HW219794   4.334   2.916   0.685
 6372SOL     OW19795   4.418   3.023   1.815
 6372SOL    HW119796   4.463   3.104   1.791
 6372SOL    HW219797   4.327   3.036   1.786
 6373SOL     OW19798   4.058   3.296   1.069
 6373SOL    HW119799   3.987   3.255   1.020
 6373SOL    HW219800   4.108   3.344   1.003
 6374SOL     OW19801   4.170   2.261   1.489
 6374SOL    HW119802   4.243   2.200   1.492
 6374SOL    HW219803   4.092   2.205   1.501
 6375SOL     OW19804   3.943   3.574   0.477
 6375SOL    HW119805   3.967   3.652   0.527
 6375SOL    HW219806   4.010   3.569   0.408
 6376SOL     OW19807   3.951   3.301   0.532
 6376SOL    HW119808   3.937   3.395   0.539
 6376SOL    HW219809   3.889   3.263   0.595
 6377SOL     OW19810   3.972   2.951   0.886
 6377SOL    HW119811   3.977   2.867   0.932
 6377SOL    HW219812   3.919   3.006   0.943
 6378SOL     OW19813   4.359   3.659   1.450
 6378SOL    HW119814   4.273   3.626   1.476
 6378SOL    HW219815   4.349   3.755   1.453
 6379SOL     OW19816   4.303   2.860   0.137
 6379SOL    HW119817   4.320   2.925   0.068
 6379SOL    HW219818   4.381   2.863   0.192
 6380SOL     OW19819   3.838   2.512   0.559
 6380SOL    HW119820   3.808   2.423   0.581
 6380SOL    HW219821   3.830   2.561   0.641
 6381SOL     OW19822   3.765   3.464   0.120
 6381SOL    HW119823   3.738   3.375   0.143
 6381SOL    HW219824   3.738   3.517   0.196
 6382SOL     OW19825   3.845   2.603   1.587
 6382SOL    HW119826   3.937   2.623   1.604
 6382SOL    HW219827   3.800   2.687   1.592
 6383SOL     OW19828   4.315   3.247   0.737
 6383SOL    HW119829   4.278   3.158   0.741
 6383SOL    HW219830   4.313   3.269   0.644
 6384SOL     OW19831   0.022   1.871   0.530
 6384SOL    HW119832   0.056   1.931   0.464
 6384SOL    HW219833   4.427   1.883   0.529
 6385SOL     OW19834   3.914   2.831   1.269
 6385SOL    HW119835   3.999   2.789   1.251
 6385SOL    HW219836   3.851   2.773   1.227
 6386SOL     OW19837   4.054   2.113   1.805
 6386SOL    HW119838   4.101   2.195   1.821
 6386SOL    HW219839   3.966   2.129   1.839
 6387SOL     OW19840   4.308   2.583   0.268
 6387SOL    HW119841   4.330   2.657   0.212
 6387SOL    HW219842   4.244   2.618   0.330
 6388SOL     OW19843   3.813   2.682   0.775
 6388SOL    HW119844   3.895   2.674   0.824
 6388SOL    HW219845   3.771   2.761   0.810
 6389SOL     OW19846   3.853   3.699   1.575
 6389SOL    HW119847   3.850   3.681   1.669
 6389SOL    HW219848   3.762   3.706   1.549
 6390SOL     OW19849   4.255   2.055   0.881
 6390SOL    HW119850   4.274   2.060   0.975
 6390SOL    HW219851   4.266   2.145   0.850
 6391SOL     OW19852   4.081   3.670   0.859
 6391SOL    HW119853   4.128   3.588   0.866
 6391SOL    HW219854   4.148   3.738   0.869
 6392SOL     OW19855   4.042   2.818   0.273
 6392SOL    HW119856   4.120   2.845   0.224
 6392SOL    HW219857   4.014   2.737   0.231
 6393SOL     OW19858   4.179   3.116   1.735
 6393SOL    HW119859   4.152   3.127   1.644
 6393SOL    HW219860   4.098   3.125   1.786
 6394SOL     OW19861   3.923   2.146   1.500
 6394SOL    HW119862   3.842   2.195   1.492
 6394SOL    HW219863   3.907   2.085   1.572
 6395SOL     OW19864   4.194   3.596   0.326
 6395SOL    HW119865   4.223   3.656   0.394
 6395SOL    HW219866   4.267   3.590   0.265
 6396SOL     OW19867   3.978   3.655   1.234
 6396SOL    HW119868   4.027   3.587   1.281
 6396SOL    HW219869   3.965   3.618   1.146
 6397SOL     OW19870   4.108   2.557   0.476
 6397SOL    HW119871   4.137   2.466   0.488
 6397SOL    HW219872   4.015   2.556   0.499
 6398SOL     OW19873   4.344   1.990   0.111
 6398SOL    HW119874   4.432   1.955   0.125
 6398SOL    HW219875   4.315   1.951   0.028
 6399SOL     OW19876   0.017   3.289   0.916
 6399SOL    HW119877   0.091   3.315   0.861
 6399SOL    HW219878   4.446   3.272   0.854
 6400SOL     OW19879   4.262   1.925   0.502
 6400SOL    HW119880   4.183   1.930   0.556
 6400SOL    HW219881   4.259   2.004   0.448
 6401SOL     OW19882   4.010   1.909   0.197
 6401SOL    HW119883   4.056   1.964   0.133
 6401SOL    HW219884   4.075   1.845   0.224
 6402SOL     OW19885   0.320   2.541   1.447
 6402SOL    HW119886   0.246   2.481   1.449
 6402SOL    HW219887   0.396   2.484   1.437
 6403SOL     OW19888   4.190   3.007   0.739
 6403SOL    HW119889   4.119   2.989   0.800
 6403SOL    HW219890   4.151   2.990   0.653
 6404SOL     OW19891   3.801   2.417   1.391
 6404SOL    HW119892   3.892   2.416   1.363
 6404SOL    HW219893   3.797   2.487   1.456
 6405SOL     OW19894   4.285   2.076   1.149
 6405SOL    HW119895   4.325   2.004   1.199
 6405SOL    HW219896   4.198   2.087   1.188
 6406SOL     OW19897   4.233   3.263   0.189
 6406SOL    HW119898   4.148   3.247   0.229
 6406SOL    HW219899   4.218   3.252   0.095
 6407SOL     OW19900   4.250   2.130   0.325
 6407SOL    HW119901   4.284   2.074   0.255
 6407SOL    HW219902   4.230   2.213   0.281
 6408SOL     OW19903   4.138   2.674   1.250
 6408SOL    HW119904   4.206   2.685   1.317
 6408SOL    HW219905   4.104   2.586   1.265
 6409SOL     OW19906   3.792   3.434   1.349
 6409SOL    HW119907   3.758   3.506   1.297
 6409SOL    HW219908   3.887   3.443   1.344
 6410SOL     OW19909   4.077   2.973   0.496
 6410SOL    HW119910   4.077   3.046   0.435
 6410SOL    HW219911   4.072   2.895   0.440
 6411SOL     OW19912   4.297   2.401   0.863
 6411SOL    HW119913   4.301   2.467   0.794
 6411SOL    HW219914   4.359   2.432   0.929
 6412SOL     OW19915   4.073   3.391   1.319
 6412SOL    HW119916   4.065   3.348   1.234
 6412SOL    HW219917   4.167   3.395   1.335
 6413SOL     OW19918   4.135   2.606   1.604
 6413SOL    HW119919   4.194   2.651   1.543
 6413SOL    HW219920   4.178   2.522   1.620
 6414SOL     OW19921   4.230   1.914   1.735
 6414SOL    HW119922   4.187   1.854   1.675
 6414SOL    HW219923   4.164   1.980   1.755
 6415SOL     OW19924   4.291   2.747   1.026
 6415SOL    HW119925   4.327   2.835   1.039
 6415SOL    HW219926   4.243   2.728   1.106
 6416SOL     OW19927   4.025   2.064   1.246
 6416SOL    HW119928   3.987   2.096   1.328
 6416SOL    HW219929   4.004   1.971   1.245
 6417SOL     OW19930   3.769   3.172   1.277
 6417SOL    HW119931   3.803   3.119   1.350
 6417SOL    HW219932   3.777   3.262   1.308
 6418SOL     OW19933   4.021   1.929   0.625
 6418SOL    HW119934   4.007   2.020   0.651
 6418SOL    HW219935   4.031   1.882   0.707
 6419SOL     OW19936   4.076   2.777   1.808
 6419SOL    HW119937   4.158   2.794   1.853
 6419SOL    HW219938   4.099   2.714   1.739
 6420SOL     OW19939   4.032   2.671   0.947
 6420SOL    HW119940   4.124   2.698   0.946
 6420SOL    HW219941   4.034   2.582   0.981
 6421SOL     OW19942   4.062   2.385   1.009
 6421SOL    HW119943   4.025   2.298   0.993
 6421SOL    HW219944   4.140   2.389   0.953
 6422SOL     OW19945   3.730   3.190   0.196
 6422SOL    HW119946   3.643   3.201   0.158
 6422SOL    HW219947   3.732   3.099   0.225
 6423SOL     OW19948   3.815   3.652   0.937
 6423SOL    HW119949   3.784   3.572   0.894
 6423SOL    HW219950   3.905   3.663   0.905
 6424SOL     OW19951   4.232   3.442   0.906
 6424SOL    HW119952   4.316   3.482   0.930
 6424SOL    HW219953   4.255   3.369   0.848
 6425SOL     OW19954   3.760   2.405   1.116
 6425SOL    HW119955   3.840   2.386   1.068
 6425SOL    HW219956   3.787   2.411   1.208
 6426SOL     OW19957   3.914   2.379   1.725
 6426SOL    HW119958   3.972   2.345   1.657
 6426SOL    HW219959   3.867   2.450   1.683
 6427SOL     OW19960   0.033   2.418   0.271
 6427SOL    HW119961   0.017   2.341   0.326
 6427SOL    HW219962   4.464   2.480   0.298
 6428SOL     OW19963   3.972   3.416   1.731
 6428SOL    HW119964   3.945   3.478   1.798
 6428SOL    HW219965   3.968   3.331   1.774
 6429SOL     OW19966   4.192   2.353   0.180
 6429SOL    HW119967   4.248   2.426   0.206
 6429SOL    HW219968   4.104   2.391   0.176
 6430SOL     OW19969   3.873   3.001   1.471
 6430SOL    HW119970   3.877   2.947   1.550
 6430SOL    HW219971   3.889   2.940   1.399
 6431SOL     OW19972   3.807   3.129   1.014
 6431SOL    HW119973   3.794   3.138   1.108
 6431SOL    HW219974   3.735   3.074   0.984
 6432SOL     OW19975   4.390   3.514   1.703
 6432SOL    HW119976   4.357   3.601   1.724
 6432SOL    HW219977   4.444   3.527   1.625
 6433SOL     OW19978   3.859   3.659   1.843
 6433SOL    HW119979   3.808   3.594   1.893
 6433SOL    HW219980   3.907   3.707   1.910
 6434SOL     OW19981   3.989   2.183   0.717
 6434SOL    HW119982   3.902   2.217   0.694
 6434SOL    HW219983   3.985   2.171   0.812
 6435SOL     OW19984   4.090   3.166   1.491
 6435SOL    HW119985   4.072   3.243   1.437
 6435SOL    HW219986   4.016   3.107   1.474
 6436SOL     OW19987   4.324   3.352   0.482
 6436SOL    HW119988   4.345   3.295   0.408
 6436SOL    HW219989   4.259   3.414   0.448
 6437SOL     OW19990   3.988   3.206   0.286
 6437SOL    HW119991   3.899   3.206   0.252
 6437SOL    HW219992   3.980   3.244   0.374
 6438SOL     OW19993   3.835   2.881   1.720
 6438SOL    HW119994   3.759   2.857   1.773
 6438SOL    HW219995   3.910   2.844   1.767
 6439SOL     OW19996   4.392   2.067   1.493
 6439SOL    HW119997   4.479   2.060   1.455
 6439SOL    HW219998   4.406   2.058   1.587
 6440SOL     OW19999   3.807   2.212   0.049
 6440SOL    HW120000   3.728   2.173   0.009
 6440SOL    HW220001   3.824   2.289  11.095
 6441SOL     OW20002   3.793   2.021   0.316
 6441SOL    HW120003   3.783   2.103   0.266
 6441SOL    HW220004   3.876   1.984   0.284
 6442SOL     OW20005   4.336   2.701   1.433
 6442SOL    HW120006   4.383   2.784   1.419
 6442SOL    HW220007   4.405   2.635   1.442
 6443SOL     OW20008   4.403   2.418   1.735
 6443SOL    HW120009   4.428   2.496   1.784
 6443SOL    HW220010   4.487   2.377   1.710
 6444SOL     OW20011   4.109   3.601   1.560
 6444SOL    HW120012   4.022   3.640   1.549
 6444SOL    HW220013   4.092   3.518   1.605
 6445SOL     OW20014   4.310   2.595   0.664
 6445SOL    HW120015   4.354   2.680   0.653
 6445SOL    HW220016   4.239   2.597   0.600
 6446SOL     OW20017   3.944   3.169   1.855
 6446SOL    HW120018   3.878   3.106   1.828
 6446SOL    HW220019   3.930   3.180   1.949
 6447SOL     OW20020   3.807   3.097   0.664
 6447SOL    HW120021   3.810   3.047   0.746
 6447SOL    HW220022   3.878   3.061   0.611
 6448SOL     OW20023   4.411   3.250   1.650
 6448SOL    HW120024   4.322   3.215   1.653
 6448SOL    HW220025   4.401   3.343   1.667
 6449SOL     OW20026   4.159   2.295   0.529
 6449SOL    HW120027   4.180   2.224   0.468
 6449SOL    HW220028   4.106   2.253   0.597
 6450SOL     OW20029   4.051   2.413   1.289
 6450SOL    HW120030   4.105   2.357   1.344
 6450SOL    HW220031   4.073   2.387   1.199
 6451SOL     OW20032   0.037   3.455   0.685
 6451SOL    HW120033   0.059   3.510   0.610
 6451SOL    HW220034   4.463   3.402   0.655
 6452SOL     OW20035   3.766   2.934   0.300
 6452SOL    HW120036   3.862   2.928   0.296
 6452SOL    HW220037   3.737   2.847   0.327
 6453SOL     OW20038   3.955   2.486   1.983
 6453SOL    HW120039   3.865   2.486   2.016
 6453SOL    HW220040   3.947   2.458   1.891
 6454SOL     OW20041   3.947   2.144   2.852
 6454SOL    HW120042   3.979   2.110   2.936
 6454SOL    HW220043   3.858   2.109   2.845
 6455SOL     OW20044   3.730   2.244   2.500
 6455SOL    HW120045   3.647   2.268   2.542
 6455SOL    HW220046   3.710   2.163   2.452
 6456SOL     OW20047   4.271   3.114   3.008
 6456SOL    HW120048   4.193   3.165   2.986
 6456SOL    HW220049   4.328   3.176   3.054
 6457SOL     OW20050   0.025   2.646   3.719
 6457SOL    HW120051   0.074   2.697   3.783
 6457SOL    HW220052   0.066   2.666   3.635
 6458SOL     OW20053   4.399   2.860   2.505
 6458SOL    HW120054   4.469   2.852   2.570
 6458SOL    HW220055   4.334   2.916   2.548
 6459SOL     OW20056   4.418   3.023   3.677
 6459SOL    HW120057   4.463   3.104   3.653
 6459SOL    HW220058   4.327   3.036   3.648
 6460SOL     OW20059   4.058   3.296   2.931
 6460SOL    HW120060   3.987   3.255   2.882
 6460SOL    HW220061   4.108   3.344   2.864
 6461SOL     OW20062   4.170   2.261   3.351
 6461SOL    HW120063   4.243   2.200   3.354
 6461SOL    HW220064   4.092   2.205   3.363
 6462SOL     OW20065   3.943   3.575   2.338
 6462SOL    HW120066   3.967   3.652   2.390
 6462SOL    HW220067   4.014   3.568   2.273
 6463SOL     OW20068   3.953   3.301   2.395
 6463SOL    HW120069   3.936   3.395   2.403
 6463SOL    HW220070   3.892   3.261   2.457
 6464SOL     OW20071   3.973   2.951   2.748
 6464SOL    HW120072   3.977   2.867   2.794
 6464SOL    HW220073   3.919   3.006   2.805
 6465SOL     OW20074   4.359   3.659   3.312
 6465SOL    HW120075   4.273   3.626   3.338
 6465SOL    HW220076   4.350   3.754   3.315
 6466SOL     OW20077   4.311   2.846   1.998
 6466SOL    HW120078   4.339   2.900   1.925
 6466SOL    HW220079   4.379   2.858   2.065
 6467SOL     OW20080   3.839   2.512   2.422
 6467SOL    HW120081   3.808   2.424   2.443
 6467SOL    HW220082   3.830   2.561   2.503
 6468SOL     OW20083   3.753   3.459   1.986
 6468SOL    HW120084   3.736   3.367   2.006
 6468SOL    HW220085   3.729   3.505   2.067
 6469SOL     OW20086   3.845   2.603   3.449
 6469SOL    HW120087   3.937   2.623   3.466
 6469SOL    HW220088   3.800   2.688   3.454
 6470SOL     OW20089   4.315   3.247   2.599
 6470SOL    HW120090   4.278   3.158   2.603
 6470SOL    HW220091   4.313   3.269   2.506
 6471SOL     OW20092   0.022   1.869   2.388
 6471SOL    HW120093   0.055   1.934   2.326
 6471SOL    HW220094   4.427   1.883   2.390
 6472SOL     OW20095   3.914   2.831   3.131
 6472SOL    HW120096   3.999   2.789   3.113
 6472SOL    HW220097   3.851   2.773   3.089
 6473SOL     OW20098   4.054   2.113   3.667
 6473SOL    HW120099   4.101   2.195   3.683
 6473SOL    HW220100   3.966   2.129   3.701
 6474SOL     OW20101   4.312   2.590   2.131
 6474SOL    HW120102   4.315   2.665   2.071
 6474SOL    HW220103   4.243   2.612   2.194
 6475SOL     OW20104   3.812   2.682   2.637
 6475SOL    HW120105   3.894   2.674   2.686
 6475SOL    HW220106   3.772   2.761   2.672
 6476SOL     OW20107   3.853   3.699   3.437
 6476SOL    HW120108   3.850   3.681   3.531
 6476SOL    HW220109   3.762   3.706   3.411
 6477SOL     OW20110   4.255   2.055   2.743
 6477SOL    HW120111   4.274   2.060   2.837
 6477SOL    HW220112   4.266   2.145   2.711
 6478SOL     OW20113   4.081   3.670   2.720
 6478SOL    HW120114   4.129   3.588   2.728
 6478SOL    HW220115   4.147   3.738   2.732
 6479SOL     OW20116   4.045   2.818   2.110
 6479SOL    HW120117   4.127   2.837   2.064
 6479SOL    HW220118   4.014   2.736   2.071
 6480SOL     OW20119   4.179   3.116   3.597
 6480SOL    HW120120   4.152   3.127   3.506
 6480SOL    HW220121   4.098   3.125   3.648
 6481SOL     OW20122   3.924   2.146   3.362
 6481SOL    HW120123   3.842   2.195   3.354
 6481SOL    HW220124   3.907   2.084   3.434
 6482SOL     OW20125   4.193   3.597   2.187
 6482SOL    HW120126   4.224   3.656   2.256
 6482SOL    HW220127   4.263   3.599   2.122
 6483SOL     OW20128   3.978   3.655   3.096
 6483SOL    HW120129   4.027   3.588   3.143
 6483SOL    HW220130   3.965   3.618   3.008
 6484SOL     OW20131   4.110   2.557   2.337
 6484SOL    HW120132   4.138   2.466   2.349
 6484SOL    HW220133   4.017   2.557   2.359
 6485SOL     OW20134   4.340   1.976   1.978
 6485SOL    HW120135   4.434   1.958   1.979
 6485SOL    HW220136   4.312   1.951   1.890
 6486SOL     OW20137   0.017   3.289   2.778
 6486SOL    HW120138   0.091   3.314   2.723
 6486SOL    HW220139   4.446   3.272   2.716
 6487SOL     OW20140   4.262   1.925   2.364
 6487SOL    HW120141   4.183   1.931   2.419
 6487SOL    HW220142   4.259   2.004   2.310
 6488SOL     OW20143   4.018   1.909   2.045
 6488SOL    HW120144   4.078   1.974   2.010
 6488SOL    HW220145   4.075   1.844   2.087
 6489SOL     OW20146   0.320   2.540   3.309
 6489SOL    HW120147   0.246   2.481   3.311
 6489SOL    HW220148   0.396   2.483   3.299
 6490SOL     OW20149   4.189   3.008   2.599
 6490SOL    HW120150   4.118   2.989   2.661
 6490SOL    HW220151   4.150   2.989   2.513
 6491SOL     OW20152   3.801   2.417   3.253
 6491SOL    HW120153   3.892   2.416   3.225
 6491SOL    HW220154   3.797   2.487   3.318
 6492SOL     OW20155   4.285   2.076   3.011
 6492SOL    HW120156   4.324   2.004   3.061
 6492SOL    HW220157   4.198   2.087   3.050
 6493SOL     OW20158   4.229   3.249   2.034
 6493SOL    HW120159   4.145   3.234   2.077
 6493SOL    HW220160   4.206   3.267   1.943
 6494SOL     OW20161   4.247   2.127   2.185
 6494SOL    HW120162   4.287   2.073   2.117
 6494SOL    HW220163   4.229   2.211   2.142
 6495SOL     OW20164   4.138   2.674   3.112
 6495SOL    HW120165   4.206   2.685   3.179
 6495SOL    HW220166   4.104   2.586   3.127
 6496SOL     OW20167   3.792   3.434   3.211
 6496SOL    HW120168   3.758   3.507   3.159
 6496SOL    HW220169   3.887   3.443   3.206
 6497SOL     OW20170   4.077   2.968   2.354
 6497SOL    HW120171   4.078   3.041   2.292
 6497SOL    HW220172   4.075   2.890   2.298
 6498SOL     OW20173   4.297   2.401   2.725
 6498SOL    HW120174   4.301   2.467   2.656
 6498SOL    HW220175   4.360   2.432   2.791
 6499SOL     OW20176   4.073   3.391   3.181
 6499SOL    HW120177   4.065   3.348   3.096
 6499SOL    HW220178   4.167   3.395   3.197
 6500SOL     OW20179   4.135   2.606   3.466
 6500SOL    HW120180   4.194   2.651   3.405
 6500SOL    HW220181   4.178   2.521   3.482
 6501SOL     OW20182   4.230   1.914   3.597
 6501SOL    HW120183   4.187   1.854   3.537
 6501SOL    HW220184   4.164   1.980   3.617
 6502SOL     OW20185   4.292   2.747   2.888
 6502SOL    HW120186   4.327   2.835   2.901
 6502SOL    HW220187   4.243   2.728   2.968
 6503SOL     OW20188   4.026   2.064   3.108
 6503SOL    HW120189   3.987   2.096   3.190
 6503SOL    HW220190   4.005   1.971   3.107
 6504SOL     OW20191   3.769   3.172   3.140
 6504SOL    HW120192   3.803   3.119   3.212
 6504SOL    HW220193   3.777   3.262   3.170
 6505SOL     OW20194   4.021   1.929   2.486
 6505SOL    HW120195   4.007   2.020   2.512
 6505SOL    HW220196   4.030   1.882   2.569
 6506SOL     OW20197   4.076   2.777   3.670
 6506SOL    HW120198   4.158   2.794   3.715
 6506SOL    HW220199   4.099   2.714   3.601
 6507SOL     OW20200   4.032   2.671   2.809
 6507SOL    HW120201   4.124   2.698   2.808
 6507SOL    HW220202   4.033   2.582   2.843
 6508SOL     OW20203   4.062   2.385   2.871
 6508SOL    HW120204   4.025   2.298   2.855
 6508SOL    HW220205   4.140   2.389   2.815
 6509SOL     OW20206   3.729   3.185   2.057
 6509SOL    HW120207   3.642   3.198   2.020
 6509SOL    HW220208   3.728   3.095   2.090
 6510SOL     OW20209   3.815   3.652   2.798
 6510SOL    HW120210   3.785   3.572   2.756
 6510SOL    HW220211   3.905   3.663   2.767
 6511SOL     OW20212   4.232   3.443   2.767
 6511SOL    HW120213   4.316   3.481   2.792
 6511SOL    HW220214   4.255   3.369   2.711
 6512SOL     OW20215   3.759   2.405   2.978
 6512SOL    HW120216   3.840   2.386   2.930
 6512SOL    HW220217   3.787   2.411   3.069
 6513SOL     OW20218   3.915   2.379   3.588
 6513SOL    HW120219   3.972   2.344   3.519
 6513SOL    HW220220   3.867   2.450   3.544
 6514SOL     OW20221   0.035   2.423   2.130
 6514SOL    HW120222   0.020   2.341   2.178
 6514SOL    HW220223   4.465   2.481   2.158
 6515SOL     OW20224   3.972   3.416   3.593
 6515SOL    HW120225   3.945   3.479   3.660
 6515SOL    HW220226   3.968   3.331   3.637
 6516SOL     OW20227   4.192   2.355   2.052
 6516SOL    HW120228   4.250   2.430   2.070
 6516SOL    HW220229   4.106   2.393   2.040
 6517SOL     OW20230   3.872   3.001   3.333
 6517SOL    HW120231   3.878   2.947   3.412
 6517SOL    HW220232   3.889   2.940   3.261
 6518SOL     OW20233   3.807   3.129   2.876
 6518SOL    HW120234   3.793   3.138   2.970
 6518SOL    HW220235   3.735   3.074   2.846
 6519SOL     OW20236   4.390   3.514   3.565
 6519SOL    HW120237   4.357   3.601   3.586
 6519SOL    HW220238   4.444   3.528   3.487
 6520SOL     OW20239   3.859   3.659   3.705
 6520SOL    HW120240   3.808   3.594   3.755
 6520SOL    HW220241   3.907   3.707   3.772
 6521SOL     OW20242   3.988   2.182   2.579
 6521SOL    HW120243   3.902   2.217   2.556
 6521SOL    HW220244   3.985   2.171   2.674
 6522SOL     OW20245   4.090   3.165   3.353
 6522SOL    HW120246   4.072   3.243   3.299
 6522SOL    HW220247   4.016   3.107   3.336
 6523SOL     OW20248   4.324   3.352   2.344
 6523SOL    HW120249   4.344   3.293   2.271
 6523SOL    HW220250   4.261   3.414   2.308
 6524SOL     OW20251   3.983   3.213   2.147
 6524SOL    HW120252   3.890   3.209   2.125
 6524SOL    HW220253   3.985   3.248   2.236
 6525SOL     OW20254   3.835   2.881   3.582
 6525SOL    HW120255   3.759   2.857   3.635
 6525SOL    HW220256   3.910   2.844   3.629
 6526SOL     OW20257   4.392   2.067   3.355
 6526SOL    HW120258   4.479   2.060   3.317
 6526SOL    HW220259   4.406   2.058   3.449
 6527SOL     OW20260   3.801   2.199   1.898
 6527SOL    HW120261   3.714   2.178   1.865
 6527SOL    HW220262   3.830   2.273   1.845
 6528SOL     OW20263   3.795   2.020   2.176
 6528SOL    HW120264   3.779   2.100   2.125
 6528SOL    HW220265   3.880   1.989   2.145
 6529SOL     OW20266   4.336   2.701   3.295
 6529SOL    HW120267   4.384   2.784   3.281
 6529SOL    HW220268   4.405   2.635   3.304
 6530SOL     OW20269   4.403   2.418   3.596
 6530SOL    HW120270   4.428   2.496   3.646
 6530SOL    HW220271   4.487   2.377   3.572
 6531SOL     OW20272   4.109   3.601   3.422
 6531SOL    HW120273   4.022   3.640   3.411
 6531SOL    HW220274   4.092   3.518   3.467
 6532SOL     OW20275   4.310   2.596   2.527
 6532SOL    HW120276   4.354   2.680   2.514
 6532SOL    HW220277   4.239   2.596   2.462
 6533SOL     OW20278   3.944   3.169   3.717
 6533SOL    HW120279   3.878   3.106   3.690
 6533SOL    HW220280   3.931   3.180   3.811
 6534SOL     OW20281   3.807   3.098   2.526
 6534SOL    HW120282   3.809   3.048   2.607
 6534SOL    HW220283   3.877   3.059   2.472
 6535SOL     OW20284   4.411   3.250   3.512
 6535SOL    HW120285   4.322   3.215   3.515
 6535SOL    HW220286   4.401   3.343   3.529
 6536SOL     OW20287   4.161   2.294   2.392
 6536SOL    HW120288   4.179   2.225   2.329
 6536SOL    HW220289   4.106   2.253   2.459
 6537SOL     OW20290   4.051   2.413   3.151
 6537SOL    HW120291   4.105   2.357   3.206
 6537SOL    HW220292   4.073   2.387   3.061
 6538SOL     OW20293   0.038   3.456   2.547
 6538SOL    HW120294   0.057   3.511   2.471
 6538SOL    HW220295   4.464   3.402   2.519
 6539SOL     OW20296   3.768   2.935   2.166
 6539SOL    HW120297   3.861   2.925   2.150
 6539SOL    HW220298   3.738   2.848   2.190
 6540SOL     OW20299   3.955   2.486   3.845
 6540SOL    HW120300   3.865   2.485   3.878
 6540SOL    HW220301   3.947   2.458   3.753
 6541SOL     OW20302   3.948   2.144   4.715
 6541SOL    HW120303   3.979   2.110   4.799
 6541SOL    HW220304   3.859   2.109   4.707
 6542SOL     OW20305   3.731   2.244   4.362
 6542SOL    HW120306   3.648   2.268   4.403
 6542SOL    HW220307   3.711   2.163   4.313
 6543SOL     OW20308   4.272   3.114   4.869
 6543SOL    HW120309   4.193   3.164   4.849
 6543SOL    HW220310   4.328   3.176   4.917
 6544SOL     OW20311   0.026   2.644   5.581
 6544SOL    HW120312   0.072   2.697   5.646
 6544SOL    HW220313   0.066   2.667   5.497
 6545SOL     OW20314   4.399   2.860   4.367
 6545SOL    HW120315   4.469   2.852   4.432
 6545SOL    HW220316   4.334   2.916   4.410
 6546SOL     OW20317   4.418   3.023   5.539
 6546SOL    HW120318   4.462   3.104   5.515
 6546SOL    HW220319   4.328   3.035   5.510
 6547SOL     OW20320   4.058   3.296   4.793
 6547SOL    HW120321   3.986   3.255   4.745
 6547SOL    HW220322   4.108   3.344   4.726
 6548SOL     OW20323   4.170   2.261   5.213
 6548SOL    HW120324   4.243   2.199   5.216
 6548SOL    HW220325   4.092   2.206   5.225
 6549SOL     OW20326   3.944   3.575   4.200
 6549SOL    HW120327   3.967   3.652   4.252
 6549SOL    HW220328   4.014   3.568   4.135
 6550SOL     OW20329   3.952   3.301   4.257
 6550SOL    HW120330   3.936   3.395   4.265
 6550SOL    HW220331   3.891   3.261   4.319
 6551SOL     OW20332   3.972   2.951   4.610
 6551SOL    HW120333   3.977   2.867   4.656
 6551SOL    HW220334   3.919   3.006   4.668
 6552SOL     OW20335   4.359   3.659   5.174
 6552SOL    HW120336   4.273   3.626   5.200
 6552SOL    HW220337   4.350   3.754   5.177
 6553SOL     OW20338   4.311   2.846   3.860
 6553SOL    HW120339   4.339   2.900   3.787
 6553SOL    HW220340   4.379   2.858   3.927
 6554SOL     OW20341   3.839   2.512   4.283
 6554SOL    HW120342   3.809   2.424   4.305
 6554SOL    HW220343   3.830   2.561   4.365
 6555SOL     OW20344   3.753   3.459   3.848
 6555SOL    HW120345   3.736   3.367   3.868
 6555SOL    HW220346   3.729   3.505   3.929
 6556SOL     OW20347   3.845   2.603   5.311
 6556SOL    HW120348   3.936   2.624   5.328
 6556SOL    HW220349   3.799   2.687   5.316
 6557SOL     OW20350   4.315   3.247   4.461
 6557SOL    HW120351   4.278   3.158   4.465
 6557SOL    HW220352   4.313   3.269   4.368
 6558SOL     OW20353   0.022   1.869   4.250
 6558SOL    HW120354   0.055   1.934   4.188
 6558SOL    HW220355   4.428   1.882   4.252
 6559SOL     OW20356   3.915   2.831   4.992
 6559SOL    HW120357   3.999   2.789   4.975
 6559SOL    HW220358   3.850   2.772   4.952
 6560SOL     OW20359   4.054   2.113   5.531
 6560SOL    HW120360   4.100   2.195   5.545
 6560SOL    HW220361   3.966   2.129   5.563
 6561SOL     OW20362   4.312   2.590   3.992
 6561SOL    HW120363   4.315   2.665   3.933
 6561SOL    HW220364   4.243   2.612   4.056
 6562SOL     OW20365   3.812   2.682   4.499
 6562SOL    HW120366   3.894   2.673   4.548
 6562SOL    HW220367   3.772   2.762   4.535
 6563SOL     OW20368   3.853   3.699   5.299
 6563SOL    HW120369   3.850   3.681   5.393
 6563SOL    HW220370   3.761   3.706   5.273
 6564SOL     OW20371   4.256   2.055   4.605
 6564SOL    HW120372   4.274   2.060   4.699
 6564SOL    HW220373   4.266   2.145   4.574
 6565SOL     OW20374   4.081   3.670   4.582
 6565SOL    HW120375   4.129   3.588   4.590
 6565SOL    HW220376   4.147   3.738   4.594
 6566SOL     OW20377   4.045   2.818   3.972
 6566SOL    HW120378   4.127   2.837   3.926
 6566SOL    HW220379   4.014   2.736   3.933
 6567SOL     OW20380   4.179   3.116   5.459
 6567SOL    HW120381   4.152   3.127   5.368
 6567SOL    HW220382   4.099   3.125   5.510
 6568SOL     OW20383   3.924   2.146   5.225
 6568SOL    HW120384   3.841   2.194   5.215
 6568SOL    HW220385   3.906   2.084   5.295
 6569SOL     OW20386   4.194   3.597   4.049
 6569SOL    HW120387   4.224   3.656   4.118
 6569SOL    HW220388   4.263   3.599   3.984
 6570SOL     OW20389   3.978   3.655   4.958
 6570SOL    HW120390   4.027   3.588   5.005
 6570SOL    HW220391   3.965   3.618   4.870
 6571SOL     OW20392   4.110   2.557   4.199
 6571SOL    HW120393   4.138   2.466   4.211
 6571SOL    HW220394   4.017   2.557   4.221
 6572SOL     OW20395   4.340   1.976   3.840
 6572SOL    HW120396   4.434   1.958   3.841
 6572SOL    HW220397   4.312   1.951   3.752
 6573SOL     OW20398   0.017   3.289   4.640
 6573SOL    HW120399   0.091   3.314   4.585
 6573SOL    HW220400   4.446   3.272   4.578
 6574SOL     OW20401   4.262   1.925   4.226
 6574SOL    HW120402   4.183   1.930   4.281
 6574SOL    HW220403   4.259   2.004   4.172
 6575SOL     OW20404   4.018   1.909   3.908
 6575SOL    HW120405   4.078   1.974   3.872
 6575SOL    HW220406   4.075   1.844   3.949
 6576SOL     OW20407   0.321   2.540   5.173
 6576SOL    HW120408   0.245   2.482   5.174
 6576SOL    HW220409   0.396   2.481   5.160
 6577SOL     OW20410   4.188   3.008   4.461
 6577SOL    HW120411   4.118   2.989   4.523
 6577SOL    HW220412   4.150   2.989   4.375
 6578SOL     OW20413   3.801   2.417   5.114
 6578SOL    HW120414   3.892   2.416   5.087
 6578SOL    HW220415   3.796   2.487   5.180
 6579SOL     OW20416   4.285   2.076   4.873
 6579SOL    HW120417   4.324   2.004   4.922
 6579SOL    HW220418   4.198   2.087   4.912
 6580SOL     OW20419   4.229   3.248   3.896
 6580SOL    HW120420   4.145   3.234   3.939
 6580SOL    HW220421   4.206   3.267   3.805
 6581SOL     OW20422   4.247   2.127   4.047
 6581SOL    HW120423   4.287   2.073   3.979
 6581SOL    HW220424   4.229   2.211   4.004
 6582SOL     OW20425   4.138   2.674   4.974
 6582SOL    HW120426   4.206   2.685   5.041
 6582SOL    HW220427   4.104   2.586   4.989
 6583SOL     OW20428   3.792   3.434   5.073
 6583SOL    HW120429   3.758   3.507   5.021
 6583SOL    HW220430   3.887   3.443   5.068
 6584SOL     OW20431   4.076   2.968   4.216
 6584SOL    HW120432   4.078   3.041   4.154
 6584SOL    HW220433   4.075   2.890   4.160
 6585SOL     OW20434   4.297   2.401   4.587
 6585SOL    HW120435   4.301   2.467   4.518
 6585SOL    HW220436   4.359   2.432   4.653
 6586SOL     OW20437   4.073   3.391   5.043
 6586SOL    HW120438   4.065   3.348   4.958
 6586SOL    HW220439   4.167   3.395   5.059
 6587SOL     OW20440   4.136   2.606   5.328
 6587SOL    HW120441   4.194   2.651   5.267
 6587SOL    HW220442   4.177   2.521   5.343
 6588SOL     OW20443   4.230   1.914   5.459
 6588SOL    HW120444   4.186   1.854   5.399
 6588SOL    HW220445   4.164   1.980   5.479
 6589SOL     OW20446   4.292   2.747   4.750
 6589SOL    HW120447   4.326   2.835   4.763
 6589SOL    HW220448   4.243   2.728   4.830
 6590SOL     OW20449   4.026   2.064   4.970
 6590SOL    HW120450   3.987   2.096   5.052
 6590SOL    HW220451   4.005   1.971   4.969
 6591SOL     OW20452   3.771   3.172   5.001
 6591SOL    HW120453   3.803   3.119   5.074
 6591SOL    HW220454   3.777   3.262   5.032
 6592SOL     OW20455   4.021   1.929   4.348
 6592SOL    HW120456   4.007   2.020   4.374
 6592SOL    HW220457   4.030   1.882   4.431
 6593SOL     OW20458   4.076   2.777   5.532
 6593SOL    HW120459   4.159   2.793   5.577
 6593SOL    HW220460   4.098   2.714   5.463
 6594SOL     OW20461   4.032   2.671   4.671
 6594SOL    HW120462   4.124   2.698   4.670
 6594SOL    HW220463   4.033   2.582   4.705
 6595SOL     OW20464   4.062   2.386   4.732
 6595SOL    HW120465   4.025   2.298   4.717
 6595SOL    HW220466   4.140   2.389   4.677
 6596SOL     OW20467   3.729   3.185   3.919
 6596SOL    HW120468   3.642   3.198   3.882
 6596SOL    HW220469   3.728   3.095   3.952
 6597SOL     OW20470   3.815   3.652   4.660
 6597SOL    HW120471   3.785   3.572   4.618
 6597SOL    HW220472   3.905   3.663   4.629
 6598SOL     OW20473   4.232   3.443   4.629
 6598SOL    HW120474   4.316   3.481   4.654
 6598SOL    HW220475   4.255   3.369   4.573
 6599SOL     OW20476   3.759   2.405   4.840
 6599SOL    HW120477   3.840   2.386   4.792
 6599SOL    HW220478   3.787   2.411   4.932
 6600SOL     OW20479   3.915   2.379   5.450
 6600SOL    HW120480   3.971   2.344   5.381
 6600SOL    HW220481   3.866   2.450   5.407
 6601SOL     OW20482   0.035   2.423   3.992
 6601SOL    HW120483   0.020   2.341   4.040
 6601SOL    HW220484   4.465   2.481   4.020
 6602SOL     OW20485   3.973   3.416   5.455
 6602SOL    HW120486   3.945   3.478   5.522
 6602SOL    HW220487   3.968   3.331   5.499
 6603SOL     OW20488   4.192   2.355   3.914
 6603SOL    HW120489   4.250   2.430   3.932
 6603SOL    HW220490   4.106   2.394   3.902
 6604SOL     OW20491   3.873   3.001   5.195
 6604SOL    HW120492   3.877   2.947   5.274
 6604SOL    HW220493   3.889   2.940   5.123
 6605SOL     OW20494   3.808   3.130   4.738
 6605SOL    HW120495   3.794   3.139   4.832
 6605SOL    HW220496   3.735   3.074   4.709
 6606SOL     OW20497   4.390   3.514   5.427
 6606SOL    HW120498   4.357   3.601   5.448
 6606SOL    HW220499   4.444   3.528   5.348
 6607SOL     OW20500   3.859   3.659   5.567
 6607SOL    HW120501   3.808   3.594   5.616
 6607SOL    HW220502   3.907   3.707   5.634
 6608SOL     OW20503   3.989   2.182   4.441
 6608SOL    HW120504   3.902   2.217   4.418
 6608SOL    HW220505   3.985   2.170   4.536
 6609SOL     OW20506   4.090   3.165   5.215
 6609SOL    HW120507   4.072   3.243   5.162
 6609SOL    HW220508   4.016   3.107   5.198
 6610SOL     OW20509   4.324   3.352   4.206
 6610SOL    HW120510   4.344   3.293   4.133
 6610SOL    HW220511   4.261   3.415   4.170
 6611SOL     OW20512   3.983   3.213   4.009
 6611SOL    HW120513   3.890   3.209   3.987
 6611SOL    HW220514   3.985   3.248   4.098
 6612SOL     OW20515   3.835   2.881   5.444
 6612SOL    HW120516   3.759   2.858   5.496
 6612SOL    HW220517   3.910   2.844   5.492
 6613SOL     OW20518   4.392   2.067   5.217
 6613SOL    HW120519   4.479   2.060   5.179
 6613SOL    HW220520   4.406   2.058   5.311
 6614SOL     OW20521   3.801   2.199   3.760
 6614SOL    HW120522   3.714   2.178   3.727
 6614SOL    HW220523   3.830   2.273   3.707
 6615SOL     OW20524   3.795   2.020   4.038
 6615SOL    HW120525   3.779   2.100   3.987
 6615SOL    HW220526   3.880   1.989   4.008
 6616SOL     OW20527   4.336   2.701   5.157
 6616SOL    HW120528   4.384   2.784   5.144
 6616SOL    HW220529   4.405   2.636   5.167
 6617SOL     OW20530   4.404   2.418   5.458
 6617SOL    HW120531   4.428   2.496   5.508
 6617SOL    HW220532   4.487   2.377   5.435
 6618SOL     OW20533   4.109   3.601   5.284
 6618SOL    HW120534   4.022   3.640   5.273
 6618SOL    HW220535   4.092   3.518   5.330
 6619SOL     OW20536   4.310   2.596   4.388
 6619SOL    HW120537   4.354   2.680   4.376
 6619SOL    HW220538   4.239   2.596   4.324
 6620SOL     OW20539   3.944   3.169   5.579
 6620SOL    HW120540   3.878   3.106   5.552
 6620SOL    HW220541   3.930   3.180   5.672
 6621SOL     OW20542   3.807   3.097   4.387
 6621SOL    HW120543   3.810   3.048   4.469
 6621SOL    HW220544   3.877   3.060   4.334
 6622SOL     OW20545   4.411   3.250   5.374
 6622SOL    HW120546   4.322   3.215   5.377
 6622SOL    HW220547   4.401   3.343   5.391
 6623SOL     OW20548   4.161   2.295   4.254
 6623SOL    HW120549   4.179   2.225   4.191
 6623SOL    HW220550   4.107   2.253   4.321
 6624SOL     OW20551   4.051   2.414   5.013
 6624SOL    HW120552   4.105   2.357   5.068
 6624SOL    HW220553   4.073   2.387   4.923
 6625SOL     OW20554   0.038   3.455   4.409
 6625SOL    HW120555   0.057   3.511   4.333
 6625SOL    HW220556   4.464   3.402   4.381
 6626SOL     OW20557   3.767   2.935   4.028
 6626SOL    HW120558   3.861   2.926   4.012
 6626SOL    HW220559   3.738   2.847   4.052
 6627SOL     OW20560   3.955   2.485   5.707
 6627SOL    HW120561   3.865   2.486   5.740
 6627SOL    HW220562   3.947   2.458   5.615
 6628SOL     OW20563   3.947   2.143   6.576
 6628SOL    HW120564   3.979   2.110   6.660
 6628SOL    HW220565   3.858   2.109   6.569
 6629SOL     OW20566   3.730   2.243   6.224
 6629SOL    HW120567   3.648   2.267   6.266
 6629SOL    HW220568   3.710   2.163   6.175
 6630SOL     OW20569   4.271   3.114   6.732
 6630SOL    HW120570   4.193   3.165   6.710
 6630SOL    HW220571   4.328   3.176   6.779
 6631SOL     OW20572   0.025   2.646   7.443
 6631SOL    HW120573   0.074   2.697   7.507
 6631SOL    HW220574   0.067   2.666   7.359
 6632SOL     OW20575   4.399   2.860   6.229
 6632SOL    HW120576   4.469   2.852   6.294
 6632SOL    HW220577   4.334   2.916   6.272
 6633SOL     OW20578   4.418   3.023   7.401
 6633SOL    HW120579   4.463   3.104   7.377
 6633SOL    HW220580   4.327   3.036   7.372
 6634SOL     OW20581   4.058   3.296   6.655
 6634SOL    HW120582   3.987   3.255   6.607
 6634SOL    HW220583   4.108   3.344   6.588
 6635SOL     OW20584   4.170   2.261   7.075
 6635SOL    HW120585   4.243   2.200   7.078
 6635SOL    HW220586   4.092   2.205   7.087
 6636SOL     OW20587   3.943   3.575   6.062
 6636SOL    HW120588   3.967   3.652   6.114
 6636SOL    HW220589   4.013   3.568   5.997
 6637SOL     OW20590   3.953   3.301   6.119
 6637SOL    HW120591   3.936   3.395   6.127
 6637SOL    HW220592   3.892   3.261   6.181
 6638SOL     OW20593   3.973   2.951   6.473
 6638SOL    HW120594   3.977   2.867   6.518
 6638SOL    HW220595   3.919   3.006   6.529
 6639SOL     OW20596   4.359   3.659   7.036
 6639SOL    HW120597   4.273   3.626   7.062
 6639SOL    HW220598   4.349   3.755   7.039
 6640SOL     OW20599   4.311   2.846   5.722
 6640SOL    HW120600   4.340   2.900   5.649
 6640SOL    HW220601   4.379   2.858   5.789
 6641SOL     OW20602   3.839   2.512   6.145
 6641SOL    HW120603   3.808   2.424   6.167
 6641SOL    HW220604   3.830   2.561   6.227
 6642SOL     OW20605   3.753   3.459   5.710
 6642SOL    HW120606   3.736   3.367   5.729
 6642SOL    HW220607   3.729   3.505   5.791
 6643SOL     OW20608   3.845   2.603   7.173
 6643SOL    HW120609   3.937   2.623   7.190
 6643SOL    HW220610   3.800   2.687   7.178
 6644SOL     OW20611   4.315   3.247   6.323
 6644SOL    HW120612   4.278   3.158   6.327
 6644SOL    HW220613   4.313   3.269   6.230
 6645SOL     OW20614   0.022   1.868   6.112
 6645SOL    HW120615   0.055   1.934   6.050
 6645SOL    HW220616   4.427   1.882   6.114
 6646SOL     OW20617   3.914   2.830   6.855
 6646SOL    HW120618   3.999   2.789   6.837
 6646SOL    HW220619   3.851   2.773   6.812
 6647SOL     OW20620   4.054   2.113   7.391
 6647SOL    HW120621   4.101   2.195   7.407
 6647SOL    HW220622   3.966   2.129   7.425
 6648SOL     OW20623   4.312   2.591   5.855
 6648SOL    HW120624   4.314   2.666   5.795
 6648SOL    HW220625   4.243   2.612   5.918
 6649SOL     OW20626   3.813   2.681   6.361
 6649SOL    HW120627   3.895   2.674   6.411
 6649SOL    HW220628   3.771   2.760   6.396
 6650SOL     OW20629   3.853   3.699   7.161
 6650SOL    HW120630   3.850   3.681   7.255
 6650SOL    HW220631   3.761   3.706   7.135
 6651SOL     OW20632   4.255   2.055   6.467
 6651SOL    HW120633   4.274   2.060   6.560
 6651SOL    HW220634   4.266   2.145   6.435
 6652SOL     OW20635   4.081   3.670   6.444
 6652SOL    HW120636   4.129   3.588   6.452
 6652SOL    HW220637   4.147   3.738   6.456
 6653SOL     OW20638   4.045   2.818   5.834
 6653SOL    HW120639   4.127   2.837   5.788
 6653SOL    HW220640   4.014   2.736   5.795
 6654SOL     OW20641   4.179   3.116   7.321
 6654SOL    HW120642   4.152   3.127   7.230
 6654SOL    HW220643   4.098   3.125   7.372
 6655SOL     OW20644   3.924   2.146   7.086
 6655SOL    HW120645   3.842   2.195   7.078
 6655SOL    HW220646   3.907   2.085   7.158
 6656SOL     OW20647   4.193   3.597   5.911
 6656SOL    HW120648   4.224   3.656   5.980
 6656SOL    HW220649   4.263   3.599   5.846
 6657SOL     OW20650   3.978   3.655   6.820
 6657SOL    HW120651   4.027   3.588   6.867
 6657SOL    HW220652   3.965   3.618   6.732
 6658SOL     OW20653   4.110   2.557   6.061
 6658SOL    HW120654   4.138   2.466   6.073
 6658SOL    HW220655   4.017   2.557   6.083
 6659SOL     OW20656   4.340   1.976   5.702
 6659SOL    HW120657   4.434   1.958   5.703
 6659SOL    HW220658   4.312   1.951   5.614
 6660SOL     OW20659   0.017   3.290   6.502
 6660SOL    HW120660   0.091   3.314   6.447
 6660SOL    HW220661   4.446   3.272   6.440
 6661SOL     OW20662   4.262   1.925   6.088
 6661SOL    HW120663   4.183   1.931   6.143
 6661SOL    HW220664   4.259   2.004   6.034
 6662SOL     OW20665   4.018   1.909   5.770
 6662SOL    HW120666   4.077   1.974   5.733
 6662SOL    HW220667   4.075   1.844   5.811
 6663SOL     OW20668   0.320   2.541   7.032
 6663SOL    HW120669   0.246   2.480   7.035
 6663SOL    HW220670   0.397   2.485   7.024
 6664SOL     OW20671   4.189   3.008   6.323
 6664SOL    HW120672   4.119   2.989   6.385
 6664SOL    HW220673   4.150   2.989   6.237
 6665SOL     OW20674   3.801   2.417   6.977
 6665SOL    HW120675   3.892   2.416   6.949
 6665SOL    HW220676   3.797   2.487   7.042
 6666SOL     OW20677   4.285   2.076   6.735
 6666SOL    HW120678   4.325   2.004   6.785
 6666SOL    HW220679   4.198   2.087   6.774
 6667SOL     OW20680   4.229   3.248   5.758
 6667SOL    HW120681   4.146   3.234   5.801
 6667SOL    HW220682   4.206   3.267   5.667
 6668SOL     OW20683   4.247   2.127   5.909
 6668SOL    HW120684   4.286   2.073   5.841
 6668SOL    HW220685   4.229   2.211   5.866
 6669SOL     OW20686   4.138   2.674   6.836
 6669SOL    HW120687   4.206   2.685   6.903
 6669SOL    HW220688   4.104   2.586   6.851
 6670SOL     OW20689   3.792   3.434   6.935
 6670SOL    HW120690   3.758   3.507   6.883
 6670SOL    HW220691   3.887   3.443   6.930
 6671SOL     OW20692   4.077   2.968   6.078
 6671SOL    HW120693   4.077   3.041   6.016
 6671SOL    HW220694   4.075   2.890   6.022
 6672SOL     OW20695   4.297   2.401   6.449
 6672SOL    HW120696   4.301   2.467   6.380
 6672SOL    HW220697   4.360   2.431   6.515
 6673SOL     OW20698   4.073   3.391   6.905
 6673SOL    HW120699   4.065   3.348   6.820
 6673SOL    HW220700   4.167   3.395   6.921
 6674SOL     OW20701   4.135   2.606   7.190
 6674SOL    HW120702   4.194   2.651   7.129
 6674SOL    HW220703   4.178   2.522   7.206
 6675SOL     OW20704   4.230   1.914   7.321
 6675SOL    HW120705   4.187   1.854   7.261
 6675SOL    HW220706   4.164   1.980   7.341
 6676SOL     OW20707   4.292   2.747   6.612
 6676SOL    HW120708   4.327   2.835   6.625
 6676SOL    HW220709   4.243   2.728   6.692
 6677SOL     OW20710   4.025   2.064   6.832
 6677SOL    HW120711   3.987   2.096   6.914
 6677SOL    HW220712   4.004   1.971   6.831
 6678SOL     OW20713   3.769   3.172   6.864
 6678SOL    HW120714   3.803   3.119   6.936
 6678SOL    HW220715   3.777   3.262   6.894
 6679SOL     OW20716   4.021   1.929   6.210
 6679SOL    HW120717   4.007   2.020   6.236
 6679SOL    HW220718   4.031   1.882   6.293
 6680SOL     OW20719   4.076   2.777   7.394
 6680SOL    HW120720   4.158   2.794   7.439
 6680SOL    HW220721   4.099   2.714   7.325
 6681SOL     OW20722   4.032   2.671   6.533
 6681SOL    HW120723   4.124   2.698   6.532
 6681SOL    HW220724   4.034   2.582   6.567
 6682SOL     OW20725   4.062   2.385   6.595
 6682SOL    HW120726   4.025   2.298   6.578
 6682SOL    HW220727   4.140   2.389   6.539
 6683SOL     OW20728   3.729   3.185   5.781
 6683SOL    HW120729   3.642   3.198   5.744
 6683SOL    HW220730   3.728   3.095   5.814
 6684SOL     OW20731   3.815   3.652   6.522
 6684SOL    HW120732   3.784   3.572   6.480
 6684SOL    HW220733   3.905   3.663   6.491
 6685SOL     OW20734   4.232   3.443   6.491
 6685SOL    HW120735   4.316   3.481   6.516
 6685SOL    HW220736   4.255   3.369   6.435
 6686SOL     OW20737   3.760   2.404   6.702
 6686SOL    HW120738   3.841   2.387   6.654
 6686SOL    HW220739   3.787   2.411   6.793
 6687SOL     OW20740   3.914   2.379   7.311
 6687SOL    HW120741   3.972   2.345   7.243
 6687SOL    HW220742   3.867   2.450   7.269
 6688SOL     OW20743   0.035   2.422   5.853
 6688SOL    HW120744   0.020   2.342   5.903
 6688SOL    HW220745   4.465   2.481   5.882
 6689SOL     OW20746   3.972   3.416   7.317
 6689SOL    HW120747   3.945   3.478   7.384
 6689SOL    HW220748   3.968   3.331   7.361
 6690SOL     OW20749   4.193   2.355   5.776
 6690SOL    HW120750   4.250   2.430   5.794
 6690SOL    HW220751   4.106   2.393   5.764
 6691SOL     OW20752   3.872   3.001   7.057
 6691SOL    HW120753   3.878   2.947   7.136
 6691SOL    HW220754   3.889   2.940   6.985
 6692SOL     OW20755   3.807   3.129   6.600
 6692SOL    HW120756   3.793   3.138   6.694
 6692SOL    HW220757   3.735   3.074   6.570
 6693SOL     OW20758   4.390   3.514   7.289
 6693SOL    HW120759   4.357   3.601   7.310
 6693SOL    HW220760   4.444   3.527   7.211
 6694SOL     OW20761   3.859   3.659   7.429
 6694SOL    HW120762   3.808   3.594   7.479
 6694SOL    HW220763   3.907   3.707   7.496
 6695SOL     OW20764   3.989   2.182   6.303
 6695SOL    HW120765   3.902   2.217   6.280
 6695SOL    HW220766   3.985   2.171   6.398
 6696SOL     OW20767   4.090   3.165   7.077
 6696SOL    HW120768   4.072   3.243   7.023
 6696SOL    HW220769   4.016   3.107   7.060
 6697SOL     OW20770   4.324   3.352   6.068
 6697SOL    HW120771   4.344   3.293   5.995
 6697SOL    HW220772   4.261   3.414   6.033
 6698SOL     OW20773   3.983   3.213   5.871
 6698SOL    HW120774   3.890   3.209   5.849
 6698SOL    HW220775   3.985   3.248   5.960
 6699SOL     OW20776   3.835   2.880   7.306
 6699SOL    HW120777   3.759   2.857   7.359
 6699SOL    HW220778   3.910   2.844   7.353
 6700SOL     OW20779   4.392   2.066   7.079
 6700SOL    HW120780   4.479   2.061   7.041
 6700SOL    HW220781   4.406   2.058   7.173
 6701SOL     OW20782   3.800   2.199   5.622
 6701SOL    HW120783   3.714   2.178   5.586
 6701SOL    HW220784   3.830   2.274   5.569
 6702SOL     OW20785   3.795   2.020   5.899
 6702SOL    HW120786   3.779   2.100   5.849
 6702SOL    HW220787   3.880   1.988   5.869
 6703SOL     OW20788   4.336   2.701   7.019
 6703SOL    HW120789   4.384   2.784   7.006
 6703SOL    HW220790   4.405   2.635   7.028
 6704SOL     OW20791   4.403   2.418   7.321
 6704SOL    HW120792   4.428   2.496   7.370
 6704SOL    HW220793   4.487   2.378   7.296
 6705SOL     OW20794   4.109   3.601   7.146
 6705SOL    HW120795   4.022   3.640   7.135
 6705SOL    HW220796   4.093   3.518   7.191
 6706SOL     OW20797   4.310   2.596   6.250
 6706SOL    HW120798   4.354   2.680   6.238
 6706SOL    HW220799   4.239   2.596   6.186
 6707SOL     OW20800   3.944   3.169   7.441
 6707SOL    HW120801   3.878   3.106   7.414
 6707SOL    HW220802   3.931   3.180   7.535
 6708SOL     OW20803   3.808   3.099   6.250
 6708SOL    HW120804   3.808   3.048   6.331
 6708SOL    HW220805   3.877   3.059   6.197
 6709SOL     OW20806   4.411   3.250   7.235
 6709SOL    HW120807   4.322   3.215   7.239
 6709SOL    HW220808   4.401   3.343   7.253
 6710SOL     OW20809   4.161   2.294   6.116
 6710SOL    HW120810   4.179   2.225   6.053
 6710SOL    HW220811   4.107   2.253   6.183
 6711SOL     OW20812   4.051   2.413   6.875
 6711SOL    HW120813   4.105   2.357   6.930
 6711SOL    HW220814   4.073   2.387   6.785
 6712SOL     OW20815   0.038   3.455   6.271
 6712SOL    HW120816   0.057   3.511   6.195
 6712SOL    HW220817   4.464   3.402   6.243
 6713SOL     OW20818   3.768   2.936   5.890
 6713SOL    HW120819   3.862   2.924   5.874
 6713SOL    HW220820   3.737   2.848   5.914
 6714SOL     OW20821   3.955   2.486   7.569
 6714SOL    HW120822   3.865   2.486   7.602
 6714SOL    HW220823   3.947   2.458   7.477
 6715SOL     OW20824   3.947   2.143   8.438
 6715SOL    HW120825   3.979   2.110   8.522
 6715SOL    HW220826   3.858   2.109   8.431
 6716SOL     OW20827   3.730   2.244   8.086
 6716SOL    HW120828   3.647   2.268   8.128
 6716SOL    HW220829   3.710   2.163   8.038
 6717SOL     OW20830   4.271   3.114   8.594
 6717SOL    HW120831   4.193   3.165   8.572
 6717SOL    HW220832   4.328   3.176   8.640
 6718SOL     OW20833   0.025   2.646   9.305
 6718SOL    HW120834   0.073   2.697   9.369
 6718SOL    HW220835   0.066   2.666   9.221
 6719SOL     OW20836   4.399   2.860   8.091
 6719SOL    HW120837   4.470   2.852   8.156
 6719SOL    HW220838   4.334   2.916   8.134
 6720SOL     OW20839   4.418   3.023   9.263
 6720SOL    HW120840   4.463   3.104   9.239
 6720SOL    HW220841   4.327   3.036   9.234
 6721SOL     OW20842   4.058   3.296   8.517
 6721SOL    HW120843   3.987   3.255   8.468
 6721SOL    HW220844   4.108   3.344   8.450
 6722SOL     OW20845   4.170   2.261   8.937
 6722SOL    HW120846   4.243   2.200   8.940
 6722SOL    HW220847   4.092   2.205   8.949
 6723SOL     OW20848   3.944   3.575   7.924
 6723SOL    HW120849   3.967   3.652   7.976
 6723SOL    HW220850   4.014   3.568   7.859
 6724SOL     OW20851   3.953   3.301   7.981
 6724SOL    HW120852   3.936   3.395   7.989
 6724SOL    HW220853   3.892   3.261   8.043
 6725SOL     OW20854   3.973   2.951   8.334
 6725SOL    HW120855   3.977   2.867   8.380
 6725SOL    HW220856   3.919   3.006   8.391
 6726SOL     OW20857   4.359   3.659   8.898
 6726SOL    HW120858   4.273   3.626   8.924
 6726SOL    HW220859   4.350   3.754   8.901
 6727SOL     OW20860   4.311   2.846   7.584
 6727SOL    HW120861   4.339   2.900   7.511
 6727SOL    HW220862   4.379   2.858   7.651
 6728SOL     OW20863   3.839   2.512   8.008
 6728SOL    HW120864   3.808   2.424   8.029
 6728SOL    HW220865   3.830   2.561   8.089
 6729SOL     OW20866   3.753   3.459   7.572
 6729SOL    HW120867   3.736   3.367   7.592
 6729SOL    HW220868   3.729   3.505   7.653
 6730SOL     OW20869   3.845   2.603   9.035
 6730SOL    HW120870   3.937   2.623   9.052
 6730SOL    HW220871   3.800   2.687   9.040
 6731SOL     OW20872   4.315   3.247   8.185
 6731SOL    HW120873   4.278   3.158   8.189
 6731SOL    HW220874   4.313   3.269   8.092
 6732SOL     OW20875   0.022   1.868   7.974
 6732SOL    HW120876   0.055   1.933   7.913
 6732SOL    HW220877   4.427   1.883   7.975
 6733SOL     OW20878   3.914   2.831   8.717
 6733SOL    HW120879   3.999   2.789   8.699
 6733SOL    HW220880   3.851   2.773   8.675
 6734SOL     OW20881   4.054   2.113   9.253
 6734SOL    HW120882   4.101   2.195   9.269
 6734SOL    HW220883   3.966   2.129   9.287
 6735SOL     OW20884   4.312   2.590   7.716
 6735SOL    HW120885   4.315   2.665   7.657
 6735SOL    HW220886   4.243   2.613   7.780
 6736SOL     OW20887   3.812   2.682   8.223
 6736SOL    HW120888   3.894   2.674   8.272
 6736SOL    HW220889   3.772   2.761   8.259
 6737SOL     OW20890   3.853   3.699   9.023
 6737SOL    HW120891   3.850   3.681   9.117
 6737SOL    HW220892   3.761   3.706   8.997
 6738SOL     OW20893   4.255   2.055   8.329
 6738SOL    HW120894   4.274   2.060   8.423
 6738SOL    HW220895   4.267   2.145   8.297
 6739SOL     OW20896   4.081   3.670   8.306
 6739SOL    HW120897   4.129   3.588   8.314
 6739SOL    HW220898   4.147   3.738   8.318
 6740SOL     OW20899   4.045   2.818   7.696
 6740SOL    HW120900   4.127   2.837   7.650
 6740SOL    HW220901   4.014   2.736   7.657
 6741SOL     OW20902   4.179   3.116   9.183
 6741SOL    HW120903   4.152   3.127   9.092
 6741SOL    HW220904   4.098   3.125   9.234
 6742SOL     OW20905   3.923   2.145   8.948
 6742SOL    HW120906   3.842   2.195   8.940
 6742SOL    HW220907   3.907   2.085   9.020
 6743SOL     OW20908   4.193   3.597   7.773
 6743SOL    HW120909   4.224   3.656   7.842
 6743SOL    HW220910   4.263   3.599   7.708
 6744SOL     OW20911   3.978   3.655   8.682
 6744SOL    HW120912   4.027   3.588   8.729
 6744SOL    HW220913   3.965   3.618   8.594
 6745SOL     OW20914   4.110   2.557   7.923
 6745SOL    HW120915   4.138   2.466   7.935
 6745SOL    HW220916   4.017   2.557   7.945
 6746SOL     OW20917   4.340   1.975   7.565
 6746SOL    HW120918   4.434   1.958   7.566
 6746SOL    HW220919   4.312   1.951   7.476
 6747SOL     OW20920   0.017   3.289   8.364
 6747SOL    HW120921   0.091   3.314   8.309
 6747SOL    HW220922   4.446   3.272   8.302
 6748SOL     OW20923   4.262   1.925   7.950
 6748SOL    HW120924   4.183   1.931   8.005
 6748SOL    HW220925   4.259   2.004   7.896
 6749SOL     OW20926   4.018   1.909   7.632
 6749SOL    HW120927   4.078   1.974   7.595
 6749SOL    HW220928   4.075   1.844   7.673
 6750SOL     OW20929   0.320   2.541   8.895
 6750SOL    HW120930   0.246   2.480   8.897
 6750SOL    HW220931   0.396   2.484   8.885
 6751SOL     OW20932   4.188   3.008   8.185
 6751SOL    HW120933   4.118   2.989   8.247
 6751SOL    HW220934   4.150   2.989   8.099
 6752SOL     OW20935   3.801   2.417   8.839
 6752SOL    HW120936   3.892   2.415   8.811
 6752SOL    HW220937   3.797   2.487   8.904
 6753SOL     OW20938   4.285   2.076   8.597
 6753SOL    HW120939   4.325   2.004   8.647
 6753SOL    HW220940   4.198   2.087   8.636
 6754SOL     OW20941   4.229   3.249   7.620
 6754SOL    HW120942   4.145   3.234   7.663
 6754SOL    HW220943   4.206   3.267   7.529
 6755SOL     OW20944   4.247   2.127   7.771
 6755SOL    HW120945   4.287   2.073   7.703
 6755SOL    HW220946   4.229   2.211   7.728
 6756SOL     OW20947   4.138   2.674   8.698
 6756SOL    HW120948   4.206   2.685   8.765
 6756SOL    HW220949   4.104   2.586   8.713
 6757SOL     OW20950   3.792   3.434   8.797
 6757SOL    HW120951   3.758   3.507   8.745
 6757SOL    HW220952   3.887   3.443   8.792
 6758SOL     OW20953   4.076   2.968   7.940
 6758SOL    HW120954   4.078   3.041   7.878
 6758SOL    HW220955   4.075   2.890   7.884
 6759SOL     OW20956   4.297   2.401   8.311
 6759SOL    HW120957   4.301   2.467   8.242
 6759SOL    HW220958   4.360   2.432   8.377
 6760SOL     OW20959   4.073   3.391   8.767
 6760SOL    HW120960   4.066   3.348   8.682
 6760SOL    HW220961   4.167   3.395   8.783
 6761SOL     OW20962   4.135   2.606   9.052
 6761SOL    HW120963   4.194   2.651   8.991
 6761SOL    HW220964   4.178   2.522   9.068
 6762SOL     OW20965   4.230   1.914   9.183
 6762SOL    HW120966   4.187   1.854   9.123
 6762SOL    HW220967   4.164   1.980   9.203
 6763SOL     OW20968   4.291   2.747   8.474
 6763SOL    HW120969   4.327   2.835   8.487
 6763SOL    HW220970   4.243   2.728   8.554
 6764SOL     OW20971   4.025   2.064   8.694
 6764SOL    HW120972   3.987   2.096   8.776
 6764SOL    HW220973   4.005   1.971   8.693
 6765SOL     OW20974   3.769   3.172   8.725
 6765SOL    HW120975   3.803   3.119   8.798
 6765SOL    HW220976   3.777   3.262   8.756
 6766SOL     OW20977   4.021   1.929   8.072
 6766SOL    HW120978   4.007   2.020   8.098
 6766SOL    HW220979   4.031   1.882   8.155
 6767SOL     OW20980   4.076   2.777   9.256
 6767SOL    HW120981   4.158   2.794   9.301
 6767SOL    HW220982   4.099   2.714   9.187
 6768SOL     OW20983   4.032   2.671   8.395
 6768SOL    HW120984   4.124   2.698   8.394
 6768SOL    HW220985   4.034   2.582   8.429
 6769SOL     OW20986   4.062   2.385   8.457
 6769SOL    HW120987   4.025   2.298   8.441
 6769SOL    HW220988   4.140   2.389   8.401
 6770SOL     OW20989   3.729   3.185   7.643
 6770SOL    HW120990   3.642   3.198   7.606
 6770SOL    HW220991   3.728   3.095   7.676
 6771SOL     OW20992   3.815   3.652   8.384
 6771SOL    HW120993   3.785   3.572   8.342
 6771SOL    HW220994   3.905   3.663   8.353
 6772SOL     OW20995   4.232   3.443   8.353
 6772SOL    HW120996   4.316   3.481   8.378
 6772SOL    HW220997   4.255   3.369   8.297
 6773SOL     OW20998   3.759   2.405   8.564
 6773SOL    HW120999   3.840   2.387   8.516
 6773SOL    HW221000   3.787   2.411   8.655
 6774SOL     OW21001   3.914   2.379   9.173
 6774SOL    HW121002   3.972   2.345   9.105
 6774SOL    HW221003   3.867   2.450   9.131
 6775SOL     OW21004   0.035   2.422   7.715
 6775SOL    HW121005   0.020   2.341   7.764
 6775SOL    HW221006   4.465   2.481   7.744
 6776SOL     OW21007   3.972   3.416   9.179
 6776SOL    HW121008   3.945   3.479   9.246
 6776SOL    HW221009   3.968   3.331   9.223
 6777SOL     OW21010   4.192   2.355   7.638
 6777SOL    HW121011   4.250   2.429   7.656
 6777SOL    HW221012   4.106   2.394   7.626
 6778SOL     OW21013   3.872   3.001   8.919
 6778SOL    HW121014   3.878   2.947   8.998
 6778SOL    HW221015   3.889   2.940   8.847
 6779SOL     OW21016   3.807   3.129   8.462
 6779SOL    HW121017   3.794   3.138   8.556
 6779SOL    HW221018   3.735   3.074   8.432
 6780SOL     OW21019   4.390   3.514   9.151
 6780SOL    HW121020   4.357   3.601   9.172
 6780SOL    HW221021   4.444   3.527   9.073
 6781SOL     OW21022   3.859   3.659   9.291
 6781SOL    HW121023   3.808   3.594   9.341
 6781SOL    HW221024   3.907   3.707   9.358
 6782SOL     OW21025   3.988   2.182   8.165
 6782SOL    HW121026   3.902   2.217   8.142
 6782SOL    HW221027   3.985   2.171   8.260
 6783SOL     OW21028   4.090   3.165   8.939
 6783SOL    HW121029   4.072   3.243   8.885
 6783SOL    HW221030   4.016   3.107   8.922
 6784SOL     OW21031   4.324   3.352   7.930
 6784SOL    HW121032   4.344   3.293   7.857
 6784SOL    HW221033   4.261   3.414   7.894
 6785SOL     OW21034   3.983   3.213   7.733
 6785SOL    HW121035   3.890   3.209   7.711
 6785SOL    HW221036   3.985   3.248   7.822
 6786SOL     OW21037   3.835   2.880   9.168
 6786SOL    HW121038   3.759   2.857   9.221
 6786SOL    HW221039   3.910   2.844   9.215
 6787SOL     OW21040   4.392   2.067   8.941
 6787SOL    HW121041   4.479   2.061   8.903
 6787SOL    HW221042   4.406   2.058   9.035
 6788SOL     OW21043   3.801   2.199   7.484
 6788SOL    HW121044   3.714   2.178   7.451
 6788SOL    HW221045   3.830   2.273   7.431
 6789SOL     OW21046   3.795   2.020   7.762
 6789SOL    HW121047   3.779   2.100   7.711
 6789SOL    HW221048   3.880   1.989   7.732
 6790SOL     OW21049   4.336   2.701   8.881
 6790SOL    HW121050   4.384   2.784   8.867
 6790SOL    HW221051   4.405   2.635   8.890
 6791SOL     OW21052   4.403   2.418   9.182
 6791SOL    HW121053   4.428   2.496   9.232
 6791SOL    HW221054   4.487   2.378   9.158
 6792SOL     OW21055   4.109   3.601   9.008
 6792SOL    HW121056   4.022   3.640   8.997
 6792SOL    HW221057   4.093   3.518   9.053
 6793SOL     OW21058   4.310   2.596   8.113
 6793SOL    HW121059   4.354   2.680   8.100
 6793SOL    HW221060   4.239   2.596   8.048
 6794SOL     OW21061   3.944   3.169   9.303
 6794SOL    HW121062   3.878   3.106   9.276
 6794SOL    HW221063   3.931   3.180   9.397
 6795SOL     OW21064   3.807   3.098   8.112
 6795SOL    HW121065   3.809   3.048   8.193
 6795SOL    HW221066   3.877   3.059   8.058
 6796SOL     OW21067   4.411   3.250   9.098
 6796SOL    HW121068   4.322   3.215   9.101
 6796SOL    HW221069   4.401   3.343   9.115
 6797SOL     OW21070   4.161   2.295   7.978
 6797SOL    HW121071   4.179   2.225   7.915
 6797SOL    HW221072   4.106   2.253   8.045
 6798SOL     OW21073   4.051   2.413   8.737
 6798SOL    HW121074   4.105   2.357   8.792
 6798SOL    HW221075   4.073   2.387   8.647
 6799SOL     OW21076   0.038   3.456   8.133
 6799SOL    HW121077   0.057   3.511   8.057
 6799SOL    HW221078   4.464   3.402   8.105
 6800SOL     OW21079   3.768   2.935   7.752
 6800SOL    HW121080   3.861   2.925   7.736
 6800SOL    HW221081   3.738   2.848   7.776
 6801SOL     OW21082   3.955   2.486   9.431
 6801SOL    HW121083   3.865   2.486   9.464
 6801SOL    HW221084   3.947   2.458   9.339
 6802SOL     OW21085   3.947   2.143  10.300
 6802SOL    HW121086   3.979   2.110  10.384
 6802SOL    HW221087   3.858   2.109  10.293
 6803SOL     OW21088   3.730   2.244   9.948
 6803SOL    HW121089   3.647   2.268   9.990
 6803SOL    HW221090   3.710   2.163   9.900
 6804SOL     OW21091   4.272   3.114  10.456
 6804SOL    HW121092   4.193   3.164  10.435
 6804SOL    HW221093   4.327   3.176  10.503
 6805SOL     OW21094   0.027   2.669   0.076
 6805SOL    HW121095   0.096   2.716   0.122
 6805SOL    HW221096   0.060   2.659  11.087
 6806SOL     OW21097   4.399   2.860   9.953
 6806SOL    HW121098   4.469   2.851  10.018
 6806SOL    HW221099   4.334   2.916   9.996
 6807SOL     OW21100   4.059   3.296  10.379
 6807SOL    HW121101   3.986   3.255  10.331
 6807SOL    HW221102   4.108   3.344  10.312
 6808SOL     OW21103   4.176   2.262  10.801
 6808SOL    HW121104   4.243   2.193  10.799
 6808SOL    HW221105   4.094   2.214  10.817
 6809SOL     OW21106   3.944   3.575   9.786
 6809SOL    HW121107   3.967   3.652   9.838
 6809SOL    HW221108   4.014   3.568   9.721
 6810SOL     OW21109   3.953   3.301   9.843
 6810SOL    HW121110   3.936   3.395   9.851
 6810SOL    HW221111   3.892   3.261   9.905
 6811SOL     OW21112   3.973   2.951  10.196
 6811SOL    HW121113   3.977   2.867  10.242
 6811SOL    HW221114   3.919   3.006  10.253
 6812SOL     OW21115   4.357   3.659  10.759
 6812SOL    HW121116   4.269   3.629  10.783
 6812SOL    HW221117   4.352   3.755  10.764
 6813SOL     OW21118   4.311   2.846   9.446
 6813SOL    HW121119   4.339   2.900   9.373
 6813SOL    HW221120   4.379   2.858   9.513
 6814SOL     OW21121   3.839   2.512   9.870
 6814SOL    HW121122   3.808   2.424   9.891
 6814SOL    HW221123   3.830   2.561   9.951
 6815SOL     OW21124   3.753   3.459   9.434
 6815SOL    HW121125   3.736   3.367   9.454
 6815SOL    HW221126   3.729   3.505   9.515
 6816SOL     OW21127   3.847   2.590  10.911
 6816SOL    HW121128   3.940   2.611  10.913
 6816SOL    HW221129   3.803   2.675  10.905
 6817SOL     OW21130   4.315   3.247  10.047
 6817SOL    HW121131   4.278   3.158  10.051
 6817SOL    HW221132   4.313   3.269   9.954
 6818SOL     OW21133   0.022   1.869   9.836
 6818SOL    HW121134   0.055   1.934   9.775
 6818SOL    HW221135   4.427   1.883   9.837
 6819SOL     OW21136   3.915   2.830  10.577
 6819SOL    HW121137   3.999   2.788  10.559
 6819SOL    HW221138   3.850   2.772  10.537
 6820SOL     OW21139   4.062   2.119   0.011
 6820SOL    HW121140   4.113   2.194   0.041
 6820SOL    HW221141   3.972   2.142   0.034
 6821SOL     OW21142   4.312   2.590   9.578
 6821SOL    HW121143   4.315   2.665   9.519
 6821SOL    HW221144   4.243   2.612   9.642
 6822SOL     OW21145   3.812   2.682  10.085
 6822SOL    HW121146   3.894   2.674  10.134
 6822SOL    HW221147   3.772   2.761  10.121
 6823SOL     OW21148   3.855   3.698  10.893
 6823SOL    HW121149   3.835   3.668  10.981
 6823SOL    HW221150   3.769   3.707  10.851
 6824SOL     OW21151   4.255   2.055  10.191
 6824SOL    HW121152   4.274   2.061  10.285
 6824SOL    HW221153   4.266   2.145  10.159
 6825SOL     OW21154   4.081   3.670  10.168
 6825SOL    HW121155   4.129   3.588  10.176
 6825SOL    HW221156   4.147   3.738  10.180
 6826SOL     OW21157   4.045   2.818   9.558
 6826SOL    HW121158   4.127   2.837   9.512
 6826SOL    HW221159   4.014   2.736   9.519
 6827SOL     OW21160   4.180   3.124  11.052
 6827SOL    HW121161   4.154   3.133  10.961
 6827SOL    HW221162   4.106   3.081  11.095
 6828SOL     OW21163   3.926   2.146  10.806
 6828SOL    HW121164   3.845   2.195  10.800
 6828SOL    HW221165   3.912   2.084  10.878
 6829SOL     OW21166   4.193   3.597   9.635
 6829SOL    HW121167   4.224   3.656   9.704
 6829SOL    HW221168   4.263   3.599   9.570
 6830SOL     OW21169   3.978   3.655  10.544
 6830SOL    HW121170   4.027   3.588  10.592
 6830SOL    HW221171   3.965   3.617  10.457
 6831SOL     OW21172   4.110   2.557   9.785
 6831SOL    HW121173   4.138   2.466   9.797
 6831SOL    HW221174   4.017   2.557   9.807
 6832SOL     OW21175   4.340   1.976   9.426
 6832SOL    HW121176   4.434   1.958   9.427
 6832SOL    HW221177   4.312   1.951   9.338
 6833SOL     OW21178   0.017   3.290  10.226
 6833SOL    HW121179   0.091   3.314  10.171
 6833SOL    HW221180   4.446   3.272  10.164
 6834SOL     OW21181   4.262   1.925   9.812
 6834SOL    HW121182   4.183   1.931   9.867
 6834SOL    HW221183   4.259   2.004   9.758
 6835SOL     OW21184   4.018   1.909   9.493
 6835SOL    HW121185   4.078   1.974   9.458
 6835SOL    HW221186   4.075   1.844   9.535
 6836SOL     OW21187   0.310   2.543  10.759
 6836SOL    HW121188   0.242   2.476  10.774
 6836SOL    HW221189   0.391   2.493  10.748
 6837SOL     OW21190   4.189   3.008  10.047
 6837SOL    HW121191   4.118   2.989  10.109
 6837SOL    HW221192   4.150   2.989   9.961
 6838SOL     OW21193   3.800   2.417  10.702
 6838SOL    HW121194   3.891   2.416  10.674
 6838SOL    HW221195   3.797   2.480  10.773
 6839SOL     OW21196   4.285   2.077  10.460
 6839SOL    HW121197   4.323   2.002  10.507
 6839SOL    HW221198   4.198   2.087  10.498
 6840SOL     OW21199   4.229   3.248   9.482
 6840SOL    HW121200   4.145   3.234   9.525
 6840SOL    HW221201   4.206   3.267   9.391
 6841SOL     OW21202   4.247   2.127   9.633
 6841SOL    HW121203   4.287   2.073   9.565
 6841SOL    HW221204   4.229   2.211   9.590
 6842SOL     OW21205   4.139   2.674  10.560
 6842SOL    HW121206   4.207   2.685  10.626
 6842SOL    HW221207   4.104   2.586  10.575
 6843SOL     OW21208   3.792   3.436  10.658
 6843SOL    HW121209   3.759   3.508  10.604
 6843SOL    HW221210   3.887   3.443  10.652
 6844SOL     OW21211   4.077   2.968   9.802
 6844SOL    HW121212   4.078   3.041   9.740
 6844SOL    HW221213   4.075   2.890   9.746
 6845SOL     OW21214   4.297   2.401  10.173
 6845SOL    HW121215   4.301   2.467  10.104
 6845SOL    HW221216   4.360   2.431  10.239
 6846SOL     OW21217   4.073   3.390  10.629
 6846SOL    HW121218   4.066   3.347  10.544
 6846SOL    HW221219   4.167   3.394  10.646
 6847SOL     OW21220   4.134   2.600  10.906
 6847SOL    HW121221   4.196   2.646  10.849
 6847SOL    HW221222   4.168   2.510  10.909
 6848SOL     OW21223   4.292   2.747  10.336
 6848SOL    HW121224   4.326   2.835  10.349
 6848SOL    HW221225   4.243   2.729  10.416
 6849SOL     OW21226   4.026   2.064  10.556
 6849SOL    HW121227   3.989   2.097  10.638
 6849SOL    HW221228   4.005   1.971  10.555
 6850SOL     OW21229   3.772   3.173  10.586
 6850SOL    HW121230   3.801   3.119  10.660
 6850SOL    HW221231   3.776   3.263  10.619
 6851SOL     OW21232   4.021   1.929   9.934
 6851SOL    HW121233   4.007   2.020   9.960
 6851SOL    HW221234   4.030   1.882  10.017
 6852SOL     OW21235   4.080   2.780  11.095
 6852SOL    HW121236   4.164   2.795   0.039
 6852SOL    HW221237   4.098   2.713  11.030
 6853SOL     OW21238   4.032   2.671  10.257
 6853SOL    HW121239   4.124   2.698  10.256
 6853SOL    HW221240   4.034   2.582  10.291
 6854SOL     OW21241   4.062   2.385  10.319
 6854SOL    HW121242   4.025   2.298  10.303
 6854SOL    HW221243   4.140   2.389  10.264
 6855SOL     OW21244   3.729   3.185   9.505
 6855SOL    HW121245   3.642   3.198   9.468
 6855SOL    HW221246   3.728   3.095   9.538
 6856SOL     OW21247   3.815   3.652  10.246
 6856SOL    HW121248   3.784   3.572  10.204
 6856SOL    HW221249   3.904   3.663  10.215
 6857SOL     OW21250   4.232   3.443  10.215
 6857SOL    HW121251   4.316   3.482  10.240
 6857SOL    HW221252   4.255   3.369  10.159
 6858SOL     OW21253   3.760   2.405  10.426
 6858SOL    HW121254   3.841   2.387  10.378
 6858SOL    HW221255   3.787   2.412  10.518
 6859SOL     OW21256   0.035   2.422   9.577
 6859SOL    HW121257   0.020   2.341   9.626
 6859SOL    HW221258   4.465   2.481   9.606
 6860SOL     OW21259   3.980   3.427  11.056
 6860SOL    HW121260   3.926   3.467   0.024
 6860SOL    HW221261   3.974   3.333  11.072
 6861SOL     OW21262   4.192   2.355   9.500
 6861SOL    HW121263   4.250   2.429   9.518
 6861SOL    HW221264   4.106   2.394   9.488
 6862SOL     OW21265   3.878   3.000  10.779
 6862SOL    HW121266   3.873   2.944  10.857
 6862SOL    HW221267   3.890   2.939  10.706
 6863SOL     OW21268   3.807   3.130  10.323
 6863SOL    HW121269   3.795   3.139  10.418
 6863SOL    HW221270   3.735   3.074  10.295
 6864SOL     OW21271   4.397   3.528  11.007
 6864SOL    HW121272   4.324   3.588  10.994
 6864SOL    HW221273   4.434   3.515  10.920
 6865SOL     OW21274   3.988   2.182  10.027
 6865SOL    HW121275   3.902   2.217  10.004
 6865SOL    HW221276   3.985   2.171  10.122
 6866SOL     OW21277   4.087   3.168  10.808
 6866SOL    HW121278   4.074   3.242  10.749
 6866SOL    HW221279   4.015   3.107  10.786
 6867SOL     OW21280   4.324   3.352   9.792
 6867SOL    HW121281   4.344   3.293   9.719
 6867SOL    HW221282   4.261   3.414   9.756
 6868SOL     OW21283   3.983   3.213   9.595
 6868SOL    HW121284   3.890   3.209   9.573
 6868SOL    HW221285   3.985   3.248   9.684
 6869SOL     OW21286   3.836   2.874  11.021
 6869SOL    HW121287   3.765   2.856  11.083
 6869SOL    HW221288   3.915   2.844  11.066
 6870SOL     OW21289   4.396   2.064  10.807
 6870SOL    HW121290   4.476   2.065  10.755
 6870SOL    HW221291   4.425   2.073  10.898
 6871SOL     OW21292   3.801   2.199   9.346
 6871SOL    HW121293   3.714   2.178   9.313
 6871SOL    HW221294   3.830   2.273   9.293
 6872SOL     OW21295   3.795   2.020   9.624
 6872SOL    HW121296   3.779   2.100   9.573
 6872SOL    HW221297   3.880   1.989   9.593
 6873SOL     OW21298   4.337   2.700  10.744
 6873SOL    HW121299   4.381   2.784  10.729
 6873SOL    HW221300   4.408   2.636  10.747
 6874SOL     OW21301   4.114   3.597  10.868
 6874SOL    HW121302   4.032   3.646  10.863
 6874SOL    HW221303   4.092   3.520  10.921
 6875SOL     OW21304   4.310   2.596   9.975
 6875SOL    HW121305   4.354   2.680   9.962
 6875SOL    HW221306   4.239   2.596   9.910
 6876SOL     OW21307   3.807   3.098   9.974
 6876SOL    HW121308   3.809   3.048  10.055
 6876SOL    HW221309   3.877   3.059   9.921
 6877SOL     OW21310   4.404   3.254  10.939
 6877SOL    HW121311   4.330   3.205  10.972
 6877SOL    HW221312   4.396   3.341  10.979
 6878SOL     OW21313   4.161   2.295   9.840
 6878SOL    HW121314   4.179   2.225   9.777
 6878SOL    HW221315   4.106   2.253   9.907
 6879SOL     OW21316   4.052   2.413  10.599
 6879SOL    HW121317   4.105   2.356  10.654
 6879SOL    HW221318   4.072   2.387  10.509
 6880SOL     OW21319   0.038   3.455   9.995
 6880SOL    HW121320   0.057   3.511   9.919
 6880SOL    HW221321   4.464   3.402   9.967
 6881SOL     OW21322   3.768   2.935   9.614
 6881SOL    HW121323   3.861   2.925   9.598
 6881SOL    HW221324   3.738   2.848   9.638
 6882SOL     OW21325   3.931   4.295   0.091
 6882SOL    HW121326   3.895   4.351   0.160
 6882SOL    HW221327   3.941   4.354   0.016
 6883SOL     OW21328   3.947   4.004   0.990
 6883SOL    HW121329   3.978   3.971   1.074
 6883SOL    HW221330   3.857   3.970   0.982
 6884SOL     OW21331   3.730   4.102   0.643
 6884SOL    HW121332   3.646   4.128   0.681
 6884SOL    HW221333   3.710   4.025   0.591
 6885SOL     OW21334   0.059   0.017   1.858
 6885SOL    HW121335   0.109   0.086   1.902
 6885SOL    HW221336   0.075   0.031   1.765
 6886SOL     OW21337   4.170   4.119   1.485
 6886SOL    HW121338   4.245   4.060   1.493
 6886SOL    HW221339   4.094   4.063   1.501
 6887SOL     OW21340   3.817   4.363   0.557
 6887SOL    HW121341   3.798   4.275   0.590
 6887SOL    HW221342   3.861   4.407   0.631
 6888SOL     OW21343   3.843   4.472   1.584
 6888SOL    HW121344   3.914   4.485   1.647
 6888SOL    HW221345   3.810   0.060   1.566
 6889SOL     OW21346   0.023   3.733   0.530
 6889SOL    HW121347   0.056   3.794   0.465
 6889SOL    HW221348   4.428   3.745   0.528
 6890SOL     OW21349   4.054   3.976   1.803
 6890SOL    HW121350   4.100   4.057   1.824
 6890SOL    HW221351   3.966   3.989   1.838
 6891SOL     OW21352   4.255   3.916   0.881
 6891SOL    HW121353   4.273   3.921   0.975
 6891SOL    HW221354   4.266   4.005   0.849
 6892SOL     OW21355   3.923   4.008   1.502
 6892SOL    HW121356   3.838   4.052   1.492
 6892SOL    HW221357   3.908   3.945   1.574
 6893SOL     OW21358   4.094   4.387   0.416
 6893SOL    HW121359   4.130   4.312   0.463
 6893SOL    HW221360   4.021   4.417   0.470
 6894SOL     OW21361   4.341   3.846   0.115
 6894SOL    HW121362   4.432   3.818   0.122
 6894SOL    HW221363   4.314   3.817   0.028
 6895SOL     OW21364   4.262   3.788   0.502
 6895SOL    HW121365   4.183   3.792   0.556
 6895SOL    HW221366   4.258   3.867   0.448
 6896SOL     OW21367   4.010   3.770   0.197
 6896SOL    HW121368   4.055   3.826   0.134
 6896SOL    HW221369   4.077   3.706   0.224
 6897SOL     OW21370   0.353   4.398   1.517
 6897SOL    HW121371   0.280   4.370   1.462
 6897SOL    HW221372   0.423   4.337   1.497
 6898SOL     OW21373   3.799   4.279   1.391
 6898SOL    HW121374   3.889   4.272   1.362
 6898SOL    HW221375   3.799   4.353   1.453
 6899SOL     OW21376   4.285   3.938   1.149
 6899SOL    HW121377   4.325   3.867   1.199
 6899SOL    HW221378   4.199   3.949   1.188
 6900SOL     OW21379   4.248   3.992   0.325
 6900SOL    HW121380   4.281   3.934   0.256
 6900SOL    HW221381   4.233   4.075   0.280
 6901SOL     OW21382   4.152   0.009   1.265
 6901SOL    HW121383   4.218   0.011   1.335
 6901SOL    HW221384   4.111   4.423   1.272
 6902SOL     OW21385   4.299   4.264   0.869
 6902SOL    HW121386   4.312   4.330   0.801
 6902SOL    HW221387   4.365   4.285   0.935
 6903SOL     OW21388   4.230   3.776   1.735
 6903SOL    HW121389   4.187   3.716   1.675
 6903SOL    HW221390   4.164   3.843   1.755
 6904SOL     OW21391   4.025   3.926   1.246
 6904SOL    HW121392   3.988   3.958   1.328
 6904SOL    HW221393   4.004   3.832   1.245
 6905SOL     OW21394   4.022   3.791   0.625
 6905SOL    HW121395   4.007   3.882   0.651
 6905SOL    HW221396   4.031   3.744   0.707
 6906SOL     OW21397   4.040   0.014   0.925
 6906SOL    HW121398   4.119   0.068   0.931
 6906SOL    HW221399   4.057   4.441   0.984
 6907SOL     OW21400   4.066   4.241   1.016
 6907SOL    HW121401   4.026   4.156   0.995
 6907SOL    HW221402   4.142   4.247   0.957
 6908SOL     OW21403   3.760   4.269   1.114
 6908SOL    HW121404   3.841   4.249   1.067
 6908SOL    HW221405   3.787   4.274   1.206
 6909SOL     OW21406   3.915   4.244   1.718
 6909SOL    HW121407   3.972   4.199   1.655
 6909SOL    HW221408   3.859   4.300   1.665
 6910SOL     OW21409   4.500   4.292   0.276
 6910SOL    HW121410   0.034   4.211   0.314
 6910SOL    HW221411   4.477   4.346   0.353
 6911SOL     OW21412   4.199   4.218   0.179
 6911SOL    HW121413   4.249   4.292   0.214
 6911SOL    HW221414   4.108   4.247   0.182
 6912SOL     OW21415   3.988   4.045   0.718
 6912SOL    HW121416   3.900   4.076   0.694
 6912SOL    HW221417   3.984   4.032   0.812
 6913SOL     OW21418   4.392   3.927   1.494
 6913SOL    HW121419   4.480   3.925   1.456
 6913SOL    HW221420   4.406   3.923   1.588
 6914SOL     OW21421   3.801   4.052   0.052
 6914SOL    HW121422   3.730   4.043  11.088
 6914SOL    HW221423   3.831   4.142   0.043
 6915SOL     OW21424   3.794   3.884   0.316
 6915SOL    HW121425   3.780   3.961   0.261
 6915SOL    HW221426   3.876   3.846   0.284
 6916SOL     OW21427   4.408   4.272   1.740
 6916SOL    HW121428   4.429   4.356   1.781
 6916SOL    HW221429   4.493   4.235   1.716
 6917SOL     OW21430   4.171   4.151   0.540
 6917SOL    HW121431   4.184   4.084   0.474
 6917SOL    HW221432   4.110   4.112   0.603
 6918SOL     OW21433   4.046   4.264   1.291
 6918SOL    HW121434   4.102   4.208   1.345
 6918SOL    HW221435   4.069   4.239   1.201
 6919SOL     OW21436   3.951   4.296   1.986
 6919SOL    HW121437   3.884   4.355   2.020
 6919SOL    HW221438   3.939   4.298   1.891
 6920SOL     OW21439   3.947   4.003   2.852
 6920SOL    HW121440   3.978   3.971   2.936
 6920SOL    HW221441   3.857   3.970   2.845
 6921SOL     OW21442   3.730   4.102   2.506
 6921SOL    HW121443   3.646   4.129   2.543
 6921SOL    HW221444   3.709   4.025   2.453
 6922SOL     OW21445   0.059   0.017   3.720
 6922SOL    HW121446   0.109   0.086   3.764
 6922SOL    HW221447   0.075   0.031   3.627
 6923SOL     OW21448   4.170   4.119   3.347
 6923SOL    HW121449   4.245   4.060   3.355
 6923SOL    HW221450   4.094   4.063   3.363
 6924SOL     OW21451   3.811   4.366   2.423
 6924SOL    HW121452   3.799   4.276   2.453
 6924SOL    HW221453   3.863   4.408   2.491
 6925SOL     OW21454   3.843   4.472   3.446
 6925SOL    HW121455   3.914   4.486   3.509
 6925SOL    HW221456   3.810   0.060   3.428
 6926SOL     OW21457   0.022   3.729   2.388
 6926SOL    HW121458   0.056   3.796   2.328
 6926SOL    HW221459   4.427   3.744   2.389
 6927SOL     OW21460   4.054   3.976   3.665
 6927SOL    HW121461   4.100   4.057   3.686
 6927SOL    HW221462   3.966   3.989   3.700
 6928SOL     OW21463   4.254   3.915   2.743
 6928SOL    HW121464   4.273   3.921   2.837
 6928SOL    HW221465   4.267   4.004   2.710
 6929SOL     OW21466   3.922   4.007   3.364
 6929SOL    HW121467   3.839   4.053   3.354
 6929SOL    HW221468   3.908   3.946   3.436
 6930SOL     OW21469   4.094   4.391   2.282
 6930SOL    HW121470   4.130   4.314   2.326
 6930SOL    HW221471   4.020   4.418   2.336
 6931SOL     OW21472   4.339   3.835   1.980
 6931SOL    HW121473   4.434   3.823   1.979
 6931SOL    HW221474   4.312   3.813   1.891
 6932SOL     OW21475   4.262   3.788   2.365
 6932SOL    HW121476   4.183   3.793   2.419
 6932SOL    HW221477   4.258   3.866   2.310
 6933SOL     OW21478   4.018   3.770   2.045
 6933SOL    HW121479   4.078   3.837   2.011
 6933SOL    HW221480   4.075   3.706   2.087
 6934SOL     OW21481   0.353   4.398   3.379
 6934SOL    HW121482   0.279   4.370   3.324
 6934SOL    HW221483   0.423   4.337   3.359
 6935SOL     OW21484   3.799   4.279   3.253
 6935SOL    HW121485   3.889   4.272   3.224
 6935SOL    HW221486   3.799   4.353   3.315
 6936SOL     OW21487   4.285   3.938   3.011
 6936SOL    HW121488   4.325   3.867   3.061
 6936SOL    HW221489   4.199   3.950   3.050
 6937SOL     OW21490   4.245   3.988   2.185
 6937SOL    HW121491   4.285   3.933   2.117
 6937SOL    HW221492   4.232   4.073   2.143
 6938SOL     OW21493   4.152   0.009   3.127
 6938SOL    HW121494   4.218   0.011   3.197
 6938SOL    HW221495   4.111   4.423   3.134
 6939SOL     OW21496   4.299   4.264   2.731
 6939SOL    HW121497   4.311   4.330   2.663
 6939SOL    HW221498   4.365   4.285   2.797
 6940SOL     OW21499   4.230   3.776   3.597
 6940SOL    HW121500   4.186   3.716   3.537
 6940SOL    HW221501   4.164   3.843   3.617
 6941SOL     OW21502   4.025   3.926   3.108
 6941SOL    HW121503   3.988   3.958   3.190
 6941SOL    HW221504   4.004   3.832   3.107
 6942SOL     OW21505   4.021   3.791   2.487
 6942SOL    HW121506   4.006   3.882   2.512
 6942SOL    HW221507   4.031   3.744   2.569
 6943SOL     OW21508   4.040   0.014   2.788
 6943SOL    HW121509   4.118   0.069   2.793
 6943SOL    HW221510   4.058   4.441   2.847
 6944SOL     OW21511   4.066   4.241   2.878
 6944SOL    HW121512   4.027   4.156   2.857
 6944SOL    HW221513   4.142   4.247   2.820
 6945SOL     OW21514   3.760   4.268   2.977
 6945SOL    HW121515   3.841   4.250   2.929
 6945SOL    HW221516   3.787   4.274   3.068
 6946SOL     OW21517   3.915   4.244   3.580
 6946SOL    HW121518   3.972   4.200   3.517
 6946SOL    HW221519   3.860   4.301   3.527
 6947SOL     OW21520   0.005   4.295   2.135
 6947SOL    HW121521   0.031   4.209   2.167
 6947SOL    HW221522   4.468   4.339   2.212
 6948SOL     OW21523   4.203   4.216   2.053
 6948SOL    HW121524   4.251   4.298   2.065
 6948SOL    HW221525   4.111   4.244   2.045
 6949SOL     OW21526   3.988   4.045   2.579
 6949SOL    HW121527   3.900   4.076   2.556
 6949SOL    HW221528   3.985   4.031   2.674
 6950SOL     OW21529   4.392   3.927   3.355
 6950SOL    HW121530   4.480   3.926   3.318
 6950SOL    HW221531   4.406   3.923   3.450
 6951SOL     OW21532   3.799   4.049   1.892
 6951SOL    HW121533   3.710   4.039   1.858
 6951SOL    HW221534   3.829   4.132   1.856
 6952SOL     OW21535   3.795   3.882   2.176
 6952SOL    HW121536   3.779   3.962   2.126
 6952SOL    HW221537   3.880   3.851   2.145
 6953SOL     OW21538   4.408   4.272   3.602
 6953SOL    HW121539   4.429   4.356   3.643
 6953SOL    HW221540   4.493   4.235   3.578
 6954SOL     OW21541   4.174   4.150   2.404
 6954SOL    HW121542   4.182   4.086   2.333
 6954SOL    HW221543   4.111   4.111   2.464
 6955SOL     OW21544   4.046   4.264   3.153
 6955SOL    HW121545   4.102   4.208   3.207
 6955SOL    HW221546   4.069   4.239   3.063
 6956SOL     OW21547   3.951   4.296   3.848
 6956SOL    HW121548   3.885   4.355   3.882
 6956SOL    HW221549   3.939   4.298   3.753
 6957SOL     OW21550   3.947   4.003   4.713
 6957SOL    HW121551   3.978   3.971   4.798
 6957SOL    HW221552   3.857   3.970   4.707
 6958SOL     OW21553   3.730   4.102   4.368
 6958SOL    HW121554   3.646   4.129   4.405
 6958SOL    HW221555   3.709   4.025   4.315
 6959SOL     OW21556   0.059   0.017   5.582
 6959SOL    HW121557   0.109   0.086   5.626
 6959SOL    HW221558   0.075   0.031   5.489
 6960SOL     OW21559   4.170   4.119   5.209
 6960SOL    HW121560   4.245   4.060   5.217
 6960SOL    HW221561   4.094   4.063   5.225
 6961SOL     OW21562   3.811   4.366   4.285
 6961SOL    HW121563   3.799   4.276   4.315
 6961SOL    HW221564   3.863   4.408   4.353
 6962SOL     OW21565   3.843   4.472   5.308
 6962SOL    HW121566   3.914   4.486   5.371
 6962SOL    HW221567   3.809   0.060   5.290
 6963SOL     OW21568   0.022   3.729   4.250
 6963SOL    HW121569   0.056   3.795   4.190
 6963SOL    HW221570   4.427   3.744   4.251
 6964SOL     OW21571   4.054   3.976   5.527
 6964SOL    HW121572   4.100   4.057   5.548
 6964SOL    HW221573   3.966   3.989   5.562
 6965SOL     OW21574   4.254   3.915   4.605
 6965SOL    HW121575   4.273   3.921   4.699
 6965SOL    HW221576   4.267   4.004   4.572
 6966SOL     OW21577   3.922   4.007   5.226
 6966SOL    HW121578   3.839   4.053   5.216
 6966SOL    HW221579   3.908   3.946   5.298
 6967SOL     OW21580   4.094   4.391   4.144
 6967SOL    HW121581   4.130   4.314   4.188
 6967SOL    HW221582   4.020   4.418   4.198
 6968SOL     OW21583   4.339   3.834   3.842
 6968SOL    HW121584   4.434   3.823   3.841
 6968SOL    HW221585   4.312   3.813   3.753
 6969SOL     OW21586   4.262   3.788   4.227
 6969SOL    HW121587   4.183   3.793   4.281
 6969SOL    HW221588   4.258   3.866   4.172
 6970SOL     OW21589   4.018   3.770   3.907
 6970SOL    HW121590   4.078   3.837   3.873
 6970SOL    HW221591   4.076   3.706   3.949
 6971SOL     OW21592   0.353   4.398   5.241
 6971SOL    HW121593   0.279   4.370   5.187
 6971SOL    HW221594   0.423   4.337   5.221
 6972SOL     OW21595   3.799   4.279   5.115
 6972SOL    HW121596   3.889   4.272   5.086
 6972SOL    HW221597   3.799   4.353   5.177
 6973SOL     OW21598   4.285   3.938   4.873
 6973SOL    HW121599   4.325   3.867   4.924
 6973SOL    HW221600   4.199   3.950   4.912
 6974SOL     OW21601   4.245   3.988   4.047
 6974SOL    HW121602   4.285   3.933   3.979
 6974SOL    HW221603   4.232   4.073   4.005
 6975SOL     OW21604   4.152   0.009   4.989
 6975SOL    HW121605   4.218   0.011   5.059
 6975SOL    HW221606   4.111   4.423   4.996
 6976SOL     OW21607   4.299   4.264   4.593
 6976SOL    HW121608   4.311   4.330   4.525
 6976SOL    HW221609   4.365   4.286   4.659
 6977SOL     OW21610   4.230   3.776   5.459
 6977SOL    HW121611   4.186   3.716   5.399
 6977SOL    HW221612   4.164   3.843   5.479
 6978SOL     OW21613   4.025   3.926   4.970
 6978SOL    HW121614   3.988   3.958   5.052
 6978SOL    HW221615   4.004   3.832   4.969
 6979SOL     OW21616   4.021   3.791   4.348
 6979SOL    HW121617   4.006   3.882   4.374
 6979SOL    HW221618   4.031   3.744   4.431
 6980SOL     OW21619   4.040   0.014   4.650
 6980SOL    HW121620   4.119   0.069   4.655
 6980SOL    HW221621   4.058   4.441   4.709
 6981SOL     OW21622   4.066   4.241   4.740
 6981SOL    HW121623   4.027   4.156   4.719
 6981SOL    HW221624   4.142   4.247   4.682
 6982SOL     OW21625   3.760   4.268   4.839
 6982SOL    HW121626   3.842   4.250   4.791
 6982SOL    HW221627   3.787   4.274   4.930
 6983SOL     OW21628   3.915   4.244   5.442
 6983SOL    HW121629   3.972   4.200   5.379
 6983SOL    HW221630   3.859   4.301   5.389
 6984SOL     OW21631   0.005   4.295   3.997
 6984SOL    HW121632   0.031   4.208   4.030
 6984SOL    HW221633   4.468   4.339   4.074
 6985SOL     OW21634   4.203   4.216   3.915
 6985SOL    HW121635   4.251   4.298   3.927
 6985SOL    HW221636   4.111   4.244   3.907
 6986SOL     OW21637   3.988   4.044   4.441
 6986SOL    HW121638   3.900   4.076   4.418
 6986SOL    HW221639   3.985   4.031   4.536
 6987SOL     OW21640   4.392   3.927   5.217
 6987SOL    HW121641   4.481   3.925   5.180
 6987SOL    HW221642   4.406   3.923   5.312
 6988SOL     OW21643   3.799   4.049   3.754
 6988SOL    HW121644   3.710   4.040   3.719
 6988SOL    HW221645   3.830   4.132   3.719
 6989SOL     OW21646   3.795   3.882   4.038
 6989SOL    HW121647   3.779   3.962   3.988
 6989SOL    HW221648   3.880   3.851   4.007
 6990SOL     OW21649   4.408   4.272   5.464
 6990SOL    HW121650   4.429   4.356   5.505
 6990SOL    HW221651   4.493   4.235   5.440
 6991SOL     OW21652   4.174   4.150   4.266
 6991SOL    HW121653   4.182   4.086   4.195
 6991SOL    HW221654   4.111   4.111   4.326
 6992SOL     OW21655   4.046   4.264   5.015
 6992SOL    HW121656   4.102   4.208   5.069
 6992SOL    HW221657   4.069   4.239   4.925
 6993SOL     OW21658   3.952   4.296   5.710
 6993SOL    HW121659   3.884   4.355   5.744
 6993SOL    HW221660   3.939   4.298   5.615
 6994SOL     OW21661   3.947   4.003   6.576
 6994SOL    HW121662   3.978   3.971   6.660
 6994SOL    HW221663   3.857   3.970   6.569
 6995SOL     OW21664   3.730   4.102   6.230
 6995SOL    HW121665   3.646   4.128   6.267
 6995SOL    HW221666   3.709   4.025   6.177
 6996SOL     OW21667   0.059   0.017   7.444
 6996SOL    HW121668   0.109   0.086   7.488
 6996SOL    HW221669   0.075   0.031   7.351
 6997SOL     OW21670   4.170   4.119   7.071
 6997SOL    HW121671   4.245   4.060   7.079
 6997SOL    HW221672   4.094   4.063   7.087
 6998SOL     OW21673   3.811   4.366   6.147
 6998SOL    HW121674   3.799   4.276   6.177
 6998SOL    HW221675   3.863   4.408   6.215
 6999SOL     OW21676   3.843   4.472   7.170
 6999SOL    HW121677   3.914   4.485   7.233
 6999SOL    HW221678   3.810   0.060   7.152
 7000SOL     OW21679   0.022   3.729   6.112
 7000SOL    HW121680   0.056   3.796   6.052
 7000SOL    HW221681   4.427   3.744   6.113
 7001SOL     OW21682   4.054   3.976   7.389
 7001SOL    HW121683   4.100   4.057   7.410
 7001SOL    HW221684   3.966   3.989   7.424
 7002SOL     OW21685   4.254   3.915   6.467
 7002SOL    HW121686   4.273   3.921   6.561
 7002SOL    HW221687   4.267   4.004   6.435
 7003SOL     OW21688   3.923   4.007   7.088
 7003SOL    HW121689   3.839   4.052   7.078
 7003SOL    HW221690   3.908   3.946   7.160
 7004SOL     OW21691   4.095   4.391   6.006
 7004SOL    HW121692   4.130   4.314   6.050
 7004SOL    HW221693   4.020   4.417   6.060
 7005SOL     OW21694   4.339   3.835   5.704
 7005SOL    HW121695   4.434   3.823   5.703
 7005SOL    HW221696   4.312   3.813   5.615
 7006SOL     OW21697   4.262   3.788   6.089
 7006SOL    HW121698   4.183   3.793   6.143
 7006SOL    HW221699   4.258   3.866   6.034
 7007SOL     OW21700   4.018   3.770   5.769
 7007SOL    HW121701   4.078   3.837   5.735
 7007SOL    HW221702   4.075   3.706   5.811
 7008SOL     OW21703   0.353   4.398   7.103
 7008SOL    HW121704   0.280   4.370   7.048
 7008SOL    HW221705   0.423   4.337   7.083
 7009SOL     OW21706   3.799   4.279   6.977
 7009SOL    HW121707   3.889   4.272   6.948
 7009SOL    HW221708   3.799   4.353   7.039
 7010SOL     OW21709   4.285   3.938   6.735
 7010SOL    HW121710   4.325   3.867   6.785
 7010SOL    HW221711   4.199   3.950   6.774
 7011SOL     OW21712   4.245   3.988   5.909
 7011SOL    HW121713   4.285   3.933   5.841
 7011SOL    HW221714   4.232   4.073   5.867
 7012SOL     OW21715   4.152   0.010   6.851
 7012SOL    HW121716   4.218   0.011   6.921
 7012SOL    HW221717   4.111   4.423   6.858
 7013SOL     OW21718   4.299   4.264   6.455
 7013SOL    HW121719   4.311   4.330   6.387
 7013SOL    HW221720   4.365   4.285   6.521
 7014SOL     OW21721   4.230   3.776   7.321
 7014SOL    HW121722   4.187   3.716   7.261
 7014SOL    HW221723   4.164   3.843   7.341
 7015SOL     OW21724   4.025   3.926   6.832
 7015SOL    HW121725   3.988   3.958   6.914
 7015SOL    HW221726   4.004   3.832   6.831
 7016SOL     OW21727   4.021   3.791   6.211
 7016SOL    HW121728   4.006   3.882   6.236
 7016SOL    HW221729   4.031   3.744   6.293
 7017SOL     OW21730   4.040   0.014   6.513
 7017SOL    HW121731   4.119   0.069   6.517
 7017SOL    HW221732   4.058   4.441   6.571
 7018SOL     OW21733   4.066   4.241   6.602
 7018SOL    HW121734   4.027   4.156   6.581
 7018SOL    HW221735   4.142   4.247   6.544
 7019SOL     OW21736   3.760   4.268   6.701
 7019SOL    HW121737   3.841   4.250   6.653
 7019SOL    HW221738   3.787   4.274   6.792
 7020SOL     OW21739   3.915   4.244   7.304
 7020SOL    HW121740   3.972   4.200   7.241
 7020SOL    HW221741   3.859   4.300   7.251
 7021SOL     OW21742   0.005   4.295   5.859
 7021SOL    HW121743   0.031   4.209   5.892
 7021SOL    HW221744   4.468   4.339   5.936
 7022SOL     OW21745   4.203   4.216   5.777
 7022SOL    HW121746   4.251   4.298   5.789
 7022SOL    HW221747   4.111   4.244   5.769
 7023SOL     OW21748   3.988   4.045   6.303
 7023SOL    HW121749   3.900   4.076   6.280
 7023SOL    HW221750   3.985   4.031   6.398
 7024SOL     OW21751   4.392   3.927   7.080
 7024SOL    HW121752   4.480   3.925   7.042
 7024SOL    HW221753   4.406   3.923   7.174
 7025SOL     OW21754   3.799   4.049   5.616
 7025SOL    HW121755   3.710   4.039   5.582
 7025SOL    HW221756   3.829   4.132   5.580
 7026SOL     OW21757   3.795   3.882   5.900
 7026SOL    HW121758   3.780   3.962   5.850
 7026SOL    HW221759   3.880   3.851   5.869
 7027SOL     OW21760   4.408   4.272   7.326
 7027SOL    HW121761   4.429   4.356   7.367
 7027SOL    HW221762   4.493   4.235   7.302
 7028SOL     OW21763   4.174   4.150   6.128
 7028SOL    HW121764   4.182   4.086   6.057
 7028SOL    HW221765   4.111   4.111   6.188
 7029SOL     OW21766   4.046   4.264   6.877
 7029SOL    HW121767   4.102   4.208   6.931
 7029SOL    HW221768   4.069   4.239   6.787
 7030SOL     OW21769   3.952   4.296   7.572
 7030SOL    HW121770   3.884   4.355   7.606
 7030SOL    HW221771   3.939   4.298   7.477
 7031SOL     OW21772   3.947   4.003   8.438
 7031SOL    HW121773   3.978   3.971   8.522
 7031SOL    HW221774   3.857   3.970   8.431
 7032SOL     OW21775   3.730   4.102   8.092
 7032SOL    HW121776   3.646   4.129   8.129
 7032SOL    HW221777   3.709   4.025   8.039
 7033SOL     OW21778   0.059   0.017   9.306
 7033SOL    HW121779   0.109   0.086   9.350
 7033SOL    HW221780   0.075   0.031   9.213
 7034SOL     OW21781   4.170   4.119   8.933
 7034SOL    HW121782   4.245   4.060   8.941
 7034SOL    HW221783   4.094   4.063   8.949
 7035SOL     OW21784   3.810   4.366   8.009
 7035SOL    HW121785   3.799   4.276   8.039
 7035SOL    HW221786   3.863   4.408   8.077
 7036SOL     OW21787   3.843   4.472   9.032
 7036SOL    HW121788   3.914   4.485   9.095
 7036SOL    HW221789   3.810   0.060   9.014
 7037SOL     OW21790   0.022   3.729   7.974
 7037SOL    HW121791   0.056   3.795   7.914
 7037SOL    HW221792   4.427   3.744   7.975
 7038SOL     OW21793   4.054   3.976   9.251
 7038SOL    HW121794   4.100   4.057   9.272
 7038SOL    HW221795   3.966   3.989   9.286
 7039SOL     OW21796   4.254   3.915   8.329
 7039SOL    HW121797   4.273   3.921   8.423
 7039SOL    HW221798   4.267   4.004   8.296
 7040SOL     OW21799   3.922   4.007   8.950
 7040SOL    HW121800   3.839   4.053   8.940
 7040SOL    HW221801   3.908   3.946   9.022
 7041SOL     OW21802   4.094   4.391   7.868
 7041SOL    HW121803   4.130   4.314   7.912
 7041SOL    HW221804   4.020   4.418   7.923
 7042SOL     OW21805   4.339   3.835   7.566
 7042SOL    HW121806   4.434   3.823   7.565
 7042SOL    HW221807   4.312   3.813   7.477
 7043SOL     OW21808   4.262   3.788   7.951
 7043SOL    HW121809   4.183   3.793   8.005
 7043SOL    HW221810   4.258   3.866   7.896
 7044SOL     OW21811   4.018   3.770   7.631
 7044SOL    HW121812   4.078   3.837   7.597
 7044SOL    HW221813   4.075   3.706   7.673
 7045SOL     OW21814   0.353   4.398   8.965
 7045SOL    HW121815   0.280   4.370   8.910
 7045SOL    HW221816   0.423   4.337   8.945
 7046SOL     OW21817   3.799   4.279   8.839
 7046SOL    HW121818   3.889   4.272   8.810
 7046SOL    HW221819   3.799   4.353   8.901
 7047SOL     OW21820   4.285   3.938   8.597
 7047SOL    HW121821   4.325   3.867   8.647
 7047SOL    HW221822   4.199   3.950   8.636
 7048SOL     OW21823   4.245   3.988   7.771
 7048SOL    HW121824   4.285   3.933   7.703
 7048SOL    HW221825   4.232   4.073   7.729
 7049SOL     OW21826   4.152   0.010   8.713
 7049SOL    HW121827   4.218   0.011   8.782
 7049SOL    HW221828   4.111   4.423   8.720
 7050SOL     OW21829   4.299   4.264   8.317
 7050SOL    HW121830   4.311   4.330   8.249
 7050SOL    HW221831   4.365   4.285   8.383
 7051SOL     OW21832   4.230   3.776   9.183
 7051SOL    HW121833   4.187   3.716   9.123
 7051SOL    HW221834   4.164   3.843   9.203
 7052SOL     OW21835   4.025   3.926   8.694
 7052SOL    HW121836   3.988   3.958   8.776
 7052SOL    HW221837   4.004   3.832   8.693
 7053SOL     OW21838   4.021   3.791   8.073
 7053SOL    HW121839   4.006   3.882   8.098
 7053SOL    HW221840   4.031   3.744   8.155
 7054SOL     OW21841   4.040   0.014   8.375
 7054SOL    HW121842   4.118   0.069   8.379
 7054SOL    HW221843   4.058   4.441   8.433
 7055SOL     OW21844   4.066   4.241   8.464
 7055SOL    HW121845   4.027   4.156   8.443
 7055SOL    HW221846   4.142   4.247   8.406
 7056SOL     OW21847   3.760   4.268   8.563
 7056SOL    HW121848   3.841   4.250   8.515
 7056SOL    HW221849   3.787   4.274   8.654
 7057SOL     OW21850   3.915   4.244   9.166
 7057SOL    HW121851   3.972   4.200   9.103
 7057SOL    HW221852   3.859   4.301   9.113
 7058SOL     OW21853   0.005   4.295   7.721
 7058SOL    HW121854   0.031   4.209   7.753
 7058SOL    HW221855   4.468   4.339   7.798
 7059SOL     OW21856   4.203   4.216   7.639
 7059SOL    HW121857   4.252   4.298   7.651
 7059SOL    HW221858   4.111   4.244   7.631
 7060SOL     OW21859   3.988   4.045   8.165
 7060SOL    HW121860   3.900   4.076   8.142
 7060SOL    HW221861   3.985   4.031   8.260
 7061SOL     OW21862   4.392   3.927   8.942
 7061SOL    HW121863   4.480   3.925   8.904
 7061SOL    HW221864   4.406   3.923   9.036
 7062SOL     OW21865   3.799   4.049   7.478
 7062SOL    HW121866   3.710   4.039   7.443
 7062SOL    HW221867   3.830   4.132   7.442
 7063SOL     OW21868   3.795   3.882   7.762
 7063SOL    HW121869   3.780   3.962   7.712
 7063SOL    HW221870   3.880   3.851   7.731
 7064SOL     OW21871   4.408   4.272   9.188
 7064SOL    HW121872   4.429   4.356   9.229
 7064SOL    HW221873   4.493   4.235   9.164
 7065SOL     OW21874   4.174   4.150   7.990
 7065SOL    HW121875   4.182   4.086   7.919
 7065SOL    HW221876   4.111   4.111   8.050
 7066SOL     OW21877   4.046   4.264   8.739
 7066SOL    HW121878   4.102   4.208   8.793
 7066SOL    HW221879   4.069   4.239   8.649
 7067SOL     OW21880   3.951   4.296   9.434
 7067SOL    HW121881   3.884   4.355   9.468
 7067SOL    HW221882   3.939   4.298   9.339
 7068SOL     OW21883   3.947   4.003  10.300
 7068SOL    HW121884   3.978   3.971  10.384
 7068SOL    HW221885   3.857   3.970  10.293
 7069SOL     OW21886   3.730   4.102   9.954
 7069SOL    HW121887   3.646   4.128   9.991
 7069SOL    HW221888   3.709   4.025   9.901
 7070SOL     OW21889   4.177   4.122  10.800
 7070SOL    HW121890   4.244   4.053  10.800
 7070SOL    HW221891   4.095   4.075  10.819
 7071SOL     OW21892   3.810   4.366   9.871
 7071SOL    HW121893   3.799   4.276   9.901
 7071SOL    HW221894   3.863   4.408   9.939
 7072SOL     OW21895   3.849   4.457  10.908
 7072SOL    HW121896   3.944   4.466  10.917
 7072SOL    HW221897   3.818   0.046  10.892
 7073SOL     OW21898   0.022   3.729   9.836
 7073SOL    HW121899   0.056   3.795   9.776
 7073SOL    HW221900   4.427   3.744   9.837
 7074SOL     OW21901   4.062   3.980   0.011
 7074SOL    HW121902   4.108   4.060   0.038
 7074SOL    HW221903   3.971   3.997   0.032
 7075SOL     OW21904   4.254   3.915  10.192
 7075SOL    HW121905   4.273   3.922  10.286
 7075SOL    HW221906   4.267   4.004  10.158
 7076SOL     OW21907   3.926   4.007  10.807
 7076SOL    HW121908   3.845   4.058  10.803
 7076SOL    HW221909   3.915   3.949  10.882
 7077SOL     OW21910   4.094   4.391   9.730
 7077SOL    HW121911   4.130   4.314   9.774
 7077SOL    HW221912   4.020   4.418   9.785
 7078SOL     OW21913   4.339   3.835   9.428
 7078SOL    HW121914   4.434   3.823   9.427
 7078SOL    HW221915   4.312   3.813   9.339
 7079SOL     OW21916   4.262   3.788   9.813
 7079SOL    HW121917   4.183   3.793   9.867
 7079SOL    HW221918   4.258   3.866   9.758
 7080SOL     OW21919   4.018   3.770   9.493
 7080SOL    HW121920   4.078   3.837   9.459
 7080SOL    HW221921   4.075   3.706   9.535
 7081SOL     OW21922   0.319   4.404  10.789
 7081SOL    HW121923   0.235   4.359  10.795
 7081SOL    HW221924   0.381   4.337  10.760
 7082SOL     OW21925   3.797   4.281  10.702
 7082SOL    HW121926   3.888   4.274  10.674
 7082SOL    HW221927   3.799   4.341  10.777
 7083SOL     OW21928   4.285   3.939  10.460
 7083SOL    HW121929   4.323   3.864  10.507
 7083SOL    HW221930   4.198   3.949  10.498
 7084SOL     OW21931   4.245   3.988   9.633
 7084SOL    HW121932   4.285   3.933   9.565
 7084SOL    HW221933   4.232   4.073   9.591
 7085SOL     OW21934   4.151   0.008  10.571
 7085SOL    HW121935   4.220   0.008  10.638
 7085SOL    HW221936   4.109   4.423  10.580
 7086SOL     OW21937   4.299   4.264  10.179
 7086SOL    HW121938   4.312   4.330  10.111
 7086SOL    HW221939   4.366   4.284  10.245
 7087SOL     OW21940   4.125   4.465  10.914
 7087SOL    HW121941   4.189   0.026  10.878
 7087SOL    HW221942   4.169   4.381  10.914
 7088SOL     OW21943   4.026   3.926  10.556
 7088SOL    HW121944   3.989   3.958  10.638
 7088SOL    HW221945   4.005   3.832  10.555
 7089SOL     OW21946   4.021   3.791   9.934
 7089SOL    HW121947   4.006   3.882   9.960
 7089SOL    HW221948   4.031   3.744  10.017
 7090SOL     OW21949   4.040   0.014  10.237
 7090SOL    HW121950   4.118   0.069  10.241
 7090SOL    HW221951   4.058   4.441  10.295
 7091SOL     OW21952   4.066   4.241  10.326
 7091SOL    HW121953   4.027   4.156  10.305
 7091SOL    HW221954   4.142   4.247  10.268
 7092SOL     OW21955   3.760   4.269  10.425
 7092SOL    HW121956   3.842   4.250  10.379
 7092SOL    HW221957   3.786   4.275  10.517
 7093SOL     OW21958   0.005   4.295   9.583
 7093SOL    HW121959   0.031   4.209   9.616
 7093SOL    HW221960   4.468   4.339   9.660
 7094SOL     OW21961   4.203   4.216   9.501
 7094SOL    HW121962   4.252   4.298   9.513
 7094SOL    HW221963   4.111   4.244   9.493
 7095SOL     OW21964   3.988   4.044  10.027
 7095SOL    HW121965   3.900   4.076  10.005
 7095SOL    HW221966   3.985   4.031  10.122
 7096SOL     OW21967   4.396   3.926  10.808
 7096SOL    HW121968   4.476   3.929  10.756
 7096SOL    HW221969   4.426   3.939  10.898
 7097SOL     OW21970   3.799   4.049   9.340
 7097SOL    HW121971   3.710   4.039   9.305
 7097SOL    HW221972   3.830   4.132   9.304
 7098SOL     OW21973   3.795   3.882   9.624
 7098SOL    HW121974   3.780   3.962   9.574
 7098SOL    HW221975   3.880   3.851   9.593
 7099SOL     OW21976   4.174   4.150   9.852
 7099SOL    HW121977   4.182   4.086   9.781
 7099SOL    HW221978   4.111   4.111   9.912
 7100SOL     OW21979   4.047   4.263  10.601
 7100SOL    HW121980   4.102   4.206  10.655
 7100SOL    HW221981   4.068   4.239  10.511
   4.50000   4.50000  11.10000
