2gCDOH_2PEG_l14
22227
    1LIG      O    1   2.167   2.094   0.037
    1LIG      C    2   2.128   2.156   0.188
    1LIG     C1    3   2.182   2.095   0.354
    1LIG     O1    4   2.133   2.148   0.506
    1LIG     C2    5   2.183   2.102   0.660
    1LIG     C3    6   2.123   2.161   0.824
    1LIG     O2    7   2.182   2.119   0.977
    1LIG     C4    8   2.123   2.149   1.132
    1LIG     C5    9   2.193   2.095   1.291
    1LIG     O3   10   2.144   2.144   1.443
    1LIG     C6   11   2.193   2.085   1.591
    1LIG     C7   12   2.142   2.144   1.755
    1LIG     O4   13   2.183   2.081   1.904
    1LIG     C8   14   2.132   2.135   2.055
    1LIG     C9   15   2.189   2.078   2.219
    1LIG     O5   16   2.139   2.134   2.369
    1LIG    C10   17   2.182   2.083   2.522
    1LIG    C11   18   2.126   2.151   2.683
    1LIG     O6   19   2.183   2.108   2.835
    1LIG    C12   20   2.125   2.143   2.987
    1LIG    C13   21   2.195   2.089   3.146
    1LIG     O7   22   2.146   2.140   3.296
    1LIG    C14   23   2.195   2.082   3.443
    1LIG    C15   24   2.144   2.143   3.606
    1LIG     O8   25   2.187   2.083   3.754
    1LIG    C16   26   2.136   2.137   3.904
    1LIG    C17   27   2.197   2.085   4.068
    1LIG     O9   28   2.143   2.138   4.217
    1LIG    C18   29   2.191   2.093   4.370
    1LIG    C19   30   2.129   2.154   4.531
    1LIG    O10   31   2.186   2.112   4.683
    1LIG    C20   32   2.126   2.144   4.835
    1LIG    C21   33   2.196   2.090   4.994
    1LIG    O11   34   2.146   2.140   5.144
    1LIG    C22   35   2.193   2.082   5.292
    1LIG    C23   36   2.140   2.143   5.454
    1LIG    O12   37   2.181   2.084   5.604
    1LIG    C24   38   2.127   2.139   5.754
    1LIG    C25   39   2.181   2.088   5.920
    1LIG    O13   40   2.118   2.137   6.068
    1LIG    C26   41   2.165   2.096   6.223
    1LIG    C27   42   2.099   2.156   6.384
    1LIG    O14   43   2.153   2.113   6.537
    1LIG    C28   44   2.095   2.144   6.690
    1LIG    C29   45   2.173   2.095   6.844
    1LIG    O15   46   2.129   2.146   6.994
    1LIG    C30   47   2.183   2.087   7.138
    1LIG    C31   48   2.139   2.147   7.303
    1LIG    O16   49   2.184   2.085   7.451
    1LIG    C32   50   2.137   2.140   7.601
    1LIG    C33   51   2.195   2.084   7.764
    1LIG    O17   52   2.144   2.139   7.912
    1LIG    C34   53   2.193   2.097   8.065
    1LIG    C35   54   2.133   2.161   8.224
    1LIG    O18   55   2.183   2.110   8.374
    1LIG    C36   56   2.132   2.160   8.522
    1LIG    C37   57   2.193   2.100   8.682
    1LIG    O19   58   2.148   2.155   8.832
    1LIG    C38   59   2.196   2.097   8.980
    1LIG    C39   60   2.140   2.155   9.143
    1LIG    O20   61   2.191   2.098   9.291
    1LIG    C40   62   2.140   2.146   9.443
    1LIG    C41   63   2.203   2.092   9.605
    1LIG    O21   64   2.148   2.144   9.755
    1LIG    C42   65   2.196   2.098   9.907
    1LIG    C43   66   2.135   2.161  10.066
    1LIG    O22   67   2.185   2.112  10.217
    1LIG    C44   68   2.131   2.162  10.365
    1LIG    C45   69   2.191   2.102  10.525
    1LIG    O23   70   2.143   2.158  10.674
    1LIG    C46   71   2.188   2.101  10.823
    1LIG    C47   72   2.130   2.161  10.984
    1LIG    O24   73   2.176   2.103  11.133
    1LIG    C48   74   2.127   2.156  11.284
    1LIG    C49   75   2.187   2.097  11.447
    1LIG    O25   76   2.136   2.149  11.599
    1LIG    C50   77   2.187   2.103  11.750
    1LIG    C51   78   2.129   2.164  11.912
    1LIG    O26   79   2.181   2.115  12.063
    1LIG    C52   80   2.129   2.164  12.213
    1LIG    C53   81   2.189   2.104  12.375
    1LIG    O27   82   2.141   2.158  12.526
    1LIG    C54   83   2.187   2.102  12.677
    1LIG    C55   84   2.130   2.161  12.841
    1LIG    O28   85   2.175   2.104  12.992
    1LIG    C56   86   2.128   2.156  13.145
    1LIG    C57   87   2.185   2.095  13.311
    1LIG    O29   88   2.141   2.150  13.465
    1LIG    C58   89   2.178   2.089  13.618
    1LIG    C59   90   2.156   2.167  13.785
    1LIG      H   91   2.019   2.158   0.194
    1LIG     H1   92   2.151   2.262   0.183
    1LIG     H2   93   2.291   2.105   0.353
    1LIG     H3   94   2.164   1.987   0.352
    1LIG     H4   95   2.292   2.119   0.662
    1LIG     H5   96   2.172   1.993   0.663
    1LIG     H6   97   2.016   2.141   0.826
    1LIG     H7   98   2.129   2.270   0.818
    1LIG     H8   99   2.019   2.120   1.132
    1LIG     H9  100   2.115   2.257   1.142
    1LIG    H10  101   2.300   2.117   1.286
    1LIG    H11  102   2.187   1.985   1.291
    1LIG    H12  103   2.302   2.090   1.592
    1LIG    H13  104   2.168   1.978   1.591
    1LIG    H14  105   2.033   2.148   1.751
    1LIG    H15  106   2.176   2.248   1.758
    1LIG    H16  107   2.025   2.120   2.059
    1LIG    H17  108   2.141   2.244   2.055
    1LIG    H18  109   2.297   2.090   2.217
    1LIG    H19  110   2.172   1.969   2.220
    1LIG    H20  111   2.291   2.087   2.527
    1LIG    H21  112   2.157   1.976   2.525
    1LIG    H22  113   2.018   2.138   2.686
    1LIG    H23  114   2.140   2.259   2.674
    1LIG    H24  115   2.020   2.116   2.989
    1LIG    H25  116   2.120   2.251   2.996
    1LIG    H26  117   2.302   2.112   3.140
    1LIG    H27  118   2.188   1.980   3.146
    1LIG    H28  119   2.304   2.088   3.444
    1LIG    H29  120   2.170   1.976   3.443
    1LIG    H30  121   2.035   2.144   3.602
    1LIG    H31  122   2.175   2.248   3.606
    1LIG    H32  123   2.030   2.118   3.910
    1LIG    H33  124   2.141   2.246   3.902
    1LIG    H34  125   2.305   2.103   4.067
    1LIG    H35  126   2.185   1.976   4.069
    1LIG    H36  127   2.300   2.109   4.374
    1LIG    H37  128   2.179   1.984   4.374
    1LIG    H38  129   2.022   2.134   4.531
    1LIG    H39  130   2.136   2.263   4.524
    1LIG    H40  131   2.022   2.112   4.835
    1LIG    H41  132   2.115   2.251   4.845
    1LIG    H42  133   2.302   2.115   4.987
    1LIG    H43  134   2.191   1.981   4.993
    1LIG    H44  135   2.302   2.087   5.293
    1LIG    H45  136   2.169   1.975   5.291
    1LIG    H46  137   2.031   2.145   5.449
    1LIG    H47  138   2.172   2.247   5.454
    1LIG    H48  139   2.021   2.120   5.756
    1LIG    H49  140   2.134   2.248   5.751
    1LIG    H50  141   2.288   2.109   5.924
    1LIG    H51  142   2.174   1.978   5.919
    1LIG    H52  143   2.271   2.120   6.225
    1LIG    H53  144   2.159   1.987   6.228
    1LIG    H54  145   1.991   2.140   6.383
    1LIG    H55  146   2.110   2.264   6.381
    1LIG    H56  147   1.993   2.108   6.695
    1LIG    H57  148   2.079   2.251   6.700
    1LIG    H58  149   2.279   2.122   6.832
    1LIG    H59  150   2.173   1.985   6.846
    1LIG    H60  151   2.292   2.094   7.132
    1LIG    H61  152   2.159   1.980   7.137
    1LIG    H62  153   2.030   2.152   7.303
    1LIG    H63  154   2.175   2.250   7.304
    1LIG    H64  155   2.029   2.128   7.607
    1LIG    H65  156   2.151   2.248   7.601
    1LIG    H66  157   2.304   2.099   7.762
    1LIG    H67  158   2.182   1.975   7.764
    1LIG    H68  159   2.301   2.117   8.068
    1LIG    H69  160   2.183   1.989   8.072
    1LIG    H70  161   2.025   2.149   8.222
    1LIG    H71  162   2.150   2.269   8.221
    1LIG    H72  163   2.024   2.146   8.525
    1LIG    H73  164   2.145   2.269   8.524
    1LIG    H74  165   2.302   2.112   8.677
    1LIG    H75  166   2.177   1.992   8.682
    1LIG    H76  167   2.305   2.107   8.982
    1LIG    H77  168   2.175   1.990   8.978
    1LIG    H78  169   2.031   2.145   9.141
    1LIG    H79  170   2.157   2.264   9.143
    1LIG    H80  171   2.035   2.119   9.449
    1LIG    H81  172   2.139   2.255   9.443
    1LIG    H82  173   2.311   2.110   9.604
    1LIG    H83  174   2.192   1.983   9.605
    1LIG    H84  175   2.304   2.115   9.911
    1LIG    H85  176   2.182   1.989   9.912
    1LIG    H86  177   2.027   2.147  10.064
    1LIG    H87  178   2.148   2.270  10.062
    1LIG    H88  179   2.023   2.147  10.366
    1LIG    H89  180   2.144   2.271  10.366
    1LIG    H90  181   2.299   2.116  10.522
    1LIG    H91  182   2.175   1.994  10.524
    1LIG    H92  183   2.297   2.111  10.827
    1LIG    H93  184   2.169   1.993  10.823
    1LIG    H94  185   2.021   2.153  10.980
    1LIG    H95  186   2.150   2.269  10.985
    1LIG    H96  187   2.018   2.143  11.287
    1LIG    H97  188   2.139   2.264  11.283
    1LIG    H98  189   2.295   2.110  11.445
    1LIG    H99  190   2.172   1.989  11.446
    1LIG   H100  191   2.296   2.121  11.752
    1LIG   H101  192   2.176   1.994  11.755
    1LIG   H102  193   2.021   2.149  11.912
    1LIG   H103  194   2.142   2.273  11.909
    1LIG   H104  195   2.020   2.149  12.214
    1LIG   H105  196   2.141   2.273  12.216
    1LIG   H106  197   2.297   2.118  12.371
    1LIG   H107  198   2.174   1.996  12.373
    1LIG   H108  199   2.296   2.112  12.680
    1LIG   H109  200   2.169   1.994  12.676
    1LIG   H110  201   2.021   2.155  12.836
    1LIG   H111  202   2.150   2.269  12.841
    1LIG   H112  203   2.019   2.147  13.148
    1LIG   H113  204   2.141   2.264  13.145
    1LIG   H114  205   2.294   2.101  13.307
    1LIG   H115  206   2.163   1.988  13.310
    1LIG   H116  207   2.286   2.072  13.616
    1LIG   H117  208   2.133   1.989  13.624
    1LIG   H118  209   2.063   2.222  13.784
    1LIG   H119  210   2.233   2.244  13.786
    2LIG      O  211   1.842   1.864   0.041
    2LIG      C  212   1.901   1.902   0.194
    2LIG     C1  213   1.839   1.851   0.360
    2LIG     O1  214   1.896   1.897   0.512
    2LIG     C2  215   1.842   1.849   0.664
    2LIG     C3  216   1.894   1.907   0.830
    2LIG     O2  217   1.848   1.848   0.980
    2LIG     C4  218   1.888   1.905   1.131
    2LIG     C5  219   1.837   1.842   1.294
    2LIG     O3  220   1.883   1.895   1.447
    2LIG     C6  221   1.834   1.843   1.599
    2LIG     C7  222   1.889   1.902   1.763
    2LIG     O4  223   1.841   1.848   1.913
    2LIG     C8  224   1.886   1.905   2.063
    2LIG     C9  225   1.831   1.847   2.227
    2LIG     O5  226   1.885   1.899   2.377
    2LIG    C10  227   1.831   1.849   2.527
    2LIG    C11  228   1.886   1.906   2.690
    2LIG     O6  229   1.838   1.849   2.838
    2LIG    C12  230   1.882   1.906   2.986
    2LIG    C13  231   1.830   1.844   3.148
    2LIG     O7  232   1.877   1.897   3.299
    2LIG    C14  233   1.830   1.844   3.450
    2LIG    C15  234   1.886   1.904   3.612
    2LIG     O8  235   1.838   1.850   3.762
    2LIG    C16  236   1.885   1.907   3.911
    2LIG    C17  237   1.830   1.849   4.074
    2LIG     O9  238   1.884   1.900   4.223
    2LIG    C18  239   1.830   1.851   4.373
    2LIG    C19  240   1.885   1.908   4.535
    2LIG    O10  241   1.836   1.850   4.682
    2LIG    C20  242   1.880   1.906   4.830
    2LIG    C21  243   1.826   1.844   4.991
    2LIG    O11  244   1.873   1.898   5.141
    2LIG    C22  245   1.827   1.843   5.291
    2LIG    C23  246   1.882   1.904   5.453
    2LIG    O12  247   1.831   1.851   5.601
    2LIG    C24  248   1.877   1.906   5.751
    2LIG    C25  249   1.818   1.847   5.911
    2LIG    O13  250   1.864   1.900   6.061
    2LIG    C26  251   1.806   1.849   6.207
    2LIG    C27  252   1.868   1.899   6.370
    2LIG    O14  253   1.820   1.843   6.518
    2LIG    C28  254   1.866   1.900   6.667
    2LIG    C29  255   1.816   1.840   6.831
    2LIG    O15  256   1.867   1.895   6.981
    2LIG    C30  257   1.819   1.847   7.134
    2LIG    C31  258   1.887   1.898   7.296
    2LIG    O16  259   1.834   1.851   7.447
    2LIG    C32  260   1.885   1.904   7.595
    2LIG    C33  261   1.822   1.855   7.759
    2LIG    O17  262   1.888   1.893   7.908
    2LIG    C34  263   1.828   1.856   8.059
    2LIG    C35  264   1.889   1.910   8.221
    2LIG    O18  265   1.838   1.856   8.370
    2LIG    C36  266   1.884   1.913   8.518
    2LIG    C37  267   1.827   1.852   8.680
    2LIG    O19  268   1.877   1.902   8.831
    2LIG    C38  269   1.835   1.845   8.982
    2LIG    C39  270   1.890   1.907   9.143
    2LIG    O20  271   1.843   1.854   9.294
    2LIG    C40  272   1.890   1.910   9.442
    2LIG    C41  273   1.835   1.852   9.606
    2LIG    O21  274   1.890   1.902   9.755
    2LIG    C42  275   1.834   1.856   9.905
    2LIG    C43  276   1.892   1.911  10.067
    2LIG    O22  277   1.843   1.854  10.215
    2LIG    C44  278   1.887   1.910  10.364
    2LIG    C45  279   1.830   1.848  10.525
    2LIG    O23  280   1.880   1.899  10.677
    2LIG    C46  281   1.839   1.842  10.828
    2LIG    C47  282   1.895   1.904  10.989
    2LIG    O24  283   1.853   1.847  11.139
    2LIG    C48  284   1.896   1.905  11.288
    2LIG    C49  285   1.842   1.845  11.451
    2LIG    O25  286   1.895   1.895  11.600
    2LIG    C50  287   1.837   1.852  11.750
    2LIG    C51  288   1.895   1.906  11.914
    2LIG    O26  289   1.846   1.850  12.064
    2LIG    C52  290   1.890   1.906  12.214
    2LIG    C53  291   1.833   1.845  12.378
    2LIG    O27  292   1.882   1.897  12.530
    2LIG    C54  293   1.841   1.841  12.684
    2LIG    C55  294   1.898   1.904  12.847
    2LIG    O28  295   1.856   1.847  13.000
    2LIG    C56  296   1.900   1.905  13.151
    2LIG    C57  297   1.845   1.846  13.317
    2LIG    O29  298   1.902   1.891  13.470
    2LIG    C58  299   1.838   1.858  13.622
    2LIG    C59  300   1.916   1.871  13.790
    2LIG      H  301   1.892   2.011   0.199
    2LIG     H1  302   2.009   1.881   0.193
    2LIG     H2  303   1.842   1.741   0.358
    2LIG     H3  304   1.733   1.877   0.359
    2LIG     H4  305   1.850   1.740   0.667
    2LIG     H5  306   1.735   1.874   0.666
    2LIG     H6  307   1.864   2.012   0.831
    2LIG     H7  308   2.003   1.907   0.829
    2LIG     H8  309   1.853   2.009   1.132
    2LIG     H9  310   1.998   1.910   1.133
    2LIG    H10  311   1.852   1.733   1.292
    2LIG    H11  312   1.729   1.856   1.290
    2LIG    H12  313   1.852   1.735   1.600
    2LIG    H13  314   1.725   1.854   1.601
    2LIG    H14  315   1.869   2.010   1.762
    2LIG    H15  316   1.999   1.894   1.761
    2LIG    H16  317   1.859   2.011   2.063
    2LIG    H17  318   1.996   1.900   2.066
    2LIG    H18  319   1.844   1.738   2.226
    2LIG    H19  320   1.723   1.863   2.227
    2LIG    H20  321   1.840   1.740   2.529
    2LIG    H21  322   1.725   1.872   2.530
    2LIG    H22  323   1.860   2.013   2.690
    2LIG    H23  324   1.996   1.903   2.688
    2LIG    H24  325   1.850   2.011   2.987
    2LIG    H25  326   1.992   1.907   2.987
    2LIG    H26  327   1.845   1.735   3.146
    2LIG    H27  328   1.722   1.858   3.144
    2LIG    H28  329   1.850   1.737   3.451
    2LIG    H29  330   1.721   1.853   3.453
    2LIG    H30  331   1.865   2.012   3.611
    2LIG    H31  332   1.995   1.896   3.610
    2LIG    H32  333   1.859   2.013   3.911
    2LIG    H33  334   1.994   1.901   3.913
    2LIG    H34  335   1.843   1.740   4.072
    2LIG    H35  336   1.721   1.865   4.074
    2LIG    H36  337   1.837   1.742   4.375
    2LIG    H37  338   1.723   1.877   4.375
    2LIG    H38  339   1.860   2.014   4.536
    2LIG    H39  340   1.994   1.903   4.533
    2LIG    H40  341   1.850   2.011   4.831
    2LIG    H41  342   1.989   1.905   4.832
    2LIG    H42  343   1.842   1.735   4.990
    2LIG    H43  344   1.718   1.858   4.987
    2LIG    H44  345   1.850   1.736   5.292
    2LIG    H45  346   1.718   1.850   5.295
    2LIG    H46  347   1.863   2.012   5.451
    2LIG    H47  348   1.992   1.894   5.452
    2LIG    H48  349   1.852   2.013   5.751
    2LIG    H49  350   1.986   1.899   5.754
    2LIG    H50  351   1.835   1.738   5.910
    2LIG    H51  352   1.709   1.860   5.907
    2LIG    H52  353   1.804   1.740   6.203
    2LIG    H53  354   1.701   1.879   6.208
    2LIG    H54  355   1.846   2.006   6.372
    2LIG    H55  356   1.977   1.890   6.366
    2LIG    H56  357   1.833   2.004   6.667
    2LIG    H57  358   1.976   1.900   6.667
    2LIG    H58  359   1.832   1.731   6.830
    2LIG    H59  360   1.707   1.853   6.830
    2LIG    H60  361   1.821   1.737   7.134
    2LIG    H61  362   1.713   1.872   7.143
    2LIG    H62  363   1.882   2.007   7.296
    2LIG    H63  364   1.994   1.875   7.292
    2LIG    H64  365   1.868   2.012   7.594
    2LIG    H65  366   1.993   1.889   7.599
    2LIG    H66  367   1.812   1.747   7.757
    2LIG    H67  368   1.719   1.892   7.762
    2LIG    H68  369   1.822   1.747   8.064
    2LIG    H69  370   1.727   1.896   8.058
    2LIG    H70  371   1.870   2.018   8.221
    2LIG    H71  372   1.998   1.900   8.218
    2LIG    H72  373   1.859   2.019   8.519
    2LIG    H73  374   1.994   1.909   8.521
    2LIG    H74  375   1.838   1.743   8.677
    2LIG    H75  376   1.718   1.869   8.677
    2LIG    H76  377   1.858   1.739   8.982
    2LIG    H77  378   1.726   1.850   8.989
    2LIG    H78  379   1.868   2.014   9.141
    2LIG    H79  380   2.000   1.900   9.141
    2LIG    H80  381   1.865   2.016   9.442
    2LIG    H81  382   2.000   1.903   9.444
    2LIG    H82  383   1.846   1.743   9.604
    2LIG    H83  384   1.726   1.869   9.606
    2LIG    H84  385   1.835   1.747   9.907
    2LIG    H85  386   1.730   1.889   9.906
    2LIG    H86  387   1.870   2.018  10.068
    2LIG    H87  388   2.001   1.903  10.064
    2LIG    H88  389   1.861   2.017  10.365
    2LIG    H89  390   1.997   1.907  10.367
    2LIG    H90  391   1.843   1.740  10.522
    2LIG    H91  392   1.722   1.863  10.523
    2LIG    H92  393   1.862   1.735  10.828
    2LIG    H93  394   1.730   1.848  10.835
    2LIG    H94  395   1.868   2.010  10.988
    2LIG    H95  396   2.005   1.902  10.984
    2LIG    H96  397   1.867   2.010  11.287
    2LIG    H97  398   2.006   1.904  11.290
    2LIG    H98  399   1.855   1.736  11.448
    2LIG    H99  400   1.733   1.860  11.450
    2LIG   H100  401   1.835   1.742  11.753
    2LIG   H101  402   1.734   1.887  11.750
    2LIG   H102  403   1.872   2.013  11.915
    2LIG   H103  404   2.004   1.899  11.911
    2LIG   H104  405   1.863   2.013  12.214
    2LIG   H105  406   1.999   1.903  12.217
    2LIG   H106  407   1.848   1.737  12.375
    2LIG   H107  408   1.724   1.858  12.375
    2LIG   H108  409   1.864   1.735  12.685
    2LIG   H109  410   1.732   1.848  12.691
    2LIG   H110  411   1.870   2.010  12.846
    2LIG   H111  412   2.007   1.902  12.842
    2LIG   H112  413   1.871   2.011  13.150
    2LIG   H113  414   2.009   1.904  13.153
    2LIG   H114  415   1.853   1.737  13.313
    2LIG   H115  416   1.737   1.867  13.318
    2LIG   H116  417   1.810   1.752  13.617
    2LIG   H117  418   1.745   1.916  13.629
    2LIG   H118  419   1.979   1.960  13.788
    2LIG   H119  420   1.986   1.786  13.790
    3MOL     C1  421   2.694   2.208   6.387
    3MOL     H1  422   2.800   2.180   6.379
    3MOL     O1  423   2.653   2.271   6.263
    3MOL     C2  424   2.517   2.322   6.256
    3MOL     H2  425   2.446   2.239   6.270
    3MOL     C3  426   2.493   2.384   6.117
    3MOL     H3  427   2.385   2.397   6.101
    3MOL     H4  428   2.530   2.315   6.040
    3MOL     O2  429   2.559   2.511   6.105
    3MOL     H5  430   2.542   2.544   6.014
    3MOL     C4  431   2.675   2.310   6.504
    3MOL     H6  432   2.745   2.392   6.489
    3MOL     O3  433   2.698   2.248   6.631
    3MOL     H7  434   2.677   2.154   6.621
    3MOL     C5  435   2.532   2.367   6.506
    3MOL     H8  436   2.465   2.283   6.526
    3MOL     O4  437   2.519   2.467   6.609
    3MOL     H9  438   2.560   2.429   6.690
    3MOL     C6  439   2.496   2.426   6.369
    3MOL    H10  440   2.562   2.512   6.352
    3MOL     O5  441   2.357   2.468   6.375
    3MOL     C7  442   2.329   2.598   6.317
    3MOL    H11  443   2.421   2.643   6.277
    3MOL     O6  444   2.234   2.583   6.208
    3MOL     C8  445   2.102   2.533   6.244
    3MOL    H12  446   2.114   2.434   6.287
    3MOL     C9  447   2.016   2.519   6.115
    3MOL    H13  448   1.935   2.448   6.135
    3MOL    H14  449   2.078   2.476   6.036
    3MOL     O7  450   1.959   2.643   6.072
    3MOL    H15  451   1.866   2.638   6.103
    3MOL    C10  452   2.271   2.694   6.424
    3MOL    H16  453   2.260   2.792   6.378
    3MOL     O8  454   2.360   2.703   6.535
    3MOL    H17  455   2.405   2.617   6.545
    3MOL    C11  456   2.132   2.648   6.473
    3MOL    H18  457   2.142   2.552   6.522
    3MOL     O9  458   2.078   2.743   6.567
    3MOL    H19  459   2.153   2.766   6.626
    3MOL    C12  460   2.040   2.628   6.351
    3MOL    H20  461   2.024   2.726   6.304
    3MOL    O10  462   1.916   2.571   6.401
    3MOL    C13  463   1.802   2.656   6.380
    3MOL    H21  464   1.836   2.759   6.359
    3MOL    O11  465   1.726   2.605   6.268
    3MOL    C14  466   1.666   2.475   6.291
    3MOL    H22  467   1.743   2.404   6.322
    3MOL    C15  468   1.600   2.424   6.160
    3MOL    H23  469   1.592   2.315   6.165
    3MOL    H24  470   1.666   2.449   6.076
    3MOL    O12  471   1.469   2.477   6.138
    3MOL    H25  472   1.407   2.420   6.190
    3MOL    C16  473   1.715   2.666   6.509
    3MOL    H26  474   1.645   2.750   6.495
    3MOL    O13  475   1.801   2.693   6.619
    3MOL    H27  476   1.890   2.703   6.580
    3MOL    C17  477   1.631   2.539   6.534
    3MOL    H28  478   1.699   2.460   6.565
    3MOL    O14  479   1.532   2.562   6.636
    3MOL    H29  480   1.580   2.551   6.722
    3MOL    C18  481   1.563   2.489   6.406
    3MOL    H30  482   1.485   2.561   6.377
    3MOL    O15  483   1.509   2.359   6.436
    3MOL    C19  484   1.367   2.343   6.422
    3MOL    H31  485   1.315   2.440   6.413
    3MOL    O16  486   1.343   2.264   6.303
    3MOL    C20  487   1.399   2.130   6.306
    3MOL    H32  488   1.508   2.136   6.319
    3MOL    C21  489   1.373   2.059   6.169
    3MOL    H33  490   1.443   1.975   6.158
    3MOL    H34  491   1.396   2.130   6.089
    3MOL    O17  492   1.239   2.011   6.154
    3MOL    H35  493   1.239   1.921   6.194
    3MOL    C22  494   1.314   2.272   6.549
    3MOL    H36  495   1.204   2.268   6.544
    3MOL    O18  496   1.354   2.348   6.663
    3MOL    H37  497   1.430   2.403   6.630
    3MOL    C23  498   1.370   2.128   6.560
    3MOL    H38  499   1.479   2.136   6.570
    3MOL    O19  500   1.315   2.058   6.674
    3MOL    H39  501   1.306   2.121   6.749
    3MOL    C24  502   1.340   2.054   6.428
    3MOL    H40  503   1.231   2.046   6.416
    3MOL    O20  504   1.401   1.924   6.438
    3MOL    C25  505   1.311   1.811   6.431
    3MOL    H41  506   1.207   1.842   6.443
    3MOL    O21  507   1.330   1.747   6.302
    3MOL    C26  508   1.465   1.700   6.277
    3MOL    H42  509   1.534   1.785   6.281
    3MOL    C27  510   1.473   1.641   6.135
    3MOL    H43  511   1.578   1.619   6.112
    3MOL    H44  512   1.439   1.717   6.063
    3MOL    O22  513   1.395   1.521   6.118
    3MOL    H45  514   1.408   1.499   6.024
    3MOL    C28  515   1.345   1.712   6.544
    3MOL    H46  516   1.277   1.626   6.536
    3MOL    O23  517   1.326   1.777   6.669
    3MOL    H47  518   1.349   1.872   6.653
    3MOL    C29  519   1.491   1.661   6.529
    3MOL    H48  520   1.559   1.747   6.536
    3MOL    O24  521   1.526   1.564   6.630
    3MOL    H49  522   1.450   1.561   6.694
    3MOL    C30  523   1.508   1.599   6.388
    3MOL    H50  524   1.445   1.510   6.381
    3MOL    O25  525   1.647   1.566   6.370
    3MOL    C31  526   1.675   1.437   6.311
    3MOL    H51  527   1.583   1.395   6.267
    3MOL    O26  528   1.774   1.455   6.207
    3MOL    C32  529   1.903   1.504   6.252
    3MOL    H52  530   1.890   1.598   6.306
    3MOL    C33  531   1.995   1.530   6.130
    3MOL    H53  532   2.075   1.600   6.160
    3MOL    H54  533   1.937   1.581   6.051
    3MOL    O27  534   2.054   1.411   6.077
    3MOL    H55  535   2.151   1.426   6.083
    3MOL    C34  536   1.728   1.340   6.420
    3MOL    H56  537   1.739   1.241   6.374
    3MOL    O28  538   1.636   1.334   6.527
    3MOL    H57  539   1.611   1.426   6.549
    3MOL    C35  540   1.865   1.386   6.474
    3MOL    H58  541   1.850   1.485   6.519
    3MOL    O29  542   1.917   1.294   6.573
    3MOL    H59  543   1.840   1.268   6.630
    3MOL    C36  544   1.960   1.404   6.354
    3MOL    H60  545   1.976   1.308   6.303
    3MOL    O30  546   2.083   1.457   6.407
    3MOL    C37  547   2.189   1.361   6.406
    3MOL    H61  548   2.149   1.259   6.396
    3MOL    O31  549   2.273   1.388   6.293
    3MOL    C38  550   2.338   1.518   6.289
    3MOL    H62  551   2.262   1.597   6.290
    3MOL    C39  552   2.416   1.526   6.156
    3MOL    H63  553   2.497   1.452   6.157
    3MOL    H64  554   2.461   1.626   6.147
    3MOL    O32  555   2.327   1.501   6.046
    3MOL    H65  556   2.332   1.580   5.987
    3MOL    C40  557   2.270   1.370   6.537
    3MOL    H66  558   2.345   1.289   6.535
    3MOL    O33  559   2.184   1.356   6.652
    3MOL    H67  560   2.096   1.331   6.613
    3MOL    C41  561   2.342   1.505   6.543
    3MOL    H68  562   2.265   1.582   6.548
    3MOL    O34  563   2.425   1.513   6.659
    3MOL    H69  564   2.364   1.525   6.735
    3MOL    C42  565   2.427   1.529   6.416
    3MOL    H70  566   2.505   1.452   6.410
    3MOL    O35  567   2.482   1.662   6.429
    3MOL    C43  568   2.626   1.669   6.441
    3MOL    H71  569   2.670   1.569   6.450
    3MOL    O36  570   2.676   1.734   6.322
    3MOL    C44  571   2.627   1.869   6.297
    3MOL    H72  572   2.518   1.867   6.289
    3MOL    C45  573   2.686   1.919   6.164
    3MOL    H73  574   2.795   1.925   6.173
    3MOL    H74  575   2.646   2.019   6.146
    3MOL    O37  576   2.650   1.834   6.054
    3MOL    H75  577   2.594   1.891   5.997
    3MOL    C46  578   2.669   1.755   6.563
    3MOL    H76  579   2.778   1.757   6.565
    3MOL    O38  580   2.619   1.702   6.686
    3MOL    H77  581   2.547   1.641   6.663
    3MOL    C47  582   2.616   1.898   6.549
    3MOL    H78  583   2.508   1.887   6.544
    3MOL    O39  584   2.649   1.980   6.661
    3MOL    H79  585   2.633   1.923   6.742
    3MOL    C48  586   2.669   1.960   6.417
    3MOL    H80  587   2.778   1.964   6.419
    3MOL    O40  588   2.611   2.092   6.407
    4MOL     C1  589   1.321   2.197   7.510
    4MOL     H1  590   1.215   2.165   7.516
    4MOL     O1  591   1.362   2.252   7.637
    4MOL     C2  592   1.496   2.309   7.644
    4MOL     H2  593   1.571   2.231   7.625
    4MOL     C3  594   1.515   2.365   7.787
    4MOL     H3  595   1.618   2.400   7.800
    4MOL     H4  596   1.499   2.283   7.859
    4MOL     O2  597   1.424   2.471   7.815
    4MOL     H5  598   1.454   2.517   7.896
    4MOL     C4  599   1.334   2.302   7.396
    4MOL     H6  600   1.261   2.383   7.414
    4MOL     O3  601   1.308   2.242   7.269
    4MOL     H7  602   1.335   2.148   7.279
    4MOL     C5  603   1.476   2.363   7.394
    4MOL     H8  604   1.547   2.282   7.375
    4MOL     O4  605   1.487   2.465   7.293
    4MOL     H9  606   1.431   2.436   7.217
    4MOL     C6  607   1.509   2.420   7.534
    4MOL    H10  608   1.437   2.499   7.557
    4MOL     O5  609   1.644   2.471   7.529
    4MOL     C7  610   1.664   2.602   7.587
    4MOL    H11  611   1.570   2.641   7.628
    4MOL     O6  612   1.762   2.590   7.694
    4MOL     C8  613   1.892   2.541   7.652
    4MOL    H12  614   1.880   2.443   7.604
    4MOL     C9  615   1.982   2.522   7.777
    4MOL    H13  616   2.061   2.450   7.752
    4MOL    H14  617   1.921   2.477   7.857
    4MOL     O7  618   2.041   2.645   7.819
    4MOL    H15  619   2.130   2.645   7.777
    4MOL    C10  620   1.715   2.701   7.479
    4MOL    H16  621   1.719   2.801   7.523
    4MOL     O8  622   1.628   2.701   7.367
    4MOL    H17  623   1.596   2.608   7.356
    4MOL    C11  624   1.857   2.665   7.431
    4MOL    H18  625   1.847   2.570   7.377
    4MOL     O9  626   1.909   2.767   7.344
    4MOL    H19  627   1.838   2.783   7.276
    4MOL    C12  628   1.951   2.642   7.551
    4MOL    H20  629   1.964   2.739   7.601
    4MOL    O10  630   2.077   2.593   7.502
    4MOL    C13  631   2.193   2.676   7.524
    4MOL    H21  632   2.165   2.779   7.548
    4MOL    O11  633   2.269   2.619   7.635
    4MOL    C14  634   2.323   2.486   7.610
    4MOL    H22  635   2.240   2.420   7.584
    4MOL    C15  636   2.389   2.428   7.740
    4MOL    H23  637   2.386   2.319   7.735
    4MOL    H24  638   2.329   2.458   7.827
    4MOL    O12  639   2.525   2.468   7.759
    4MOL    H25  640   2.577   2.415   7.694
    4MOL    C16  641   2.276   2.678   7.393
    4MOL    H26  642   2.355   2.753   7.401
    4MOL    O13  643   2.186   2.714   7.288
    4MOL    H27  644   2.099   2.714   7.335
    4MOL    C17  645   2.339   2.541   7.363
    4MOL    H28  646   2.258   2.469   7.346
    4MOL    O14  647   2.424   2.546   7.246
    4MOL    H29  648   2.385   2.616   7.188
    4MOL    C18  649   2.418   2.493   7.487
    4MOL    H30  650   2.499   2.563   7.508
    4MOL    O15  651   2.467   2.361   7.457
    4MOL    C19  652   2.610   2.343   7.469
    4MOL    H31  653   2.662   2.439   7.474
    4MOL    O16  654   2.634   2.268   7.591
    4MOL    C20  655   2.574   2.135   7.591
    4MOL    H32  656   2.466   2.144   7.575
    4MOL    C21  657   2.595   2.064   7.727
    4MOL    H33  658   2.520   1.986   7.738
    4MOL    H34  659   2.578   2.137   7.808
    4MOL    O17  660   2.725   2.005   7.741
    4MOL    H35  661   2.723   1.924   7.686
    4MOL    C22  662   2.662   2.267   7.344
    4MOL    H36  663   2.771   2.260   7.351
    4MOL    O18  664   2.625   2.338   7.226
    4MOL    H37  665   2.553   2.399   7.257
    4MOL    C23  666   2.607   2.124   7.339
    4MOL    H38  667   2.498   2.131   7.326
    4MOL    O19  668   2.664   2.051   7.229
    4MOL    H39  669   2.661   2.111   7.151
    4MOL    C24  670   2.635   2.055   7.474
    4MOL    H40  671   2.743   2.049   7.489
    4MOL    O20  672   2.575   1.924   7.474
    4MOL    C25  673   2.664   1.812   7.487
    4MOL    H41  674   2.769   1.843   7.475
    4MOL    O21  675   2.643   1.753   7.617
    4MOL    C26  676   2.510   1.699   7.641
    4MOL    H42  677   2.435   1.779   7.631
    4MOL    C27  678   2.504   1.646   7.787
    4MOL    H43  679   2.407   1.598   7.805
    4MOL    H44  680   2.509   1.733   7.853
    4MOL    O22  681   2.612   1.558   7.820
    4MOL    H45  682   2.588   1.467   7.789
    4MOL    C28  683   2.632   1.710   7.376
    4MOL    H46  684   2.703   1.629   7.387
    4MOL    O23  685   2.643   1.771   7.248
    4MOL    H47  686   2.638   1.868   7.267
    4MOL    C29  687   2.493   1.647   7.391
    4MOL    H48  688   2.418   1.726   7.382
    4MOL    O24  689   2.471   1.548   7.289
    4MOL    H49  690   2.515   1.586   7.209
    4MOL    C30  691   2.477   1.590   7.534
    4MOL    H50  692   2.544   1.505   7.547
    4MOL    O25  693   2.339   1.552   7.545
    4MOL    C31  694   2.312   1.420   7.599
    4MOL    H51  695   2.401   1.377   7.646
    4MOL    O26  696   2.208   1.436   7.698
    4MOL    C32  697   2.082   1.488   7.646
    4MOL    H52  698   2.099   1.585   7.598
    4MOL    C33  699   1.984   1.511   7.763
    4MOL    H53  700   1.900   1.570   7.725
    4MOL    H54  701   2.034   1.571   7.840
    4MOL    O27  702   1.935   1.390   7.819
    4MOL    H55  703   1.846   1.377   7.780
    4MOL    C34  704   2.263   1.326   7.485
    4MOL    H56  705   2.245   1.226   7.527
    4MOL    O28  706   2.363   1.317   7.384
    4MOL    H57  707   2.383   1.410   7.357
    4MOL    C35  708   2.131   1.378   7.424
    4MOL    H58  709   2.148   1.479   7.385
    4MOL    O29  710   2.081   1.292   7.320
    4MOL    H59  711   2.158   1.273   7.259
    4MOL    C36  712   2.030   1.388   7.540
    4MOL    H60  713   2.019   1.290   7.588
    4MOL    O30  714   1.906   1.434   7.485
    4MOL    C37  715   1.798   1.339   7.498
    4MOL    H61  716   1.835   1.236   7.514
    4MOL    O31  717   1.717   1.379   7.611
    4MOL    C38  718   1.655   1.511   7.600
    4MOL    H62  719   1.732   1.589   7.591
    4MOL    C39  720   1.572   1.535   7.727
    4MOL    H63  721   1.497   1.455   7.736
    4MOL    H64  722   1.519   1.630   7.717
    4MOL    O32  723   1.654   1.538   7.844
    4MOL    H65  724   1.632   1.459   7.898
    4MOL    C40  725   1.714   1.340   7.368
    4MOL    H66  726   1.634   1.266   7.380
    4MOL    O33  727   1.796   1.307   7.256
    4MOL    H67  728   1.886   1.290   7.293
    4MOL    C41  729   1.649   1.480   7.347
    4MOL    H68  730   1.730   1.554   7.337
    4MOL    O34  731   1.567   1.481   7.230
    4MOL    H69  732   1.628   1.481   7.153
    4MOL    C42  733   1.567   1.516   7.473
    4MOL    H70  734   1.484   1.444   7.483
    4MOL    O35  735   1.518   1.651   7.456
    4MOL    C43  736   1.375   1.666   7.451
    4MOL    H71  737   1.325   1.569   7.443
    4MOL    O36  738   1.333   1.734   7.573
    4MOL    C44  739   1.388   1.868   7.593
    4MOL    H72  740   1.498   1.863   7.594
    4MOL    C45  741   1.340   1.924   7.729
    4MOL    H73  742   1.232   1.941   7.727
    4MOL    H74  743   1.388   2.022   7.745
    4MOL    O37  744   1.375   1.837   7.837
    4MOL    H75  745   1.395   1.891   7.916
    4MOL    C46  746   1.337   1.752   7.327
    4MOL    H76  747   1.228   1.755   7.319
    4MOL    O38  748   1.393   1.700   7.207
    4MOL    H77  749   1.450   1.623   7.231
    4MOL    C47  750   1.391   1.895   7.342
    4MOL    H78  751   1.501   1.890   7.344
    4MOL    O39  752   1.349   1.973   7.230
    4MOL    H79  753   1.341   1.907   7.156
    4MOL    C48  754   1.343   1.957   7.474
    4MOL    H80  755   1.234   1.965   7.473
    4MOL    O40  756   1.407   2.086   7.482
    5SOL     OW  757   0.231   0.655   0.119
    5SOL    HW1  758   0.137   0.645   0.133
    5SOL    HW2  759   0.249   0.608   0.038
    6SOL     OW  760   0.224   0.289   0.983
    6SOL    HW1  761   0.247   0.250   1.067
    6SOL    HW2  762   0.129   0.277   0.976
    7SOL     OW  763   0.019   0.385   0.632
    7SOL    HW1  764   3.929   0.398   0.663
    7SOL    HW2  765   0.025   0.291   0.617
    8SOL     OW  766   0.580   1.288   1.190
    8SOL    HW1  767   0.494   1.290   1.149
    8SOL    HW2  768   0.594   1.377   1.223
    9SOL     OW  769   1.548   1.496   0.710
    9SOL    HW1  770   1.515   1.478   0.798
    9SOL    HW2  771   1.469   1.498   0.656
   10SOL     OW  772   1.133   0.698   0.698
   10SOL    HW1  773   1.180   0.780   0.686
   10SOL    HW2  774   1.085   0.710   0.780
   11SOL     OW  775   1.761   0.623   0.217
   11SOL    HW1  776   1.778   0.598   0.126
   11SOL    HW2  777   1.765   0.541   0.266
   12SOL     OW  778   0.754   1.140   1.042
   12SOL    HW1  779   0.690   1.175   1.103
   12SOL    HW2  780   0.789   1.217   0.997
   13SOL     OW  781   0.871   0.771   1.824
   13SOL    HW1  782   0.859   0.842   1.886
   13SOL    HW2  783   0.893   0.814   1.741
   14SOL     OW  784   0.685   1.002   0.647
   14SOL    HW1  785   0.750   0.990   0.715
   14SOL    HW2  786   0.616   1.054   0.688
   15SOL     OW  787   0.711   1.149   1.815
   15SOL    HW1  788   0.759   1.227   1.844
   15SOL    HW2  789   0.630   1.183   1.778
   16SOL     OW  790   0.351   1.401   1.078
   16SOL    HW1  791   0.270   1.382   1.032
   16SOL    HW2  792   0.399   1.459   1.019
   17SOL     OW  793   1.449   1.485   1.358
   17SOL    HW1  794   1.495   1.567   1.372
   17SOL    HW2  795   1.381   1.484   1.426
   18SOL     OW  796   0.457   0.408   1.496
   18SOL    HW1  797   0.538   0.358   1.494
   18SOL    HW2  798   0.388   0.342   1.499
   19SOL     OW  799   1.611   0.450   0.735
   19SOL    HW1  800   1.541   0.484   0.679
   19SOL    HW2  801   1.633   0.523   0.793
   20SOL     OW  802   0.224   1.710   0.472
   20SOL    HW1  803   0.242   1.790   0.522
   20SOL    HW2  804   0.287   1.711   0.401
   21SOL     OW  805   1.137   1.342   1.694
   21SOL    HW1  806   1.177   1.336   1.780
   21SOL    HW2  807   1.085   1.262   1.686
   22SOL     OW  808   0.245   1.446   0.543
   22SOL    HW1  809   0.223   1.538   0.528
   22SOL    HW2  810   0.171   1.412   0.593
   23SOL     OW  811   0.247   1.066   0.884
   23SOL    HW1  812   0.267   0.981   0.923
   23SOL    HW2  813   0.195   1.111   0.950
   24SOL     OW  814   0.611   1.792   1.428
   24SOL    HW1  815   0.528   1.774   1.472
   24SOL    HW2  816   0.633   1.881   1.454
   25SOL     OW  817   0.562   0.981   0.164
   25SOL    HW1  818   0.587   1.025   0.083
   25SOL    HW2  819   0.617   1.021   0.232
   26SOL     OW  820   1.580   0.140   1.456
   26SOL    HW1  821   1.610   0.212   1.401
   26SOL    HW2  822   1.549   0.181   1.536
   27SOL     OW  823   0.139   0.653   0.568
   27SOL    HW1  824   0.097   0.567   0.575
   27SOL    HW2  825   0.103   0.703   0.642
   28SOL     OW  826   0.024   1.599   0.137
   28SOL    HW1  827   0.027   1.504   0.146
   28SOL    HW2  828   3.971   1.628   0.211
   29SOL     OW  829   1.685   0.915   0.642
   29SOL    HW1  830   1.771   0.877   0.625
   29SOL    HW2  831   1.667   0.968   0.564
   30SOL     OW  832   1.649   1.106   0.430
   30SOL    HW1  833   1.737   1.106   0.393
   30SOL    HW2  834   1.654   1.166   0.504
   31SOL     OW  835   0.140   0.756   1.589
   31SOL    HW1  836   0.235   0.751   1.584
   31SOL    HW2  837   0.122   0.844   1.620
   32SOL     OW  838   0.613   1.386   0.736
   32SOL    HW1  839   0.566   1.303   0.745
   32SOL    HW2  840   0.597   1.413   0.646
   33SOL     OW  841   1.285   1.235   1.424
   33SOL    HW1  842   1.317   1.169   1.363
   33SOL    HW2  843   1.345   1.230   1.499
   34SOL     OW  844   0.823   0.003   0.520
   34SOL    HW1  845   0.867   0.083   0.493
   34SOL    HW2  846   0.730   0.025   0.519
   35SOL     OW  847   0.184   0.951   1.278
   35SOL    HW1  848   0.272   0.915   1.266
   35SOL    HW2  849   0.132   0.908   1.210
   36SOL     OW  850   1.529   0.997   0.205
   36SOL    HW1  851   1.462   0.939   0.240
   36SOL    HW2  852   1.572   1.033   0.283
   37SOL     OW  853   1.187   1.809   1.624
   37SOL    HW1  854   1.194   1.868   1.549
   37SOL    HW2  855   1.202   1.722   1.587
   38SOL     OW  856   0.344   0.251   1.838
   38SOL    HW1  857   0.387   0.335   1.820
   38SOL    HW2  858   0.253   0.275   1.856
   39SOL     OW  859   1.466   1.419   0.956
   39SOL    HW1  860   1.397   1.434   1.021
   39SOL    HW2  861   1.454   1.328   0.929
   40SOL     OW  862   1.613   1.705   0.560
   40SOL    HW1  863   1.588   1.674   0.473
   40SOL    HW2  864   1.605   1.628   0.617
   41SOL     OW  865   0.595   0.716   0.264
   41SOL    HW1  866   0.596   0.799   0.218
   41SOL    HW2  867   0.535   0.730   0.338
   42SOL     OW  868   1.275   0.368   0.940
   42SOL    HW1  869   1.187   0.329   0.947
   42SOL    HW2  870   1.332   0.307   0.986
   43SOL     OW  871   1.538   1.715   0.296
   43SOL    HW1  872   1.619   1.664   0.305
   43SOL    HW2  873   1.511   1.700   0.205
   44SOL     OW  874   0.794   0.616   1.453
   44SOL    HW1  875   0.765   0.590   1.541
   44SOL    HW2  876   0.756   0.551   1.395
   45SOL     OW  877   1.392   0.476   1.677
   45SOL    HW1  878   1.398   0.521   1.762
   45SOL    HW2  879   1.450   0.400   1.686
   46SOL     OW  880   0.953   0.887   1.584
   46SOL    HW1  881   1.007   0.818   1.547
   46SOL    HW2  882   0.904   0.921   1.509
   47SOL     OW  883   0.992   0.403   1.238
   47SOL    HW1  884   0.907   0.424   1.277
   47SOL    HW2  885   0.971   0.373   1.150
   48SOL     OW  886   1.052   0.702   0.428
   48SOL    HW1  887   1.069   0.693   0.522
   48SOL    HW2  888   0.969   0.656   0.414
   49SOL     OW  889   0.082   0.828   0.790
   49SOL    HW1  890   0.155   0.795   0.842
   49SOL    HW2  891   0.100   0.921   0.779
   50SOL     OW  892   0.130   1.862   1.576
   50SOL    HW1  893   0.138   1.827   1.665
   50SOL    HW2  894   0.038   1.850   1.554
   51SOL     OW  895   0.874   0.361   0.221
   51SOL    HW1  896   0.911   0.419   0.154
   51SOL    HW2  897   0.879   0.274   0.182
   52SOL     OW  898   1.708   0.575   1.829
   52SOL    HW1  899   1.670   0.648   1.781
   52SOL    HW2  900   1.733   0.512   1.762
   53SOL     OW  901   1.379   1.142   0.542
   53SOL    HW1  902   1.458   1.130   0.489
   53SOL    HW2  903   1.325   1.203   0.493
   54SOL     OW  904   0.562   0.196   0.882
   54SOL    HW1  905   0.565   0.219   0.974
   54SOL    HW2  906   0.549   0.279   0.836
   55SOL     OW  907   1.003   1.441   0.475
   55SOL    HW1  908   0.971   1.516   0.424
   55SOL    HW2  909   0.982   1.463   0.566
   56SOL     OW  910   0.365   1.818   0.871
   56SOL    HW1  911   0.428   1.747   0.879
   56SOL    HW2  912   0.416   1.897   0.886
   57SOL     OW  913   1.800   1.048   0.871
   57SOL    HW1  914   1.745   1.039   0.793
   57SOL    HW2  915   1.737   1.058   0.943
   58SOL     OW  916   1.225   1.537   1.515
   58SOL    HW1  917   1.210   1.465   1.576
   58SOL    HW2  918   1.159   1.524   1.446
   59SOL     OW  919   0.309   0.931   0.241
   59SOL    HW1  920   0.400   0.945   0.214
   59SOL    HW2  921   0.296   0.837   0.234
   60SOL     OW  922   1.477   0.747   0.730
   60SOL    HW1  923   1.474   0.705   0.816
   60SOL    HW2  924   1.556   0.802   0.734
   61SOL     OW  925   0.468   1.261   1.737
   61SOL    HW1  926   0.442   1.269   1.645
   61SOL    HW2  927   0.386   1.264   1.786
   62SOL     OW  928   1.121   1.779   0.230
   62SOL    HW1  929   1.058   1.732   0.285
   62SOL    HW2  930   1.150   1.714   0.166
   63SOL     OW  931   0.201   0.294   1.500
   63SOL    HW1  932   0.107   0.314   1.499
   63SOL    HW2  933   0.209   0.223   1.563
   64SOL     OW  934   1.631   1.375   0.089
   64SOL    HW1  935   1.596   1.454   0.049
   64SOL    HW2  936   1.565   1.308   0.071
   65SOL     OW  937   0.477   1.732   0.323
   65SOL    HW1  938   0.518   1.791   0.387
   65SOL    HW2  939   0.550   1.697   0.272
   66SOL     OW  940   1.440   0.142   0.396
   66SOL    HW1  941   1.395   0.057   0.391
   66SOL    HW2  942   1.521   0.123   0.444
   67SOL     OW  943   0.252   1.791   1.231
   67SOL    HW1  944   0.298   1.726   1.284
   67SOL    HW2  945   0.249   1.752   1.143
   68SOL     OW  946   0.938   1.699   0.898
   68SOL    HW1  947   1.016   1.648   0.920
   68SOL    HW2  948   0.895   1.649   0.828
   69SOL     OW  949   0.396   0.695   0.471
   69SOL    HW1  950   0.421   0.603   0.484
   69SOL    HW2  951   0.305   0.699   0.498
   70SOL     OW  952   1.529   0.229   1.727
   70SOL    HW1  953   1.526   0.254   1.819
   70SOL    HW2  954   1.510   0.135   1.727
   71SOL     OW  955   0.628   0.109   0.122
   71SOL    HW1  956   0.724   0.107   0.126
   71SOL    HW2  957   0.609   0.132   0.031
   72SOL     OW  958   0.777   0.283   1.767
   72SOL    HW1  959   0.850   0.221   1.769
   72SOL    HW2  960   0.720   0.256   1.838
   73SOL     OW  961   0.876   1.522   1.194
   73SOL    HW1  962   0.860   1.485   1.107
   73SOL    HW2  963   0.945   1.468   1.231
   74SOL     OW  964   1.340   0.587   1.431
   74SOL    HW1  965   1.370   0.558   1.517
   74SOL    HW2  966   1.375   0.676   1.421
   75SOL     OW  967   0.816   1.393   0.941
   75SOL    HW1  968   0.901   1.381   0.899
   75SOL    HW2  969   0.753   1.395   0.869
   76SOL     OW  970   0.929   0.512   0.900
   76SOL    HW1  971   0.905   0.504   0.808
   76SOL    HW2  972   0.955   0.423   0.926
   77SOL     OW  973   0.551   0.052   0.498
   77SOL    HW1  974   0.476   0.059   0.557
   77SOL    HW2  975   0.544   0.130   0.443
   78SOL     OW  976   1.430   1.204   0.044
   78SOL    HW1  977   1.450   1.124   0.092
   78SOL    HW2  978   1.338   1.222   0.064
   79SOL     OW  979   0.358   3.988   0.174
   79SOL    HW1  980   0.322   0.073   0.148
   79SOL    HW2  981   0.432   0.010   0.230
   80SOL     OW  982   0.942   0.249   0.466
   80SOL    HW1  983   0.910   0.288   0.384
   80SOL    HW2  984   1.037   0.251   0.457
   81SOL     OW  985   1.079   0.683   1.458
   81SOL    HW1  986   1.010   0.618   1.465
   81SOL    HW2  987   1.160   0.632   1.453
   82SOL     OW  988   1.223   1.570   0.794
   82SOL    HW1  989   1.237   1.639   0.729
   82SOL    HW2  990   1.291   1.584   0.859
   83SOL     OW  991   0.465   1.151   0.734
   83SOL    HW1  992   0.395   1.126   0.793
   83SOL    HW2  993   0.429   1.137   0.646
   84SOL     OW  994   1.263   1.793   0.610
   84SOL    HW1  995   1.312   1.855   0.556
   84SOL    HW2  996   1.197   1.847   0.654
   85SOL     OW  997   1.000   0.532   0.053
   85SOL    HW1  998   1.000   0.532  13.857
   85SOL    HW2  999   1.090   0.552   0.077
   86SOL     OW 1000   0.080   0.573   1.393
   86SOL    HW1 1001   0.169   0.555   1.363
   86SOL    HW2 1002   0.090   0.644   1.456
   87SOL     OW 1003   0.572   0.231   1.160
   87SOL    HW1 1004   0.594   0.138   1.168
   87SOL    HW2 1005   0.481   0.237   1.190
   88SOL     OW 1006   0.871   0.462   0.638
   88SOL    HW1 1007   0.823   0.515   0.574
   88SOL    HW2 1008   0.891   0.381   0.592
   89SOL     OW 1009   0.996   0.040   0.779
   89SOL    HW1 1010   0.955   0.068   0.697
   89SOL    HW2 1011   1.007   3.946   0.770
   90SOL     OW 1012   1.438   1.163   0.858
   90SOL    HW1 1013   1.369   1.097   0.856
   90SOL    HW2 1014   1.464   1.173   0.766
   91SOL     OW 1015   1.465   0.607   0.975
   91SOL    HW1 1016   1.411   0.528   0.980
   91SOL    HW2 1017   1.525   0.600   1.049
   92SOL     OW 1018   1.846   0.817   0.384
   92SOL    HW1 1019   1.899   0.762   0.442
   92SOL    HW2 1020   1.812   0.757   0.318
   93SOL     OW 1021   0.495   1.380   0.167
   93SOL    HW1 1022   0.422   1.352   0.222
   93SOL    HW2 1023   0.453   1.418   0.089
   94SOL     OW 1024   1.673   1.262   0.644
   94SOL    HW1 1025   1.767   1.261   0.661
   94SOL    HW2 1026   1.643   1.349   0.671
   95SOL     OW 1027   1.420   0.590   0.087
   95SOL    HW1 1028   1.351   0.577   0.152
   95SOL    HW2 1029   1.473   0.511   0.090
   96SOL     OW 1030   0.527   0.258   0.326
   96SOL    HW1 1031   0.565   0.209   0.253
   96SOL    HW2 1032   0.506   0.344   0.290
   97SOL     OW 1033   1.749   1.233   1.572
   97SOL    HW1 1034   1.836   1.193   1.568
   97SOL    HW2 1035   1.766   1.324   1.597
   98SOL     OW 1036   1.056   1.354   1.334
   98SOL    HW1 1037   0.981   1.322   1.384
   98SOL    HW2 1038   1.132   1.311   1.375
   99SOL     OW 1039   1.608   1.614   1.664
   99SOL    HW1 1040   1.589   1.646   1.576
   99SOL    HW2 1041   1.688   1.564   1.656
  100SOL     OW 1042   1.132   1.207   1.104
  100SOL    HW1 1043   1.070   1.243   1.169
  100SOL    HW2 1044   1.099   1.238   1.020
  101SOL     OW 1045   1.625   1.096   1.076
  101SOL    HW1 1046   1.619   1.158   1.148
  101SOL    HW2 1047   1.548   1.115   1.021
  102SOL     OW 1048   0.913   0.114   1.401
  102SOL    HW1 1049   0.932   0.088   1.311
  102SOL    HW2 1050   0.993   0.156   1.432
  103SOL     OW 1051   0.984   1.115   1.723
  103SOL    HW1 1052   0.892   1.131   1.746
  103SOL    HW2 1053   0.982   1.037   1.668
  104SOL     OW 1054   0.715   1.060   0.377
  104SOL    HW1 1055   0.700   1.042   0.469
  104SOL    HW2 1056   0.789   1.005   0.353
  105SOL     OW 1057   0.422   0.817   1.252
  105SOL    HW1 1058   0.491   0.823   1.319
  105SOL    HW2 1059   0.387   0.728   1.262
  106SOL     OW 1060   1.266   0.375   1.277
  106SOL    HW1 1061   1.300   0.453   1.321
  106SOL    HW2 1062   1.178   0.400   1.247
  107SOL     OW 1063   0.065   1.580   1.346
  107SOL    HW1 1064   0.070   1.636   1.269
  107SOL    HW2 1065   0.156   1.567   1.372
  108SOL     OW 1066   0.364   1.104   0.481
  108SOL    HW1 1067   0.355   1.180   0.425
  108SOL    HW2 1068   0.380   1.031   0.421
  109SOL     OW 1069   0.555   0.534   0.858
  109SOL    HW1 1070   0.569   0.592   0.784
  109SOL    HW2 1071   0.621   0.561   0.922
  110SOL     OW 1072   1.245   1.342   0.397
  110SOL    HW1 1073   1.299   1.417   0.422
  110SOL    HW2 1074   1.157   1.364   0.429
  111SOL     OW 1075   1.279   1.460   1.147
  111SOL    HW1 1076   1.336   1.460   1.224
  111SOL    HW2 1077   1.225   1.381   1.158
  112SOL     OW 1078   1.580   0.636   0.490
  112SOL    HW1 1079   1.536   0.693   0.553
  112SOL    HW2 1080   1.614   0.696   0.423
  113SOL     OW 1081   0.345   1.527   1.318
  113SOL    HW1 1082   0.335   1.476   1.238
  113SOL    HW2 1083   0.439   1.542   1.326
  114SOL     OW 1084   0.416   0.738   1.601
  114SOL    HW1 1085   0.479   0.783   1.544
  114SOL    HW2 1086   0.454   0.651   1.614
  115SOL     OW 1087   1.603   0.780   1.685
  115SOL    HW1 1088   1.517   0.821   1.678
  115SOL    HW2 1089   1.656   0.821   1.616
  116SOL     OW 1090   1.012   0.132   1.778
  116SOL    HW1 1091   1.064   0.205   1.743
  116SOL    HW2 1092   1.001   0.072   1.705
  117SOL     OW 1093   0.482   0.036   1.765
  117SOL    HW1 1094   0.491   0.046   1.670
  117SOL    HW2 1095   0.421   0.105   1.791
  118SOL     OW 1096   0.584   0.875   1.031
  118SOL    HW1 1097   0.616   0.965   1.034
  118SOL    HW2 1098   0.529   0.867   1.109
  119SOL     OW 1099   1.354   0.858   1.027
  119SOL    HW1 1100   1.270   0.846   0.983
  119SOL    HW2 1101   1.397   0.773   1.020
  120SOL     OW 1102   1.217   0.550   0.268
  120SOL    HW1 1103   1.223   0.470   0.320
  120SOL    HW2 1104   1.160   0.607   0.319
  121SOL     OW 1105   0.311   0.212   1.240
  121SOL    HW1 1106   0.269   0.248   1.318
  121SOL    HW2 1107   0.296   0.118   1.246
  122SOL     OW 1108   0.061   1.306   1.280
  122SOL    HW1 1109   0.091   1.264   1.361
  122SOL    HW2 1110   0.052   1.398   1.303
  123SOL     OW 1111   0.725   0.634   1.053
  123SOL    HW1 1112   0.799   0.618   0.995
  123SOL    HW2 1113   0.695   0.722   1.032
  124SOL     OW 1114   1.736   0.960   1.854
  124SOL    HW1 1115   1.691   0.896   1.799
  124SOL    HW2 1116   1.677   0.975   1.928
  125SOL     OW 1117   0.332   0.057   0.656
  125SOL    HW1 1118   0.306   0.149   0.663
  125SOL    HW2 1119   0.282   0.013   0.725
  126SOL     OW 1120   1.576   0.390   0.391
  126SOL    HW1 1121   1.550   0.329   0.459
  126SOL    HW2 1122   1.568   0.476   0.432
  127SOL     OW 1123   1.029   0.759   0.959
  127SOL    HW1 1124   1.023   0.776   1.053
  127SOL    HW2 1125   1.002   0.668   0.949
  128SOL     OW 1126   0.982   1.567   1.719
  128SOL    HW1 1127   0.967   1.610   1.635
  128SOL    HW2 1128   1.025   1.484   1.695
  129SOL     OW 1129   1.853   1.490   1.604
  129SOL    HW1 1130   1.882   1.523   1.519
  129SOL    HW2 1131   1.926   1.508   1.663
  130SOL     OW 1132   0.353   0.922   1.799
  130SOL    HW1 1133   0.431   0.941   1.851
  130SOL    HW2 1134   0.382   0.854   1.737
  131SOL     OW 1135   1.537   0.268   0.146
  131SOL    HW1 1136   1.468   0.202   0.146
  131SOL    HW2 1137   1.538   0.302   0.235
  132SOL     OW 1138   1.289   0.832   0.056
  132SOL    HW1 1139   1.336   0.749   0.061
  132SOL    HW2 1140   1.307   0.864  13.868
  133SOL     OW 1141   1.066   1.337   0.854
  133SOL    HW1 1142   1.070   1.264   0.792
  133SOL    HW2 1143   1.127   1.402   0.819
  134SOL     OW 1144   0.313   0.803   0.950
  134SOL    HW1 1145   0.408   0.819   0.945
  134SOL    HW2 1146   0.306   0.713   0.982
  135SOL     OW 1147   0.338   0.529   1.015
  135SOL    HW1 1148   0.297   0.444   0.997
  135SOL    HW2 1149   0.414   0.532   0.956
  136SOL     OW 1150   1.133   0.381   1.697
  136SOL    HW1 1151   1.085   0.436   1.758
  136SOL    HW2 1152   1.220   0.421   1.692
  137SOL     OW 1153   1.151   0.225   1.482
  137SOL    HW1 1154   1.142   0.280   1.560
  137SOL    HW2 1155   1.176   0.287   1.412
  138SOL     OW 1156   0.013   1.325   0.191
  138SOL    HW1 1157   3.919   1.338   0.184
  138SOL    HW2 1158   0.023   1.233   0.216
  139SOL     OW 1159   0.077   1.800   0.888
  139SOL    HW1 1160   0.082   1.704   0.892
  139SOL    HW2 1161   0.169   1.828   0.892
  140SOL     OW 1162   0.501   1.571   0.911
  140SOL    HW1 1163   0.571   1.632   0.936
  140SOL    HW2 1164   0.544   1.508   0.853
  141SOL     OW 1165   0.979   0.790   1.225
  141SOL    HW1 1166   1.035   0.769   1.299
  141SOL    HW2 1167   0.894   0.751   1.247
  142SOL     OW 1168   0.035   0.574   1.112
  142SOL    HW1 1169   0.096   0.520   1.062
  142SOL    HW2 1170   0.061   0.560   1.203
  143SOL     OW 1171   0.211   0.516   1.722
  143SOL    HW1 1172   0.257   0.477   1.648
  143SOL    HW2 1173   0.163   0.590   1.684
  144SOL     OW 1174   1.378   0.937   1.657
  144SOL    HW1 1175   1.399   1.030   1.654
  144SOL    HW2 1176   1.375   0.910   1.565
  145SOL     OW 1177   0.815   0.581   0.373
  145SOL    HW1 1178   0.826   0.503   0.319
  145SOL    HW2 1179   0.741   0.627   0.334
  146SOL     OW 1180   1.640   0.602   1.184
  146SOL    HW1 1181   1.631   0.542   1.257
  146SOL    HW2 1182   1.728   0.585   1.149
  147SOL     OW 1183   0.300   1.544   1.725
  147SOL    HW1 1184   0.252   1.614   1.770
  147SOL    HW2 1185   0.268   1.463   1.766
  148SOL     OW 1186   0.709   0.454   1.256
  148SOL    HW1 1187   0.659   0.376   1.232
  148SOL    HW2 1188   0.699   0.514   1.182
  149SOL     OW 1189   0.926   1.679   1.469
  149SOL    HW1 1190   0.901   1.642   1.384
  149SOL    HW2 1191   0.920   1.774   1.456
  150SOL     OW 1192   0.431   0.492   0.228
  150SOL    HW1 1193   0.504   0.552   0.239
  150SOL    HW2 1194   0.358   0.548   0.201
  151SOL     OW 1195   0.156   1.135   1.474
  151SOL    HW1 1196   0.157   1.084   1.555
  151SOL    HW2 1197   0.171   1.070   1.405
  152SOL     OW 1198   1.323   1.046   1.222
  152SOL    HW1 1199   1.347   0.982   1.154
  152SOL    HW2 1200   1.255   1.100   1.182
  153SOL     OW 1201   1.314   0.858   0.327
  153SOL    HW1 1202   1.239   0.824   0.377
  153SOL    HW2 1203   1.290   0.844   0.236
  154SOL     OW 1204   1.244   1.735   1.109
  154SOL    HW1 1205   1.327   1.755   1.067
  154SOL    HW2 1206   1.249   1.642   1.128
  155SOL     OW 1207   0.077   1.216   1.028
  155SOL    HW1 1208   0.084   1.242   1.120
  155SOL    HW2 1209   3.984   1.226   1.007
  156SOL     OW 1210   0.679   1.668   1.734
  156SOL    HW1 1211   0.621   1.743   1.726
  156SOL    HW2 1212   0.745   1.681   1.666
  157SOL     OW 1213   0.903   0.104   0.135
  157SOL    HW1 1214   0.941   0.090   0.049
  157SOL    HW2 1215   0.910   0.019   0.179
  158SOL     OW 1216   1.702   0.125   0.495
  158SOL    HW1 1217   1.782   0.134   0.444
  158SOL    HW2 1218   1.693   0.030   0.509
  159SOL     OW 1219   1.371   1.572   0.473
  159SOL    HW1 1220   1.419   1.613   0.402
  159SOL    HW2 1221   1.330   1.645   0.519
  160SOL     OW 1222   0.175   1.764   1.830
  160SOL    HW1 1223   0.118   1.713   1.887
  160SOL    HW2 1224   0.215   1.829   1.887
  161SOL     OW 1225   1.276   0.928   0.672
  161SOL    HW1 1226   1.350   0.867   0.682
  161SOL    HW2 1227   1.311   0.999   0.618
  162SOL     OW 1228   0.810   1.274   1.428
  162SOL    HW1 1229   0.782   1.314   1.510
  162SOL    HW2 1230   0.739   1.291   1.367
  163SOL     OW 1231   0.674   1.585   0.187
  163SOL    HW1 1232   0.664   1.617   0.097
  163SOL    HW2 1233   0.629   1.501   0.187
  164SOL     OW 1234   1.583   1.711   1.409
  164SOL    HW1 1235   1.639   1.703   1.333
  164SOL    HW2 1236   1.571   1.806   1.421
  165SOL     OW 1237   1.839   0.177   0.966
  165SOL    HW1 1238   1.872   0.110   0.907
  165SOL    HW2 1239   1.750   0.196   0.935
  166SOL     OW 1240   0.273   0.321   0.715
  166SOL    HW1 1241   0.187   0.357   0.691
  166SOL    HW2 1242   0.267   0.305   0.809
  167SOL     OW 1243   1.216   1.601   0.033
  167SOL    HW1 1244   1.206   1.510   0.060
  167SOL    HW2 1245   1.178   1.605  13.845
  168SOL     OW 1246   0.823   1.005   1.373
  168SOL    HW1 1247   0.867   1.000   1.288
  168SOL    HW2 1248   0.822   1.099   1.394
  169SOL     OW 1249   0.921   0.911   0.287
  169SOL    HW1 1250   0.991   0.951   0.236
  169SOL    HW2 1251   0.964   0.840   0.336
  170SOL     OW 1252   1.483   1.642   0.049
  170SOL    HW1 1253   1.389   1.625   0.040
  170SOL    HW2 1254   1.514   1.649  13.858
  171SOL     OW 1255   0.374   1.303   1.491
  171SOL    HW1 1256   0.358   1.383   1.441
  171SOL    HW2 1257   0.297   1.248   1.474
  172SOL     OW 1258   1.610   1.279   1.279
  172SOL    HW1 1259   1.674   1.273   1.350
  172SOL    HW2 1260   1.547   1.344   1.309
  173SOL     OW 1261   1.055   1.108   0.708
  173SOL    HW1 1262   0.984   1.057   0.746
  173SOL    HW2 1263   1.119   1.043   0.680
  174SOL     OW 1264   1.015   0.249   0.969
  174SOL    HW1 1265   1.004   0.199   0.888
  174SOL    HW2 1266   1.010   0.183   1.039
  175SOL     OW 1267   0.607   1.487   0.483
  175SOL    HW1 1268   0.651   1.437   0.414
  175SOL    HW2 1269   0.536   1.533   0.437
  176SOL     OW 1270   1.720   0.393   1.372
  176SOL    HW1 1271   1.793   0.456   1.376
  176SOL    HW2 1272   1.754   0.322   1.318
  177SOL     OW 1273   0.265   1.315   0.309
  177SOL    HW1 1274   0.187   1.343   0.261
  177SOL    HW2 1275   0.263   1.365   0.391
  178SOL     OW 1276   0.107   0.999   1.718
  178SOL    HW1 1277   0.047   0.991   1.792
  178SOL    HW2 1278   0.194   0.981   1.754
  179SOL     OW 1279   0.694   0.252   1.500
  179SOL    HW1 1280   0.762   0.199   1.459
  179SOL    HW2 1281   0.722   0.261   1.591
  180SOL     OW 1282   0.068   0.366   0.037
  180SOL    HW1 1283   3.977   0.371   0.067
  180SOL    HW2 1284   0.064   0.384  13.843
  181SOL     OW 1285   1.427   0.857   1.398
  181SOL    HW1 1286   1.379   0.919   1.344
  181SOL    HW2 1287   1.516   0.859   1.364
  182SOL     OW 1288   0.051   0.200   0.321
  182SOL    HW1 1289   0.075   0.274   0.264
  182SOL    HW2 1290   0.135   0.157   0.340
  183SOL     OW 1291   1.186   1.347   0.122
  183SOL    HW1 1292   1.092   1.334   0.110
  183SOL    HW2 1293   1.201   1.333   0.215
  184SOL     OW 1294   0.620   0.829   1.437
  184SOL    HW1 1295   0.677   0.904   1.421
  184SOL    HW2 1296   0.681   0.755   1.445
  185SOL     OW 1297   1.491   1.782   0.982
  185SOL    HW1 1298   1.513   1.851   0.920
  185SOL    HW2 1299   1.575   1.738   0.998
  186SOL     OW 1300   0.717   0.562   1.707
  186SOL    HW1 1301   0.762   0.624   1.765
  186SOL    HW2 1302   0.745   0.476   1.738
  187SOL     OW 1303   1.472   1.198   1.631
  187SOL    HW1 1304   1.460   1.212   1.725
  187SOL    HW2 1305   1.565   1.212   1.616
  188SOL     OW 1306   0.379   1.743   1.557
  188SOL    HW1 1307   0.291   1.780   1.544
  188SOL    HW2 1308   0.363   1.661   1.604
  189SOL     OW 1309   1.667   0.881   1.255
  189SOL    HW1 1310   1.663   0.795   1.212
  189SOL    HW2 1311   1.657   0.944   1.184
  190SOL     OW 1312   1.231   0.334   0.436
  190SOL    HW1 1313   1.294   0.262   0.432
  190SOL    HW2 1314   1.247   0.376   0.520
  191SOL     OW 1315   0.589   0.738   0.672
  191SOL    HW1 1316   0.627   0.824   0.655
  191SOL    HW2 1317   0.522   0.727   0.604
  192SOL     OW 1318   1.751   0.383   1.643
  192SOL    HW1 1319   1.733   0.389   1.549
  192SOL    HW2 1320   1.695   0.313   1.674
  193SOL     OW 1321   1.745   0.933   1.512
  193SOL    HW1 1322   1.736   1.028   1.525
  193SOL    HW2 1323   1.729   0.921   1.418
  194SOL     OW 1324   0.907   1.399   0.064
  194SOL    HW1 1325   0.840   1.379   0.129
  194SOL    HW2 1326   0.859   1.402  13.881
  195SOL     OW 1327   0.663   1.789   0.942
  195SOL    HW1 1328   0.643   1.880   0.920
  195SOL    HW2 1329   0.758   1.783   0.935
  196SOL     OW 1330   0.868   0.968   0.853
  196SOL    HW1 1331   0.918   0.896   0.892
  196SOL    HW2 1332   0.832   1.015   0.929
  197SOL     OW 1333   1.098   1.013   0.111
  197SOL    HW1 1334   1.087   1.058   0.027
  197SOL    HW2 1335   1.171   0.953   0.097
  198SOL     OW 1336   1.859   1.517   0.835
  198SOL    HW1 1337   1.780   1.557   0.798
  198SOL    HW2 1338   1.844   1.517   0.930
  199SOL     OW 1339   0.226   1.303   1.856
  199SOL    HW1 1340   0.154   1.247   1.829
  199SOL    HW2 1341   0.212   1.317   1.950
  200SOL     OW 1342   0.111   1.281   0.728
  200SOL    HW1 1343   0.129   1.231   0.808
  200SOL    HW2 1344   0.104   1.214   0.660
  201SOL     OW 1345   0.681   1.405   1.629
  201SOL    HW1 1346   0.602   1.362   1.660
  201SOL    HW2 1347   0.677   1.493   1.667
  202SOL     OW 1348   1.811   0.183   1.238
  202SOL    HW1 1349   1.814   0.089   1.253
  202SOL    HW2 1350   1.826   0.193   1.144
  203SOL     OW 1351   0.441   0.436   0.532
  203SOL    HW1 1352   0.469   0.362   0.479
  203SOL    HW2 1353   0.388   0.397   0.601
  204SOL     OW 1354   1.700   1.500   1.100
  204SOL    HW1 1355   1.621   1.472   1.053
  204SOL    HW2 1356   1.715   1.429   1.163
  205SOL     OW 1357   0.333   0.557   1.293
  205SOL    HW1 1358   0.389   0.501   1.346
  205SOL    HW2 1359   0.348   0.528   1.203
  206SOL     OW 1360   0.829   1.578   0.676
  206SOL    HW1 1361   0.814   1.639   0.604
  206SOL    HW2 1362   0.753   1.520   0.675
  207SOL     OW 1363   1.460   0.253   1.110
  207SOL    HW1 1364   1.478   0.167   1.146
  207SOL    HW2 1365   1.405   0.296   1.176
  208SOL     OW 1366   1.004   0.028   1.146
  208SOL    HW1 1367   0.924   3.990   1.111
  208SOL    HW2 1368   1.064   3.954   1.155
  209SOL     OW 1369   0.778   1.324   0.320
  209SOL    HW1 1370   0.746   1.235   0.335
  209SOL    HW2 1371   0.859   1.329   0.369
  210SOL     OW 1372   0.620   1.557   1.286
  210SOL    HW1 1373   0.622   1.638   1.335
  210SOL    HW2 1374   0.708   1.549   1.248
  211SOL     OW 1375   1.322   0.069   0.130
  211SOL    HW1 1376   1.339   3.983   0.092
  211SOL    HW2 1377   1.255   0.053   0.197
  212SOL     OW 1378   1.282   0.455   0.684
  212SOL    HW1 1379   1.235   0.539   0.678
  212SOL    HW2 1380   1.285   0.436   0.777
  213SOL     OW 1381   1.588   0.210   0.868
  213SOL    HW1 1382   1.539   0.234   0.946
  213SOL    HW2 1383   1.588   0.290   0.814
  214SOL     OW 1384   0.043   1.031   0.255
  214SOL    HW1 1385   0.137   1.013   0.250
  214SOL    HW2 1386   0.007   0.958   0.305
  215SOL     OW 1387   0.894   1.655   0.343
  215SOL    HW1 1388   0.819   1.626   0.292
  215SOL    HW2 1389   0.861   1.728   0.395
  216SOL     OW 1390   0.233   0.628   1.979
  216SOL    HW1 1391   0.139   0.632   2.001
  216SOL    HW2 1392   0.235   0.598   1.888
  217SOL     OW 1393   0.224   0.289   2.845
  217SOL    HW1 1394   0.247   0.250   2.929
  217SOL    HW2 1395   0.129   0.277   2.838
  218SOL     OW 1396   0.018   0.385   2.497
  218SOL    HW1 1397   3.928   0.398   2.526
  218SOL    HW2 1398   0.025   0.291   2.483
  219SOL     OW 1399   0.580   1.288   3.052
  219SOL    HW1 1400   0.494   1.290   3.011
  219SOL    HW2 1401   0.594   1.377   3.084
  220SOL     OW 1402   1.550   1.502   2.571
  220SOL    HW1 1403   1.518   1.482   2.658
  220SOL    HW2 1404   1.472   1.500   2.515
  221SOL     OW 1405   1.133   0.698   2.559
  221SOL    HW1 1406   1.180   0.780   2.547
  221SOL    HW2 1407   1.085   0.711   2.642
  222SOL     OW 1408   1.766   0.619   2.087
  222SOL    HW1 1409   1.744   0.611   1.994
  222SOL    HW2 1410   1.752   0.531   2.122
  223SOL     OW 1411   0.754   1.140   2.904
  223SOL    HW1 1412   0.690   1.175   2.965
  223SOL    HW2 1413   0.789   1.216   2.859
  224SOL     OW 1414   0.870   0.771   3.686
  224SOL    HW1 1415   0.859   0.842   3.748
  224SOL    HW2 1416   0.893   0.814   3.603
  225SOL     OW 1417   0.685   1.003   2.508
  225SOL    HW1 1418   0.751   0.991   2.576
  225SOL    HW2 1419   0.616   1.054   2.550
  226SOL     OW 1420   0.711   1.149   3.677
  226SOL    HW1 1421   0.759   1.227   3.706
  226SOL    HW2 1422   0.630   1.183   3.640
  227SOL     OW 1423   0.351   1.401   2.941
  227SOL    HW1 1424   0.270   1.381   2.894
  227SOL    HW2 1425   0.399   1.459   2.881
  228SOL     OW 1426   1.449   1.485   3.220
  228SOL    HW1 1427   1.495   1.568   3.233
  228SOL    HW2 1428   1.381   1.485   3.288
  229SOL     OW 1429   0.457   0.408   3.358
  229SOL    HW1 1430   0.538   0.358   3.356
  229SOL    HW2 1431   0.388   0.342   3.361
  230SOL     OW 1432   1.612   0.451   2.597
  230SOL    HW1 1433   1.542   0.482   2.540
  230SOL    HW2 1434   1.631   0.525   2.655
  231SOL     OW 1435   0.220   1.719   2.320
  231SOL    HW1 1436   0.240   1.793   2.377
  231SOL    HW2 1437   0.298   1.711   2.264
  232SOL     OW 1438   1.137   1.342   3.556
  232SOL    HW1 1439   1.177   1.336   3.642
  232SOL    HW2 1440   1.085   1.262   3.548
  233SOL     OW 1441   0.250   1.450   2.402
  233SOL    HW1 1442   0.215   1.538   2.388
  233SOL    HW2 1443   0.182   1.406   2.453
  234SOL     OW 1444   0.248   1.066   2.747
  234SOL    HW1 1445   0.267   0.981   2.786
  234SOL    HW2 1446   0.195   1.112   2.812
  235SOL     OW 1447   0.611   1.792   3.290
  235SOL    HW1 1448   0.528   1.774   3.334
  235SOL    HW2 1449   0.633   1.881   3.316
  236SOL     OW 1450   0.577   0.986   2.000
  236SOL    HW1 1451   0.626   1.030   1.931
  236SOL    HW2 1452   0.619   1.015   2.081
  237SOL     OW 1453   1.580   0.140   3.318
  237SOL    HW1 1454   1.610   0.212   3.263
  237SOL    HW2 1455   1.549   0.181   3.398
  238SOL     OW 1456   0.140   0.651   2.431
  238SOL    HW1 1457   0.097   0.566   2.436
  238SOL    HW2 1458   0.102   0.701   2.504
  239SOL     OW 1459   0.044   1.590   2.000
  239SOL    HW1 1460   0.036   1.498   2.025
  239SOL    HW2 1461   3.961   1.629   2.028
  240SOL     OW 1462   1.685   0.914   2.502
  240SOL    HW1 1463   1.772   0.877   2.485
  240SOL    HW2 1464   1.667   0.969   2.425
  241SOL     OW 1465   1.648   1.106   2.291
  241SOL    HW1 1466   1.735   1.109   2.251
  241SOL    HW2 1467   1.654   1.167   2.365
  242SOL     OW 1468   0.140   0.756   3.451
  242SOL    HW1 1469   0.236   0.751   3.446
  242SOL    HW2 1470   0.122   0.844   3.482
  243SOL     OW 1471   0.613   1.387   2.598
  243SOL    HW1 1472   0.567   1.303   2.607
  243SOL    HW2 1473   0.597   1.413   2.507
  244SOL     OW 1474   1.285   1.235   3.286
  244SOL    HW1 1475   1.317   1.169   3.225
  244SOL    HW2 1476   1.345   1.230   3.361
  245SOL     OW 1477   0.820   0.003   2.378
  245SOL    HW1 1478   0.865   0.084   2.354
  245SOL    HW2 1479   0.727   0.027   2.378
  246SOL     OW 1480   0.184   0.950   3.140
  246SOL    HW1 1481   0.272   0.915   3.128
  246SOL    HW2 1482   0.132   0.908   3.072
  247SOL     OW 1483   1.531   0.995   2.062
  247SOL    HW1 1484   1.462   0.939   2.095
  247SOL    HW2 1485   1.574   1.030   2.141
  248SOL     OW 1486   1.187   1.809   3.486
  248SOL    HW1 1487   1.194   1.868   3.411
  248SOL    HW2 1488   1.202   1.722   3.449
  249SOL     OW 1489   0.344   0.252   3.700
  249SOL    HW1 1490   0.387   0.335   3.682
  249SOL    HW2 1491   0.253   0.275   3.718
  250SOL     OW 1492   1.467   1.420   2.816
  250SOL    HW1 1493   1.398   1.435   2.881
  250SOL    HW2 1494   1.455   1.328   2.790
  251SOL     OW 1495   1.600   1.713   2.408
  251SOL    HW1 1496   1.595   1.670   2.322
  251SOL    HW2 1497   1.597   1.642   2.471
  252SOL     OW 1498   0.596   0.717   2.128
  252SOL    HW1 1499   0.601   0.801   2.082
  252SOL    HW2 1500   0.533   0.732   2.198
  253SOL     OW 1501   1.275   0.368   2.803
  253SOL    HW1 1502   1.187   0.329   2.810
  253SOL    HW2 1503   1.332   0.307   2.848
  254SOL     OW 1504   1.567   1.648   2.150
  254SOL    HW1 1505   1.646   1.698   2.131
  254SOL    HW2 1506   1.528   1.631   2.064
  255SOL     OW 1507   0.794   0.616   3.315
  255SOL    HW1 1508   0.765   0.590   3.403
  255SOL    HW2 1509   0.756   0.550   3.257
  256SOL     OW 1510   1.392   0.476   3.539
  256SOL    HW1 1511   1.398   0.521   3.624
  256SOL    HW2 1512   1.450   0.400   3.548
  257SOL     OW 1513   0.953   0.887   3.446
  257SOL    HW1 1514   1.007   0.818   3.409
  257SOL    HW2 1515   0.904   0.922   3.371
  258SOL     OW 1516   0.992   0.403   3.101
  258SOL    HW1 1517   0.907   0.424   3.139
  258SOL    HW2 1518   0.971   0.374   3.012
  259SOL     OW 1519   1.052   0.699   2.287
  259SOL    HW1 1520   1.069   0.692   2.381
  259SOL    HW2 1521   0.969   0.653   2.274
  260SOL     OW 1522   0.081   0.828   2.652
  260SOL    HW1 1523   0.155   0.795   2.704
  260SOL    HW2 1524   0.101   0.921   2.639
  261SOL     OW 1525   0.130   1.862   3.438
  261SOL    HW1 1526   0.138   1.827   3.527
  261SOL    HW2 1527   0.038   1.850   3.416
  262SOL     OW 1528   0.894   0.352   2.060
  262SOL    HW1 1529   0.936   0.411   1.998
  262SOL    HW2 1530   0.893   0.267   2.015
  263SOL     OW 1531   1.708   0.575   3.691
  263SOL    HW1 1532   1.670   0.649   3.643
  263SOL    HW2 1533   1.733   0.512   3.624
  264SOL     OW 1534   1.378   1.141   2.402
  264SOL    HW1 1535   1.459   1.131   2.351
  264SOL    HW2 1536   1.325   1.202   2.351
  265SOL     OW 1537   0.561   0.195   2.743
  265SOL    HW1 1538   0.565   0.219   2.835
  265SOL    HW2 1539   0.547   0.278   2.697
  266SOL     OW 1540   1.000   1.441   2.332
  266SOL    HW1 1541   0.968   1.517   2.283
  266SOL    HW2 1542   0.984   1.464   2.423
  267SOL     OW 1543   0.365   1.819   2.732
  267SOL    HW1 1544   0.428   1.748   2.741
  267SOL    HW2 1545   0.416   1.898   2.748
  268SOL     OW 1546   1.800   1.049   2.733
  268SOL    HW1 1547   1.746   1.042   2.655
  268SOL    HW2 1548   1.737   1.058   2.805
  269SOL     OW 1549   1.225   1.537   3.377
  269SOL    HW1 1550   1.210   1.465   3.438
  269SOL    HW2 1551   1.159   1.524   3.308
  270SOL     OW 1552   0.310   0.954   2.104
  270SOL    HW1 1553   0.394   0.976   2.063
  270SOL    HW2 1554   0.298   0.861   2.083
  271SOL     OW 1555   1.478   0.747   2.592
  271SOL    HW1 1556   1.474   0.705   2.678
  271SOL    HW2 1557   1.557   0.802   2.595
  272SOL     OW 1558   0.468   1.261   3.599
  272SOL    HW1 1559   0.442   1.269   3.507
  272SOL    HW2 1560   0.386   1.264   3.648
  273SOL     OW 1561   1.122   1.777   2.092
  273SOL    HW1 1562   1.048   1.737   2.137
  273SOL    HW2 1563   1.145   1.714   2.023
  274SOL     OW 1564   0.200   0.294   3.362
  274SOL    HW1 1565   0.107   0.314   3.361
  274SOL    HW2 1566   0.209   0.223   3.425
  275SOL     OW 1567   1.627   1.382   1.946
  275SOL    HW1 1568   1.581   1.464   1.930
  275SOL    HW2 1569   1.561   1.314   1.929
  276SOL     OW 1570   0.466   1.739   2.179
  276SOL    HW1 1571   0.509   1.796   2.242
  276SOL    HW2 1572   0.538   1.703   2.126
  277SOL     OW 1573   1.441   0.165   2.267
  277SOL    HW1 1574   1.394   0.099   2.217
  277SOL    HW2 1575   1.512   0.118   2.310
  278SOL     OW 1576   0.252   1.791   3.093
  278SOL    HW1 1577   0.298   1.726   3.146
  278SOL    HW2 1578   0.249   1.752   3.006
  279SOL     OW 1579   0.938   1.699   2.760
  279SOL    HW1 1580   1.017   1.649   2.780
  279SOL    HW2 1581   0.895   1.649   2.691
  280SOL     OW 1582   0.397   0.694   2.333
  280SOL    HW1 1583   0.423   0.603   2.348
  280SOL    HW2 1584   0.305   0.698   2.359
  281SOL     OW 1585   1.529   0.229   3.589
  281SOL    HW1 1586   1.526   0.254   3.681
  281SOL    HW2 1587   1.510   0.135   3.589
  282SOL     OW 1588   0.645   0.130   1.964
  282SOL    HW1 1589   0.668   0.047   2.005
  282SOL    HW2 1590   0.583   0.107   1.895
  283SOL     OW 1591   0.777   0.283   3.629
  283SOL    HW1 1592   0.850   0.222   3.631
  283SOL    HW2 1593   0.720   0.256   3.700
  284SOL     OW 1594   0.876   1.522   3.056
  284SOL    HW1 1595   0.860   1.485   2.969
  284SOL    HW2 1596   0.946   1.468   3.093
  285SOL     OW 1597   1.340   0.587   3.293
  285SOL    HW1 1598   1.370   0.558   3.379
  285SOL    HW2 1599   1.375   0.676   3.283
  286SOL     OW 1600   0.816   1.393   2.803
  286SOL    HW1 1601   0.901   1.381   2.761
  286SOL    HW2 1602   0.753   1.395   2.731
  287SOL     OW 1603   0.930   0.512   2.763
  287SOL    HW1 1604   0.906   0.504   2.670
  287SOL    HW2 1605   0.956   0.423   2.789
  288SOL     OW 1606   0.546   0.056   2.350
  288SOL    HW1 1607   0.472   0.063   2.410
  288SOL    HW2 1608   0.548   0.140   2.304
  289SOL     OW 1609   1.428   1.198   1.903
  289SOL    HW1 1610   1.458   1.122   1.953
  289SOL    HW2 1611   1.342   1.220   1.940
  290SOL     OW 1612   0.344   0.038   2.060
  290SOL    HW1 1613   0.360   0.086   1.979
  290SOL    HW2 1614   0.429   0.036   2.104
  291SOL     OW 1615   0.942   0.249   2.323
  291SOL    HW1 1616   0.916   0.290   2.240
  291SOL    HW2 1617   1.037   0.253   2.322
  292SOL     OW 1618   1.079   0.683   3.320
  292SOL    HW1 1619   1.010   0.618   3.327
  292SOL    HW2 1620   1.160   0.632   3.315
  293SOL     OW 1621   1.222   1.570   2.656
  293SOL    HW1 1622   1.236   1.637   2.589
  293SOL    HW2 1623   1.291   1.585   2.720
  294SOL     OW 1624   0.466   1.151   2.598
  294SOL    HW1 1625   0.395   1.126   2.657
  294SOL    HW2 1626   0.432   1.135   2.510
  295SOL     OW 1627   1.263   1.791   2.473
  295SOL    HW1 1628   1.312   1.852   2.417
  295SOL    HW2 1629   1.197   1.845   2.516
  296SOL     OW 1630   1.022   0.543   1.890
  296SOL    HW1 1631   0.979   0.626   1.871
  296SOL    HW2 1632   1.086   0.564   1.958
  297SOL     OW 1633   0.080   0.573   3.255
  297SOL    HW1 1634   0.169   0.555   3.225
  297SOL    HW2 1635   0.090   0.644   3.318
  298SOL     OW 1636   0.572   0.231   3.021
  298SOL    HW1 1637   0.594   0.138   3.030
  298SOL    HW2 1638   0.481   0.237   3.051
  299SOL     OW 1639   0.871   0.461   2.501
  299SOL    HW1 1640   0.820   0.514   2.439
  299SOL    HW2 1641   0.891   0.381   2.453
  300SOL     OW 1642   0.996   0.040   2.642
  300SOL    HW1 1643   0.960   0.069   2.559
  300SOL    HW2 1644   1.007   3.945   2.633
  301SOL     OW 1645   1.439   1.163   2.720
  301SOL    HW1 1646   1.369   1.098   2.717
  301SOL    HW2 1647   1.467   1.173   2.629
  302SOL     OW 1648   1.465   0.607   2.837
  302SOL    HW1 1649   1.411   0.528   2.842
  302SOL    HW2 1650   1.525   0.600   2.911
  303SOL     OW 1651   1.845   0.818   2.248
  303SOL    HW1 1652   1.901   0.766   2.305
  303SOL    HW2 1653   1.815   0.757   2.181
  304SOL     OW 1654   0.487   1.421   2.022
  304SOL    HW1 1655   0.412   1.389   2.072
  304SOL    HW2 1656   0.472   1.389   1.933
  305SOL     OW 1657   1.671   1.261   2.510
  305SOL    HW1 1658   1.766   1.261   2.522
  305SOL    HW2 1659   1.644   1.350   2.532
  306SOL     OW 1660   1.395   0.576   1.931
  306SOL    HW1 1661   1.332   0.556   2.001
  306SOL    HW2 1662   1.480   0.556   1.970
  307SOL     OW 1663   0.557   0.271   2.180
  307SOL    HW1 1664   0.604   0.231   2.107
  307SOL    HW2 1665   0.528   0.356   2.147
  308SOL     OW 1666   1.749   1.233   3.435
  308SOL    HW1 1667   1.836   1.193   3.430
  308SOL    HW2 1668   1.766   1.324   3.460
  309SOL     OW 1669   1.056   1.354   3.196
  309SOL    HW1 1670   0.981   1.322   3.246
  309SOL    HW2 1671   1.132   1.311   3.237
  310SOL     OW 1672   1.607   1.615   3.526
  310SOL    HW1 1673   1.589   1.646   3.437
  310SOL    HW2 1674   1.688   1.565   3.518
  311SOL     OW 1675   1.132   1.207   2.966
  311SOL    HW1 1676   1.070   1.243   3.031
  311SOL    HW2 1677   1.099   1.239   2.882
  312SOL     OW 1678   1.625   1.096   2.938
  312SOL    HW1 1679   1.619   1.158   3.010
  312SOL    HW2 1680   1.549   1.115   2.883
  313SOL     OW 1681   0.913   0.114   3.263
  313SOL    HW1 1682   0.932   0.088   3.173
  313SOL    HW2 1683   0.993   0.156   3.294
  314SOL     OW 1684   0.984   1.115   3.585
  314SOL    HW1 1685   0.892   1.131   3.607
  314SOL    HW2 1686   0.982   1.037   3.530
  315SOL     OW 1687   0.708   1.061   2.232
  315SOL    HW1 1688   0.694   1.045   2.326
  315SOL    HW2 1689   0.784   1.008   2.209
  316SOL     OW 1690   0.422   0.817   3.114
  316SOL    HW1 1691   0.491   0.823   3.181
  316SOL    HW2 1692   0.387   0.728   3.124
  317SOL     OW 1693   1.266   0.375   3.139
  317SOL    HW1 1694   1.300   0.453   3.183
  317SOL    HW2 1695   1.178   0.400   3.109
  318SOL     OW 1696   0.065   1.580   3.208
  318SOL    HW1 1697   0.070   1.637   3.131
  318SOL    HW2 1698   0.156   1.567   3.235
  319SOL     OW 1699   0.372   1.103   2.345
  319SOL    HW1 1700   0.365   1.182   2.290
  319SOL    HW2 1701   0.370   1.030   2.282
  320SOL     OW 1702   0.555   0.535   2.720
  320SOL    HW1 1703   0.569   0.594   2.646
  320SOL    HW2 1704   0.620   0.561   2.784
  321SOL     OW 1705   1.242   1.341   2.249
  321SOL    HW1 1706   1.296   1.414   2.279
  321SOL    HW2 1707   1.154   1.361   2.283
  322SOL     OW 1708   1.280   1.459   3.008
  322SOL    HW1 1709   1.336   1.460   3.086
  322SOL    HW2 1710   1.225   1.381   3.019
  323SOL     OW 1711   1.575   0.634   2.348
  323SOL    HW1 1712   1.533   0.690   2.413
  323SOL    HW2 1713   1.623   0.694   2.291
  324SOL     OW 1714   0.345   1.527   3.180
  324SOL    HW1 1715   0.335   1.476   3.100
  324SOL    HW2 1716   0.440   1.542   3.188
  325SOL     OW 1717   0.416   0.738   3.463
  325SOL    HW1 1718   0.479   0.783   3.406
  325SOL    HW2 1719   0.455   0.651   3.476
  326SOL     OW 1720   1.603   0.780   3.547
  326SOL    HW1 1721   1.517   0.821   3.539
  326SOL    HW2 1722   1.656   0.821   3.478
  327SOL     OW 1723   1.012   0.132   3.640
  327SOL    HW1 1724   1.064   0.205   3.605
  327SOL    HW2 1725   1.002   0.072   3.567
  328SOL     OW 1726   0.482   0.036   3.627
  328SOL    HW1 1727   0.491   0.046   3.532
  328SOL    HW2 1728   0.421   0.105   3.653
  329SOL     OW 1729   0.585   0.875   2.893
  329SOL    HW1 1730   0.616   0.965   2.895
  329SOL    HW2 1731   0.529   0.867   2.971
  330SOL     OW 1732   1.354   0.858   2.889
  330SOL    HW1 1733   1.270   0.846   2.845
  330SOL    HW2 1734   1.397   0.773   2.882
  331SOL     OW 1735   1.201   0.536   2.120
  331SOL    HW1 1736   1.210   0.457   2.174
  331SOL    HW2 1737   1.158   0.599   2.178
  332SOL     OW 1738   0.311   0.212   3.102
  332SOL    HW1 1739   0.269   0.249   3.180
  332SOL    HW2 1740   0.296   0.118   3.108
  333SOL     OW 1741   0.061   1.306   3.142
  333SOL    HW1 1742   0.091   1.264   3.223
  333SOL    HW2 1743   0.052   1.398   3.165
  334SOL     OW 1744   0.725   0.634   2.915
  334SOL    HW1 1745   0.799   0.619   2.857
  334SOL    HW2 1746   0.695   0.722   2.894
  335SOL     OW 1747   1.737   0.959   3.716
  335SOL    HW1 1748   1.691   0.896   3.661
  335SOL    HW2 1749   1.678   0.975   3.790
  336SOL     OW 1750   0.330   0.055   2.516
  336SOL    HW1 1751   0.301   0.146   2.517
  336SOL    HW2 1752   0.292   0.017   2.596
  337SOL     OW 1753   1.607   0.391   2.243
  337SOL    HW1 1754   1.567   0.323   2.298
  337SOL    HW2 1755   1.587   0.473   2.288
  338SOL     OW 1756   1.029   0.759   2.821
  338SOL    HW1 1757   1.023   0.776   2.915
  338SOL    HW2 1758   1.002   0.668   2.811
  339SOL     OW 1759   0.982   1.567   3.581
  339SOL    HW1 1760   0.967   1.610   3.497
  339SOL    HW2 1761   1.025   1.484   3.557
  340SOL     OW 1762   1.852   1.491   3.467
  340SOL    HW1 1763   1.882   1.522   3.382
  340SOL    HW2 1764   1.925   1.509   3.526
  341SOL     OW 1765   0.353   0.922   3.661
  341SOL    HW1 1766   0.431   0.942   3.713
  341SOL    HW2 1767   0.382   0.854   3.599
  342SOL     OW 1768   1.505   0.275   1.997
  342SOL    HW1 1769   1.431   0.215   2.009
  342SOL    HW2 1770   1.518   0.314   2.083
  343SOL     OW 1771   1.289   0.827   1.891
  343SOL    HW1 1772   1.331   0.741   1.895
  343SOL    HW2 1773   1.321   0.866   1.810
  344SOL     OW 1774   1.066   1.337   2.717
  344SOL    HW1 1775   1.070   1.264   2.655
  344SOL    HW2 1776   1.127   1.402   2.682
  345SOL     OW 1777   0.313   0.803   2.812
  345SOL    HW1 1778   0.407   0.819   2.806
  345SOL    HW2 1779   0.306   0.713   2.844
  346SOL     OW 1780   0.338   0.528   2.877
  346SOL    HW1 1781   0.297   0.443   2.859
  346SOL    HW2 1782   0.413   0.532   2.818
  347SOL     OW 1783   1.133   0.381   3.559
  347SOL    HW1 1784   1.085   0.436   3.620
  347SOL    HW2 1785   1.220   0.420   3.554
  348SOL     OW 1786   1.151   0.225   3.344
  348SOL    HW1 1787   1.142   0.280   3.422
  348SOL    HW2 1788   1.176   0.287   3.274
  349SOL     OW 1789   0.000   1.317   2.044
  349SOL    HW1 1790   3.906   1.334   2.048
  349SOL    HW2 1791   0.009   1.224   2.063
  350SOL     OW 1792   0.077   1.800   2.751
  350SOL    HW1 1793   0.082   1.705   2.755
  350SOL    HW2 1794   0.169   1.829   2.755
  351SOL     OW 1795   0.501   1.571   2.772
  351SOL    HW1 1796   0.570   1.632   2.798
  351SOL    HW2 1797   0.544   1.508   2.715
  352SOL     OW 1798   0.979   0.789   3.087
  352SOL    HW1 1799   1.035   0.769   3.161
  352SOL    HW2 1800   0.894   0.751   3.109
  353SOL     OW 1801   0.035   0.573   2.974
  353SOL    HW1 1802   0.098   0.521   2.924
  353SOL    HW2 1803   0.061   0.559   3.066
  354SOL     OW 1804   0.211   0.516   3.584
  354SOL    HW1 1805   0.258   0.477   3.510
  354SOL    HW2 1806   0.164   0.590   3.546
  355SOL     OW 1807   1.378   0.937   3.519
  355SOL    HW1 1808   1.399   1.030   3.516
  355SOL    HW2 1809   1.375   0.910   3.427
  356SOL     OW 1810   0.818   0.572   2.224
  356SOL    HW1 1811   0.824   0.496   2.166
  356SOL    HW2 1812   0.743   0.621   2.190
  357SOL     OW 1813   1.640   0.602   3.046
  357SOL    HW1 1814   1.631   0.541   3.119
  357SOL    HW2 1815   1.728   0.584   3.011
  358SOL     OW 1816   0.300   1.544   3.587
  358SOL    HW1 1817   0.252   1.614   3.632
  358SOL    HW2 1818   0.268   1.463   3.628
  359SOL     OW 1819   0.709   0.454   3.118
  359SOL    HW1 1820   0.659   0.376   3.093
  359SOL    HW2 1821   0.699   0.514   3.044
  360SOL     OW 1822   0.926   1.679   3.331
  360SOL    HW1 1823   0.901   1.642   3.246
  360SOL    HW2 1824   0.920   1.774   3.318
  361SOL     OW 1825   0.454   0.492   2.059
  361SOL    HW1 1826   0.518   0.561   2.076
  361SOL    HW2 1827   0.374   0.539   2.035
  362SOL     OW 1828   0.156   1.135   3.336
  362SOL    HW1 1829   0.157   1.084   3.417
  362SOL    HW2 1830   0.171   1.070   3.267
  363SOL     OW 1831   1.323   1.045   3.084
  363SOL    HW1 1832   1.347   0.982   3.016
  363SOL    HW2 1833   1.255   1.100   3.044
  364SOL     OW 1834   1.314   0.856   2.167
  364SOL    HW1 1835   1.239   0.827   2.219
  364SOL    HW2 1836   1.287   0.843   2.076
  365SOL     OW 1837   1.244   1.735   2.972
  365SOL    HW1 1838   1.328   1.756   2.929
  365SOL    HW2 1839   1.249   1.641   2.990
  366SOL     OW 1840   0.077   1.217   2.889
  366SOL    HW1 1841   0.084   1.243   2.981
  366SOL    HW2 1842   3.984   1.226   2.868
  367SOL     OW 1843   0.679   1.668   3.596
  367SOL    HW1 1844   0.621   1.743   3.588
  367SOL    HW2 1845   0.745   1.681   3.528
  368SOL     OW 1846   1.713   0.125   2.349
  368SOL    HW1 1847   1.792   0.134   2.296
  368SOL    HW2 1848   1.705   0.030   2.363
  369SOL     OW 1849   1.370   1.561   2.339
  369SOL    HW1 1850   1.430   1.591   2.271
  369SOL    HW2 1851   1.333   1.641   2.377
  370SOL     OW 1852   0.175   1.764   3.692
  370SOL    HW1 1853   0.118   1.713   3.749
  370SOL    HW2 1854   0.215   1.829   3.749
  371SOL     OW 1855   1.277   0.927   2.533
  371SOL    HW1 1856   1.351   0.867   2.543
  371SOL    HW2 1857   1.312   0.999   2.480
  372SOL     OW 1858   0.810   1.274   3.290
  372SOL    HW1 1859   0.782   1.314   3.372
  372SOL    HW2 1860   0.740   1.291   3.229
  373SOL     OW 1861   0.670   1.622   2.017
  373SOL    HW1 1862   0.681   1.634   1.923
  373SOL    HW2 1863   0.615   1.544   2.025
  374SOL     OW 1864   1.582   1.712   3.271
  374SOL    HW1 1865   1.641   1.703   3.196
  374SOL    HW2 1866   1.570   1.806   3.280
  375SOL     OW 1867   1.839   0.177   2.829
  375SOL    HW1 1868   1.871   0.110   2.769
  375SOL    HW2 1869   1.751   0.197   2.797
  376SOL     OW 1870   0.274   0.323   2.576
  376SOL    HW1 1871   0.189   0.358   2.551
  376SOL    HW2 1872   0.266   0.306   2.670
  377SOL     OW 1873   1.204   1.604   1.893
  377SOL    HW1 1874   1.195   1.513   1.920
  377SOL    HW2 1875   1.138   1.615   1.825
  378SOL     OW 1876   0.823   1.005   3.235
  378SOL    HW1 1877   0.867   1.000   3.150
  378SOL    HW2 1878   0.822   1.099   3.256
  379SOL     OW 1879   0.915   0.910   2.152
  379SOL    HW1 1880   0.977   0.943   2.086
  379SOL    HW2 1881   0.964   0.842   2.198
  380SOL     OW 1882   1.480   1.622   1.900
  380SOL    HW1 1883   1.386   1.617   1.882
  380SOL    HW2 1884   1.521   1.627   1.813
  381SOL     OW 1885   0.374   1.303   3.353
  381SOL    HW1 1886   0.358   1.383   3.303
  381SOL    HW2 1887   0.297   1.248   3.336
  382SOL     OW 1888   1.610   1.279   3.140
  382SOL    HW1 1889   1.674   1.273   3.212
  382SOL    HW2 1890   1.547   1.344   3.171
  383SOL     OW 1891   1.055   1.109   2.570
  383SOL    HW1 1892   0.984   1.057   2.608
  383SOL    HW2 1893   1.119   1.043   2.541
  384SOL     OW 1894   1.014   0.249   2.831
  384SOL    HW1 1895   1.004   0.199   2.751
  384SOL    HW2 1896   1.010   0.184   2.901
  385SOL     OW 1897   0.606   1.488   2.344
  385SOL    HW1 1898   0.651   1.439   2.276
  385SOL    HW2 1899   0.532   1.528   2.298
  386SOL     OW 1900   1.720   0.393   3.234
  386SOL    HW1 1901   1.793   0.456   3.238
  386SOL    HW2 1902   1.754   0.322   3.180
  387SOL     OW 1903   0.254   1.341   2.155
  387SOL    HW1 1904   0.160   1.348   2.136
  387SOL    HW2 1905   0.263   1.380   2.242
  388SOL     OW 1906   0.107   0.999   3.580
  388SOL    HW1 1907   0.047   0.991   3.654
  388SOL    HW2 1908   0.194   0.980   3.616
  389SOL     OW 1909   0.694   0.252   3.362
  389SOL    HW1 1910   0.762   0.199   3.321
  389SOL    HW2 1911   0.722   0.261   3.453
  390SOL     OW 1912   0.088   0.322   1.889
  390SOL    HW1 1913   3.993   0.319   1.882
  390SOL    HW2 1914   0.113   0.404   1.847
  391SOL     OW 1915   1.427   0.857   3.260
  391SOL    HW1 1916   1.379   0.919   3.206
  391SOL    HW2 1917   1.516   0.859   3.226
  392SOL     OW 1918   0.037   0.168   2.146
  392SOL    HW1 1919   0.036   0.233   2.076
  392SOL    HW2 1920   0.114   0.190   2.199
  393SOL     OW 1921   1.178   1.338   1.979
  393SOL    HW1 1922   1.087   1.307   1.980
  393SOL    HW2 1923   1.205   1.337   2.070
  394SOL     OW 1924   0.620   0.829   3.299
  394SOL    HW1 1925   0.677   0.904   3.283
  394SOL    HW2 1926   0.681   0.755   3.307
  395SOL     OW 1927   1.492   1.782   2.844
  395SOL    HW1 1928   1.512   1.851   2.782
  395SOL    HW2 1929   1.576   1.739   2.860
  396SOL     OW 1930   0.717   0.562   3.569
  396SOL    HW1 1931   0.761   0.624   3.627
  396SOL    HW2 1932   0.745   0.476   3.600
  397SOL     OW 1933   1.472   1.198   3.493
  397SOL    HW1 1934   1.460   1.212   3.587
  397SOL    HW2 1935   1.565   1.212   3.478
  398SOL     OW 1936   0.378   1.743   3.419
  398SOL    HW1 1937   0.291   1.780   3.406
  398SOL    HW2 1938   0.363   1.661   3.466
  399SOL     OW 1939   1.667   0.881   3.117
  399SOL    HW1 1940   1.663   0.795   3.074
  399SOL    HW2 1941   1.657   0.944   3.046
  400SOL     OW 1942   1.223   0.336   2.305
  400SOL    HW1 1943   1.291   0.268   2.298
  400SOL    HW2 1944   1.242   0.380   2.387
  401SOL     OW 1945   0.590   0.738   2.533
  401SOL    HW1 1946   0.628   0.825   2.517
  401SOL    HW2 1947   0.523   0.728   2.466
  402SOL     OW 1948   1.751   0.383   3.505
  402SOL    HW1 1949   1.733   0.389   3.411
  402SOL    HW2 1950   1.694   0.313   3.536
  403SOL     OW 1951   1.745   0.933   3.374
  403SOL    HW1 1952   1.737   1.028   3.387
  403SOL    HW2 1953   1.729   0.921   3.280
  404SOL     OW 1954   0.862   1.366   1.899
  404SOL    HW1 1955   0.825   1.393   1.983
  404SOL    HW2 1956   0.879   1.448   1.852
  405SOL     OW 1957   0.663   1.788   2.804
  405SOL    HW1 1958   0.642   1.879   2.783
  405SOL    HW2 1959   0.758   1.783   2.797
  406SOL     OW 1960   0.868   0.968   2.715
  406SOL    HW1 1961   0.919   0.896   2.754
  406SOL    HW2 1962   0.832   1.015   2.791
  407SOL     OW 1963   1.078   0.989   1.951
  407SOL    HW1 1964   1.057   1.040   1.873
  407SOL    HW2 1965   1.152   0.935   1.924
  408SOL     OW 1966   1.858   1.522   2.696
  408SOL    HW1 1967   1.775   1.554   2.661
  408SOL    HW2 1968   1.845   1.518   2.791
  409SOL     OW 1969   0.226   1.303   3.718
  409SOL    HW1 1970   0.154   1.247   3.691
  409SOL    HW2 1971   0.212   1.317   3.812
  410SOL     OW 1972   0.120   1.279   2.583
  410SOL    HW1 1973   0.133   1.228   2.663
  410SOL    HW2 1974   0.107   1.214   2.514
  411SOL     OW 1975   0.681   1.405   3.491
  411SOL    HW1 1976   0.602   1.362   3.522
  411SOL    HW2 1977   0.677   1.493   3.529
  412SOL     OW 1978   1.811   0.183   3.100
  412SOL    HW1 1979   1.814   0.089   3.116
  412SOL    HW2 1980   1.826   0.193   3.006
  413SOL     OW 1981   0.444   0.437   2.393
  413SOL    HW1 1982   0.460   0.362   2.337
  413SOL    HW2 1983   0.388   0.403   2.463
  414SOL     OW 1984   1.700   1.500   2.962
  414SOL    HW1 1985   1.621   1.473   2.915
  414SOL    HW2 1986   1.716   1.429   3.025
  415SOL     OW 1987   0.333   0.557   3.155
  415SOL    HW1 1988   0.389   0.501   3.208
  415SOL    HW2 1989   0.348   0.528   3.065
  416SOL     OW 1990   0.828   1.579   2.539
  416SOL    HW1 1991   0.814   1.639   2.465
  416SOL    HW2 1992   0.753   1.520   2.537
  417SOL     OW 1993   1.461   0.254   2.972
  417SOL    HW1 1994   1.478   0.167   3.009
  417SOL    HW2 1995   1.405   0.296   3.038
  418SOL     OW 1996   1.004   0.028   3.008
  418SOL    HW1 1997   0.924   3.989   2.973
  418SOL    HW2 1998   1.065   3.955   3.017
  419SOL     OW 1999   0.773   1.333   2.179
  419SOL    HW1 2000   0.744   1.242   2.186
  419SOL    HW2 2001   0.854   1.336   2.229
  420SOL     OW 2002   0.620   1.557   3.148
  420SOL    HW1 2003   0.622   1.638   3.197
  420SOL    HW2 2004   0.708   1.549   3.110
  421SOL     OW 2005   1.311   0.074   2.027
  421SOL    HW1 2006   1.324   3.996   1.973
  421SOL    HW2 2007   1.226   0.061   2.068
  422SOL     OW 2008   1.282   0.457   2.547
  422SOL    HW1 2009   1.235   0.540   2.542
  422SOL    HW2 2010   1.285   0.437   2.641
  423SOL     OW 2011   1.588   0.210   2.730
  423SOL    HW1 2012   1.539   0.234   2.808
  423SOL    HW2 2013   1.588   0.289   2.676
  424SOL     OW 2014   0.047   1.049   2.103
  424SOL    HW1 2015   0.141   1.032   2.094
  424SOL    HW2 2016   0.011   0.966   2.133
  425SOL     OW 2017   0.887   1.656   2.202
  425SOL    HW1 2018   0.813   1.639   2.144
  425SOL    HW2 2019   0.858   1.729   2.256
  426SOL     OW 2020   0.232   0.627   3.841
  426SOL    HW1 2021   0.139   0.632   3.863
  426SOL    HW2 2022   0.234   0.598   3.750
  427SOL     OW 2023   0.224   0.289   4.707
  427SOL    HW1 2024   0.247   0.250   4.791
  427SOL    HW2 2025   0.129   0.277   4.700
  428SOL     OW 2026   0.018   0.385   4.359
  428SOL    HW1 2027   3.928   0.398   4.388
  428SOL    HW2 2028   0.025   0.291   4.345
  429SOL     OW 2029   0.580   1.288   4.914
  429SOL    HW1 2030   0.494   1.290   4.873
  429SOL    HW2 2031   0.594   1.377   4.946
  430SOL     OW 2032   1.548   1.501   4.432
  430SOL    HW1 2033   1.517   1.481   4.521
  430SOL    HW2 2034   1.470   1.498   4.378
  431SOL     OW 2035   1.133   0.698   4.421
  431SOL    HW1 2036   1.180   0.780   4.409
  431SOL    HW2 2037   1.085   0.711   4.504
  432SOL     OW 2038   1.766   0.619   3.949
  432SOL    HW1 2039   1.744   0.611   3.856
  432SOL    HW2 2040   1.752   0.531   3.984
  433SOL     OW 2041   0.754   1.140   4.766
  433SOL    HW1 2042   0.690   1.175   4.827
  433SOL    HW2 2043   0.790   1.216   4.721
  434SOL     OW 2044   0.871   0.771   5.548
  434SOL    HW1 2045   0.856   0.842   5.610
  434SOL    HW2 2046   0.893   0.814   5.465
  435SOL     OW 2047   0.685   1.003   4.370
  435SOL    HW1 2048   0.751   0.991   4.438
  435SOL    HW2 2049   0.616   1.054   4.411
  436SOL     OW 2050   0.712   1.150   5.540
  436SOL    HW1 2051   0.760   1.228   5.568
  436SOL    HW2 2052   0.631   1.183   5.503
  437SOL     OW 2053   0.351   1.401   4.803
  437SOL    HW1 2054   0.270   1.381   4.757
  437SOL    HW2 2055   0.399   1.459   4.743
  438SOL     OW 2056   1.449   1.485   5.082
  438SOL    HW1 2057   1.496   1.569   5.092
  438SOL    HW2 2058   1.382   1.487   5.150
  439SOL     OW 2059   0.457   0.408   5.220
  439SOL    HW1 2060   0.538   0.358   5.218
  439SOL    HW2 2061   0.388   0.342   5.223
  440SOL     OW 2062   1.612   0.451   4.459
  440SOL    HW1 2063   1.542   0.482   4.402
  440SOL    HW2 2064   1.631   0.525   4.517
  441SOL     OW 2065   0.221   1.719   4.182
  441SOL    HW1 2066   0.240   1.793   4.239
  441SOL    HW2 2067   0.298   1.711   4.126
  442SOL     OW 2068   1.136   1.342   5.416
  442SOL    HW1 2069   1.178   1.335   5.501
  442SOL    HW2 2070   1.084   1.261   5.408
  443SOL     OW 2071   0.250   1.450   4.264
  443SOL    HW1 2072   0.215   1.538   4.249
  443SOL    HW2 2073   0.182   1.406   4.315
  444SOL     OW 2074   0.248   1.066   4.609
  444SOL    HW1 2075   0.267   0.981   4.648
  444SOL    HW2 2076   0.195   1.112   4.674
  445SOL     OW 2077   0.611   1.792   5.152
  445SOL    HW1 2078   0.528   1.774   5.196
  445SOL    HW2 2079   0.633   1.882   5.178
  446SOL     OW 2080   0.577   0.986   3.862
  446SOL    HW1 2081   0.626   1.030   3.793
  446SOL    HW2 2082   0.619   1.015   3.943
  447SOL     OW 2083   1.580   0.140   5.180
  447SOL    HW1 2084   1.610   0.212   5.125
  447SOL    HW2 2085   1.549   0.181   5.260
  448SOL     OW 2086   0.140   0.651   4.294
  448SOL    HW1 2087   0.097   0.566   4.298
  448SOL    HW2 2088   0.102   0.701   4.366
  449SOL     OW 2089   0.044   1.590   3.862
  449SOL    HW1 2090   0.036   1.498   3.887
  449SOL    HW2 2091   3.961   1.629   3.890
  450SOL     OW 2092   1.685   0.914   4.364
  450SOL    HW1 2093   1.772   0.877   4.347
  450SOL    HW2 2094   1.667   0.969   4.287
  451SOL     OW 2095   1.648   1.106   4.153
  451SOL    HW1 2096   1.735   1.109   4.113
  451SOL    HW2 2097   1.654   1.167   4.227
  452SOL     OW 2098   0.140   0.756   5.313
  452SOL    HW1 2099   0.236   0.751   5.308
  452SOL    HW2 2100   0.122   0.844   5.344
  453SOL     OW 2101   0.613   1.387   4.460
  453SOL    HW1 2102   0.567   1.303   4.469
  453SOL    HW2 2103   0.597   1.413   4.369
  454SOL     OW 2104   1.285   1.234   5.149
  454SOL    HW1 2105   1.317   1.169   5.087
  454SOL    HW2 2106   1.346   1.230   5.222
  455SOL     OW 2107   0.820   0.003   4.240
  455SOL    HW1 2108   0.865   0.084   4.216
  455SOL    HW2 2109   0.727   0.027   4.240
  456SOL     OW 2110   0.184   0.950   5.002
  456SOL    HW1 2111   0.272   0.915   4.990
  456SOL    HW2 2112   0.132   0.908   4.934
  457SOL     OW 2113   1.531   0.995   3.924
  457SOL    HW1 2114   1.462   0.939   3.957
  457SOL    HW2 2115   1.574   1.030   4.003
  458SOL     OW 2116   1.185   1.808   5.347
  458SOL    HW1 2117   1.194   1.868   5.273
  458SOL    HW2 2118   1.202   1.721   5.310
  459SOL     OW 2119   0.344   0.252   5.562
  459SOL    HW1 2120   0.387   0.335   5.544
  459SOL    HW2 2121   0.253   0.275   5.580
  460SOL     OW 2122   1.467   1.420   4.679
  460SOL    HW1 2123   1.398   1.435   4.744
  460SOL    HW2 2124   1.455   1.328   4.653
  461SOL     OW 2125   1.595   1.713   4.269
  461SOL    HW1 2126   1.593   1.668   4.184
  461SOL    HW2 2127   1.593   1.641   4.333
  462SOL     OW 2128   0.596   0.717   3.990
  462SOL    HW1 2129   0.601   0.801   3.944
  462SOL    HW2 2130   0.533   0.732   4.060
  463SOL     OW 2131   1.275   0.368   4.665
  463SOL    HW1 2132   1.187   0.329   4.672
  463SOL    HW2 2133   1.332   0.307   4.710
  464SOL     OW 2134   1.567   1.645   4.012
  464SOL    HW1 2135   1.644   1.700   3.994
  464SOL    HW2 2136   1.529   1.629   3.926
  465SOL     OW 2137   0.794   0.616   5.177
  465SOL    HW1 2138   0.765   0.590   5.265
  465SOL    HW2 2139   0.756   0.551   5.119
  466SOL     OW 2140   1.392   0.476   5.401
  466SOL    HW1 2141   1.399   0.521   5.486
  466SOL    HW2 2142   1.450   0.400   5.410
  467SOL     OW 2143   0.953   0.887   5.308
  467SOL    HW1 2144   1.007   0.818   5.271
  467SOL    HW2 2145   0.904   0.922   5.233
  468SOL     OW 2146   0.992   0.403   4.963
  468SOL    HW1 2147   0.907   0.424   5.001
  468SOL    HW2 2148   0.971   0.374   4.874
  469SOL     OW 2149   1.052   0.699   4.149
  469SOL    HW1 2150   1.069   0.692   4.243
  469SOL    HW2 2151   0.969   0.653   4.136
  470SOL     OW 2152   0.081   0.828   4.514
  470SOL    HW1 2153   0.155   0.795   4.566
  470SOL    HW2 2154   0.101   0.921   4.501
  471SOL     OW 2155   0.130   1.862   5.301
  471SOL    HW1 2156   0.137   1.827   5.389
  471SOL    HW2 2157   0.038   1.850   5.278
  472SOL     OW 2158   0.894   0.352   3.922
  472SOL    HW1 2159   0.936   0.411   3.860
  472SOL    HW2 2160   0.893   0.267   3.877
  473SOL     OW 2161   1.708   0.575   5.553
  473SOL    HW1 2162   1.670   0.648   5.504
  473SOL    HW2 2163   1.733   0.512   5.486
  474SOL     OW 2164   1.378   1.141   4.264
  474SOL    HW1 2165   1.459   1.131   4.213
  474SOL    HW2 2166   1.325   1.202   4.213
  475SOL     OW 2167   0.561   0.195   4.605
  475SOL    HW1 2168   0.565   0.219   4.697
  475SOL    HW2 2169   0.547   0.278   4.559
  476SOL     OW 2170   0.999   1.441   4.193
  476SOL    HW1 2171   0.967   1.517   4.145
  476SOL    HW2 2172   0.985   1.464   4.285
  477SOL     OW 2173   0.365   1.819   4.594
  477SOL    HW1 2174   0.428   1.748   4.603
  477SOL    HW2 2175   0.416   1.898   4.610
  478SOL     OW 2176   1.800   1.048   4.596
  478SOL    HW1 2177   1.746   1.042   4.517
  478SOL    HW2 2178   1.737   1.058   4.667
  479SOL     OW 2179   1.225   1.537   5.238
  479SOL    HW1 2180   1.210   1.465   5.299
  479SOL    HW2 2181   1.160   1.524   5.169
  480SOL     OW 2182   0.310   0.954   3.966
  480SOL    HW1 2183   0.394   0.976   3.925
  480SOL    HW2 2184   0.298   0.861   3.945
  481SOL     OW 2185   1.478   0.746   4.454
  481SOL    HW1 2186   1.475   0.705   4.540
  481SOL    HW2 2187   1.557   0.802   4.457
  482SOL     OW 2188   0.468   1.260   5.461
  482SOL    HW1 2189   0.442   1.268   5.369
  482SOL    HW2 2190   0.386   1.263   5.510
  483SOL     OW 2191   1.122   1.777   3.953
  483SOL    HW1 2192   1.048   1.737   3.999
  483SOL    HW2 2193   1.145   1.715   3.885
  484SOL     OW 2194   0.200   0.294   5.224
  484SOL    HW1 2195   0.107   0.314   5.223
  484SOL    HW2 2196   0.209   0.223   5.287
  485SOL     OW 2197   1.627   1.381   3.808
  485SOL    HW1 2198   1.582   1.464   3.792
  485SOL    HW2 2199   1.561   1.314   3.791
  486SOL     OW 2200   0.466   1.739   4.041
  486SOL    HW1 2201   0.509   1.796   4.104
  486SOL    HW2 2202   0.538   1.703   3.988
  487SOL     OW 2203   1.441   0.166   4.129
  487SOL    HW1 2204   1.394   0.099   4.079
  487SOL    HW2 2205   1.512   0.118   4.172
  488SOL     OW 2206   0.252   1.791   4.955
  488SOL    HW1 2207   0.298   1.726   5.008
  488SOL    HW2 2208   0.249   1.753   4.867
  489SOL     OW 2209   0.938   1.699   4.622
  489SOL    HW1 2210   1.017   1.649   4.642
  489SOL    HW2 2211   0.895   1.649   4.553
  490SOL     OW 2212   0.397   0.694   4.195
  490SOL    HW1 2213   0.423   0.603   4.210
  490SOL    HW2 2214   0.305   0.698   4.221
  491SOL     OW 2215   1.529   0.229   5.451
  491SOL    HW1 2216   1.525   0.254   5.543
  491SOL    HW2 2217   1.509   0.135   5.451
  492SOL     OW 2218   0.645   0.130   3.826
  492SOL    HW1 2219   0.668   0.047   3.867
  492SOL    HW2 2220   0.583   0.107   3.757
  493SOL     OW 2221   0.776   0.283   5.491
  493SOL    HW1 2222   0.850   0.222   5.493
  493SOL    HW2 2223   0.720   0.256   5.563
  494SOL     OW 2224   0.875   1.522   4.918
  494SOL    HW1 2225   0.860   1.485   4.831
  494SOL    HW2 2226   0.946   1.468   4.955
  495SOL     OW 2227   1.340   0.587   5.155
  495SOL    HW1 2228   1.370   0.558   5.240
  495SOL    HW2 2229   1.375   0.676   5.145
  496SOL     OW 2230   0.816   1.393   4.665
  496SOL    HW1 2231   0.901   1.381   4.623
  496SOL    HW2 2232   0.753   1.395   4.593
  497SOL     OW 2233   0.930   0.512   4.625
  497SOL    HW1 2234   0.906   0.504   4.532
  497SOL    HW2 2235   0.956   0.423   4.651
  498SOL     OW 2236   0.546   0.056   4.212
  498SOL    HW1 2237   0.472   0.063   4.272
  498SOL    HW2 2238   0.548   0.140   4.166
  499SOL     OW 2239   1.428   1.198   3.765
  499SOL    HW1 2240   1.458   1.122   3.816
  499SOL    HW2 2241   1.342   1.220   3.802
  500SOL     OW 2242   0.345   0.037   3.922
  500SOL    HW1 2243   0.360   0.086   3.841
  500SOL    HW2 2244   0.429   0.037   3.966
  501SOL     OW 2245   0.942   0.249   4.185
  501SOL    HW1 2246   0.915   0.290   4.102
  501SOL    HW2 2247   1.037   0.253   4.184
  502SOL     OW 2248   1.079   0.683   5.183
  502SOL    HW1 2249   1.010   0.618   5.189
  502SOL    HW2 2250   1.160   0.632   5.177
  503SOL     OW 2251   1.222   1.570   4.518
  503SOL    HW1 2252   1.236   1.637   4.451
  503SOL    HW2 2253   1.291   1.586   4.582
  504SOL     OW 2254   0.466   1.151   4.460
  504SOL    HW1 2255   0.395   1.126   4.519
  504SOL    HW2 2256   0.432   1.135   4.372
  505SOL     OW 2257   1.263   1.791   4.335
  505SOL    HW1 2258   1.312   1.851   4.280
  505SOL    HW2 2259   1.197   1.846   4.378
  506SOL     OW 2260   1.022   0.543   3.752
  506SOL    HW1 2261   0.979   0.626   3.733
  506SOL    HW2 2262   1.086   0.564   3.820
  507SOL     OW 2263   0.080   0.573   5.117
  507SOL    HW1 2264   0.169   0.555   5.087
  507SOL    HW2 2265   0.090   0.644   5.180
  508SOL     OW 2266   0.572   0.231   4.883
  508SOL    HW1 2267   0.594   0.138   4.892
  508SOL    HW2 2268   0.481   0.237   4.913
  509SOL     OW 2269   0.871   0.461   4.363
  509SOL    HW1 2270   0.820   0.514   4.301
  509SOL    HW2 2271   0.891   0.381   4.315
  510SOL     OW 2272   0.996   0.040   4.505
  510SOL    HW1 2273   0.960   0.069   4.421
  510SOL    HW2 2274   1.007   3.945   4.495
  511SOL     OW 2275   1.439   1.163   4.583
  511SOL    HW1 2276   1.369   1.098   4.578
  511SOL    HW2 2277   1.468   1.173   4.492
  512SOL     OW 2278   1.465   0.607   4.699
  512SOL    HW1 2279   1.411   0.528   4.704
  512SOL    HW2 2280   1.525   0.600   4.773
  513SOL     OW 2281   1.845   0.818   4.110
  513SOL    HW1 2282   1.901   0.766   4.167
  513SOL    HW2 2283   1.815   0.757   4.043
  514SOL     OW 2284   0.487   1.421   3.884
  514SOL    HW1 2285   0.412   1.389   3.934
  514SOL    HW2 2286   0.472   1.389   3.795
  515SOL     OW 2287   1.671   1.260   4.372
  515SOL    HW1 2288   1.766   1.260   4.384
  515SOL    HW2 2289   1.644   1.349   4.395
  516SOL     OW 2290   1.395   0.576   3.793
  516SOL    HW1 2291   1.332   0.556   3.863
  516SOL    HW2 2292   1.480   0.556   3.832
  517SOL     OW 2293   0.557   0.271   4.042
  517SOL    HW1 2294   0.604   0.231   3.969
  517SOL    HW2 2295   0.528   0.356   4.009
  518SOL     OW 2296   1.749   1.234   5.296
  518SOL    HW1 2297   1.836   1.194   5.291
  518SOL    HW2 2298   1.766   1.325   5.323
  519SOL     OW 2299   1.056   1.354   5.058
  519SOL    HW1 2300   0.981   1.322   5.108
  519SOL    HW2 2301   1.132   1.311   5.099
  520SOL     OW 2302   1.605   1.614   5.381
  520SOL    HW1 2303   1.590   1.646   5.292
  520SOL    HW2 2304   1.688   1.567   5.376
  521SOL     OW 2305   1.132   1.207   4.828
  521SOL    HW1 2306   1.070   1.243   4.892
  521SOL    HW2 2307   1.100   1.239   4.744
  522SOL     OW 2308   1.625   1.096   4.800
  522SOL    HW1 2309   1.619   1.158   4.872
  522SOL    HW2 2310   1.549   1.115   4.745
  523SOL     OW 2311   0.913   0.114   5.125
  523SOL    HW1 2312   0.932   0.088   5.035
  523SOL    HW2 2313   0.993   0.156   5.156
  524SOL     OW 2314   0.984   1.114   5.448
  524SOL    HW1 2315   0.892   1.130   5.470
  524SOL    HW2 2316   0.982   1.037   5.392
  525SOL     OW 2317   0.708   1.061   4.094
  525SOL    HW1 2318   0.694   1.045   4.188
  525SOL    HW2 2319   0.784   1.008   4.071
  526SOL     OW 2320   0.422   0.817   4.976
  526SOL    HW1 2321   0.491   0.823   5.043
  526SOL    HW2 2322   0.387   0.728   4.986
  527SOL     OW 2323   1.266   0.375   5.001
  527SOL    HW1 2324   1.300   0.453   5.045
  527SOL    HW2 2325   1.178   0.400   4.971
  528SOL     OW 2326   0.065   1.580   5.070
  528SOL    HW1 2327   0.070   1.637   4.993
  528SOL    HW2 2328   0.156   1.567   5.096
  529SOL     OW 2329   0.372   1.103   4.207
  529SOL    HW1 2330   0.365   1.182   4.153
  529SOL    HW2 2331   0.370   1.030   4.144
  530SOL     OW 2332   0.555   0.535   4.582
  530SOL    HW1 2333   0.569   0.594   4.508
  530SOL    HW2 2334   0.620   0.561   4.646
  531SOL     OW 2335   1.241   1.340   4.111
  531SOL    HW1 2336   1.295   1.413   4.141
  531SOL    HW2 2337   1.153   1.360   4.145
  532SOL     OW 2338   1.280   1.460   4.871
  532SOL    HW1 2339   1.336   1.460   4.948
  532SOL    HW2 2340   1.225   1.381   4.882
  533SOL     OW 2341   1.575   0.634   4.210
  533SOL    HW1 2342   1.533   0.690   4.275
  533SOL    HW2 2343   1.623   0.694   4.153
  534SOL     OW 2344   0.345   1.527   5.042
  534SOL    HW1 2345   0.335   1.477   4.962
  534SOL    HW2 2346   0.440   1.542   5.050
  535SOL     OW 2347   0.416   0.738   5.325
  535SOL    HW1 2348   0.479   0.783   5.268
  535SOL    HW2 2349   0.454   0.651   5.338
  536SOL     OW 2350   1.603   0.780   5.408
  536SOL    HW1 2351   1.517   0.821   5.401
  536SOL    HW2 2352   1.656   0.821   5.339
  537SOL     OW 2353   1.011   0.133   5.502
  537SOL    HW1 2354   1.064   0.205   5.467
  537SOL    HW2 2355   1.002   0.072   5.429
  538SOL     OW 2356   0.482   0.037   5.489
  538SOL    HW1 2357   0.491   0.046   5.394
  538SOL    HW2 2358   0.420   0.105   5.515
  539SOL     OW 2359   0.585   0.875   4.755
  539SOL    HW1 2360   0.616   0.965   4.757
  539SOL    HW2 2361   0.529   0.867   4.833
  540SOL     OW 2362   1.354   0.858   4.752
  540SOL    HW1 2363   1.270   0.847   4.707
  540SOL    HW2 2364   1.397   0.773   4.744
  541SOL     OW 2365   1.201   0.536   3.982
  541SOL    HW1 2366   1.210   0.457   4.036
  541SOL    HW2 2367   1.158   0.599   4.040
  542SOL     OW 2368   0.311   0.212   4.964
  542SOL    HW1 2369   0.269   0.249   5.042
  542SOL    HW2 2370   0.296   0.118   4.970
  543SOL     OW 2371   0.062   1.306   5.004
  543SOL    HW1 2372   0.091   1.264   5.085
  543SOL    HW2 2373   0.052   1.398   5.027
  544SOL     OW 2374   0.725   0.634   4.777
  544SOL    HW1 2375   0.799   0.619   4.719
  544SOL    HW2 2376   0.695   0.722   4.756
  545SOL     OW 2377   1.737   0.959   5.576
  545SOL    HW1 2378   1.692   0.895   5.522
  545SOL    HW2 2379   1.678   0.975   5.649
  546SOL     OW 2380   0.330   0.055   4.378
  546SOL    HW1 2381   0.301   0.146   4.379
  546SOL    HW2 2382   0.292   0.017   4.458
  547SOL     OW 2383   1.607   0.391   4.105
  547SOL    HW1 2384   1.567   0.323   4.160
  547SOL    HW2 2385   1.587   0.473   4.150
  548SOL     OW 2386   1.029   0.759   4.683
  548SOL    HW1 2387   1.023   0.776   4.777
  548SOL    HW2 2388   1.002   0.668   4.673
  549SOL     OW 2389   0.981   1.566   5.441
  549SOL    HW1 2390   0.966   1.611   5.358
  549SOL    HW2 2391   1.024   1.484   5.418
  550SOL     OW 2392   1.852   1.492   5.330
  550SOL    HW1 2393   1.884   1.521   5.244
  550SOL    HW2 2394   1.925   1.511   5.390
  551SOL     OW 2395   0.353   0.922   5.523
  551SOL    HW1 2396   0.431   0.941   5.575
  551SOL    HW2 2397   0.381   0.854   5.461
  552SOL     OW 2398   1.505   0.275   3.859
  552SOL    HW1 2399   1.431   0.215   3.871
  552SOL    HW2 2400   1.518   0.314   3.945
  553SOL     OW 2401   1.289   0.827   3.753
  553SOL    HW1 2402   1.331   0.741   3.757
  553SOL    HW2 2403   1.321   0.866   3.672
  554SOL     OW 2404   1.066   1.337   4.579
  554SOL    HW1 2405   1.070   1.264   4.517
  554SOL    HW2 2406   1.127   1.402   4.544
  555SOL     OW 2407   0.313   0.803   4.674
  555SOL    HW1 2408   0.407   0.819   4.668
  555SOL    HW2 2409   0.306   0.713   4.706
  556SOL     OW 2410   0.338   0.528   4.739
  556SOL    HW1 2411   0.297   0.443   4.721
  556SOL    HW2 2412   0.413   0.532   4.680
  557SOL     OW 2413   1.133   0.381   5.421
  557SOL    HW1 2414   1.085   0.436   5.482
  557SOL    HW2 2415   1.220   0.421   5.416
  558SOL     OW 2416   1.151   0.225   5.205
  558SOL    HW1 2417   1.142   0.280   5.284
  558SOL    HW2 2418   1.176   0.286   5.136
  559SOL     OW 2419   0.000   1.317   3.906
  559SOL    HW1 2420   3.906   1.334   3.910
  559SOL    HW2 2421   0.009   1.224   3.925
  560SOL     OW 2422   0.078   1.800   4.613
  560SOL    HW1 2423   0.082   1.705   4.617
  560SOL    HW2 2424   0.169   1.829   4.616
  561SOL     OW 2425   0.501   1.571   4.635
  561SOL    HW1 2426   0.571   1.632   4.660
  561SOL    HW2 2427   0.544   1.508   4.577
  562SOL     OW 2428   0.979   0.789   4.949
  562SOL    HW1 2429   1.035   0.769   5.023
  562SOL    HW2 2430   0.894   0.751   4.971
  563SOL     OW 2431   0.035   0.573   4.836
  563SOL    HW1 2432   0.098   0.521   4.786
  563SOL    HW2 2433   0.061   0.559   4.928
  564SOL     OW 2434   0.211   0.516   5.446
  564SOL    HW1 2435   0.257   0.477   5.372
  564SOL    HW2 2436   0.163   0.590   5.408
  565SOL     OW 2437   1.378   0.937   5.381
  565SOL    HW1 2438   1.400   1.030   5.378
  565SOL    HW2 2439   1.374   0.910   5.290
  566SOL     OW 2440   0.818   0.572   4.086
  566SOL    HW1 2441   0.824   0.496   4.028
  566SOL    HW2 2442   0.743   0.621   4.052
  567SOL     OW 2443   1.640   0.602   4.908
  567SOL    HW1 2444   1.631   0.541   4.981
  567SOL    HW2 2445   1.728   0.584   4.873
  568SOL     OW 2446   0.300   1.544   5.450
  568SOL    HW1 2447   0.252   1.614   5.494
  568SOL    HW2 2448   0.268   1.463   5.490
  569SOL     OW 2449   0.709   0.454   4.980
  569SOL    HW1 2450   0.659   0.376   4.955
  569SOL    HW2 2451   0.699   0.514   4.906
  570SOL     OW 2452   0.925   1.679   5.193
  570SOL    HW1 2453   0.900   1.642   5.108
  570SOL    HW2 2454   0.920   1.774   5.180
  571SOL     OW 2455   0.454   0.492   3.921
  571SOL    HW1 2456   0.518   0.561   3.938
  571SOL    HW2 2457   0.374   0.539   3.897
  572SOL     OW 2458   0.156   1.135   5.198
  572SOL    HW1 2459   0.157   1.084   5.279
  572SOL    HW2 2460   0.171   1.070   5.129
  573SOL     OW 2461   1.323   1.045   4.946
  573SOL    HW1 2462   1.347   0.982   4.878
  573SOL    HW2 2463   1.255   1.100   4.906
  574SOL     OW 2464   1.314   0.856   4.029
  574SOL    HW1 2465   1.239   0.827   4.080
  574SOL    HW2 2466   1.287   0.843   3.938
  575SOL     OW 2467   1.244   1.735   4.833
  575SOL    HW1 2468   1.327   1.756   4.791
  575SOL    HW2 2469   1.249   1.641   4.852
  576SOL     OW 2470   0.077   1.217   4.751
  576SOL    HW1 2471   0.084   1.243   4.843
  576SOL    HW2 2472   3.984   1.226   4.730
  577SOL     OW 2473   0.679   1.667   5.457
  577SOL    HW1 2474   0.621   1.742   5.449
  577SOL    HW2 2475   0.746   1.681   5.390
  578SOL     OW 2476   1.713   0.125   4.211
  578SOL    HW1 2477   1.792   0.134   4.158
  578SOL    HW2 2478   1.705   0.030   4.225
  579SOL     OW 2479   1.367   1.560   4.200
  579SOL    HW1 2480   1.428   1.590   4.133
  579SOL    HW2 2481   1.332   1.640   4.238
  580SOL     OW 2482   0.175   1.764   5.554
  580SOL    HW1 2483   0.117   1.713   5.611
  580SOL    HW2 2484   0.215   1.829   5.611
  581SOL     OW 2485   1.277   0.927   4.395
  581SOL    HW1 2486   1.351   0.867   4.405
  581SOL    HW2 2487   1.312   0.999   4.342
  582SOL     OW 2488   0.810   1.274   5.153
  582SOL    HW1 2489   0.782   1.314   5.234
  582SOL    HW2 2490   0.740   1.292   5.091
  583SOL     OW 2491   0.670   1.622   3.879
  583SOL    HW1 2492   0.681   1.634   3.785
  583SOL    HW2 2493   0.615   1.544   3.887
  584SOL     OW 2494   1.583   1.713   5.126
  584SOL    HW1 2495   1.645   1.705   5.054
  584SOL    HW2 2496   1.569   1.808   5.136
  585SOL     OW 2497   1.839   0.177   4.691
  585SOL    HW1 2498   1.871   0.110   4.631
  585SOL    HW2 2499   1.751   0.197   4.659
  586SOL     OW 2500   0.274   0.323   4.438
  586SOL    HW1 2501   0.189   0.358   4.413
  586SOL    HW2 2502   0.266   0.306   4.532
  587SOL     OW 2503   1.204   1.604   3.755
  587SOL    HW1 2504   1.195   1.513   3.782
  587SOL    HW2 2505   1.138   1.615   3.687
  588SOL     OW 2506   0.823   1.005   5.097
  588SOL    HW1 2507   0.867   1.000   5.012
  588SOL    HW2 2508   0.822   1.099   5.118
  589SOL     OW 2509   0.915   0.910   4.014
  589SOL    HW1 2510   0.976   0.943   3.948
  589SOL    HW2 2511   0.964   0.842   4.060
  590SOL     OW 2512   1.480   1.622   3.762
  590SOL    HW1 2513   1.386   1.618   3.744
  590SOL    HW2 2514   1.521   1.627   3.675
  591SOL     OW 2515   0.374   1.303   5.216
  591SOL    HW1 2516   0.358   1.383   5.165
  591SOL    HW2 2517   0.297   1.248   5.198
  592SOL     OW 2518   1.610   1.279   5.002
  592SOL    HW1 2519   1.674   1.274   5.073
  592SOL    HW2 2520   1.547   1.344   5.033
  593SOL     OW 2521   1.055   1.109   4.432
  593SOL    HW1 2522   0.984   1.057   4.470
  593SOL    HW2 2523   1.119   1.043   4.403
  594SOL     OW 2524   1.014   0.249   4.694
  594SOL    HW1 2525   1.004   0.199   4.613
  594SOL    HW2 2526   1.010   0.184   4.763
  595SOL     OW 2527   0.606   1.488   4.206
  595SOL    HW1 2528   0.651   1.438   4.138
  595SOL    HW2 2529   0.532   1.529   4.160
  596SOL     OW 2530   1.720   0.393   5.096
  596SOL    HW1 2531   1.793   0.456   5.100
  596SOL    HW2 2532   1.754   0.322   5.042
  597SOL     OW 2533   0.254   1.341   4.017
  597SOL    HW1 2534   0.160   1.348   3.998
  597SOL    HW2 2535   0.263   1.380   4.104
  598SOL     OW 2536   0.107   0.999   5.441
  598SOL    HW1 2537   0.047   0.991   5.516
  598SOL    HW2 2538   0.193   0.980   5.478
  599SOL     OW 2539   0.694   0.252   5.224
  599SOL    HW1 2540   0.762   0.199   5.183
  599SOL    HW2 2541   0.722   0.261   5.316
  600SOL     OW 2542   0.088   0.322   3.751
  600SOL    HW1 2543   3.993   0.319   3.744
  600SOL    HW2 2544   0.113   0.404   3.709
  601SOL     OW 2545   1.427   0.857   5.123
  601SOL    HW1 2546   1.378   0.919   5.068
  601SOL    HW2 2547   1.516   0.859   5.088
  602SOL     OW 2548   0.037   0.168   4.008
  602SOL    HW1 2549   0.036   0.233   3.938
  602SOL    HW2 2550   0.114   0.190   4.061
  603SOL     OW 2551   1.177   1.338   3.840
  603SOL    HW1 2552   1.087   1.307   3.842
  603SOL    HW2 2553   1.205   1.337   3.932
  604SOL     OW 2554   0.620   0.829   5.161
  604SOL    HW1 2555   0.677   0.904   5.144
  604SOL    HW2 2556   0.681   0.755   5.168
  605SOL     OW 2557   1.492   1.782   4.706
  605SOL    HW1 2558   1.512   1.852   4.644
  605SOL    HW2 2559   1.575   1.737   4.720
  606SOL     OW 2560   0.718   0.562   5.431
  606SOL    HW1 2561   0.762   0.623   5.489
  606SOL    HW2 2562   0.744   0.475   5.462
  607SOL     OW 2563   1.473   1.198   5.354
  607SOL    HW1 2564   1.461   1.213   5.448
  607SOL    HW2 2565   1.566   1.213   5.339
  608SOL     OW 2566   0.379   1.743   5.281
  608SOL    HW1 2567   0.292   1.781   5.269
  608SOL    HW2 2568   0.363   1.661   5.328
  609SOL     OW 2569   1.667   0.881   4.980
  609SOL    HW1 2570   1.663   0.795   4.936
  609SOL    HW2 2571   1.657   0.944   4.908
  610SOL     OW 2572   1.223   0.336   4.167
  610SOL    HW1 2573   1.291   0.268   4.160
  610SOL    HW2 2574   1.242   0.380   4.249
  611SOL     OW 2575   0.590   0.738   4.395
  611SOL    HW1 2576   0.628   0.825   4.379
  611SOL    HW2 2577   0.523   0.728   4.328
  612SOL     OW 2578   1.751   0.383   5.367
  612SOL    HW1 2579   1.733   0.389   5.273
  612SOL    HW2 2580   1.695   0.313   5.398
  613SOL     OW 2581   1.746   0.934   5.236
  613SOL    HW1 2582   1.736   1.028   5.249
  613SOL    HW2 2583   1.729   0.920   5.143
  614SOL     OW 2584   0.863   1.366   3.761
  614SOL    HW1 2585   0.825   1.394   3.845
  614SOL    HW2 2586   0.879   1.448   3.714
  615SOL     OW 2587   0.663   1.788   4.667
  615SOL    HW1 2588   0.642   1.879   4.645
  615SOL    HW2 2589   0.758   1.783   4.659
  616SOL     OW 2590   0.868   0.968   4.577
  616SOL    HW1 2591   0.919   0.896   4.616
  616SOL    HW2 2592   0.832   1.015   4.653
  617SOL     OW 2593   1.078   0.989   3.813
  617SOL    HW1 2594   1.056   1.040   3.735
  617SOL    HW2 2595   1.152   0.935   3.786
  618SOL     OW 2596   1.858   1.520   4.556
  618SOL    HW1 2597   1.777   1.559   4.522
  618SOL    HW2 2598   1.846   1.517   4.651
  619SOL     OW 2599   0.226   1.303   5.580
  619SOL    HW1 2600   0.154   1.247   5.553
  619SOL    HW2 2601   0.212   1.317   5.674
  620SOL     OW 2602   0.120   1.279   4.445
  620SOL    HW1 2603   0.133   1.228   4.525
  620SOL    HW2 2604   0.107   1.214   4.376
  621SOL     OW 2605   0.683   1.404   5.355
  621SOL    HW1 2606   0.602   1.362   5.384
  621SOL    HW2 2607   0.677   1.493   5.391
  622SOL     OW 2608   1.811   0.183   4.962
  622SOL    HW1 2609   1.814   0.089   4.978
  622SOL    HW2 2610   1.826   0.193   4.868
  623SOL     OW 2611   0.444   0.437   4.255
  623SOL    HW1 2612   0.460   0.362   4.199
  623SOL    HW2 2613   0.388   0.403   4.325
  624SOL     OW 2614   1.700   1.501   4.824
  624SOL    HW1 2615   1.622   1.474   4.777
  624SOL    HW2 2616   1.716   1.430   4.887
  625SOL     OW 2617   0.333   0.557   5.017
  625SOL    HW1 2618   0.389   0.501   5.070
  625SOL    HW2 2619   0.348   0.528   4.927
  626SOL     OW 2620   0.828   1.579   4.401
  626SOL    HW1 2621   0.814   1.639   4.327
  626SOL    HW2 2622   0.753   1.520   4.399
  627SOL     OW 2623   1.461   0.254   4.834
  627SOL    HW1 2624   1.478   0.167   4.871
  627SOL    HW2 2625   1.405   0.296   4.900
  628SOL     OW 2626   1.004   0.028   4.870
  628SOL    HW1 2627   0.924   3.989   4.835
  628SOL    HW2 2628   1.065   3.955   4.879
  629SOL     OW 2629   0.772   1.333   4.041
  629SOL    HW1 2630   0.744   1.242   4.048
  629SOL    HW2 2631   0.854   1.337   4.091
  630SOL     OW 2632   0.620   1.556   5.010
  630SOL    HW1 2633   0.622   1.639   5.059
  630SOL    HW2 2634   0.708   1.549   4.972
  631SOL     OW 2635   1.311   0.074   3.889
  631SOL    HW1 2636   1.324   3.995   3.835
  631SOL    HW2 2637   1.226   0.061   3.930
  632SOL     OW 2638   1.282   0.457   4.409
  632SOL    HW1 2639   1.235   0.540   4.404
  632SOL    HW2 2640   1.285   0.437   4.503
  633SOL     OW 2641   1.588   0.210   4.592
  633SOL    HW1 2642   1.539   0.234   4.670
  633SOL    HW2 2643   1.588   0.289   4.538
  634SOL     OW 2644   0.047   1.049   3.965
  634SOL    HW1 2645   0.141   1.033   3.956
  634SOL    HW2 2646   0.011   0.966   3.995
  635SOL     OW 2647   0.887   1.656   4.064
  635SOL    HW1 2648   0.813   1.639   4.006
  635SOL    HW2 2649   0.858   1.730   4.118
  636SOL     OW 2650   0.233   0.628   5.703
  636SOL    HW1 2651   0.139   0.632   5.725
  636SOL    HW2 2652   0.235   0.598   5.612
  637SOL     OW 2653   0.224   0.288   6.569
  637SOL    HW1 2654   0.247   0.250   6.653
  637SOL    HW2 2655   0.129   0.277   6.562
  638SOL     OW 2656   0.019   0.385   6.221
  638SOL    HW1 2657   3.928   0.398   6.250
  638SOL    HW2 2658   0.025   0.291   6.207
  639SOL     OW 2659   0.580   1.289   6.776
  639SOL    HW1 2660   0.493   1.292   6.735
  639SOL    HW2 2661   0.594   1.378   6.809
  640SOL     OW 2662   1.132   0.698   6.283
  640SOL    HW1 2663   1.180   0.780   6.271
  640SOL    HW2 2664   1.085   0.710   6.366
  641SOL     OW 2665   1.766   0.619   5.811
  641SOL    HW1 2666   1.744   0.611   5.718
  641SOL    HW2 2667   1.751   0.531   5.846
  642SOL     OW 2668   0.751   1.139   6.625
  642SOL    HW1 2669   0.688   1.175   6.688
  642SOL    HW2 2670   0.788   1.216   6.583
  643SOL     OW 2671   0.869   0.771   7.409
  643SOL    HW1 2672   0.863   0.843   7.472
  643SOL    HW2 2673   0.892   0.814   7.326
  644SOL     OW 2674   0.685   1.003   6.232
  644SOL    HW1 2675   0.751   0.990   6.301
  644SOL    HW2 2676   0.616   1.054   6.274
  645SOL     OW 2677   0.711   1.150   7.402
  645SOL    HW1 2678   0.759   1.227   7.430
  645SOL    HW2 2679   0.630   1.184   7.364
  646SOL     OW 2680   0.351   1.402   6.665
  646SOL    HW1 2681   0.270   1.381   6.618
  646SOL    HW2 2682   0.399   1.460   6.605
  647SOL     OW 2683   1.446   1.488   6.932
  647SOL    HW1 2684   1.496   1.567   6.950
  647SOL    HW2 2685   1.373   1.492   6.994
  648SOL     OW 2686   0.456   0.408   7.082
  648SOL    HW1 2687   0.538   0.358   7.081
  648SOL    HW2 2688   0.388   0.341   7.085
  649SOL     OW 2689   1.612   0.451   6.321
  649SOL    HW1 2690   1.542   0.482   6.265
  649SOL    HW2 2691   1.628   0.523   6.383
  650SOL     OW 2692   0.220   1.719   6.044
  650SOL    HW1 2693   0.240   1.793   6.101
  650SOL    HW2 2694   0.298   1.711   5.988
  651SOL     OW 2695   1.136   1.347   7.286
  651SOL    HW1 2696   1.179   1.342   7.371
  651SOL    HW2 2697   1.086   1.266   7.279
  652SOL     OW 2698   0.250   1.450   6.126
  652SOL    HW1 2699   0.215   1.538   6.112
  652SOL    HW2 2700   0.182   1.405   6.177
  653SOL     OW 2701   0.247   1.066   6.470
  653SOL    HW1 2702   0.267   0.981   6.510
  653SOL    HW2 2703   0.195   1.112   6.536
  654SOL     OW 2704   0.607   1.794   7.009
  654SOL    HW1 2705   0.526   1.774   7.056
  654SOL    HW2 2706   0.630   1.882   7.038
  655SOL     OW 2707   0.578   0.986   5.725
  655SOL    HW1 2708   0.626   1.030   5.655
  655SOL    HW2 2709   0.619   1.015   5.805
  656SOL     OW 2710   1.581   0.140   7.042
  656SOL    HW1 2711   1.611   0.213   6.988
  656SOL    HW2 2712   1.549   0.182   7.122
  657SOL     OW 2713   0.140   0.651   6.155
  657SOL    HW1 2714   0.097   0.566   6.160
  657SOL    HW2 2715   0.102   0.701   6.228
  658SOL     OW 2716   0.044   1.590   5.725
  658SOL    HW1 2717   0.036   1.498   5.749
  658SOL    HW2 2718   3.961   1.629   5.752
  659SOL     OW 2719   1.691   0.920   6.226
  659SOL    HW1 2720   1.776   0.878   6.214
  659SOL    HW2 2721   1.675   0.965   6.144
  660SOL     OW 2722   1.654   1.114   6.012
  660SOL    HW1 2723   1.736   1.106   5.965
  660SOL    HW2 2724   1.668   1.187   6.072
  661SOL     OW 2725   0.140   0.756   7.175
  661SOL    HW1 2726   0.236   0.751   7.170
  661SOL    HW2 2727   0.122   0.844   7.206
  662SOL     OW 2728   0.613   1.387   6.323
  662SOL    HW1 2729   0.567   1.303   6.332
  662SOL    HW2 2730   0.598   1.413   6.232
  663SOL     OW 2731   1.275   1.225   7.007
  663SOL    HW1 2732   1.315   1.165   6.945
  663SOL    HW2 2733   1.334   1.225   7.082
  664SOL     OW 2734   0.819   0.003   6.102
  664SOL    HW1 2735   0.865   0.084   6.078
  664SOL    HW2 2736   0.727   0.027   6.102
  665SOL     OW 2737   0.184   0.950   6.864
  665SOL    HW1 2738   0.273   0.915   6.852
  665SOL    HW2 2739   0.132   0.908   6.796
  666SOL     OW 2740   1.530   0.997   5.784
  666SOL    HW1 2741   1.461   0.940   5.817
  666SOL    HW2 2742   1.576   1.028   5.862
  667SOL     OW 2743   0.344   0.251   7.424
  667SOL    HW1 2744   0.387   0.335   7.405
  667SOL    HW2 2745   0.253   0.275   7.442
  668SOL     OW 2746   0.595   0.717   5.852
  668SOL    HW1 2747   0.600   0.802   5.807
  668SOL    HW2 2748   0.533   0.732   5.923
  669SOL     OW 2749   1.274   0.367   6.526
  669SOL    HW1 2750   1.187   0.329   6.534
  669SOL    HW2 2751   1.332   0.306   6.572
  670SOL     OW 2752   1.591   1.634   5.855
  670SOL    HW1 2753   1.639   1.717   5.848
  670SOL    HW2 2754   1.544   1.627   5.772
  671SOL     OW 2755   0.793   0.616   7.039
  671SOL    HW1 2756   0.764   0.590   7.127
  671SOL    HW2 2757   0.755   0.550   6.981
  672SOL     OW 2758   1.391   0.476   7.263
  672SOL    HW1 2759   1.398   0.521   7.347
  672SOL    HW2 2760   1.450   0.401   7.272
  673SOL     OW 2761   0.952   0.887   7.170
  673SOL    HW1 2762   1.008   0.819   7.134
  673SOL    HW2 2763   0.904   0.922   7.095
  674SOL     OW 2764   0.992   0.402   6.825
  674SOL    HW1 2765   0.907   0.425   6.864
  674SOL    HW2 2766   0.970   0.374   6.736
  675SOL     OW 2767   1.052   0.700   6.012
  675SOL    HW1 2768   1.068   0.692   6.106
  675SOL    HW2 2769   0.970   0.653   5.998
  676SOL     OW 2770   0.082   0.828   6.376
  676SOL    HW1 2771   0.155   0.795   6.428
  676SOL    HW2 2772   0.102   0.921   6.363
  677SOL     OW 2773   0.129   1.862   7.162
  677SOL    HW1 2774   0.137   1.827   7.251
  677SOL    HW2 2775   0.037   1.850   7.140
  678SOL     OW 2776   0.894   0.352   5.784
  678SOL    HW1 2777   0.936   0.411   5.722
  678SOL    HW2 2778   0.893   0.267   5.739
  679SOL     OW 2779   1.709   0.576   7.415
  679SOL    HW1 2780   1.671   0.649   7.367
  679SOL    HW2 2781   1.733   0.513   7.347
  680SOL     OW 2782   1.389   1.145   6.140
  680SOL    HW1 2783   1.458   1.127   6.075
  680SOL    HW2 2784   1.326   1.200   6.093
  681SOL     OW 2785   0.561   0.195   6.466
  681SOL    HW1 2786   0.565   0.218   6.559
  681SOL    HW2 2787   0.547   0.278   6.421
  682SOL     OW 2788   1.000   1.434   6.039
  682SOL    HW1 2789   0.969   1.515   5.999
  682SOL    HW2 2790   1.000   1.453   6.133
  683SOL     OW 2791   0.365   1.819   6.456
  683SOL    HW1 2792   0.429   1.748   6.464
  683SOL    HW2 2793   0.415   1.899   6.472
  684SOL     OW 2794   1.800   1.010   6.473
  684SOL    HW1 2795   1.741   1.001   6.398
  684SOL    HW2 2796   1.744   1.039   6.545
  685SOL     OW 2797   1.212   1.510   7.074
  685SOL    HW1 2798   1.199   1.450   7.147
  685SOL    HW2 2799   1.145   1.486   7.010
  686SOL     OW 2800   0.310   0.954   5.828
  686SOL    HW1 2801   0.394   0.976   5.787
  686SOL    HW2 2802   0.297   0.861   5.808
  687SOL     OW 2803   1.480   0.747   6.316
  687SOL    HW1 2804   1.472   0.704   6.401
  687SOL    HW2 2805   1.555   0.805   6.326
  688SOL     OW 2806   0.467   1.261   7.324
  688SOL    HW1 2807   0.442   1.268   7.232
  688SOL    HW2 2808   0.384   1.265   7.372
  689SOL     OW 2809   1.123   1.779   5.820
  689SOL    HW1 2810   1.048   1.737   5.861
  689SOL    HW2 2811   1.147   1.720   5.748
  690SOL     OW 2812   0.200   0.293   7.085
  690SOL    HW1 2813   0.107   0.314   7.085
  690SOL    HW2 2814   0.209   0.223   7.149
  691SOL     OW 2815   1.629   1.376   5.672
  691SOL    HW1 2816   1.588   1.461   5.659
  691SOL    HW2 2817   1.559   1.313   5.653
  692SOL     OW 2818   0.466   1.739   5.902
  692SOL    HW1 2819   0.508   1.796   5.966
  692SOL    HW2 2820   0.538   1.703   5.850
  693SOL     OW 2821   1.441   0.165   5.991
  693SOL    HW1 2822   1.393   0.097   5.943
  693SOL    HW2 2823   1.512   0.118   6.035
  694SOL     OW 2824   0.250   1.791   6.818
  694SOL    HW1 2825   0.298   1.727   6.871
  694SOL    HW2 2826   0.250   1.752   6.730
  695SOL     OW 2827   0.940   1.693   6.487
  695SOL    HW1 2828   0.989   1.624   6.532
  695SOL    HW2 2829   0.898   1.649   6.413
  696SOL     OW 2830   0.397   0.694   6.057
  696SOL    HW1 2831   0.423   0.603   6.072
  696SOL    HW2 2832   0.305   0.698   6.082
  697SOL     OW 2833   1.530   0.229   7.313
  697SOL    HW1 2834   1.526   0.254   7.405
  697SOL    HW2 2835   1.510   0.136   7.312
  698SOL     OW 2836   0.645   0.130   5.688
  698SOL    HW1 2837   0.668   0.047   5.729
  698SOL    HW2 2838   0.583   0.107   5.619
  699SOL     OW 2839   0.777   0.283   7.352
  699SOL    HW1 2840   0.850   0.221   7.355
  699SOL    HW2 2841   0.720   0.256   7.424
  700SOL     OW 2842   0.880   1.522   6.776
  700SOL    HW1 2843   0.858   1.479   6.693
  700SOL    HW2 2844   0.947   1.466   6.816
  701SOL     OW 2845   1.339   0.587   7.016
  701SOL    HW1 2846   1.370   0.560   7.102
  701SOL    HW2 2847   1.374   0.676   7.005
  702SOL     OW 2848   0.818   1.394   6.526
  702SOL    HW1 2849   0.901   1.381   6.480
  702SOL    HW2 2850   0.752   1.396   6.457
  703SOL     OW 2851   0.930   0.511   6.487
  703SOL    HW1 2852   0.906   0.503   6.395
  703SOL    HW2 2853   0.956   0.423   6.513
  704SOL     OW 2854   0.546   0.056   6.073
  704SOL    HW1 2855   0.472   0.063   6.134
  704SOL    HW2 2856   0.548   0.140   6.028
  705SOL     OW 2857   1.425   1.199   5.626
  705SOL    HW1 2858   1.457   1.123   5.674
  705SOL    HW2 2859   1.336   1.213   5.660
  706SOL     OW 2860   0.345   0.037   5.784
  706SOL    HW1 2861   0.361   0.086   5.703
  706SOL    HW2 2862   0.429   0.036   5.829
  707SOL     OW 2863   0.942   0.249   6.047
  707SOL    HW1 2864   0.916   0.289   5.964
  707SOL    HW2 2865   1.037   0.253   6.046
  708SOL     OW 2866   1.080   0.684   7.045
  708SOL    HW1 2867   1.011   0.617   7.051
  708SOL    HW2 2868   1.161   0.634   7.039
  709SOL     OW 2869   0.466   1.151   6.322
  709SOL    HW1 2870   0.395   1.126   6.380
  709SOL    HW2 2871   0.432   1.135   6.234
  710SOL     OW 2872   1.022   0.543   5.614
  710SOL    HW1 2873   0.979   0.626   5.595
  710SOL    HW2 2874   1.086   0.565   5.682
  711SOL     OW 2875   0.080   0.573   6.979
  711SOL    HW1 2876   0.169   0.555   6.949
  711SOL    HW2 2877   0.090   0.645   7.042
  712SOL     OW 2878   0.572   0.231   6.745
  712SOL    HW1 2879   0.594   0.138   6.754
  712SOL    HW2 2880   0.481   0.237   6.775
  713SOL     OW 2881   0.871   0.461   6.225
  713SOL    HW1 2882   0.819   0.513   6.163
  713SOL    HW2 2883   0.891   0.381   6.177
  714SOL     OW 2884   0.996   0.040   6.366
  714SOL    HW1 2885   0.959   0.068   6.282
  714SOL    HW2 2886   1.007   3.945   6.357
  715SOL     OW 2887   1.429   1.126   6.441
  715SOL    HW1 2888   1.357   1.063   6.443
  715SOL    HW2 2889   1.425   1.164   6.353
  716SOL     OW 2890   1.465   0.603   6.558
  716SOL    HW1 2891   1.410   0.525   6.566
  716SOL    HW2 2892   1.524   0.598   6.633
  717SOL     OW 2893   1.840   0.818   5.973
  717SOL    HW1 2894   1.899   0.767   6.029
  717SOL    HW2 2895   1.813   0.757   5.905
  718SOL     OW 2896   0.487   1.421   5.745
  718SOL    HW1 2897   0.412   1.389   5.796
  718SOL    HW2 2898   0.471   1.389   5.656
  719SOL     OW 2899   1.395   0.576   5.656
  719SOL    HW1 2900   1.332   0.556   5.725
  719SOL    HW2 2901   1.480   0.554   5.693
  720SOL     OW 2902   0.557   0.271   5.904
  720SOL    HW1 2903   0.604   0.231   5.830
  720SOL    HW2 2904   0.528   0.356   5.871
  721SOL     OW 2905   1.048   1.342   6.915
  721SOL    HW1 2906   0.975   1.311   6.969
  721SOL    HW2 2907   1.125   1.301   6.955
  722SOL     OW 2908   1.124   1.199   6.691
  722SOL    HW1 2909   1.078   1.245   6.761
  722SOL    HW2 2910   1.088   1.236   6.610
  723SOL     OW 2911   1.620   1.083   6.669
  723SOL    HW1 2912   1.613   1.145   6.742
  723SOL    HW2 2913   1.559   1.115   6.604
  724SOL     OW 2914   0.913   0.115   6.987
  724SOL    HW1 2915   0.932   0.089   6.897
  724SOL    HW2 2916   0.993   0.157   7.018
  725SOL     OW 2917   0.985   1.116   7.310
  725SOL    HW1 2918   0.893   1.132   7.331
  725SOL    HW2 2919   0.984   1.038   7.254
  726SOL     OW 2920   0.708   1.062   5.957
  726SOL    HW1 2921   0.694   1.045   6.050
  726SOL    HW2 2922   0.785   1.008   5.934
  727SOL     OW 2923   0.422   0.817   6.839
  727SOL    HW1 2924   0.491   0.823   6.905
  727SOL    HW2 2925   0.388   0.728   6.848
  728SOL     OW 2926   1.266   0.375   6.863
  728SOL    HW1 2927   1.300   0.452   6.907
  728SOL    HW2 2928   1.179   0.400   6.833
  729SOL     OW 2929   0.066   1.579   6.932
  729SOL    HW1 2930   0.071   1.639   6.857
  729SOL    HW2 2931   0.156   1.566   6.959
  730SOL     OW 2932   0.372   1.103   6.069
  730SOL    HW1 2933   0.365   1.182   6.014
  730SOL    HW2 2934   0.370   1.030   6.006
  731SOL     OW 2935   0.554   0.534   6.443
  731SOL    HW1 2936   0.569   0.593   6.369
  731SOL    HW2 2937   0.619   0.561   6.508
  732SOL     OW 2938   1.269   1.450   6.724
  732SOL    HW1 2939   1.321   1.461   6.804
  732SOL    HW2 2940   1.242   1.358   6.726
  733SOL     OW 2941   1.573   0.634   6.072
  733SOL    HW1 2942   1.534   0.689   6.140
  733SOL    HW2 2943   1.625   0.694   6.019
  734SOL     OW 2944   0.346   1.527   6.905
  734SOL    HW1 2945   0.336   1.477   6.824
  734SOL    HW2 2946   0.440   1.542   6.913
  735SOL     OW 2947   0.416   0.737   7.186
  735SOL    HW1 2948   0.479   0.783   7.130
  735SOL    HW2 2949   0.456   0.651   7.200
  736SOL     OW 2950   1.603   0.780   7.272
  736SOL    HW1 2951   1.516   0.820   7.265
  736SOL    HW2 2952   1.654   0.822   7.204
  737SOL     OW 2953   1.013   0.132   7.365
  737SOL    HW1 2954   1.063   0.205   7.329
  737SOL    HW2 2955   1.002   0.072   7.291
  738SOL     OW 2956   0.482   0.036   7.351
  738SOL    HW1 2957   0.491   0.046   7.257
  738SOL    HW2 2958   0.420   0.105   7.377
  739SOL     OW 2959   0.584   0.875   6.617
  739SOL    HW1 2960   0.618   0.965   6.620
  739SOL    HW2 2961   0.529   0.868   6.695
  740SOL     OW 2962   1.352   0.853   6.610
  740SOL    HW1 2963   1.264   0.838   6.576
  740SOL    HW2 2964   1.396   0.768   6.604
  741SOL     OW 2965   1.201   0.537   5.845
  741SOL    HW1 2966   1.211   0.458   5.898
  741SOL    HW2 2967   1.156   0.599   5.903
  742SOL     OW 2968   0.311   0.212   6.826
  742SOL    HW1 2969   0.269   0.248   6.904
  742SOL    HW2 2970   0.296   0.118   6.832
  743SOL     OW 2971   0.059   1.306   6.866
  743SOL    HW1 2972   0.090   1.264   6.946
  743SOL    HW2 2973   0.052   1.399   6.889
  744SOL     OW 2974   0.723   0.633   6.639
  744SOL    HW1 2975   0.799   0.618   6.582
  744SOL    HW2 2976   0.695   0.722   6.618
  745SOL     OW 2977   1.735   0.966   7.440
  745SOL    HW1 2978   1.690   0.904   7.383
  745SOL    HW2 2979   1.675   0.979   7.514
  746SOL     OW 2980   0.329   0.055   6.240
  746SOL    HW1 2981   0.301   0.146   6.241
  746SOL    HW2 2982   0.293   0.017   6.320
  747SOL     OW 2983   1.607   0.392   5.967
  747SOL    HW1 2984   1.568   0.323   6.022
  747SOL    HW2 2985   1.586   0.473   6.012
  748SOL     OW 2986   1.030   0.759   6.545
  748SOL    HW1 2987   1.023   0.777   6.639
  748SOL    HW2 2988   1.002   0.668   6.535
  749SOL     OW 2989   0.971   1.568   7.301
  749SOL    HW1 2990   0.963   1.607   7.214
  749SOL    HW2 2991   1.033   1.495   7.289
  750SOL     OW 2992   1.978   1.544   7.161
  750SOL    HW1 2993   1.947   1.506   7.079
  750SOL    HW2 2994   1.970   1.473   7.225
  751SOL     OW 2995   0.353   0.921   7.385
  751SOL    HW1 2996   0.431   0.942   7.436
  751SOL    HW2 2997   0.382   0.854   7.323
  752SOL     OW 2998   1.505   0.276   5.721
  752SOL    HW1 2999   1.431   0.215   5.733
  752SOL    HW2 3000   1.518   0.314   5.808
  753SOL     OW 3001   1.290   0.827   5.616
  753SOL    HW1 3002   1.332   0.741   5.619
  753SOL    HW2 3003   1.321   0.865   5.534
  754SOL     OW 3004   1.063   1.335   6.429
  754SOL    HW1 3005   1.058   1.256   6.374
  754SOL    HW2 3006   1.151   1.370   6.412
  755SOL     OW 3007   0.313   0.803   6.536
  755SOL    HW1 3008   0.407   0.820   6.532
  755SOL    HW2 3009   0.307   0.713   6.568
  756SOL     OW 3010   0.338   0.528   6.600
  756SOL    HW1 3011   0.297   0.443   6.583
  756SOL    HW2 3012   0.413   0.532   6.541
  757SOL     OW 3013   1.133   0.380   7.284
  757SOL    HW1 3014   1.085   0.436   7.345
  757SOL    HW2 3015   1.220   0.420   7.278
  758SOL     OW 3016   1.151   0.226   7.068
  758SOL    HW1 3017   1.142   0.280   7.146
  758SOL    HW2 3018   1.176   0.287   6.999
  759SOL     OW 3019   0.000   1.317   5.768
  759SOL    HW1 3020   3.906   1.334   5.772
  759SOL    HW2 3021   0.009   1.224   5.787
  760SOL     OW 3022   0.077   1.800   6.474
  760SOL    HW1 3023   0.082   1.705   6.479
  760SOL    HW2 3024   0.168   1.829   6.479
  761SOL     OW 3025   0.501   1.571   6.497
  761SOL    HW1 3026   0.571   1.632   6.521
  761SOL    HW2 3027   0.544   1.509   6.438
  762SOL     OW 3028   0.978   0.788   6.810
  762SOL    HW1 3029   1.037   0.770   6.883
  762SOL    HW2 3030   0.894   0.752   6.837
  763SOL     OW 3031   0.035   0.573   6.698
  763SOL    HW1 3032   0.098   0.522   6.648
  763SOL    HW2 3033   0.061   0.559   6.790
  764SOL     OW 3034   0.211   0.516   7.307
  764SOL    HW1 3035   0.259   0.478   7.234
  764SOL    HW2 3036   0.164   0.591   7.270
  765SOL     OW 3037   1.375   0.930   7.242
  765SOL    HW1 3038   1.395   1.024   7.240
  765SOL    HW2 3039   1.373   0.904   7.150
  766SOL     OW 3040   0.819   0.573   5.947
  766SOL    HW1 3041   0.824   0.496   5.890
  766SOL    HW2 3042   0.743   0.621   5.914
  767SOL     OW 3043   1.638   0.599   6.767
  767SOL    HW1 3044   1.630   0.541   6.843
  767SOL    HW2 3045   1.727   0.582   6.734
  768SOL     OW 3046   0.297   1.544   7.310
  768SOL    HW1 3047   0.251   1.614   7.356
  768SOL    HW2 3048   0.268   1.463   7.352
  769SOL     OW 3049   0.708   0.454   6.842
  769SOL    HW1 3050   0.658   0.376   6.817
  769SOL    HW2 3051   0.699   0.514   6.768
  770SOL     OW 3052   0.916   1.685   7.057
  770SOL    HW1 3053   0.905   1.642   6.973
  770SOL    HW2 3054   0.911   1.779   7.037
  771SOL     OW 3055   0.454   0.492   5.783
  771SOL    HW1 3056   0.518   0.561   5.800
  771SOL    HW2 3057   0.374   0.539   5.759
  772SOL     OW 3058   0.155   1.135   7.060
  772SOL    HW1 3059   0.158   1.084   7.141
  772SOL    HW2 3060   0.170   1.070   6.991
  773SOL     OW 3061   1.321   1.040   6.807
  773SOL    HW1 3062   1.352   0.983   6.737
  773SOL    HW2 3063   1.252   1.093   6.767
  774SOL     OW 3064   1.310   0.864   5.892
  774SOL    HW1 3065   1.240   0.825   5.944
  774SOL    HW2 3066   1.286   0.846   5.801
  775SOL     OW 3067   0.077   1.217   6.613
  775SOL    HW1 3068   0.083   1.243   6.705
  775SOL    HW2 3069   3.984   1.226   6.592
  776SOL     OW 3070   0.679   1.666   7.321
  776SOL    HW1 3071   0.624   1.744   7.308
  776SOL    HW2 3072   0.750   1.676   7.258
  777SOL     OW 3073   1.713   0.125   6.074
  777SOL    HW1 3074   1.792   0.134   6.020
  777SOL    HW2 3075   1.705   0.030   6.087
  778SOL     OW 3076   0.175   1.764   7.416
  778SOL    HW1 3077   0.118   1.714   7.474
  778SOL    HW2 3078   0.217   1.829   7.473
  779SOL     OW 3079   1.278   0.925   6.255
  779SOL    HW1 3080   1.350   0.864   6.271
  779SOL    HW2 3081   1.318   0.998   6.209
  780SOL     OW 3082   0.806   1.270   7.017
  780SOL    HW1 3083   0.780   1.313   7.099
  780SOL    HW2 3084   0.735   1.289   6.956
  781SOL     OW 3085   0.669   1.622   5.741
  781SOL    HW1 3086   0.681   1.634   5.647
  781SOL    HW2 3087   0.614   1.544   5.749
  782SOL     OW 3088   1.593   1.702   6.985
  782SOL    HW1 3089   1.665   1.716   6.923
  782SOL    HW2 3090   1.559   1.789   7.003
  783SOL     OW 3091   1.839   0.177   6.553
  783SOL    HW1 3092   1.871   0.109   6.494
  783SOL    HW2 3093   1.751   0.197   6.521
  784SOL     OW 3094   0.274   0.323   6.300
  784SOL    HW1 3095   0.189   0.358   6.275
  784SOL    HW2 3096   0.266   0.306   6.394
  785SOL     OW 3097   1.201   1.606   5.616
  785SOL    HW1 3098   1.191   1.514   5.640
  785SOL    HW2 3099   1.136   1.621   5.547
  786SOL     OW 3100   0.824   1.004   6.958
  786SOL    HW1 3101   0.872   1.001   6.875
  786SOL    HW2 3102   0.822   1.097   6.980
  787SOL     OW 3103   0.916   0.911   5.875
  787SOL    HW1 3104   0.978   0.944   5.810
  787SOL    HW2 3105   0.964   0.842   5.921
  788SOL     OW 3106   1.478   1.621   5.617
  788SOL    HW1 3107   1.384   1.619   5.599
  788SOL    HW2 3108   1.518   1.626   5.530
  789SOL     OW 3109   0.373   1.302   7.078
  789SOL    HW1 3110   0.359   1.383   7.028
  789SOL    HW2 3111   0.296   1.248   7.059
  790SOL     OW 3112   1.607   1.264   6.876
  790SOL    HW1 3113   1.696   1.296   6.890
  790SOL    HW2 3114   1.551   1.340   6.892
  791SOL     OW 3115   1.057   1.103   6.294
  791SOL    HW1 3116   0.984   1.054   6.333
  791SOL    HW2 3117   1.119   1.035   6.268
  792SOL     OW 3118   1.014   0.249   6.555
  792SOL    HW1 3119   1.004   0.198   6.475
  792SOL    HW2 3120   1.010   0.183   6.625
  793SOL     OW 3121   0.606   1.488   6.068
  793SOL    HW1 3122   0.651   1.438   6.000
  793SOL    HW2 3123   0.531   1.528   6.023
  794SOL     OW 3124   1.720   0.393   6.959
  794SOL    HW1 3125   1.792   0.456   6.962
  794SOL    HW2 3126   1.754   0.321   6.905
  795SOL     OW 3127   0.254   1.341   5.879
  795SOL    HW1 3128   0.160   1.348   5.860
  795SOL    HW2 3129   0.263   1.380   5.966
  796SOL     OW 3130   0.107   0.999   7.304
  796SOL    HW1 3131   0.048   0.991   7.378
  796SOL    HW2 3132   0.194   0.980   7.341
  797SOL     OW 3133   0.694   0.252   7.086
  797SOL    HW1 3134   0.762   0.199   7.045
  797SOL    HW2 3135   0.722   0.261   7.177
  798SOL     OW 3136   0.088   0.322   5.613
  798SOL    HW1 3137   3.993   0.319   5.606
  798SOL    HW2 3138   0.113   0.405   5.571
  799SOL     OW 3139   1.427   0.853   6.983
  799SOL    HW1 3140   1.379   0.917   6.929
  799SOL    HW2 3141   1.518   0.860   6.953
  800SOL     OW 3142   0.037   0.168   5.871
  800SOL    HW1 3143   0.036   0.233   5.800
  800SOL    HW2 3144   0.114   0.190   5.923
  801SOL     OW 3145   1.165   1.339   5.702
  801SOL    HW1 3146   1.074   1.314   5.688
  801SOL    HW2 3147   1.174   1.349   5.797
  802SOL     OW 3148   0.621   0.829   7.022
  802SOL    HW1 3149   0.677   0.904   7.006
  802SOL    HW2 3150   0.681   0.755   7.031
  803SOL     OW 3151   0.716   0.563   7.293
  803SOL    HW1 3152   0.761   0.626   7.350
  803SOL    HW2 3153   0.745   0.477   7.325
  804SOL     OW 3154   1.455   1.191   7.214
  804SOL    HW1 3155   1.441   1.203   7.308
  804SOL    HW2 3156   1.537   1.236   7.196
  805SOL     OW 3157   0.378   1.743   7.143
  805SOL    HW1 3158   0.291   1.780   7.131
  805SOL    HW2 3159   0.363   1.661   7.190
  806SOL     OW 3160   1.671   0.877   6.843
  806SOL    HW1 3161   1.661   0.793   6.797
  806SOL    HW2 3162   1.655   0.943   6.776
  807SOL     OW 3163   1.224   0.336   6.028
  807SOL    HW1 3164   1.291   0.269   6.021
  807SOL    HW2 3165   1.243   0.380   6.111
  808SOL     OW 3166   0.591   0.738   6.256
  808SOL    HW1 3167   0.628   0.825   6.241
  808SOL    HW2 3168   0.523   0.728   6.190
  809SOL     OW 3169   1.752   0.382   7.229
  809SOL    HW1 3170   1.734   0.389   7.135
  809SOL    HW2 3171   1.693   0.314   7.260
  810SOL     OW 3172   1.741   0.932   7.099
  810SOL    HW1 3173   1.767   1.024   7.110
  810SOL    HW2 3174   1.726   0.922   7.005
  811SOL     OW 3175   0.871   1.366   5.626
  811SOL    HW1 3176   0.826   1.391   5.707
  811SOL    HW2 3177   0.879   1.447   5.577
  812SOL     OW 3178   0.662   1.789   6.526
  812SOL    HW1 3179   0.640   1.880   6.506
  812SOL    HW2 3180   0.758   1.787   6.522
  813SOL     OW 3181   0.869   0.968   6.440
  813SOL    HW1 3182   0.918   0.896   6.479
  813SOL    HW2 3183   0.831   1.014   6.514
  814SOL     OW 3184   1.081   0.992   5.676
  814SOL    HW1 3185   1.057   1.040   5.598
  814SOL    HW2 3186   1.154   0.936   5.649
  815SOL     OW 3187   0.225   1.304   7.442
  815SOL    HW1 3188   0.153   1.247   7.416
  815SOL    HW2 3189   0.212   1.317   7.536
  816SOL     OW 3190   0.120   1.279   6.307
  816SOL    HW1 3191   0.134   1.228   6.386
  816SOL    HW2 3192   0.107   1.214   6.238
  817SOL     OW 3193   0.678   1.405   7.214
  817SOL    HW1 3194   0.599   1.363   7.247
  817SOL    HW2 3195   0.677   1.493   7.254
  818SOL     OW 3196   1.812   0.183   6.825
  818SOL    HW1 3197   1.815   0.088   6.839
  818SOL    HW2 3198   1.827   0.193   6.731
  819SOL     OW 3199   0.444   0.437   6.117
  819SOL    HW1 3200   0.460   0.362   6.061
  819SOL    HW2 3201   0.389   0.404   6.187
  820SOL     OW 3202   0.333   0.557   6.879
  820SOL    HW1 3203   0.389   0.501   6.932
  820SOL    HW2 3204   0.348   0.528   6.789
  821SOL     OW 3205   0.828   1.581   6.264
  821SOL    HW1 3206   0.815   1.637   6.188
  821SOL    HW2 3207   0.754   1.520   6.263
  822SOL     OW 3208   1.460   0.253   6.696
  822SOL    HW1 3209   1.478   0.167   6.733
  822SOL    HW2 3210   1.406   0.297   6.761
  823SOL     OW 3211   1.004   0.028   6.732
  823SOL    HW1 3212   0.924   3.988   6.697
  823SOL    HW2 3213   1.065   3.955   6.741
  824SOL     OW 3214   0.772   1.333   5.901
  824SOL    HW1 3215   0.746   1.242   5.911
  824SOL    HW2 3216   0.854   1.341   5.950
  825SOL     OW 3217   0.622   1.556   6.871
  825SOL    HW1 3218   0.622   1.639   6.920
  825SOL    HW2 3219   0.710   1.550   6.834
  826SOL     OW 3220   1.310   0.074   5.749
  826SOL    HW1 3221   1.325   3.994   5.698
  826SOL    HW2 3222   1.226   0.061   5.791
  827SOL     OW 3223   1.282   0.457   6.271
  827SOL    HW1 3224   1.234   0.540   6.266
  827SOL    HW2 3225   1.285   0.437   6.365
  828SOL     OW 3226   1.588   0.210   6.454
  828SOL    HW1 3227   1.539   0.234   6.532
  828SOL    HW2 3228   1.588   0.290   6.400
  829SOL     OW 3229   0.047   1.049   5.827
  829SOL    HW1 3230   0.141   1.032   5.818
  829SOL    HW2 3231   0.011   0.966   5.857
  830SOL     OW 3232   0.887   1.658   5.924
  830SOL    HW1 3233   0.813   1.640   5.867
  830SOL    HW2 3234   0.858   1.729   5.980
  831SOL     OW 3235   0.232   0.627   7.565
  831SOL    HW1 3236   0.139   0.632   7.587
  831SOL    HW2 3237   0.235   0.598   7.474
  832SOL     OW 3238   0.224   0.289   8.431
  832SOL    HW1 3239   0.247   0.250   8.515
  832SOL    HW2 3240   0.129   0.277   8.424
  833SOL     OW 3241   0.018   0.385   8.084
  833SOL    HW1 3242   3.928   0.398   8.113
  833SOL    HW2 3243   0.026   0.291   8.068
  834SOL     OW 3244   0.580   1.288   8.638
  834SOL    HW1 3245   0.494   1.290   8.597
  834SOL    HW2 3246   0.594   1.378   8.670
  835SOL     OW 3247   1.543   1.497   8.158
  835SOL    HW1 3248   1.517   1.476   8.248
  835SOL    HW2 3249   1.461   1.499   8.109
  836SOL     OW 3250   1.133   0.698   8.146
  836SOL    HW1 3251   1.180   0.781   8.133
  836SOL    HW2 3252   1.085   0.711   8.228
  837SOL     OW 3253   1.766   0.618   7.673
  837SOL    HW1 3254   1.744   0.612   7.580
  837SOL    HW2 3255   1.753   0.529   7.706
  838SOL     OW 3256   0.755   1.140   8.490
  838SOL    HW1 3257   0.690   1.175   8.552
  838SOL    HW2 3258   0.789   1.217   8.445
  839SOL     OW 3259   0.870   0.771   9.272
  839SOL    HW1 3260   0.860   0.842   9.334
  839SOL    HW2 3261   0.893   0.814   9.189
  840SOL     OW 3262   0.685   1.002   8.094
  840SOL    HW1 3263   0.751   0.991   8.163
  840SOL    HW2 3264   0.616   1.054   8.136
  841SOL     OW 3265   0.711   1.149   9.264
  841SOL    HW1 3266   0.759   1.227   9.292
  841SOL    HW2 3267   0.630   1.183   9.226
  842SOL     OW 3268   0.351   1.401   8.527
  842SOL    HW1 3269   0.270   1.381   8.480
  842SOL    HW2 3270   0.399   1.459   8.467
  843SOL     OW 3271   1.450   1.488   8.806
  843SOL    HW1 3272   1.496   1.572   8.812
  843SOL    HW2 3273   1.384   1.491   8.875
  844SOL     OW 3274   0.457   0.408   8.944
  844SOL    HW1 3275   0.538   0.358   8.943
  844SOL    HW2 3276   0.388   0.342   8.947
  845SOL     OW 3277   1.612   0.451   8.183
  845SOL    HW1 3278   1.542   0.482   8.125
  845SOL    HW2 3279   1.631   0.525   8.241
  846SOL     OW 3280   0.221   1.718   7.906
  846SOL    HW1 3281   0.240   1.793   7.963
  846SOL    HW2 3282   0.298   1.710   7.850
  847SOL     OW 3283   1.137   1.342   9.142
  847SOL    HW1 3284   1.178   1.336   9.228
  847SOL    HW2 3285   1.085   1.262   9.134
  848SOL     OW 3286   0.248   1.450   7.988
  848SOL    HW1 3287   0.215   1.538   7.973
  848SOL    HW2 3288   0.179   1.407   8.039
  849SOL     OW 3289   0.247   1.066   8.332
  849SOL    HW1 3290   0.266   0.981   8.372
  849SOL    HW2 3291   0.194   1.112   8.398
  850SOL     OW 3292   0.611   1.792   8.876
  850SOL    HW1 3293   0.528   1.774   8.920
  850SOL    HW2 3294   0.633   1.881   8.901
  851SOL     OW 3295   0.577   0.986   7.586
  851SOL    HW1 3296   0.625   1.030   7.516
  851SOL    HW2 3297   0.619   1.015   7.667
  852SOL     OW 3298   1.581   0.140   8.904
  852SOL    HW1 3299   1.610   0.212   8.849
  852SOL    HW2 3300   1.549   0.181   8.984
  853SOL     OW 3301   0.140   0.651   8.018
  853SOL    HW1 3302   0.098   0.566   8.022
  853SOL    HW2 3303   0.102   0.701   8.090
  854SOL     OW 3304   0.044   1.590   7.586
  854SOL    HW1 3305   0.036   1.498   7.611
  854SOL    HW2 3306   3.961   1.629   7.614
  855SOL     OW 3307   1.687   0.917   8.087
  855SOL    HW1 3308   1.772   0.877   8.068
  855SOL    HW2 3309   1.668   0.970   8.009
  856SOL     OW 3310   1.647   1.108   7.873
  856SOL    HW1 3311   1.732   1.110   7.828
  856SOL    HW2 3312   1.658   1.167   7.948
  857SOL     OW 3313   0.140   0.756   9.037
  857SOL    HW1 3314   0.236   0.751   9.032
  857SOL    HW2 3315   0.122   0.844   9.068
  858SOL     OW 3316   0.612   1.386   8.185
  858SOL    HW1 3317   0.566   1.303   8.194
  858SOL    HW2 3318   0.597   1.413   8.094
  859SOL     OW 3319   1.285   1.235   8.872
  859SOL    HW1 3320   1.318   1.169   8.811
  859SOL    HW2 3321   1.345   1.230   8.947
  860SOL     OW 3322   0.820   0.004   7.964
  860SOL    HW1 3323   0.865   0.084   7.940
  860SOL    HW2 3324   0.727   0.027   7.964
  861SOL     OW 3325   0.184   0.950   8.726
  861SOL    HW1 3326   0.272   0.915   8.714
  861SOL    HW2 3327   0.132   0.909   8.658
  862SOL     OW 3328   1.532   0.995   7.647
  862SOL    HW1 3329   1.462   0.939   7.682
  862SOL    HW2 3330   1.575   1.031   7.725
  863SOL     OW 3331   1.187   1.809   9.072
  863SOL    HW1 3332   1.194   1.868   8.997
  863SOL    HW2 3333   1.202   1.722   9.035
  864SOL     OW 3334   0.344   0.251   9.286
  864SOL    HW1 3335   0.387   0.335   9.267
  864SOL    HW2 3336   0.253   0.275   9.304
  865SOL     OW 3337   1.468   1.418   8.405
  865SOL    HW1 3338   1.401   1.432   8.471
  865SOL    HW2 3339   1.456   1.327   8.377
  866SOL     OW 3340   1.566   1.730   8.027
  866SOL    HW1 3341   1.614   1.701   7.949
  866SOL    HW2 3342   1.573   1.656   8.088
  867SOL     OW 3343   0.596   0.717   7.713
  867SOL    HW1 3344   0.602   0.801   7.668
  867SOL    HW2 3345   0.533   0.733   7.784
  868SOL     OW 3346   1.275   0.368   8.389
  868SOL    HW1 3347   1.187   0.330   8.396
  868SOL    HW2 3348   1.332   0.307   8.435
  869SOL     OW 3349   0.794   0.616   8.901
  869SOL    HW1 3350   0.765   0.590   8.989
  869SOL    HW2 3351   0.756   0.551   8.843
  870SOL     OW 3352   1.392   0.476   9.125
  870SOL    HW1 3353   1.398   0.521   9.210
  870SOL    HW2 3354   1.450   0.401   9.134
  871SOL     OW 3355   0.953   0.887   9.032
  871SOL    HW1 3356   1.007   0.818   8.995
  871SOL    HW2 3357   0.904   0.922   8.957
  872SOL     OW 3358   0.992   0.403   8.687
  872SOL    HW1 3359   0.907   0.424   8.725
  872SOL    HW2 3360   0.971   0.374   8.598
  873SOL     OW 3361   1.052   0.699   7.873
  873SOL    HW1 3362   1.068   0.692   7.968
  873SOL    HW2 3363   0.969   0.652   7.860
  874SOL     OW 3364   0.081   0.828   8.239
  874SOL    HW1 3365   0.155   0.795   8.290
  874SOL    HW2 3366   0.101   0.921   8.224
  875SOL     OW 3367   0.130   1.862   9.025
  875SOL    HW1 3368   0.138   1.827   9.113
  875SOL    HW2 3369   0.038   1.850   9.002
  876SOL     OW 3370   0.894   0.352   7.646
  876SOL    HW1 3371   0.936   0.412   7.584
  876SOL    HW2 3372   0.893   0.268   7.601
  877SOL     OW 3373   1.708   0.575   9.277
  877SOL    HW1 3374   1.670   0.649   9.229
  877SOL    HW2 3375   1.733   0.512   9.210
  878SOL     OW 3376   1.381   1.142   7.989
  878SOL    HW1 3377   1.459   1.129   7.935
  878SOL    HW2 3378   1.326   1.200   7.937
  879SOL     OW 3379   0.561   0.195   8.329
  879SOL    HW1 3380   0.565   0.219   8.421
  879SOL    HW2 3381   0.547   0.278   8.283
  880SOL     OW 3382   0.999   1.438   7.924
  880SOL    HW1 3383   0.959   1.509   7.875
  880SOL    HW2 3384   0.979   1.457   8.015
  881SOL     OW 3385   0.365   1.819   8.318
  881SOL    HW1 3386   0.429   1.748   8.326
  881SOL    HW2 3387   0.415   1.898   8.334
  882SOL     OW 3388   1.800   1.049   8.320
  882SOL    HW1 3389   1.747   1.039   8.241
  882SOL    HW2 3390   1.737   1.057   8.391
  883SOL     OW 3391   1.225   1.538   8.962
  883SOL    HW1 3392   1.212   1.466   9.024
  883SOL    HW2 3393   1.160   1.524   8.894
  884SOL     OW 3394   0.311   0.954   7.689
  884SOL    HW1 3395   0.395   0.976   7.649
  884SOL    HW2 3396   0.298   0.861   7.669
  885SOL     OW 3397   1.479   0.747   8.178
  885SOL    HW1 3398   1.474   0.705   8.263
  885SOL    HW2 3399   1.557   0.802   8.182
  886SOL     OW 3400   0.468   1.261   9.185
  886SOL    HW1 3401   0.442   1.269   9.094
  886SOL    HW2 3402   0.385   1.264   9.234
  887SOL     OW 3403   1.056   1.774   7.640
  887SOL    HW1 3404   1.008   1.716   7.699
  887SOL    HW2 3405   1.142   1.732   7.630
  888SOL     OW 3406   0.200   0.294   8.947
  888SOL    HW1 3407   0.107   0.314   8.947
  888SOL    HW2 3408   0.209   0.223   9.011
  889SOL     OW 3409   0.466   1.738   7.765
  889SOL    HW1 3410   0.510   1.795   7.828
  889SOL    HW2 3411   0.537   1.704   7.711
  890SOL     OW 3412   1.440   0.165   7.854
  890SOL    HW1 3413   1.395   0.100   7.801
  890SOL    HW2 3414   1.512   0.118   7.895
  891SOL     OW 3415   0.251   1.791   8.679
  891SOL    HW1 3416   0.298   1.726   8.732
  891SOL    HW2 3417   0.249   1.753   8.591
  892SOL     OW 3418   0.937   1.696   8.346
  892SOL    HW1 3419   1.012   1.642   8.371
  892SOL    HW2 3420   0.895   1.647   8.275
  893SOL     OW 3421   0.397   0.695   7.919
  893SOL    HW1 3422   0.423   0.604   7.934
  893SOL    HW2 3423   0.305   0.698   7.945
  894SOL     OW 3424   1.529   0.229   9.175
  894SOL    HW1 3425   1.526   0.254   9.267
  894SOL    HW2 3426   1.510   0.135   9.175
  895SOL     OW 3427   0.645   0.131   7.551
  895SOL    HW1 3428   0.669   0.047   7.591
  895SOL    HW2 3429   0.583   0.107   7.481
  896SOL     OW 3430   0.777   0.283   9.215
  896SOL    HW1 3431   0.850   0.221   9.217
  896SOL    HW2 3432   0.720   0.256   9.286
  897SOL     OW 3433   0.876   1.522   8.642
  897SOL    HW1 3434   0.859   1.485   8.555
  897SOL    HW2 3435   0.945   1.467   8.679
  898SOL     OW 3436   1.340   0.587   8.879
  898SOL    HW1 3437   1.370   0.558   8.964
  898SOL    HW2 3438   1.375   0.676   8.869
  899SOL     OW 3439   0.815   1.393   8.389
  899SOL    HW1 3440   0.900   1.380   8.347
  899SOL    HW2 3441   0.752   1.396   8.317
  900SOL     OW 3442   0.930   0.512   8.348
  900SOL    HW1 3443   0.905   0.504   8.256
  900SOL    HW2 3444   0.955   0.423   8.374
  901SOL     OW 3445   0.546   0.056   7.936
  901SOL    HW1 3446   0.472   0.064   7.996
  901SOL    HW2 3447   0.548   0.140   7.890
  902SOL     OW 3448   1.417   1.190   7.482
  902SOL    HW1 3449   1.451   1.122   7.541
  902SOL    HW2 3450   1.337   1.220   7.524
  903SOL     OW 3451   0.344   0.038   7.646
  903SOL    HW1 3452   0.360   0.086   7.565
  903SOL    HW2 3453   0.430   0.036   7.689
  904SOL     OW 3454   0.942   0.249   7.909
  904SOL    HW1 3455   0.915   0.290   7.826
  904SOL    HW2 3456   1.037   0.253   7.908
  905SOL     OW 3457   1.079   0.683   8.906
  905SOL    HW1 3458   1.010   0.618   8.913
  905SOL    HW2 3459   1.160   0.632   8.901
  906SOL     OW 3460   1.225   1.560   8.254
  906SOL    HW1 3461   1.236   1.639   8.201
  906SOL    HW2 3462   1.292   1.569   8.323
  907SOL     OW 3463   0.466   1.150   8.184
  907SOL    HW1 3464   0.395   1.126   8.243
  907SOL    HW2 3465   0.431   1.135   8.096
  908SOL     OW 3466   1.021   0.543   7.476
  908SOL    HW1 3467   0.979   0.626   7.456
  908SOL    HW2 3468   1.086   0.566   7.543
  909SOL     OW 3469   0.080   0.573   8.841
  909SOL    HW1 3470   0.169   0.555   8.811
  909SOL    HW2 3471   0.090   0.644   8.904
  910SOL     OW 3472   0.572   0.231   8.608
  910SOL    HW1 3473   0.594   0.138   8.616
  910SOL    HW2 3474   0.481   0.237   8.637
  911SOL     OW 3475   0.871   0.461   8.086
  911SOL    HW1 3476   0.820   0.514   8.024
  911SOL    HW2 3477   0.891   0.381   8.039
  912SOL     OW 3478   0.996   0.040   8.229
  912SOL    HW1 3479   0.960   0.069   8.145
  912SOL    HW2 3480   1.007   3.945   8.219
  913SOL     OW 3481   1.438   1.164   8.304
  913SOL    HW1 3482   1.369   1.098   8.305
  913SOL    HW2 3483   1.462   1.171   8.211
  914SOL     OW 3484   1.465   0.607   8.423
  914SOL    HW1 3485   1.411   0.528   8.427
  914SOL    HW2 3486   1.525   0.600   8.497
  915SOL     OW 3487   1.848   0.815   7.835
  915SOL    HW1 3488   1.903   0.761   7.892
  915SOL    HW2 3489   1.817   0.755   7.768
  916SOL     OW 3490   0.487   1.420   7.607
  916SOL    HW1 3491   0.411   1.389   7.657
  916SOL    HW2 3492   0.473   1.386   7.519
  917SOL     OW 3493   1.676   1.266   8.086
  917SOL    HW1 3494   1.770   1.263   8.102
  917SOL    HW2 3495   1.648   1.349   8.125
  918SOL     OW 3496   1.395   0.575   7.517
  918SOL    HW1 3497   1.333   0.556   7.587
  918SOL    HW2 3498   1.481   0.559   7.556
  919SOL     OW 3499   0.557   0.271   7.766
  919SOL    HW1 3500   0.604   0.231   7.693
  919SOL    HW2 3501   0.528   0.356   7.733
  920SOL     OW 3502   1.750   1.236   9.019
  920SOL    HW1 3503   1.837   1.197   9.014
  920SOL    HW2 3504   1.765   1.326   9.048
  921SOL     OW 3505   1.056   1.354   8.782
  921SOL    HW1 3506   0.981   1.322   8.832
  921SOL    HW2 3507   1.132   1.312   8.823
  922SOL     OW 3508   1.604   1.624   9.104
  922SOL    HW1 3509   1.588   1.651   9.014
  922SOL    HW2 3510   1.687   1.576   9.101
  923SOL     OW 3511   1.132   1.207   8.552
  923SOL    HW1 3512   1.071   1.242   8.617
  923SOL    HW2 3513   1.099   1.238   8.468
  924SOL     OW 3514   1.625   1.096   8.524
  924SOL    HW1 3515   1.621   1.158   8.596
  924SOL    HW2 3516   1.548   1.115   8.471
  925SOL     OW 3517   0.913   0.114   8.849
  925SOL    HW1 3518   0.932   0.088   8.759
  925SOL    HW2 3519   0.993   0.156   8.880
  926SOL     OW 3520   0.984   1.115   9.171
  926SOL    HW1 3521   0.892   1.131   9.193
  926SOL    HW2 3522   0.982   1.037   9.116
  927SOL     OW 3523   0.706   1.060   7.819
  927SOL    HW1 3524   0.694   1.044   7.912
  927SOL    HW2 3525   0.783   1.007   7.796
  928SOL     OW 3526   0.422   0.817   8.701
  928SOL    HW1 3527   0.491   0.823   8.767
  928SOL    HW2 3528   0.387   0.728   8.710
  929SOL     OW 3529   1.266   0.375   8.725
  929SOL    HW1 3530   1.300   0.452   8.769
  929SOL    HW2 3531   1.178   0.400   8.695
  930SOL     OW 3532   0.065   1.580   8.794
  930SOL    HW1 3533   0.070   1.636   8.717
  930SOL    HW2 3534   0.156   1.567   8.820
  931SOL     OW 3535   0.370   1.103   7.931
  931SOL    HW1 3536   0.367   1.182   7.877
  931SOL    HW2 3537   0.370   1.031   7.868
  932SOL     OW 3538   0.554   0.535   8.306
  932SOL    HW1 3539   0.568   0.594   8.232
  932SOL    HW2 3540   0.620   0.561   8.370
  933SOL     OW 3541   1.241   1.342   7.842
  933SOL    HW1 3542   1.288   1.418   7.877
  933SOL    HW2 3543   1.150   1.354   7.871
  934SOL     OW 3544   1.281   1.459   8.594
  934SOL    HW1 3545   1.336   1.460   8.673
  934SOL    HW2 3546   1.225   1.382   8.605
  935SOL     OW 3547   1.576   0.633   7.934
  935SOL    HW1 3548   1.533   0.691   7.998
  935SOL    HW2 3549   1.623   0.693   7.875
  936SOL     OW 3550   0.345   1.527   8.766
  936SOL    HW1 3551   0.336   1.477   8.686
  936SOL    HW2 3552   0.440   1.542   8.774
  937SOL     OW 3553   0.416   0.738   9.049
  937SOL    HW1 3554   0.479   0.783   8.992
  937SOL    HW2 3555   0.454   0.651   9.062
  938SOL     OW 3556   1.603   0.780   9.133
  938SOL    HW1 3557   1.518   0.821   9.125
  938SOL    HW2 3558   1.656   0.821   9.064
  939SOL     OW 3559   1.012   0.132   9.226
  939SOL    HW1 3560   1.064   0.205   9.191
  939SOL    HW2 3561   1.001   0.072   9.153
  940SOL     OW 3562   0.482   0.036   9.213
  940SOL    HW1 3563   0.491   0.046   9.118
  940SOL    HW2 3564   0.421   0.105   9.239
  941SOL     OW 3565   0.585   0.874   8.480
  941SOL    HW1 3566   0.616   0.965   8.481
  941SOL    HW2 3567   0.529   0.867   8.557
  942SOL     OW 3568   1.354   0.859   8.475
  942SOL    HW1 3569   1.270   0.846   8.431
  942SOL    HW2 3570   1.397   0.774   8.468
  943SOL     OW 3571   1.202   0.536   7.707
  943SOL    HW1 3572   1.210   0.457   7.760
  943SOL    HW2 3573   1.158   0.599   7.764
  944SOL     OW 3574   0.311   0.212   8.688
  944SOL    HW1 3575   0.268   0.248   8.766
  944SOL    HW2 3576   0.296   0.118   8.694
  945SOL     OW 3577   0.060   1.306   8.729
  945SOL    HW1 3578   0.091   1.264   8.809
  945SOL    HW2 3579   0.052   1.398   8.751
  946SOL     OW 3580   0.725   0.634   8.502
  946SOL    HW1 3581   0.799   0.619   8.443
  946SOL    HW2 3582   0.695   0.722   8.480
  947SOL     OW 3583   1.736   0.959   9.303
  947SOL    HW1 3584   1.691   0.896   9.247
  947SOL    HW2 3585   1.677   0.974   9.376
  948SOL     OW 3586   0.330   0.055   8.102
  948SOL    HW1 3587   0.301   0.146   8.103
  948SOL    HW2 3588   0.292   0.017   8.182
  949SOL     OW 3589   1.606   0.391   7.829
  949SOL    HW1 3590   1.566   0.323   7.885
  949SOL    HW2 3591   1.587   0.473   7.874
  950SOL     OW 3592   1.029   0.759   8.407
  950SOL    HW1 3593   1.023   0.776   8.501
  950SOL    HW2 3594   1.002   0.668   8.397
  951SOL     OW 3595   0.982   1.567   9.167
  951SOL    HW1 3596   0.967   1.610   9.083
  951SOL    HW2 3597   1.025   1.484   9.144
  952SOL     OW 3598   1.848   1.495   9.058
  952SOL    HW1 3599   1.879   1.516   8.971
  952SOL    HW2 3600   1.921   1.517   9.116
  953SOL     OW 3601   0.353   0.922   9.247
  953SOL    HW1 3602   0.431   0.942   9.299
  953SOL    HW2 3603   0.382   0.854   9.185
  954SOL     OW 3604   1.506   0.273   7.583
  954SOL    HW1 3605   1.431   0.215   7.596
  954SOL    HW2 3606   1.518   0.314   7.669
  955SOL     OW 3607   1.290   0.827   7.479
  955SOL    HW1 3608   1.332   0.741   7.481
  955SOL    HW2 3609   1.320   0.866   7.397
  956SOL     OW 3610   1.064   1.334   8.304
  956SOL    HW1 3611   1.069   1.262   8.241
  956SOL    HW2 3612   1.126   1.399   8.270
  957SOL     OW 3613   0.313   0.803   8.398
  957SOL    HW1 3614   0.407   0.819   8.392
  957SOL    HW2 3615   0.306   0.713   8.430
  958SOL     OW 3616   0.338   0.528   8.463
  958SOL    HW1 3617   0.297   0.444   8.445
  958SOL    HW2 3618   0.413   0.532   8.404
  959SOL     OW 3619   1.133   0.381   9.145
  959SOL    HW1 3620   1.085   0.436   9.206
  959SOL    HW2 3621   1.220   0.420   9.140
  960SOL     OW 3622   1.151   0.225   8.930
  960SOL    HW1 3623   1.142   0.280   9.008
  960SOL    HW2 3624   1.176   0.286   8.860
  961SOL     OW 3625   0.000   1.318   7.631
  961SOL    HW1 3626   3.906   1.334   7.634
  961SOL    HW2 3627   0.009   1.224   7.649
  962SOL     OW 3628   0.078   1.800   8.337
  962SOL    HW1 3629   0.083   1.705   8.340
  962SOL    HW2 3630   0.169   1.829   8.340
  963SOL     OW 3631   0.501   1.571   8.359
  963SOL    HW1 3632   0.571   1.632   8.384
  963SOL    HW2 3633   0.544   1.509   8.301
  964SOL     OW 3634   0.979   0.790   8.673
  964SOL    HW1 3635   1.035   0.769   8.747
  964SOL    HW2 3636   0.894   0.751   8.695
  965SOL     OW 3637   0.035   0.573   8.561
  965SOL    HW1 3638   0.098   0.521   8.510
  965SOL    HW2 3639   0.061   0.559   8.652
  966SOL     OW 3640   0.211   0.516   9.170
  966SOL    HW1 3641   0.258   0.478   9.096
  966SOL    HW2 3642   0.164   0.590   9.132
  967SOL     OW 3643   1.378   0.937   9.105
  967SOL    HW1 3644   1.400   1.030   9.102
  967SOL    HW2 3645   1.375   0.910   9.013
  968SOL     OW 3646   0.818   0.572   7.810
  968SOL    HW1 3647   0.824   0.496   7.752
  968SOL    HW2 3648   0.743   0.621   7.777
  969SOL     OW 3649   1.640   0.602   8.632
  969SOL    HW1 3650   1.631   0.541   8.705
  969SOL    HW2 3651   1.728   0.584   8.597
  970SOL     OW 3652   0.300   1.544   9.173
  970SOL    HW1 3653   0.251   1.614   9.218
  970SOL    HW2 3654   0.268   1.463   9.214
  971SOL     OW 3655   0.709   0.454   8.704
  971SOL    HW1 3656   0.659   0.376   8.679
  971SOL    HW2 3657   0.699   0.514   8.630
  972SOL     OW 3658   0.926   1.679   8.917
  972SOL    HW1 3659   0.901   1.642   8.833
  972SOL    HW2 3660   0.920   1.774   8.904
  973SOL     OW 3661   0.454   0.492   7.646
  973SOL    HW1 3662   0.518   0.561   7.662
  973SOL    HW2 3663   0.374   0.539   7.622
  974SOL     OW 3664   0.156   1.135   8.922
  974SOL    HW1 3665   0.157   1.084   9.003
  974SOL    HW2 3666   0.171   1.070   8.853
  975SOL     OW 3667   1.323   1.045   8.670
  975SOL    HW1 3668   1.346   0.982   8.602
  975SOL    HW2 3669   1.255   1.100   8.630
  976SOL     OW 3670   1.313   0.856   7.754
  976SOL    HW1 3671   1.237   0.827   7.803
  976SOL    HW2 3672   1.289   0.845   7.662
  977SOL     OW 3673   1.244   1.735   8.556
  977SOL    HW1 3674   1.327   1.756   8.513
  977SOL    HW2 3675   1.250   1.642   8.577
  978SOL     OW 3676   0.077   1.216   8.476
  978SOL    HW1 3677   0.083   1.242   8.568
  978SOL    HW2 3678   3.984   1.226   8.454
  979SOL     OW 3679   0.680   1.668   9.182
  979SOL    HW1 3680   0.621   1.743   9.173
  979SOL    HW2 3681   0.745   1.681   9.113
  980SOL     OW 3682   1.713   0.125   7.935
  980SOL    HW1 3683   1.792   0.134   7.882
  980SOL    HW2 3684   1.705   0.030   7.949
  981SOL     OW 3685   1.351   1.568   7.938
  981SOL    HW1 3686   1.415   1.588   7.870
  981SOL    HW2 3687   1.314   1.653   7.962
  982SOL     OW 3688   0.175   1.764   9.278
  982SOL    HW1 3689   0.118   1.713   9.336
  982SOL    HW2 3690   0.215   1.829   9.335
  983SOL     OW 3691   1.278   0.928   8.119
  983SOL    HW1 3692   1.351   0.867   8.129
  983SOL    HW2 3693   1.313   0.999   8.066
  984SOL     OW 3694   0.810   1.274   8.876
  984SOL    HW1 3695   0.782   1.314   8.958
  984SOL    HW2 3696   0.739   1.291   8.814
  985SOL     OW 3697   0.668   1.621   7.604
  985SOL    HW1 3698   0.682   1.634   7.510
  985SOL    HW2 3699   0.613   1.544   7.610
  986SOL     OW 3700   1.581   1.720   8.839
  986SOL    HW1 3701   1.651   1.714   8.773
  986SOL    HW2 3702   1.568   1.813   8.852
  987SOL     OW 3703   1.839   0.177   8.414
  987SOL    HW1 3704   1.871   0.110   8.354
  987SOL    HW2 3705   1.751   0.197   8.383
  988SOL     OW 3706   0.274   0.322   8.162
  988SOL    HW1 3707   0.189   0.358   8.137
  988SOL    HW2 3708   0.266   0.306   8.256
  989SOL     OW 3709   0.823   1.005   8.821
  989SOL    HW1 3710   0.867   1.000   8.736
  989SOL    HW2 3711   0.822   1.099   8.842
  990SOL     OW 3712   0.915   0.911   7.741
  990SOL    HW1 3713   0.975   0.942   7.672
  990SOL    HW2 3714   0.964   0.841   7.785
  991SOL     OW 3715   0.374   1.303   8.940
  991SOL    HW1 3716   0.359   1.383   8.889
  991SOL    HW2 3717   0.297   1.248   8.922
  992SOL     OW 3718   1.607   1.280   8.726
  992SOL    HW1 3719   1.670   1.269   8.798
  992SOL    HW2 3720   1.546   1.347   8.757
  993SOL     OW 3721   1.056   1.108   8.156
  993SOL    HW1 3722   0.984   1.057   8.193
  993SOL    HW2 3723   1.119   1.042   8.126
  994SOL     OW 3724   1.014   0.249   8.418
  994SOL    HW1 3725   1.004   0.199   8.337
  994SOL    HW2 3726   1.010   0.184   8.487
  995SOL     OW 3727   0.603   1.486   7.931
  995SOL    HW1 3728   0.651   1.438   7.864
  995SOL    HW2 3729   0.533   1.529   7.883
  996SOL     OW 3730   1.720   0.393   8.820
  996SOL    HW1 3731   1.793   0.456   8.824
  996SOL    HW2 3732   1.754   0.322   8.766
  997SOL     OW 3733   0.253   1.341   7.741
  997SOL    HW1 3734   0.160   1.349   7.722
  997SOL    HW2 3735   0.264   1.380   7.828
  998SOL     OW 3736   0.107   0.999   9.166
  998SOL    HW1 3737   0.047   0.991   9.240
  998SOL    HW2 3738   0.194   0.981   9.203
  999SOL     OW 3739   0.694   0.252   8.949
  999SOL    HW1 3740   0.762   0.199   8.907
  999SOL    HW2 3741   0.722   0.261   9.039
 1000SOL     OW 3742   0.088   0.322   7.475
 1000SOL    HW1 3743   3.993   0.319   7.468
 1000SOL    HW2 3744   0.113   0.404   7.433
 1001SOL     OW 3745   1.427   0.857   8.846
 1001SOL    HW1 3746   1.379   0.919   8.792
 1001SOL    HW2 3747   1.516   0.859   8.812
 1002SOL     OW 3748   0.037   0.168   7.732
 1002SOL    HW1 3749   0.037   0.232   7.662
 1002SOL    HW2 3750   0.114   0.190   7.785
 1003SOL     OW 3751   1.186   1.326   7.567
 1003SOL    HW1 3752   1.091   1.315   7.563
 1003SOL    HW2 3753   1.206   1.332   7.660
 1004SOL     OW 3754   0.620   0.829   8.885
 1004SOL    HW1 3755   0.677   0.904   8.869
 1004SOL    HW2 3756   0.681   0.755   8.893
 1005SOL     OW 3757   1.490   1.780   8.423
 1005SOL    HW1 3758   1.515   1.854   8.367
 1005SOL    HW2 3759   1.572   1.734   8.441
 1006SOL     OW 3760   0.717   0.562   9.155
 1006SOL    HW1 3761   0.761   0.624   9.213
 1006SOL    HW2 3762   0.745   0.476   9.186
 1007SOL     OW 3763   1.472   1.198   9.079
 1007SOL    HW1 3764   1.460   1.212   9.173
 1007SOL    HW2 3765   1.566   1.213   9.064
 1008SOL     OW 3766   0.379   1.743   9.005
 1008SOL    HW1 3767   0.291   1.781   8.992
 1008SOL    HW2 3768   0.363   1.661   9.052
 1009SOL     OW 3769   1.667   0.881   8.704
 1009SOL    HW1 3770   1.663   0.795   8.660
 1009SOL    HW2 3771   1.658   0.944   8.632
 1010SOL     OW 3772   1.223   0.335   7.891
 1010SOL    HW1 3773   1.290   0.268   7.884
 1010SOL    HW2 3774   1.242   0.380   7.974
 1011SOL     OW 3775   0.590   0.738   8.119
 1011SOL    HW1 3776   0.628   0.825   8.103
 1011SOL    HW2 3777   0.523   0.728   8.052
 1012SOL     OW 3778   1.751   0.383   9.091
 1012SOL    HW1 3779   1.733   0.389   8.997
 1012SOL    HW2 3780   1.694   0.313   9.122
 1013SOL     OW 3781   1.745   0.934   8.960
 1013SOL    HW1 3782   1.738   1.028   8.973
 1013SOL    HW2 3783   1.729   0.921   8.867
 1014SOL     OW 3784   0.861   1.368   7.483
 1014SOL    HW1 3785   0.824   1.403   7.564
 1014SOL    HW2 3786   0.883   1.446   7.431
 1015SOL     OW 3787   0.663   1.789   8.391
 1015SOL    HW1 3788   0.642   1.879   8.368
 1015SOL    HW2 3789   0.758   1.783   8.381
 1016SOL     OW 3790   0.868   0.968   8.302
 1016SOL    HW1 3791   0.918   0.896   8.340
 1016SOL    HW2 3792   0.832   1.015   8.377
 1017SOL     OW 3793   1.074   0.984   7.536
 1017SOL    HW1 3794   1.057   1.040   7.461
 1017SOL    HW2 3795   1.152   0.934   7.511
 1018SOL     OW 3796   1.859   1.525   8.274
 1018SOL    HW1 3797   1.773   1.566   8.259
 1018SOL    HW2 3798   1.860   1.506   8.367
 1019SOL     OW 3799   0.226   1.304   9.304
 1019SOL    HW1 3800   0.154   1.247   9.277
 1019SOL    HW2 3801   0.212   1.317   9.398
 1020SOL     OW 3802   0.118   1.278   8.169
 1020SOL    HW1 3803   0.134   1.227   8.248
 1020SOL    HW2 3804   0.106   1.213   8.100
 1021SOL     OW 3805   0.681   1.405   9.077
 1021SOL    HW1 3806   0.602   1.362   9.108
 1021SOL    HW2 3807   0.677   1.493   9.115
 1022SOL     OW 3808   1.812   0.183   8.686
 1022SOL    HW1 3809   1.814   0.089   8.702
 1022SOL    HW2 3810   1.826   0.193   8.592
 1023SOL     OW 3811   0.444   0.437   7.979
 1023SOL    HW1 3812   0.461   0.362   7.923
 1023SOL    HW2 3813   0.388   0.403   8.049
 1024SOL     OW 3814   1.700   1.504   8.553
 1024SOL    HW1 3815   1.622   1.477   8.504
 1024SOL    HW2 3816   1.718   1.430   8.611
 1025SOL     OW 3817   0.333   0.557   8.741
 1025SOL    HW1 3818   0.389   0.501   8.794
 1025SOL    HW2 3819   0.348   0.528   8.651
 1026SOL     OW 3820   0.829   1.577   8.123
 1026SOL    HW1 3821   0.817   1.636   8.048
 1026SOL    HW2 3822   0.752   1.520   8.122
 1027SOL     OW 3823   1.461   0.254   8.559
 1027SOL    HW1 3824   1.477   0.166   8.595
 1027SOL    HW2 3825   1.405   0.296   8.624
 1028SOL     OW 3826   1.004   0.028   8.595
 1028SOL    HW1 3827   0.924   3.990   8.558
 1028SOL    HW2 3828   1.064   3.955   8.602
 1029SOL     OW 3829   0.769   1.331   7.768
 1029SOL    HW1 3830   0.740   1.240   7.771
 1029SOL    HW2 3831   0.853   1.331   7.813
 1030SOL     OW 3832   0.620   1.556   8.734
 1030SOL    HW1 3833   0.622   1.638   8.783
 1030SOL    HW2 3834   0.708   1.549   8.696
 1031SOL     OW 3835   1.312   0.073   7.615
 1031SOL    HW1 3836   1.322   3.997   7.557
 1031SOL    HW2 3837   1.226   0.061   7.656
 1032SOL     OW 3838   1.282   0.457   8.133
 1032SOL    HW1 3839   1.235   0.540   8.128
 1032SOL    HW2 3840   1.285   0.437   8.227
 1033SOL     OW 3841   1.588   0.210   8.316
 1033SOL    HW1 3842   1.539   0.234   8.395
 1033SOL    HW2 3843   1.588   0.289   8.262
 1034SOL     OW 3844   0.047   1.049   7.688
 1034SOL    HW1 3845   0.141   1.033   7.679
 1034SOL    HW2 3846   0.012   0.966   7.721
 1035SOL     OW 3847   0.870   1.643   7.802
 1035SOL    HW1 3848   0.800   1.632   7.737
 1035SOL    HW2 3849   0.849   1.724   7.847
 1036SOL     OW 3850   0.232   0.627   9.427
 1036SOL    HW1 3851   0.139   0.632   9.449
 1036SOL    HW2 3852   0.235   0.598   9.336
 1037SOL     OW 3853   0.224   0.289  10.293
 1037SOL    HW1 3854   0.247   0.250  10.377
 1037SOL    HW2 3855   0.129   0.277  10.286
 1038SOL     OW 3856   0.018   0.385   9.945
 1038SOL    HW1 3857   3.928   0.398   9.974
 1038SOL    HW2 3858   0.025   0.291   9.931
 1039SOL     OW 3859   0.580   1.288  10.500
 1039SOL    HW1 3860   0.494   1.290  10.459
 1039SOL    HW2 3861   0.594   1.377  10.532
 1040SOL     OW 3862   1.543   1.496  10.019
 1040SOL    HW1 3863   1.515   1.476  10.108
 1040SOL    HW2 3864   1.463   1.491   9.966
 1041SOL     OW 3865   1.133   0.698  10.007
 1041SOL    HW1 3866   1.180   0.780   9.995
 1041SOL    HW2 3867   1.085   0.711  10.090
 1042SOL     OW 3868   1.766   0.619   9.535
 1042SOL    HW1 3869   1.744   0.611   9.442
 1042SOL    HW2 3870   1.752   0.531   9.570
 1043SOL     OW 3871   0.754   1.139  10.352
 1043SOL    HW1 3872   0.690   1.175  10.413
 1043SOL    HW2 3873   0.789   1.216  10.307
 1044SOL     OW 3874   0.870   0.771  11.133
 1044SOL    HW1 3875   0.860   0.842  11.196
 1044SOL    HW2 3876   0.893   0.814  11.051
 1045SOL     OW 3877   0.685   1.003   9.956
 1045SOL    HW1 3878   0.751   0.991  10.024
 1045SOL    HW2 3879   0.616   1.054   9.998
 1046SOL     OW 3880   0.711   1.149  11.126
 1046SOL    HW1 3881   0.759   1.227  11.154
 1046SOL    HW2 3882   0.630   1.183  11.088
 1047SOL     OW 3883   0.351   1.401  10.389
 1047SOL    HW1 3884   0.270   1.381  10.342
 1047SOL    HW2 3885   0.399   1.459  10.329
 1048SOL     OW 3886   1.451   1.487  10.668
 1048SOL    HW1 3887   1.496   1.572  10.672
 1048SOL    HW2 3888   1.385   1.492  10.737
 1049SOL     OW 3889   0.457   0.408  10.806
 1049SOL    HW1 3890   0.538   0.358  10.805
 1049SOL    HW2 3891   0.388   0.341  10.809
 1050SOL     OW 3892   1.612   0.451  10.045
 1050SOL    HW1 3893   1.542   0.482   9.988
 1050SOL    HW2 3894   1.631   0.525  10.103
 1051SOL     OW 3895   0.221   1.718   9.768
 1051SOL    HW1 3896   0.240   1.793   9.825
 1051SOL    HW2 3897   0.298   1.711   9.712
 1052SOL     OW 3898   1.137   1.342  11.004
 1052SOL    HW1 3899   1.178   1.336  11.090
 1052SOL    HW2 3900   1.085   1.262  10.996
 1053SOL     OW 3901   0.249   1.450   9.850
 1053SOL    HW1 3902   0.215   1.538   9.835
 1053SOL    HW2 3903   0.182   1.406   9.901
 1054SOL     OW 3904   0.247   1.066  10.194
 1054SOL    HW1 3905   0.267   0.981  10.234
 1054SOL    HW2 3906   0.194   1.112  10.260
 1055SOL     OW 3907   0.611   1.792  10.737
 1055SOL    HW1 3908   0.528   1.774  10.782
 1055SOL    HW2 3909   0.633   1.882  10.763
 1056SOL     OW 3910   0.577   0.986   9.448
 1056SOL    HW1 3911   0.626   1.030   9.379
 1056SOL    HW2 3912   0.619   1.015   9.529
 1057SOL     OW 3913   1.580   0.140  10.766
 1057SOL    HW1 3914   1.610   0.212  10.711
 1057SOL    HW2 3915   1.549   0.181  10.846
 1058SOL     OW 3916   0.140   0.651   9.880
 1058SOL    HW1 3917   0.097   0.566   9.884
 1058SOL    HW2 3918   0.102   0.701   9.952
 1059SOL     OW 3919   0.044   1.590   9.449
 1059SOL    HW1 3920   0.036   1.498   9.473
 1059SOL    HW2 3921   3.961   1.629   9.476
 1060SOL     OW 3922   1.685   0.913   9.949
 1060SOL    HW1 3923   1.772   0.877   9.933
 1060SOL    HW2 3924   1.667   0.968   9.873
 1061SOL     OW 3925   1.648   1.106   9.739
 1061SOL    HW1 3926   1.735   1.109   9.698
 1061SOL    HW2 3927   1.655   1.166   9.813
 1062SOL     OW 3928   0.140   0.756  10.899
 1062SOL    HW1 3929   0.236   0.751  10.894
 1062SOL    HW2 3930   0.122   0.844  10.930
 1063SOL     OW 3931   0.613   1.387  10.046
 1063SOL    HW1 3932   0.567   1.303  10.055
 1063SOL    HW2 3933   0.597   1.413   9.955
 1064SOL     OW 3934   1.285   1.235  10.735
 1064SOL    HW1 3935   1.317   1.169  10.673
 1064SOL    HW2 3936   1.345   1.230  10.809
 1065SOL     OW 3937   0.820   0.003   9.826
 1065SOL    HW1 3938   0.865   0.084   9.802
 1065SOL    HW2 3939   0.727   0.027   9.826
 1066SOL     OW 3940   0.184   0.950  10.588
 1066SOL    HW1 3941   0.272   0.915  10.576
 1066SOL    HW2 3942   0.132   0.908  10.520
 1067SOL     OW 3943   1.531   0.995   9.510
 1067SOL    HW1 3944   1.462   0.939   9.543
 1067SOL    HW2 3945   1.574   1.030   9.588
 1068SOL     OW 3946   1.186   1.809  10.934
 1068SOL    HW1 3947   1.194   1.868  10.859
 1068SOL    HW2 3948   1.202   1.722  10.897
 1069SOL     OW 3949   0.344   0.251  11.148
 1069SOL    HW1 3950   0.387   0.335  11.129
 1069SOL    HW2 3951   0.253   0.275  11.166
 1070SOL     OW 3952   1.468   1.420  10.268
 1070SOL    HW1 3953   1.398   1.435  10.332
 1070SOL    HW2 3954   1.456   1.328  10.242
 1071SOL     OW 3955   1.581   1.715   9.867
 1071SOL    HW1 3956   1.585   1.673   9.781
 1071SOL    HW2 3957   1.582   1.642   9.929
 1072SOL     OW 3958   0.596   0.717   9.576
 1072SOL    HW1 3959   0.601   0.801   9.530
 1072SOL    HW2 3960   0.533   0.732   9.646
 1073SOL     OW 3961   1.275   0.368  10.251
 1073SOL    HW1 3962   1.187   0.329  10.258
 1073SOL    HW2 3963   1.332   0.307  10.296
 1074SOL     OW 3964   1.566   1.648   9.605
 1074SOL    HW1 3965   1.644   1.701   9.588
 1074SOL    HW2 3966   1.531   1.629   9.518
 1075SOL     OW 3967   0.794   0.616  10.763
 1075SOL    HW1 3968   0.765   0.590  10.851
 1075SOL    HW2 3969   0.756   0.550  10.705
 1076SOL     OW 3970   1.392   0.476  10.987
 1076SOL    HW1 3971   1.398   0.521  11.071
 1076SOL    HW2 3972   1.450   0.401  10.996
 1077SOL     OW 3973   0.952   0.887  10.894
 1077SOL    HW1 3974   1.007   0.818  10.857
 1077SOL    HW2 3975   0.904   0.922  10.819
 1078SOL     OW 3976   0.992   0.403  10.549
 1078SOL    HW1 3977   0.907   0.424  10.587
 1078SOL    HW2 3978   0.971   0.374  10.460
 1079SOL     OW 3979   1.052   0.699   9.735
 1079SOL    HW1 3980   1.069   0.692   9.829
 1079SOL    HW2 3981   0.969   0.653   9.722
 1080SOL     OW 3982   0.081   0.828  10.100
 1080SOL    HW1 3983   0.155   0.795  10.152
 1080SOL    HW2 3984   0.101   0.921  10.087
 1081SOL     OW 3985   0.130   1.862  10.887
 1081SOL    HW1 3986   0.138   1.827  10.975
 1081SOL    HW2 3987   0.038   1.850  10.864
 1082SOL     OW 3988   0.894   0.352   9.508
 1082SOL    HW1 3989   0.936   0.412   9.446
 1082SOL    HW2 3990   0.893   0.267   9.463
 1083SOL     OW 3991   1.708   0.575  11.139
 1083SOL    HW1 3992   1.670   0.649  11.091
 1083SOL    HW2 3993   1.733   0.512  11.072
 1084SOL     OW 3994   1.378   1.141   9.850
 1084SOL    HW1 3995   1.458   1.131   9.799
 1084SOL    HW2 3996   1.324   1.202   9.799
 1085SOL     OW 3997   0.561   0.195  10.191
 1085SOL    HW1 3998   0.565   0.219  10.283
 1085SOL    HW2 3999   0.547   0.278  10.145
 1086SOL     OW 4000   0.998   1.440   9.779
 1086SOL    HW1 4001   0.967   1.517   9.730
 1086SOL    HW2 4002   0.985   1.463   9.871
 1087SOL     OW 4003   0.365   1.819  10.180
 1087SOL    HW1 4004   0.429   1.748  10.188
 1087SOL    HW2 4005   0.416   1.898  10.196
 1088SOL     OW 4006   1.801   1.048  10.182
 1088SOL    HW1 4007   1.746   1.044  10.103
 1088SOL    HW2 4008   1.738   1.057  10.254
 1089SOL     OW 4009   1.226   1.538  10.824
 1089SOL    HW1 4010   1.212   1.466  10.886
 1089SOL    HW2 4011   1.161   1.524  10.755
 1090SOL     OW 4012   0.310   0.954   9.552
 1090SOL    HW1 4013   0.394   0.976   9.511
 1090SOL    HW2 4014   0.298   0.861   9.531
 1091SOL     OW 4015   1.478   0.746  10.039
 1091SOL    HW1 4016   1.475   0.705  10.126
 1091SOL    HW2 4017   1.556   0.802  10.042
 1092SOL     OW 4018   0.468   1.261  11.047
 1092SOL    HW1 4019   0.442   1.269  10.956
 1092SOL    HW2 4020   0.385   1.264  11.096
 1093SOL     OW 4021   1.122   1.778   9.539
 1093SOL    HW1 4022   1.049   1.737   9.585
 1093SOL    HW2 4023   1.145   1.715   9.471
 1094SOL     OW 4024   0.200   0.294  10.809
 1094SOL    HW1 4025   0.107   0.314  10.808
 1094SOL    HW2 4026   0.209   0.223  10.873
 1095SOL     OW 4027   1.627   1.381   9.397
 1095SOL    HW1 4028   1.584   1.464   9.378
 1095SOL    HW2 4029   1.560   1.315   9.379
 1096SOL     OW 4030   0.466   1.739   9.627
 1096SOL    HW1 4031   0.509   1.796   9.690
 1096SOL    HW2 4032   0.538   1.703   9.574
 1097SOL     OW 4033   1.441   0.166   9.715
 1097SOL    HW1 4034   1.394   0.099   9.665
 1097SOL    HW2 4035   1.512   0.118   9.758
 1098SOL     OW 4036   0.251   1.791  10.541
 1098SOL    HW1 4037   0.298   1.726  10.594
 1098SOL    HW2 4038   0.249   1.753  10.453
 1099SOL     OW 4039   0.938   1.699  10.208
 1099SOL    HW1 4040   1.017   1.649  10.229
 1099SOL    HW2 4041   0.895   1.649  10.139
 1100SOL     OW 4042   0.397   0.694   9.781
 1100SOL    HW1 4043   0.423   0.604   9.796
 1100SOL    HW2 4044   0.305   0.698   9.807
 1101SOL     OW 4045   1.529   0.229  11.037
 1101SOL    HW1 4046   1.526   0.254  11.129
 1101SOL    HW2 4047   1.510   0.135  11.037
 1102SOL     OW 4048   0.645   0.130   9.412
 1102SOL    HW1 4049   0.668   0.047   9.453
 1102SOL    HW2 4050   0.583   0.107   9.343
 1103SOL     OW 4051   0.777   0.283  11.077
 1103SOL    HW1 4052   0.850   0.221  11.079
 1103SOL    HW2 4053   0.720   0.256  11.148
 1104SOL     OW 4054   0.875   1.522  10.504
 1104SOL    HW1 4055   0.860   1.485  10.417
 1104SOL    HW2 4056   0.946   1.468  10.541
 1105SOL     OW 4057   1.340   0.587  10.740
 1105SOL    HW1 4058   1.370   0.558  10.826
 1105SOL    HW2 4059   1.375   0.676  10.731
 1106SOL     OW 4060   0.816   1.393  10.251
 1106SOL    HW1 4061   0.901   1.381  10.209
 1106SOL    HW2 4062   0.753   1.395  10.179
 1107SOL     OW 4063   0.930   0.512  10.211
 1107SOL    HW1 4064   0.906   0.504  10.118
 1107SOL    HW2 4065   0.956   0.423  10.236
 1108SOL     OW 4066   0.546   0.056   9.798
 1108SOL    HW1 4067   0.472   0.063   9.858
 1108SOL    HW2 4068   0.548   0.140   9.752
 1109SOL     OW 4069   1.428   1.198   9.351
 1109SOL    HW1 4070   1.458   1.123   9.401
 1109SOL    HW2 4071   1.342   1.220   9.388
 1110SOL     OW 4072   0.344   0.038   9.508
 1110SOL    HW1 4073   0.360   0.086   9.427
 1110SOL    HW2 4074   0.430   0.036   9.552
 1111SOL     OW 4075   0.942   0.249   9.771
 1111SOL    HW1 4076   0.915   0.290   9.688
 1111SOL    HW2 4077   1.037   0.253   9.770
 1112SOL     OW 4078   1.079   0.683  10.768
 1112SOL    HW1 4079   1.010   0.618  10.775
 1112SOL    HW2 4080   1.160   0.632  10.763
 1113SOL     OW 4081   1.223   1.570  10.103
 1113SOL    HW1 4082   1.236   1.637  10.037
 1113SOL    HW2 4083   1.291   1.587  10.169
 1114SOL     OW 4084   0.466   1.151  10.046
 1114SOL    HW1 4085   0.395   1.126  10.104
 1114SOL    HW2 4086   0.432   1.135   9.958
 1115SOL     OW 4087   1.261   1.790   9.922
 1115SOL    HW1 4088   1.312   1.850   9.867
 1115SOL    HW2 4089   1.196   1.846   9.965
 1116SOL     OW 4090   1.022   0.543   9.338
 1116SOL    HW1 4091   0.979   0.626   9.319
 1116SOL    HW2 4092   1.086   0.565   9.406
 1117SOL     OW 4093   0.080   0.573  10.703
 1117SOL    HW1 4094   0.169   0.555  10.673
 1117SOL    HW2 4095   0.090   0.644  10.766
 1118SOL     OW 4096   0.572   0.231  10.469
 1118SOL    HW1 4097   0.594   0.138  10.478
 1118SOL    HW2 4098   0.481   0.237  10.499
 1119SOL     OW 4099   0.871   0.461   9.949
 1119SOL    HW1 4100   0.820   0.514   9.887
 1119SOL    HW2 4101   0.891   0.381   9.901
 1120SOL     OW 4102   0.996   0.040  10.091
 1120SOL    HW1 4103   0.960   0.069  10.007
 1120SOL    HW2 4104   1.007   3.945  10.081
 1121SOL     OW 4105   1.439   1.164  10.169
 1121SOL    HW1 4106   1.369   1.099  10.165
 1121SOL    HW2 4107   1.467   1.174  10.078
 1122SOL     OW 4108   1.465   0.607  10.285
 1122SOL    HW1 4109   1.411   0.528  10.290
 1122SOL    HW2 4110   1.525   0.600  10.359
 1123SOL     OW 4111   1.845   0.818   9.696
 1123SOL    HW1 4112   1.902   0.766   9.753
 1123SOL    HW2 4113   1.815   0.757   9.629
 1124SOL     OW 4114   0.487   1.421   9.470
 1124SOL    HW1 4115   0.412   1.389   9.520
 1124SOL    HW2 4116   0.472   1.389   9.381
 1125SOL     OW 4117   1.672   1.258   9.959
 1125SOL    HW1 4118   1.767   1.259   9.971
 1125SOL    HW2 4119   1.644   1.347   9.982
 1126SOL     OW 4120   1.395   0.576   9.379
 1126SOL    HW1 4121   1.332   0.556   9.449
 1126SOL    HW2 4122   1.480   0.557   9.418
 1127SOL     OW 4123   0.557   0.271   9.628
 1127SOL    HW1 4124   0.604   0.231   9.555
 1127SOL    HW2 4125   0.528   0.356   9.595
 1128SOL     OW 4126   1.750   1.236  10.881
 1128SOL    HW1 4127   1.837   1.198  10.876
 1128SOL    HW2 4128   1.765   1.326  10.910
 1129SOL     OW 4129   1.056   1.354  10.644
 1129SOL    HW1 4130   0.981   1.322  10.694
 1129SOL    HW2 4131   1.132   1.311  10.685
 1130SOL     OW 4132   1.604   1.625  10.964
 1130SOL    HW1 4133   1.587   1.651  10.874
 1130SOL    HW2 4134   1.687   1.578  10.960
 1131SOL     OW 4135   1.132   1.207  10.414
 1131SOL    HW1 4136   1.070   1.243  10.479
 1131SOL    HW2 4137   1.099   1.239  10.330
 1132SOL     OW 4138   1.625   1.096  10.386
 1132SOL    HW1 4139   1.621   1.159  10.458
 1132SOL    HW2 4140   1.549   1.115  10.332
 1133SOL     OW 4141   0.913   0.114  10.711
 1133SOL    HW1 4142   0.932   0.088  10.621
 1133SOL    HW2 4143   0.993   0.156  10.742
 1134SOL     OW 4144   0.984   1.115  11.033
 1134SOL    HW1 4145   0.892   1.131  11.055
 1134SOL    HW2 4146   0.982   1.037  10.978
 1135SOL     OW 4147   0.708   1.061   9.681
 1135SOL    HW1 4148   0.694   1.045   9.774
 1135SOL    HW2 4149   0.784   1.008   9.657
 1136SOL     OW 4150   0.422   0.817  10.563
 1136SOL    HW1 4151   0.491   0.823  10.629
 1136SOL    HW2 4152   0.388   0.728  10.572
 1137SOL     OW 4153   1.266   0.375  10.587
 1137SOL    HW1 4154   1.300   0.452  10.631
 1137SOL    HW2 4155   1.179   0.400  10.557
 1138SOL     OW 4156   0.065   1.580  10.656
 1138SOL    HW1 4157   0.070   1.637  10.579
 1138SOL    HW2 4158   0.156   1.567  10.682
 1139SOL     OW 4159   0.371   1.103   9.793
 1139SOL    HW1 4160   0.366   1.182   9.738
 1139SOL    HW2 4161   0.370   1.030   9.730
 1140SOL     OW 4162   0.555   0.535  10.168
 1140SOL    HW1 4163   0.569   0.593  10.094
 1140SOL    HW2 4164   0.620   0.561  10.232
 1141SOL     OW 4165   1.239   1.338   9.697
 1141SOL    HW1 4166   1.293   1.412   9.725
 1141SOL    HW2 4167   1.152   1.358   9.730
 1142SOL     OW 4168   1.279   1.460  10.458
 1142SOL    HW1 4169   1.336   1.460  10.535
 1142SOL    HW2 4170   1.225   1.382  10.469
 1143SOL     OW 4171   1.575   0.634   9.796
 1143SOL    HW1 4172   1.533   0.690   9.861
 1143SOL    HW2 4173   1.623   0.694   9.739
 1144SOL     OW 4174   0.345   1.527  10.629
 1144SOL    HW1 4175   0.335   1.476  10.548
 1144SOL    HW2 4176   0.440   1.542  10.636
 1145SOL     OW 4177   0.416   0.738  10.911
 1145SOL    HW1 4178   0.479   0.783  10.854
 1145SOL    HW2 4179   0.455   0.651  10.924
 1146SOL     OW 4180   1.603   0.780  10.994
 1146SOL    HW1 4181   1.517   0.821  10.987
 1146SOL    HW2 4182   1.656   0.821  10.926
 1147SOL     OW 4183   1.012   0.132  11.089
 1147SOL    HW1 4184   1.064   0.205  11.053
 1147SOL    HW2 4185   1.002   0.072  11.015
 1148SOL     OW 4186   0.482   0.036  11.075
 1148SOL    HW1 4187   0.491   0.046  10.980
 1148SOL    HW2 4188   0.421   0.105  11.101
 1149SOL     OW 4189   0.585   0.875  10.341
 1149SOL    HW1 4190   0.616   0.965  10.343
 1149SOL    HW2 4191   0.529   0.867  10.419
 1150SOL     OW 4192   1.354   0.858  10.337
 1150SOL    HW1 4193   1.270   0.847  10.293
 1150SOL    HW2 4194   1.397   0.773  10.330
 1151SOL     OW 4195   1.201   0.536   9.569
 1151SOL    HW1 4196   1.210   0.457   9.622
 1151SOL    HW2 4197   1.158   0.599   9.626
 1152SOL     OW 4198   0.311   0.212  10.550
 1152SOL    HW1 4199   0.268   0.248  10.628
 1152SOL    HW2 4200   0.296   0.118  10.556
 1153SOL     OW 4201   0.060   1.306  10.590
 1153SOL    HW1 4202   0.091   1.264  10.671
 1153SOL    HW2 4203   0.052   1.398  10.613
 1154SOL     OW 4204   0.725   0.634  10.363
 1154SOL    HW1 4205   0.799   0.619  10.305
 1154SOL    HW2 4206   0.695   0.722  10.342
 1155SOL     OW 4207   1.737   0.959  11.164
 1155SOL    HW1 4208   1.690   0.895  11.109
 1155SOL    HW2 4209   1.678   0.975  11.238
 1156SOL     OW 4210   0.330   0.055   9.964
 1156SOL    HW1 4211   0.301   0.146   9.965
 1156SOL    HW2 4212   0.292   0.017  10.044
 1157SOL     OW 4213   1.607   0.391   9.691
 1157SOL    HW1 4214   1.567   0.323   9.746
 1157SOL    HW2 4215   1.587   0.473   9.736
 1158SOL     OW 4216   1.029   0.759  10.269
 1158SOL    HW1 4217   1.023   0.776  10.363
 1158SOL    HW2 4218   1.002   0.668  10.259
 1159SOL     OW 4219   0.982   1.566  11.029
 1159SOL    HW1 4220   0.967   1.610  10.945
 1159SOL    HW2 4221   1.025   1.484  11.006
 1160SOL     OW 4222   1.849   1.497  10.918
 1160SOL    HW1 4223   1.878   1.516  10.828
 1160SOL    HW2 4224   1.925   1.518  10.972
 1161SOL     OW 4225   0.353   0.922  11.109
 1161SOL    HW1 4226   0.431   0.942  11.161
 1161SOL    HW2 4227   0.382   0.854  11.047
 1162SOL     OW 4228   1.505   0.275   9.445
 1162SOL    HW1 4229   1.431   0.215   9.457
 1162SOL    HW2 4230   1.518   0.314   9.531
 1163SOL     OW 4231   1.289   0.827   9.339
 1163SOL    HW1 4232   1.331   0.741   9.342
 1163SOL    HW2 4233   1.321   0.866   9.258
 1164SOL     OW 4234   1.066   1.337  10.165
 1164SOL    HW1 4235   1.070   1.264  10.103
 1164SOL    HW2 4236   1.127   1.402  10.130
 1165SOL     OW 4237   0.313   0.803  10.260
 1165SOL    HW1 4238   0.407   0.820  10.254
 1165SOL    HW2 4239   0.306   0.713  10.292
 1166SOL     OW 4240   0.338   0.528  10.325
 1166SOL    HW1 4241   0.297   0.443  10.307
 1166SOL    HW2 4242   0.413   0.532  10.266
 1167SOL     OW 4243   1.133   0.380  11.007
 1167SOL    HW1 4244   1.085   0.436  11.068
 1167SOL    HW2 4245   1.220   0.420  11.002
 1168SOL     OW 4246   1.151   0.225  10.792
 1168SOL    HW1 4247   1.142   0.280  10.870
 1168SOL    HW2 4248   1.176   0.286  10.722
 1169SOL     OW 4249   0.000   1.317   9.492
 1169SOL    HW1 4250   3.906   1.334   9.496
 1169SOL    HW2 4251   0.009   1.224   9.511
 1170SOL     OW 4252   0.078   1.800  10.199
 1170SOL    HW1 4253   0.083   1.705  10.203
 1170SOL    HW2 4254   0.169   1.829  10.202
 1171SOL     OW 4255   0.501   1.571  10.221
 1171SOL    HW1 4256   0.570   1.632  10.246
 1171SOL    HW2 4257   0.544   1.508  10.163
 1172SOL     OW 4258   0.979   0.789  10.535
 1172SOL    HW1 4259   1.035   0.769  10.609
 1172SOL    HW2 4260   0.894   0.751  10.557
 1173SOL     OW 4261   0.035   0.573  10.423
 1173SOL    HW1 4262   0.098   0.522  10.372
 1173SOL    HW2 4263   0.061   0.559  10.514
 1174SOL     OW 4264   0.211   0.516  11.032
 1174SOL    HW1 4265   0.258   0.478  10.958
 1174SOL    HW2 4266   0.164   0.590  10.994
 1175SOL     OW 4267   1.378   0.937  10.967
 1175SOL    HW1 4268   1.400   1.030  10.964
 1175SOL    HW2 4269   1.375   0.910  10.875
 1176SOL     OW 4270   0.818   0.572   9.672
 1176SOL    HW1 4271   0.824   0.496   9.614
 1176SOL    HW2 4272   0.743   0.621   9.638
 1177SOL     OW 4273   1.640   0.602  10.494
 1177SOL    HW1 4274   1.631   0.541  10.567
 1177SOL    HW2 4275   1.728   0.584  10.459
 1178SOL     OW 4276   0.300   1.544  11.035
 1178SOL    HW1 4277   0.251   1.614  11.080
 1178SOL    HW2 4278   0.268   1.463  11.076
 1179SOL     OW 4279   0.709   0.454  10.566
 1179SOL    HW1 4280   0.659   0.376  10.541
 1179SOL    HW2 4281   0.699   0.514  10.492
 1180SOL     OW 4282   0.925   1.679  10.779
 1180SOL    HW1 4283   0.901   1.642  10.695
 1180SOL    HW2 4284   0.920   1.774  10.767
 1181SOL     OW 4285   0.454   0.492   9.507
 1181SOL    HW1 4286   0.518   0.561   9.524
 1181SOL    HW2 4287   0.374   0.539   9.483
 1182SOL     OW 4288   0.156   1.135  10.784
 1182SOL    HW1 4289   0.157   1.084  10.865
 1182SOL    HW2 4290   0.171   1.070  10.715
 1183SOL     OW 4291   1.323   1.045  10.532
 1183SOL    HW1 4292   1.347   0.982  10.464
 1183SOL    HW2 4293   1.255   1.099  10.492
 1184SOL     OW 4294   1.314   0.856   9.615
 1184SOL    HW1 4295   1.239   0.827   9.666
 1184SOL    HW2 4296   1.287   0.843   9.524
 1185SOL     OW 4297   1.243   1.735  10.419
 1185SOL    HW1 4298   1.326   1.756  10.377
 1185SOL    HW2 4299   1.249   1.642  10.439
 1186SOL     OW 4300   0.077   1.217  10.337
 1186SOL    HW1 4301   0.083   1.243  10.429
 1186SOL    HW2 4302   3.984   1.226  10.316
 1187SOL     OW 4303   0.680   1.667  11.044
 1187SOL    HW1 4304   0.621   1.743  11.035
 1187SOL    HW2 4305   0.746   1.681  10.976
 1188SOL     OW 4306   1.713   0.125   9.797
 1188SOL    HW1 4307   1.792   0.134   9.744
 1188SOL    HW2 4308   1.705   0.030   9.811
 1189SOL     OW 4309   1.363   1.558   9.783
 1189SOL    HW1 4310   1.427   1.589   9.718
 1189SOL    HW2 4311   1.330   1.639   9.823
 1190SOL     OW 4312   0.175   1.764  11.140
 1190SOL    HW1 4313   0.118   1.713  11.198
 1190SOL    HW2 4314   0.216   1.829  11.197
 1191SOL     OW 4315   1.277   0.927   9.981
 1191SOL    HW1 4316   1.351   0.867   9.991
 1191SOL    HW2 4317   1.312   0.999   9.928
 1192SOL     OW 4318   0.810   1.274  10.738
 1192SOL    HW1 4319   0.782   1.314  10.820
 1192SOL    HW2 4320   0.740   1.291  10.677
 1193SOL     OW 4321   0.670   1.622   9.465
 1193SOL    HW1 4322   0.681   1.634   9.371
 1193SOL    HW2 4323   0.615   1.544   9.473
 1194SOL     OW 4324   1.579   1.721  10.695
 1194SOL    HW1 4325   1.648   1.718  10.628
 1194SOL    HW2 4326   1.565   1.814  10.711
 1195SOL     OW 4327   1.839   0.177  10.277
 1195SOL    HW1 4328   1.871   0.110  10.217
 1195SOL    HW2 4329   1.751   0.197  10.245
 1196SOL     OW 4330   0.274   0.322  10.024
 1196SOL    HW1 4331   0.189   0.358   9.999
 1196SOL    HW2 4332   0.266   0.306  10.118
 1197SOL     OW 4333   1.207   1.604   9.341
 1197SOL    HW1 4334   1.196   1.513   9.368
 1197SOL    HW2 4335   1.141   1.616   9.273
 1198SOL     OW 4336   0.823   1.005  10.683
 1198SOL    HW1 4337   0.867   1.000  10.598
 1198SOL    HW2 4338   0.822   1.099  10.704
 1199SOL     OW 4339   0.915   0.910   9.600
 1199SOL    HW1 4340   0.976   0.943   9.534
 1199SOL    HW2 4341   0.964   0.842   9.646
 1200SOL     OW 4342   1.486   1.623   9.348
 1200SOL    HW1 4343   1.391   1.618   9.331
 1200SOL    HW2 4344   1.525   1.631   9.261
 1201SOL     OW 4345   0.374   1.303  10.802
 1201SOL    HW1 4346   0.359   1.383  10.751
 1201SOL    HW2 4347   0.297   1.248  10.784
 1202SOL     OW 4348   1.608   1.280  10.588
 1202SOL    HW1 4349   1.670   1.269  10.660
 1202SOL    HW2 4350   1.546   1.347  10.619
 1203SOL     OW 4351   1.055   1.109  10.018
 1203SOL    HW1 4352   0.984   1.057  10.056
 1203SOL    HW2 4353   1.119   1.043   9.989
 1204SOL     OW 4354   1.014   0.249  10.280
 1204SOL    HW1 4355   1.004   0.199  10.199
 1204SOL    HW2 4356   1.010   0.184  10.349
 1205SOL     OW 4357   0.606   1.488   9.792
 1205SOL    HW1 4358   0.651   1.438   9.724
 1205SOL    HW2 4359   0.532   1.529   9.746
 1206SOL     OW 4360   1.720   0.393  10.682
 1206SOL    HW1 4361   1.793   0.456  10.686
 1206SOL    HW2 4362   1.754   0.322  10.628
 1207SOL     OW 4363   0.254   1.341   9.603
 1207SOL    HW1 4364   0.160   1.349   9.584
 1207SOL    HW2 4365   0.263   1.380   9.690
 1208SOL     OW 4366   0.107   0.999  11.028
 1208SOL    HW1 4367   0.047   0.991  11.102
 1208SOL    HW2 4368   0.194   0.980  11.065
 1209SOL     OW 4369   0.694   0.252  10.810
 1209SOL    HW1 4370   0.762   0.199  10.769
 1209SOL    HW2 4371   0.722   0.261  10.901
 1210SOL     OW 4372   0.088   0.322   9.337
 1210SOL    HW1 4373   3.993   0.319   9.330
 1210SOL    HW2 4374   0.113   0.404   9.295
 1211SOL     OW 4375   1.427   0.857  10.708
 1211SOL    HW1 4376   1.379   0.919  10.654
 1211SOL    HW2 4377   1.516   0.859  10.674
 1212SOL     OW 4378   0.037   0.168   9.594
 1212SOL    HW1 4379   0.036   0.232   9.524
 1212SOL    HW2 4380   0.114   0.190   9.647
 1213SOL     OW 4381   1.177   1.338   9.426
 1213SOL    HW1 4382   1.087   1.307   9.427
 1213SOL    HW2 4383   1.204   1.336   9.518
 1214SOL     OW 4384   0.620   0.829  10.747
 1214SOL    HW1 4385   0.677   0.904  10.730
 1214SOL    HW2 4386   0.681   0.755  10.755
 1215SOL     OW 4387   1.489   1.781  10.291
 1215SOL    HW1 4388   1.513   1.850  10.228
 1215SOL    HW2 4389   1.569   1.730  10.302
 1216SOL     OW 4390   0.717   0.562  11.017
 1216SOL    HW1 4391   0.761   0.624  11.075
 1216SOL    HW2 4392   0.745   0.476  11.048
 1217SOL     OW 4393   1.472   1.198  10.941
 1217SOL    HW1 4394   1.461   1.212  11.035
 1217SOL    HW2 4395   1.565   1.213  10.926
 1218SOL     OW 4396   0.379   1.743  10.867
 1218SOL    HW1 4397   0.291   1.780  10.854
 1218SOL    HW2 4398   0.363   1.661  10.914
 1219SOL     OW 4399   1.667   0.881  10.565
 1219SOL    HW1 4400   1.662   0.796  10.522
 1219SOL    HW2 4401   1.658   0.945  10.495
 1220SOL     OW 4402   1.223   0.336   9.753
 1220SOL    HW1 4403   1.291   0.268   9.746
 1220SOL    HW2 4404   1.242   0.380   9.835
 1221SOL     OW 4405   0.590   0.738   9.981
 1221SOL    HW1 4406   0.628   0.825   9.965
 1221SOL    HW2 4407   0.523   0.728   9.914
 1222SOL     OW 4408   1.751   0.383  10.953
 1222SOL    HW1 4409   1.733   0.389  10.859
 1222SOL    HW2 4410   1.694   0.313  10.984
 1223SOL     OW 4411   1.746   0.934  10.822
 1223SOL    HW1 4412   1.738   1.028  10.835
 1223SOL    HW2 4413   1.729   0.921  10.729
 1224SOL     OW 4414   0.863   1.366   9.347
 1224SOL    HW1 4415   0.825   1.394   9.431
 1224SOL    HW2 4416   0.879   1.448   9.300
 1225SOL     OW 4417   0.663   1.788  10.253
 1225SOL    HW1 4418   0.643   1.879  10.231
 1225SOL    HW2 4419   0.758   1.782  10.245
 1226SOL     OW 4420   0.868   0.968  10.163
 1226SOL    HW1 4421   0.919   0.896  10.202
 1226SOL    HW2 4422   0.832   1.015  10.239
 1227SOL     OW 4423   1.078   0.988   9.399
 1227SOL    HW1 4424   1.056   1.040   9.321
 1227SOL    HW2 4425   1.152   0.935   9.372
 1228SOL     OW 4426   1.860   1.515  10.137
 1228SOL    HW1 4427   1.789   1.575  10.114
 1228SOL    HW2 4428   1.850   1.502  10.232
 1229SOL     OW 4429   0.226   1.304  11.166
 1229SOL    HW1 4430   0.154   1.247  11.139
 1229SOL    HW2 4431   0.212   1.317  11.260
 1230SOL     OW 4432   0.120   1.279  10.031
 1230SOL    HW1 4433   0.134   1.228  10.111
 1230SOL    HW2 4434   0.106   1.214   9.962
 1231SOL     OW 4435   0.681   1.405  10.939
 1231SOL    HW1 4436   0.601   1.362  10.970
 1231SOL    HW2 4437   0.677   1.493  10.977
 1232SOL     OW 4438   1.811   0.183  10.548
 1232SOL    HW1 4439   1.814   0.089  10.563
 1232SOL    HW2 4440   1.826   0.193  10.454
 1233SOL     OW 4441   0.444   0.437   9.841
 1233SOL    HW1 4442   0.460   0.362   9.785
 1233SOL    HW2 4443   0.388   0.403   9.911
 1234SOL     OW 4444   1.701   1.504  10.412
 1234SOL    HW1 4445   1.623   1.478  10.363
 1234SOL    HW2 4446   1.717   1.430  10.472
 1235SOL     OW 4447   0.333   0.557  10.603
 1235SOL    HW1 4448   0.389   0.501  10.656
 1235SOL    HW2 4449   0.348   0.528  10.513
 1236SOL     OW 4450   0.828   1.580   9.987
 1236SOL    HW1 4451   0.814   1.639   9.913
 1236SOL    HW2 4452   0.753   1.520   9.985
 1237SOL     OW 4453   1.461   0.253  10.421
 1237SOL    HW1 4454   1.478   0.167  10.457
 1237SOL    HW2 4455   1.405   0.296  10.486
 1238SOL     OW 4456   1.004   0.028  10.457
 1238SOL    HW1 4457   0.924   3.989  10.421
 1238SOL    HW2 4458   1.065   3.955  10.465
 1239SOL     OW 4459   0.772   1.333   9.627
 1239SOL    HW1 4460   0.744   1.242   9.634
 1239SOL    HW2 4461   0.854   1.337   9.677
 1240SOL     OW 4462   0.620   1.557  10.596
 1240SOL    HW1 4463   0.622   1.639  10.645
 1240SOL    HW2 4464   0.708   1.549  10.558
 1241SOL     OW 4465   1.311   0.074   9.475
 1241SOL    HW1 4466   1.324   3.996   9.421
 1241SOL    HW2 4467   1.226   0.061   9.516
 1242SOL     OW 4468   1.282   0.457   9.995
 1242SOL    HW1 4469   1.235   0.540   9.990
 1242SOL    HW2 4470   1.285   0.437  10.089
 1243SOL     OW 4471   1.588   0.210  10.178
 1243SOL    HW1 4472   1.539   0.234  10.256
 1243SOL    HW2 4473   1.588   0.290  10.124
 1244SOL     OW 4474   0.047   1.049   9.550
 1244SOL    HW1 4475   0.141   1.033   9.542
 1244SOL    HW2 4476   0.011   0.966   9.582
 1245SOL     OW 4477   0.887   1.656   9.650
 1245SOL    HW1 4478   0.813   1.639   9.592
 1245SOL    HW2 4479   0.858   1.730   9.704
 1246SOL     OW 4480   0.232   0.627  11.289
 1246SOL    HW1 4481   0.139   0.632  11.311
 1246SOL    HW2 4482   0.235   0.598  11.198
 1247SOL     OW 4483   0.224   0.289  12.155
 1247SOL    HW1 4484   0.247   0.250  12.239
 1247SOL    HW2 4485   0.129   0.277  12.148
 1248SOL     OW 4486   0.018   0.385  11.808
 1248SOL    HW1 4487   3.928   0.398  11.836
 1248SOL    HW2 4488   0.025   0.291  11.793
 1249SOL     OW 4489   0.580   1.288  12.362
 1249SOL    HW1 4490   0.494   1.290  12.321
 1249SOL    HW2 4491   0.594   1.377  12.394
 1250SOL     OW 4492   1.543   1.494  11.879
 1250SOL    HW1 4493   1.514   1.475  11.969
 1250SOL    HW2 4494   1.462   1.489  11.828
 1251SOL     OW 4495   1.133   0.698  11.869
 1251SOL    HW1 4496   1.180   0.780  11.857
 1251SOL    HW2 4497   1.085   0.711  11.952
 1252SOL     OW 4498   1.766   0.618  11.397
 1252SOL    HW1 4499   1.745   0.611  11.304
 1252SOL    HW2 4500   1.752   0.530  11.432
 1253SOL     OW 4501   0.754   1.139  12.214
 1253SOL    HW1 4502   0.690   1.175  12.275
 1253SOL    HW2 4503   0.789   1.216  12.169
 1254SOL     OW 4504   0.870   0.771  12.995
 1254SOL    HW1 4505   0.860   0.843  13.057
 1254SOL    HW2 4506   0.893   0.814  12.912
 1255SOL     OW 4507   0.685   1.002  11.818
 1255SOL    HW1 4508   0.751   0.991  11.886
 1255SOL    HW2 4509   0.616   1.054  11.860
 1256SOL     OW 4510   0.711   1.149  12.988
 1256SOL    HW1 4511   0.759   1.227  13.016
 1256SOL    HW2 4512   0.630   1.183  12.950
 1257SOL     OW 4513   0.351   1.401  12.251
 1257SOL    HW1 4514   0.270   1.381  12.204
 1257SOL    HW2 4515   0.399   1.459  12.191
 1258SOL     OW 4516   1.451   1.487  12.530
 1258SOL    HW1 4517   1.495   1.572  12.533
 1258SOL    HW2 4518   1.385   1.493  12.599
 1259SOL     OW 4519   0.456   0.408  12.669
 1259SOL    HW1 4520   0.538   0.358  12.667
 1259SOL    HW2 4521   0.388   0.342  12.671
 1260SOL     OW 4522   1.612   0.451  11.907
 1260SOL    HW1 4523   1.542   0.482  11.850
 1260SOL    HW2 4524   1.631   0.525  11.965
 1261SOL     OW 4525   0.221   1.718  11.630
 1261SOL    HW1 4526   0.240   1.793  11.687
 1261SOL    HW2 4527   0.298   1.711  11.574
 1262SOL     OW 4528   1.137   1.342  12.865
 1262SOL    HW1 4529   1.177   1.336  12.952
 1262SOL    HW2 4530   1.085   1.262  12.858
 1263SOL     OW 4531   0.249   1.450  11.712
 1263SOL    HW1 4532   0.215   1.538  11.697
 1263SOL    HW2 4533   0.182   1.406  11.763
 1264SOL     OW 4534   0.247   1.066  12.056
 1264SOL    HW1 4535   0.267   0.981  12.096
 1264SOL    HW2 4536   0.194   1.112  12.122
 1265SOL     OW 4537   0.611   1.792  12.599
 1265SOL    HW1 4538   0.528   1.774  12.644
 1265SOL    HW2 4539   0.633   1.882  12.625
 1266SOL     OW 4540   0.577   0.986  11.310
 1266SOL    HW1 4541   0.626   1.030  11.241
 1266SOL    HW2 4542   0.619   1.015  11.391
 1267SOL     OW 4543   1.580   0.140  12.628
 1267SOL    HW1 4544   1.610   0.213  12.573
 1267SOL    HW2 4545   1.549   0.181  12.708
 1268SOL     OW 4546   0.140   0.651  11.742
 1268SOL    HW1 4547   0.097   0.566  11.746
 1268SOL    HW2 4548   0.102   0.701  11.814
 1269SOL     OW 4549   0.044   1.590  11.311
 1269SOL    HW1 4550   0.036   1.498  11.335
 1269SOL    HW2 4551   3.961   1.629  11.338
 1270SOL     OW 4552   1.684   0.913  11.811
 1270SOL    HW1 4553   1.772   0.877  11.795
 1270SOL    HW2 4554   1.666   0.968  11.735
 1271SOL     OW 4555   1.648   1.106  11.601
 1271SOL    HW1 4556   1.734   1.108  11.560
 1271SOL    HW2 4557   1.655   1.166  11.675
 1272SOL     OW 4558   0.140   0.756  12.761
 1272SOL    HW1 4559   0.236   0.751  12.756
 1272SOL    HW2 4560   0.122   0.844  12.792
 1273SOL     OW 4561   0.612   1.387  11.908
 1273SOL    HW1 4562   0.567   1.303  11.917
 1273SOL    HW2 4563   0.597   1.413  11.817
 1274SOL     OW 4564   1.284   1.234  12.597
 1274SOL    HW1 4565   1.317   1.169  12.535
 1274SOL    HW2 4566   1.345   1.230  12.671
 1275SOL     OW 4567   0.820   0.003  11.688
 1275SOL    HW1 4568   0.865   0.084  11.664
 1275SOL    HW2 4569   0.727   0.027  11.688
 1276SOL     OW 4570   0.184   0.950  12.450
 1276SOL    HW1 4571   0.272   0.915  12.438
 1276SOL    HW2 4572   0.132   0.909  12.381
 1277SOL     OW 4573   1.531   0.995  11.372
 1277SOL    HW1 4574   1.462   0.939  11.405
 1277SOL    HW2 4575   1.574   1.030  11.450
 1278SOL     OW 4576   1.186   1.809  12.796
 1278SOL    HW1 4577   1.195   1.868  12.721
 1278SOL    HW2 4578   1.202   1.722  12.759
 1279SOL     OW 4579   0.343   0.252  13.007
 1279SOL    HW1 4580   0.386   0.336  12.989
 1279SOL    HW2 4581   0.253   0.276  13.028
 1280SOL     OW 4582   1.467   1.420  12.130
 1280SOL    HW1 4583   1.398   1.435  12.194
 1280SOL    HW2 4584   1.456   1.328  12.104
 1281SOL     OW 4585   1.573   1.721  11.737
 1281SOL    HW1 4586   1.582   1.685  11.649
 1281SOL    HW2 4587   1.579   1.644  11.794
 1282SOL     OW 4588   0.596   0.717  11.437
 1282SOL    HW1 4589   0.601   0.801  11.392
 1282SOL    HW2 4590   0.533   0.732  11.508
 1283SOL     OW 4591   1.275   0.368  12.113
 1283SOL    HW1 4592   1.187   0.329  12.120
 1283SOL    HW2 4593   1.332   0.307  12.159
 1284SOL     OW 4594   1.571   1.652  11.471
 1284SOL    HW1 4595   1.665   1.654  11.456
 1284SOL    HW2 4596   1.533   1.641  11.384
 1285SOL     OW 4597   0.794   0.616  12.626
 1285SOL    HW1 4598   0.765   0.590  12.713
 1285SOL    HW2 4599   0.756   0.550  12.567
 1286SOL     OW 4600   1.392   0.476  12.850
 1286SOL    HW1 4601   1.398   0.521  12.934
 1286SOL    HW2 4602   1.450   0.401  12.858
 1287SOL     OW 4603   0.952   0.887  12.756
 1287SOL    HW1 4604   1.007   0.818  12.719
 1287SOL    HW2 4605   0.904   0.922  12.681
 1288SOL     OW 4606   0.992   0.403  12.411
 1288SOL    HW1 4607   0.907   0.424  12.449
 1288SOL    HW2 4608   0.971   0.374  12.322
 1289SOL     OW 4609   1.052   0.699  11.597
 1289SOL    HW1 4610   1.069   0.692  11.691
 1289SOL    HW2 4611   0.969   0.653  11.584
 1290SOL     OW 4612   0.081   0.828  11.963
 1290SOL    HW1 4613   0.155   0.795  12.014
 1290SOL    HW2 4614   0.101   0.921  11.949
 1291SOL     OW 4615   0.130   1.862  12.749
 1291SOL    HW1 4616   0.137   1.827  12.838
 1291SOL    HW2 4617   0.038   1.850  12.726
 1292SOL     OW 4618   0.894   0.352  11.370
 1292SOL    HW1 4619   0.936   0.412  11.308
 1292SOL    HW2 4620   0.893   0.268  11.325
 1293SOL     OW 4621   1.708   0.576  13.000
 1293SOL    HW1 4622   1.670   0.649  12.952
 1293SOL    HW2 4623   1.733   0.512  12.933
 1294SOL     OW 4624   1.378   1.141  11.712
 1294SOL    HW1 4625   1.459   1.131  11.661
 1294SOL    HW2 4626   1.325   1.202  11.660
 1295SOL     OW 4627   0.561   0.195  12.053
 1295SOL    HW1 4628   0.565   0.219  12.145
 1295SOL    HW2 4629   0.547   0.278  12.007
 1296SOL     OW 4630   0.999   1.440  11.641
 1296SOL    HW1 4631   0.967   1.516  11.593
 1296SOL    HW2 4632   0.985   1.464  11.733
 1297SOL     OW 4633   0.365   1.819  12.042
 1297SOL    HW1 4634   0.429   1.748  12.050
 1297SOL    HW2 4635   0.416   1.898  12.058
 1298SOL     OW 4636   1.801   1.047  12.044
 1298SOL    HW1 4637   1.747   1.045  11.965
 1298SOL    HW2 4638   1.738   1.057  12.116
 1299SOL     OW 4639   1.226   1.538  12.686
 1299SOL    HW1 4640   1.212   1.466  12.747
 1299SOL    HW2 4641   1.161   1.524  12.617
 1300SOL     OW 4642   0.310   0.954  11.414
 1300SOL    HW1 4643   0.394   0.976  11.373
 1300SOL    HW2 4644   0.298   0.861  11.393
 1301SOL     OW 4645   1.478   0.746  11.901
 1301SOL    HW1 4646   1.475   0.705  11.988
 1301SOL    HW2 4647   1.556   0.801  11.904
 1302SOL     OW 4648   0.468   1.260  12.909
 1302SOL    HW1 4649   0.442   1.268  12.817
 1302SOL    HW2 4650   0.385   1.264  12.958
 1303SOL     OW 4651   1.122   1.778  11.401
 1303SOL    HW1 4652   1.049   1.737  11.447
 1303SOL    HW2 4653   1.145   1.715  11.333
 1304SOL     OW 4654   0.200   0.294  12.671
 1304SOL    HW1 4655   0.107   0.314  12.671
 1304SOL    HW2 4656   0.209   0.223  12.735
 1305SOL     OW 4657   1.631   1.383  11.260
 1305SOL    HW1 4658   1.586   1.466  11.241
 1305SOL    HW2 4659   1.565   1.316  11.242
 1306SOL     OW 4660   0.466   1.739  11.489
 1306SOL    HW1 4661   0.509   1.796  11.552
 1306SOL    HW2 4662   0.538   1.703  11.436
 1307SOL     OW 4663   1.441   0.166  11.578
 1307SOL    HW1 4664   1.395   0.099  11.526
 1307SOL    HW2 4665   1.512   0.118  11.620
 1308SOL     OW 4666   0.251   1.791  12.403
 1308SOL    HW1 4667   0.298   1.726  12.456
 1308SOL    HW2 4668   0.249   1.753  12.315
 1309SOL     OW 4669   0.938   1.699  12.070
 1309SOL    HW1 4670   1.017   1.649  12.091
 1309SOL    HW2 4671   0.895   1.649  12.001
 1310SOL     OW 4672   0.397   0.694  11.643
 1310SOL    HW1 4673   0.423   0.604  11.658
 1310SOL    HW2 4674   0.305   0.698  11.669
 1311SOL     OW 4675   1.529   0.229  12.898
 1311SOL    HW1 4676   1.526   0.254  12.990
 1311SOL    HW2 4677   1.511   0.135  12.898
 1312SOL     OW 4678   0.645   0.130  11.274
 1312SOL    HW1 4679   0.668   0.047  11.315
 1312SOL    HW2 4680   0.583   0.107  11.205
 1313SOL     OW 4681   0.776   0.284  12.938
 1313SOL    HW1 4682   0.850   0.222  12.940
 1313SOL    HW2 4683   0.720   0.256  13.011
 1314SOL     OW 4684   0.875   1.522  12.366
 1314SOL    HW1 4685   0.860   1.485  12.279
 1314SOL    HW2 4686   0.946   1.468  12.403
 1315SOL     OW 4687   1.340   0.587  12.603
 1315SOL    HW1 4688   1.370   0.558  12.689
 1315SOL    HW2 4689   1.375   0.676  12.593
 1316SOL     OW 4690   0.816   1.393  12.113
 1316SOL    HW1 4691   0.901   1.381  12.071
 1316SOL    HW2 4692   0.753   1.395  12.041
 1317SOL     OW 4693   0.930   0.512  12.073
 1317SOL    HW1 4694   0.905   0.504  11.980
 1317SOL    HW2 4695   0.956   0.423  12.098
 1318SOL     OW 4696   0.546   0.056  11.660
 1318SOL    HW1 4697   0.472   0.063  11.720
 1318SOL    HW2 4698   0.548   0.140  11.614
 1319SOL     OW 4699   1.429   1.199  11.213
 1319SOL    HW1 4700   1.459   1.124  11.264
 1319SOL    HW2 4701   1.344   1.221  11.250
 1320SOL     OW 4702   0.344   0.038  11.370
 1320SOL    HW1 4703   0.360   0.086  11.289
 1320SOL    HW2 4704   0.430   0.036  11.414
 1321SOL     OW 4705   0.942   0.249  11.633
 1321SOL    HW1 4706   0.915   0.290  11.550
 1321SOL    HW2 4707   1.037   0.253  11.632
 1322SOL     OW 4708   1.079   0.683  12.631
 1322SOL    HW1 4709   1.010   0.617  12.637
 1322SOL    HW2 4710   1.160   0.632  12.625
 1323SOL     OW 4711   1.223   1.570  11.965
 1323SOL    HW1 4712   1.235   1.638  11.899
 1323SOL    HW2 4713   1.291   1.587  12.030
 1324SOL     OW 4714   0.466   1.151  11.908
 1324SOL    HW1 4715   0.395   1.126  11.966
 1324SOL    HW2 4716   0.432   1.135  11.820
 1325SOL     OW 4717   1.260   1.790  11.783
 1325SOL    HW1 4718   1.312   1.850  11.730
 1325SOL    HW2 4719   1.195   1.847  11.826
 1326SOL     OW 4720   1.022   0.543  11.200
 1326SOL    HW1 4721   0.979   0.626  11.181
 1326SOL    HW2 4722   1.086   0.565  11.268
 1327SOL     OW 4723   0.080   0.573  12.565
 1327SOL    HW1 4724   0.170   0.555  12.535
 1327SOL    HW2 4725   0.090   0.644  12.628
 1328SOL     OW 4726   0.572   0.231  12.332
 1328SOL    HW1 4727   0.594   0.138  12.340
 1328SOL    HW2 4728   0.481   0.237  12.361
 1329SOL     OW 4729   0.871   0.461  11.811
 1329SOL    HW1 4730   0.820   0.514  11.749
 1329SOL    HW2 4731   0.891   0.381  11.763
 1330SOL     OW 4732   0.996   0.040  11.953
 1330SOL    HW1 4733   0.960   0.069  11.869
 1330SOL    HW2 4734   1.007   3.945  11.943
 1331SOL     OW 4735   1.439   1.164  12.031
 1331SOL    HW1 4736   1.369   1.099  12.026
 1331SOL    HW2 4737   1.469   1.174  11.940
 1332SOL     OW 4738   1.465   0.607  12.147
 1332SOL    HW1 4739   1.411   0.528  12.152
 1332SOL    HW2 4740   1.525   0.600  12.221
 1333SOL     OW 4741   1.846   0.817  11.558
 1333SOL    HW1 4742   1.902   0.765  11.615
 1333SOL    HW2 4743   1.816   0.756  11.491
 1334SOL     OW 4744   0.487   1.421  11.332
 1334SOL    HW1 4745   0.412   1.389  11.381
 1334SOL    HW2 4746   0.472   1.389  11.243
 1335SOL     OW 4747   1.672   1.256  11.822
 1335SOL    HW1 4748   1.767   1.258  11.833
 1335SOL    HW2 4749   1.644   1.345  11.844
 1336SOL     OW 4750   1.395   0.576  11.241
 1336SOL    HW1 4751   1.332   0.556  11.311
 1336SOL    HW2 4752   1.481   0.557  11.280
 1337SOL     OW 4753   0.557   0.271  11.490
 1337SOL    HW1 4754   0.604   0.231  11.417
 1337SOL    HW2 4755   0.528   0.356  11.457
 1338SOL     OW 4756   1.750   1.237  12.744
 1338SOL    HW1 4757   1.837   1.198  12.738
 1338SOL    HW2 4758   1.765   1.327  12.772
 1339SOL     OW 4759   1.056   1.354  12.506
 1339SOL    HW1 4760   0.981   1.322  12.556
 1339SOL    HW2 4761   1.132   1.311  12.547
 1340SOL     OW 4762   1.604   1.626  12.826
 1340SOL    HW1 4763   1.586   1.652  12.735
 1340SOL    HW2 4764   1.687   1.579  12.821
 1341SOL     OW 4765   1.132   1.207  12.276
 1341SOL    HW1 4766   1.070   1.243  12.340
 1341SOL    HW2 4767   1.100   1.239  12.192
 1342SOL     OW 4768   1.625   1.096  12.248
 1342SOL    HW1 4769   1.620   1.159  12.320
 1342SOL    HW2 4770   1.549   1.115  12.194
 1343SOL     OW 4771   0.913   0.115  12.573
 1343SOL    HW1 4772   0.932   0.088  12.483
 1343SOL    HW2 4773   0.993   0.156  12.604
 1344SOL     OW 4774   0.984   1.115  12.896
 1344SOL    HW1 4775   0.893   1.131  12.917
 1344SOL    HW2 4776   0.982   1.037  12.840
 1345SOL     OW 4777   0.708   1.061  11.543
 1345SOL    HW1 4778   0.694   1.045  11.636
 1345SOL    HW2 4779   0.784   1.008  11.519
 1346SOL     OW 4780   0.422   0.817  12.425
 1346SOL    HW1 4781   0.491   0.823  12.491
 1346SOL    HW2 4782   0.388   0.728  12.434
 1347SOL     OW 4783   1.266   0.375  12.449
 1347SOL    HW1 4784   1.300   0.452  12.493
 1347SOL    HW2 4785   1.179   0.400  12.419
 1348SOL     OW 4786   0.065   1.580  12.518
 1348SOL    HW1 4787   0.070   1.637  12.441
 1348SOL    HW2 4788   0.156   1.567  12.544
 1349SOL     OW 4789   0.371   1.103  11.655
 1349SOL    HW1 4790   0.366   1.182  11.600
 1349SOL    HW2 4791   0.370   1.030  11.592
 1350SOL     OW 4792   0.554   0.535  12.030
 1350SOL    HW1 4793   0.569   0.594  11.956
 1350SOL    HW2 4794   0.620   0.561  12.094
 1351SOL     OW 4795   1.240   1.338  11.559
 1351SOL    HW1 4796   1.293   1.412  11.586
 1351SOL    HW2 4797   1.152   1.358  11.592
 1352SOL     OW 4798   1.279   1.460  12.320
 1352SOL    HW1 4799   1.335   1.460  12.397
 1352SOL    HW2 4800   1.224   1.382  12.331
 1353SOL     OW 4801   1.575   0.634  11.658
 1353SOL    HW1 4802   1.533   0.690  11.723
 1353SOL    HW2 4803   1.623   0.694  11.601
 1354SOL     OW 4804   0.345   1.527  12.491
 1354SOL    HW1 4805   0.336   1.476  12.410
 1354SOL    HW2 4806   0.440   1.542  12.498
 1355SOL     OW 4807   0.416   0.738  12.773
 1355SOL    HW1 4808   0.479   0.783  12.716
 1355SOL    HW2 4809   0.454   0.651  12.786
 1356SOL     OW 4810   1.603   0.780  12.856
 1356SOL    HW1 4811   1.517   0.822  12.849
 1356SOL    HW2 4812   1.656   0.821  12.787
 1357SOL     OW 4813   1.011   0.133  12.951
 1357SOL    HW1 4814   1.064   0.205  12.915
 1357SOL    HW2 4815   1.003   0.072  12.878
 1358SOL     OW 4816   0.481   0.036  12.938
 1358SOL    HW1 4817   0.491   0.045  12.844
 1358SOL    HW2 4818   0.420   0.106  12.963
 1359SOL     OW 4819   0.585   0.875  12.203
 1359SOL    HW1 4820   0.617   0.965  12.205
 1359SOL    HW2 4821   0.529   0.868  12.281
 1360SOL     OW 4822   1.354   0.858  12.200
 1360SOL    HW1 4823   1.270   0.847  12.154
 1360SOL    HW2 4824   1.397   0.773  12.192
 1361SOL     OW 4825   1.201   0.536  11.431
 1361SOL    HW1 4826   1.210   0.457  11.484
 1361SOL    HW2 4827   1.158   0.599  11.488
 1362SOL     OW 4828   0.312   0.212  12.412
 1362SOL    HW1 4829   0.268   0.248  12.490
 1362SOL    HW2 4830   0.296   0.118  12.418
 1363SOL     OW 4831   0.060   1.306  12.452
 1363SOL    HW1 4832   0.091   1.264  12.533
 1363SOL    HW2 4833   0.052   1.398  12.475
 1364SOL     OW 4834   0.725   0.634  12.226
 1364SOL    HW1 4835   0.799   0.619  12.167
 1364SOL    HW2 4836   0.695   0.722  12.204
 1365SOL     OW 4837   1.737   0.958  13.027
 1365SOL    HW1 4838   1.691   0.896  12.971
 1365SOL    HW2 4839   1.677   0.974  13.100
 1366SOL     OW 4840   0.330   0.055  11.826
 1366SOL    HW1 4841   0.301   0.146  11.827
 1366SOL    HW2 4842   0.292   0.017  11.906
 1367SOL     OW 4843   1.606   0.391  11.553
 1367SOL    HW1 4844   1.567   0.324  11.608
 1367SOL    HW2 4845   1.587   0.473  11.598
 1368SOL     OW 4846   1.029   0.759  12.131
 1368SOL    HW1 4847   1.023   0.776  12.225
 1368SOL    HW2 4848   1.002   0.668  12.121
 1369SOL     OW 4849   0.982   1.566  12.891
 1369SOL    HW1 4850   0.967   1.610  12.807
 1369SOL    HW2 4851   1.025   1.484  12.868
 1370SOL     OW 4852   1.849   1.498  12.778
 1370SOL    HW1 4853   1.878   1.517  12.688
 1370SOL    HW2 4854   1.925   1.519  12.832
 1371SOL     OW 4855   0.353   0.921  12.972
 1371SOL    HW1 4856   0.431   0.942  13.023
 1371SOL    HW2 4857   0.381   0.853  12.910
 1372SOL     OW 4858   1.505   0.275  11.307
 1372SOL    HW1 4859   1.431   0.215  11.319
 1372SOL    HW2 4860   1.518   0.314  11.393
 1373SOL     OW 4861   1.289   0.827  11.201
 1373SOL    HW1 4862   1.331   0.741  11.204
 1373SOL    HW2 4863   1.321   0.866  11.120
 1374SOL     OW 4864   1.066   1.337  12.027
 1374SOL    HW1 4865   1.070   1.264  11.965
 1374SOL    HW2 4866   1.127   1.402  11.992
 1375SOL     OW 4867   0.313   0.803  12.122
 1375SOL    HW1 4868   0.407   0.819  12.116
 1375SOL    HW2 4869   0.306   0.713  12.154
 1376SOL     OW 4870   0.338   0.528  12.187
 1376SOL    HW1 4871   0.297   0.444  12.169
 1376SOL    HW2 4872   0.413   0.532  12.128
 1377SOL     OW 4873   1.133   0.380  12.869
 1377SOL    HW1 4874   1.085   0.436  12.930
 1377SOL    HW2 4875   1.220   0.420  12.864
 1378SOL     OW 4876   1.151   0.225  12.654
 1378SOL    HW1 4877   1.142   0.280  12.732
 1378SOL    HW2 4878   1.176   0.286  12.585
 1379SOL     OW 4879   0.000   1.317  11.354
 1379SOL    HW1 4880   3.906   1.334  11.358
 1379SOL    HW2 4881   0.009   1.224  11.373
 1380SOL     OW 4882   0.078   1.800  12.061
 1380SOL    HW1 4883   0.083   1.705  12.065
 1380SOL    HW2 4884   0.169   1.829  12.064
 1381SOL     OW 4885   0.501   1.571  12.083
 1381SOL    HW1 4886   0.570   1.632  12.108
 1381SOL    HW2 4887   0.544   1.508  12.025
 1382SOL     OW 4888   0.979   0.789  12.397
 1382SOL    HW1 4889   1.035   0.769  12.471
 1382SOL    HW2 4890   0.894   0.751  12.419
 1383SOL     OW 4891   0.035   0.573  12.285
 1383SOL    HW1 4892   0.098   0.521  12.234
 1383SOL    HW2 4893   0.061   0.559  12.376
 1384SOL     OW 4894   0.211   0.516  12.894
 1384SOL    HW1 4895   0.258   0.477  12.820
 1384SOL    HW2 4896   0.164   0.590  12.856
 1385SOL     OW 4897   1.378   0.937  12.829
 1385SOL    HW1 4898   1.399   1.030  12.826
 1385SOL    HW2 4899   1.375   0.910  12.737
 1386SOL     OW 4900   0.818   0.572  11.534
 1386SOL    HW1 4901   0.824   0.496  11.476
 1386SOL    HW2 4902   0.743   0.621  11.501
 1387SOL     OW 4903   1.640   0.602  12.356
 1387SOL    HW1 4904   1.631   0.541  12.429
 1387SOL    HW2 4905   1.728   0.584  12.321
 1388SOL     OW 4906   0.299   1.545  12.898
 1388SOL    HW1 4907   0.251   1.614  12.942
 1388SOL    HW2 4908   0.268   1.464  12.938
 1389SOL     OW 4909   0.709   0.454  12.428
 1389SOL    HW1 4910   0.659   0.376  12.403
 1389SOL    HW2 4911   0.699   0.514  12.354
 1390SOL     OW 4912   0.925   1.679  12.641
 1390SOL    HW1 4913   0.901   1.642  12.557
 1390SOL    HW2 4914   0.920   1.774  12.629
 1391SOL     OW 4915   0.454   0.492  11.369
 1391SOL    HW1 4916   0.518   0.561  11.386
 1391SOL    HW2 4917   0.374   0.539  11.345
 1392SOL     OW 4918   0.156   1.135  12.646
 1392SOL    HW1 4919   0.157   1.084  12.727
 1392SOL    HW2 4920   0.171   1.070  12.577
 1393SOL     OW 4921   1.323   1.045  12.394
 1393SOL    HW1 4922   1.347   0.982  12.326
 1393SOL    HW2 4923   1.255   1.099  12.354
 1394SOL     OW 4924   1.314   0.856  11.477
 1394SOL    HW1 4925   1.238   0.827  11.528
 1394SOL    HW2 4926   1.287   0.843  11.386
 1395SOL     OW 4927   1.243   1.735  12.282
 1395SOL    HW1 4928   1.326   1.756  12.239
 1395SOL    HW2 4929   1.248   1.642  12.301
 1396SOL     OW 4930   0.077   1.217  12.199
 1396SOL    HW1 4931   0.083   1.242  12.291
 1396SOL    HW2 4932   3.984   1.226  12.178
 1397SOL     OW 4933   0.679   1.667  12.905
 1397SOL    HW1 4934   0.621   1.743  12.897
 1397SOL    HW2 4935   0.746   1.681  12.838
 1398SOL     OW 4936   1.713   0.125  11.659
 1398SOL    HW1 4937   1.792   0.134  11.606
 1398SOL    HW2 4938   1.705   0.030  11.673
 1399SOL     OW 4939   1.363   1.559  11.644
 1399SOL    HW1 4940   1.429   1.590  11.581
 1399SOL    HW2 4941   1.330   1.639  11.685
 1400SOL     OW 4942   0.174   1.764  13.002
 1400SOL    HW1 4943   0.117   1.713  13.060
 1400SOL    HW2 4944   0.217   1.827  13.060
 1401SOL     OW 4945   1.277   0.927  11.843
 1401SOL    HW1 4946   1.351   0.867  11.853
 1401SOL    HW2 4947   1.312   0.999  11.790
 1402SOL     OW 4948   0.810   1.274  12.601
 1402SOL    HW1 4949   0.782   1.314  12.682
 1402SOL    HW2 4950   0.740   1.292  12.538
 1403SOL     OW 4951   0.670   1.622  11.327
 1403SOL    HW1 4952   0.681   1.634  11.233
 1403SOL    HW2 4953   0.615   1.544  11.335
 1404SOL     OW 4954   1.579   1.721  12.554
 1404SOL    HW1 4955   1.648   1.720  12.488
 1404SOL    HW2 4956   1.564   1.814  12.571
 1405SOL     OW 4957   1.839   0.177  12.138
 1405SOL    HW1 4958   1.871   0.110  12.079
 1405SOL    HW2 4959   1.751   0.197  12.107
 1406SOL     OW 4960   0.274   0.322  11.886
 1406SOL    HW1 4961   0.189   0.358  11.861
 1406SOL    HW2 4962   0.266   0.306  11.980
 1407SOL     OW 4963   1.207   1.604  11.204
 1407SOL    HW1 4964   1.197   1.513  11.231
 1407SOL    HW2 4965   1.141   1.616  11.135
 1408SOL     OW 4966   0.823   1.005  12.545
 1408SOL    HW1 4967   0.867   1.000  12.460
 1408SOL    HW2 4968   0.822   1.099  12.566
 1409SOL     OW 4969   0.915   0.910  11.462
 1409SOL    HW1 4970   0.976   0.943  11.396
 1409SOL    HW2 4971   0.964   0.842  11.508
 1410SOL     OW 4972   1.487   1.625  11.212
 1410SOL    HW1 4973   1.392   1.618  11.196
 1410SOL    HW2 4974   1.525   1.632  11.125
 1411SOL     OW 4975   0.374   1.303  12.664
 1411SOL    HW1 4976   0.359   1.383  12.613
 1411SOL    HW2 4977   0.297   1.248  12.646
 1412SOL     OW 4978   1.607   1.280  12.450
 1412SOL    HW1 4979   1.670   1.270  12.521
 1412SOL    HW2 4980   1.546   1.346  12.481
 1413SOL     OW 4981   1.055   1.109  11.880
 1413SOL    HW1 4982   0.984   1.057  11.918
 1413SOL    HW2 4983   1.119   1.044  11.851
 1414SOL     OW 4984   1.014   0.249  12.142
 1414SOL    HW1 4985   1.004   0.199  12.061
 1414SOL    HW2 4986   1.010   0.184  12.211
 1415SOL     OW 4987   0.606   1.488  11.654
 1415SOL    HW1 4988   0.652   1.438  11.586
 1415SOL    HW2 4989   0.532   1.529  11.608
 1416SOL     OW 4990   1.720   0.393  12.544
 1416SOL    HW1 4991   1.793   0.456  12.548
 1416SOL    HW2 4992   1.754   0.322  12.490
 1417SOL     OW 4993   0.254   1.341  11.465
 1417SOL    HW1 4994   0.160   1.349  11.446
 1417SOL    HW2 4995   0.263   1.380  11.552
 1418SOL     OW 4996   0.107   0.999  12.890
 1418SOL    HW1 4997   0.047   0.992  12.964
 1418SOL    HW2 4998   0.194   0.980  12.927
 1419SOL     OW 4999   0.694   0.252  12.672
 1419SOL    HW1 5000   0.762   0.199  12.631
 1419SOL    HW2 5001   0.722   0.261  12.763
 1420SOL     OW 5002   0.088   0.322  11.199
 1420SOL    HW1 5003   3.993   0.319  11.192
 1420SOL    HW2 5004   0.113   0.404  11.157
 1421SOL     OW 5005   1.427   0.857  12.570
 1421SOL    HW1 5006   1.378   0.919  12.516
 1421SOL    HW2 5007   1.516   0.859  12.535
 1422SOL     OW 5008   0.037   0.168  11.456
 1422SOL    HW1 5009   0.036   0.232  11.386
 1422SOL    HW2 5010   0.114   0.190  11.509
 1423SOL     OW 5011   1.178   1.338  11.288
 1423SOL    HW1 5012   1.087   1.307  11.289
 1423SOL    HW2 5013   1.205   1.336  11.380
 1424SOL     OW 5014   0.620   0.829  12.609
 1424SOL    HW1 5015   0.677   0.904  12.592
 1424SOL    HW2 5016   0.681   0.755  12.617
 1425SOL     OW 5017   1.488   1.781  12.153
 1425SOL    HW1 5018   1.513   1.848  12.089
 1425SOL    HW2 5019   1.567   1.728  12.164
 1426SOL     OW 5020   0.717   0.562  12.879
 1426SOL    HW1 5021   0.762   0.624  12.937
 1426SOL    HW2 5022   0.744   0.476  12.910
 1427SOL     OW 5023   1.472   1.198  12.803
 1427SOL    HW1 5024   1.461   1.212  12.897
 1427SOL    HW2 5025   1.565   1.213  12.788
 1428SOL     OW 5026   0.378   1.743  12.729
 1428SOL    HW1 5027   0.291   1.781  12.717
 1428SOL    HW2 5028   0.363   1.661  12.776
 1429SOL     OW 5029   1.667   0.881  12.428
 1429SOL    HW1 5030   1.663   0.796  12.384
 1429SOL    HW2 5031   1.658   0.945  12.357
 1430SOL     OW 5032   1.223   0.336  11.615
 1430SOL    HW1 5033   1.291   0.268  11.608
 1430SOL    HW2 5034   1.242   0.380  11.697
 1431SOL     OW 5035   0.590   0.738  11.843
 1431SOL    HW1 5036   0.628   0.824  11.827
 1431SOL    HW2 5037   0.523   0.728  11.776
 1432SOL     OW 5038   1.751   0.383  12.815
 1432SOL    HW1 5039   1.733   0.389  12.721
 1432SOL    HW2 5040   1.695   0.313  12.846
 1433SOL     OW 5041   1.746   0.934  12.684
 1433SOL    HW1 5042   1.738   1.028  12.697
 1433SOL    HW2 5043   1.730   0.921  12.591
 1434SOL     OW 5044   0.862   1.366  11.209
 1434SOL    HW1 5045   0.825   1.394  11.293
 1434SOL    HW2 5046   0.880   1.447  11.162
 1435SOL     OW 5047   0.663   1.788  12.115
 1435SOL    HW1 5048   0.643   1.879  12.093
 1435SOL    HW2 5049   0.758   1.782  12.107
 1436SOL     OW 5050   0.868   0.968  12.025
 1436SOL    HW1 5051   0.919   0.896  12.064
 1436SOL    HW2 5052   0.832   1.015  12.101
 1437SOL     OW 5053   1.077   0.988  11.261
 1437SOL    HW1 5054   1.056   1.040  11.183
 1437SOL    HW2 5055   1.152   0.934  11.234
 1438SOL     OW 5056   1.860   1.513  12.001
 1438SOL    HW1 5057   1.796   1.581  11.978
 1438SOL    HW2 5058   1.848   1.499  12.095
 1439SOL     OW 5059   0.226   1.304  13.028
 1439SOL    HW1 5060   0.153   1.248  13.001
 1439SOL    HW2 5061   0.213   1.317  13.122
 1440SOL     OW 5062   0.120   1.279  11.893
 1440SOL    HW1 5063   0.134   1.228  11.973
 1440SOL    HW2 5064   0.106   1.214  11.824
 1441SOL     OW 5065   0.681   1.405  12.801
 1441SOL    HW1 5066   0.601   1.362  12.832
 1441SOL    HW2 5067   0.677   1.493  12.839
 1442SOL     OW 5068   1.811   0.183  12.410
 1442SOL    HW1 5069   1.814   0.089  12.425
 1442SOL    HW2 5070   1.826   0.193  12.316
 1443SOL     OW 5071   0.444   0.437  11.703
 1443SOL    HW1 5072   0.460   0.362  11.647
 1443SOL    HW2 5073   0.388   0.403  11.773
 1444SOL     OW 5074   1.701   1.504  12.273
 1444SOL    HW1 5075   1.623   1.478  12.224
 1444SOL    HW2 5076   1.717   1.431  12.333
 1445SOL     OW 5077   0.333   0.557  12.465
 1445SOL    HW1 5078   0.389   0.501  12.518
 1445SOL    HW2 5079   0.348   0.528  12.375
 1446SOL     OW 5080   0.828   1.580  11.849
 1446SOL    HW1 5081   0.814   1.638  11.775
 1446SOL    HW2 5082   0.753   1.520  11.847
 1447SOL     OW 5083   1.461   0.253  12.283
 1447SOL    HW1 5084   1.478   0.167  12.319
 1447SOL    HW2 5085   1.405   0.296  12.348
 1448SOL     OW 5086   1.004   0.028  12.319
 1448SOL    HW1 5087   0.924   3.989  12.283
 1448SOL    HW2 5088   1.065   3.955  12.327
 1449SOL     OW 5089   0.772   1.333  11.489
 1449SOL    HW1 5090   0.744   1.242  11.496
 1449SOL    HW2 5091   0.854   1.337  11.539
 1450SOL     OW 5092   0.620   1.556  12.458
 1450SOL    HW1 5093   0.622   1.639  12.507
 1450SOL    HW2 5094   0.708   1.549  12.420
 1451SOL     OW 5095   1.312   0.074  11.337
 1451SOL    HW1 5096   1.324   3.996  11.283
 1451SOL    HW2 5097   1.226   0.061  11.378
 1452SOL     OW 5098   1.282   0.457  11.857
 1452SOL    HW1 5099   1.235   0.540  11.852
 1452SOL    HW2 5100   1.285   0.437  11.951
 1453SOL     OW 5101   1.588   0.210  12.040
 1453SOL    HW1 5102   1.539   0.234  12.118
 1453SOL    HW2 5103   1.588   0.290  11.986
 1454SOL     OW 5104   0.047   1.049  11.412
 1454SOL    HW1 5105   0.141   1.033  11.404
 1454SOL    HW2 5106   0.011   0.966  11.444
 1455SOL     OW 5107   0.887   1.656  11.512
 1455SOL    HW1 5108   0.813   1.639  11.454
 1455SOL    HW2 5109   0.858   1.730  11.566
 1456SOL     OW 5110   0.231   0.627  13.151
 1456SOL    HW1 5111   0.138   0.631  13.172
 1456SOL    HW2 5112   0.234   0.598  13.060
 1457SOL     OW 5113   0.282   0.253   0.145
 1457SOL    HW1 5114   0.333   0.319   0.192
 1457SOL    HW2 5115   0.205   0.300   0.113
 1458SOL     OW 5116   0.018   0.382  13.666
 1458SOL    HW1 5117   3.926   0.402  13.648
 1458SOL    HW2 5118   0.028   0.291  13.640
 1459SOL     OW 5119   1.513   1.473  13.721
 1459SOL    HW1 5120   1.457   1.416  13.774
 1459SOL    HW2 5121   1.462   1.491  13.642
 1460SOL     OW 5122   1.131   0.699  13.733
 1460SOL    HW1 5123   1.184   0.775  13.708
 1460SOL    HW2 5124   1.077   0.731  13.805
 1461SOL     OW 5125   1.769   0.616  13.258
 1461SOL    HW1 5126   1.746   0.611  13.165
 1461SOL    HW2 5127   1.755   0.527  13.290
 1462SOL     OW 5128   0.687   1.011  13.671
 1462SOL    HW1 5129   0.740   0.990  13.748
 1462SOL    HW2 5130   0.613   1.062  13.705
 1463SOL     OW 5131   1.617   0.455  13.760
 1463SOL    HW1 5132   1.534   0.475  13.717
 1463SOL    HW2 5133   1.646   0.539  13.796
 1464SOL     OW 5134   0.218   1.714  13.485
 1464SOL    HW1 5135   0.236   1.788  13.544
 1464SOL    HW2 5136   0.297   1.707  13.431
 1465SOL     OW 5137   0.248   1.445  13.571
 1465SOL    HW1 5138   0.219   1.535  13.561
 1465SOL    HW2 5139   0.185   1.405  13.630
 1466SOL     OW 5140   0.256   1.076   0.018
 1466SOL    HW1 5141   0.274   1.034   0.103
 1466SOL    HW2 5142   0.215   1.159   0.041
 1467SOL     OW 5143   0.577   0.986  13.171
 1467SOL    HW1 5144   0.625   1.030  13.101
 1467SOL    HW2 5145   0.618   1.016  13.252
 1468SOL     OW 5146   0.146   0.651  13.609
 1468SOL    HW1 5147   0.088   0.576  13.601
 1468SOL    HW2 5148   0.101   0.711  13.668
 1469SOL     OW 5149   0.044   1.591  13.173
 1469SOL    HW1 5150   0.036   1.499  13.197
 1469SOL    HW2 5151   3.963   1.631  13.204
 1470SOL     OW 5152   1.684   0.912  13.666
 1470SOL    HW1 5153   1.772   0.881  13.646
 1470SOL    HW2 5154   1.662   0.970  13.592
 1471SOL     OW 5155   1.648   1.103  13.457
 1471SOL    HW1 5156   1.734   1.105  13.415
 1471SOL    HW2 5157   1.655   1.163  13.531
 1472SOL     OW 5158   0.612   1.387  13.762
 1472SOL    HW1 5159   0.562   1.307  13.778
 1472SOL    HW2 5160   0.582   1.416  13.675
 1473SOL     OW 5161   0.821   0.003  13.549
 1473SOL    HW1 5162   0.865   0.084  13.524
 1473SOL    HW2 5163   0.727   0.025  13.547
 1474SOL     OW 5164   1.530   0.994  13.233
 1474SOL    HW1 5165   1.461   0.937  13.266
 1474SOL    HW2 5166   1.572   1.030  13.311
 1475SOL     OW 5167   1.576   1.723  13.607
 1475SOL    HW1 5168   1.581   1.700  13.514
 1475SOL    HW2 5169   1.589   1.640  13.653
 1476SOL     OW 5170   0.594   0.718  13.297
 1476SOL    HW1 5171   0.600   0.802  13.252
 1476SOL    HW2 5172   0.532   0.733  13.368
 1477SOL     OW 5173   1.243   0.339   0.055
 1477SOL    HW1 5174   1.152   0.327   0.082
 1477SOL    HW2 5175   1.294   0.294   0.122
 1478SOL     OW 5176   1.573   1.660  13.336
 1478SOL    HW1 5177   1.667   1.655  13.321
 1478SOL    HW2 5178   1.534   1.648  13.249
 1479SOL     OW 5179   1.049   0.697  13.459
 1479SOL    HW1 5180   1.064   0.684  13.553
 1479SOL    HW2 5181   0.967   0.651  13.441
 1480SOL     OW 5182   0.079   0.840  13.807
 1480SOL    HW1 5183   0.159   0.819  13.855
 1480SOL    HW2 5184   0.077   0.935  13.803
 1481SOL     OW 5185   0.894   0.352  13.231
 1481SOL    HW1 5186   0.936   0.411  13.169
 1481SOL    HW2 5187   0.894   0.267  13.186
 1482SOL     OW 5188   1.365   1.136  13.553
 1482SOL    HW1 5189   1.454   1.135  13.518
 1482SOL    HW2 5190   1.320   1.204  13.504
 1483SOL     OW 5191   0.997   1.438  13.502
 1483SOL    HW1 5192   0.968   1.516  13.453
 1483SOL    HW2 5193   0.969   1.454  13.592
 1484SOL     OW 5194   0.405   1.800  13.859
 1484SOL    HW1 5195   0.418   1.705  13.868
 1484SOL    HW2 5196   0.484   1.838  13.896
 1485SOL     OW 5197   1.790   1.046  13.899
 1485SOL    HW1 5198   1.732   1.048  13.822
 1485SOL    HW2 5199   1.730   1.041   0.074
 1486SOL     OW 5200   0.311   0.954  13.277
 1486SOL    HW1 5201   0.394   0.977  13.235
 1486SOL    HW2 5202   0.297   0.862  13.254
 1487SOL     OW 5203   1.490   0.733  13.752
 1487SOL    HW1 5204   1.479   0.694  13.839
 1487SOL    HW2 5205   1.560   0.797  13.763
 1488SOL     OW 5206   1.122   1.777  13.263
 1488SOL    HW1 5207   1.048   1.738  13.309
 1488SOL    HW2 5208   1.145   1.714  13.195
 1489SOL     OW 5209   1.630   1.383  13.123
 1489SOL    HW1 5210   1.586   1.466  13.103
 1489SOL    HW2 5211   1.565   1.316  13.104
 1490SOL     OW 5212   0.466   1.739  13.350
 1490SOL    HW1 5213   0.508   1.795  13.415
 1490SOL    HW2 5214   0.539   1.705  13.297
 1491SOL     OW 5215   1.428   0.157  13.446
 1491SOL    HW1 5216   1.393   0.107  13.373
 1491SOL    HW2 5217   1.520   0.131  13.452
 1492SOL     OW 5218   0.921   1.689   0.012
 1492SOL    HW1 5219   0.950   1.621   0.073
 1492SOL    HW2 5220   0.883   1.640  13.838
 1493SOL     OW 5221   0.398   0.697  13.503
 1493SOL    HW1 5222   0.425   0.606  13.516
 1493SOL    HW2 5223   0.307   0.699  13.532
 1494SOL     OW 5224   0.645   0.131  13.137
 1494SOL    HW1 5225   0.670   0.048  13.177
 1494SOL    HW2 5226   0.584   0.107  13.067
 1495SOL     OW 5227   0.551   0.055  13.522
 1495SOL    HW1 5228   0.473   0.059  13.578
 1495SOL    HW2 5229   0.550   0.138  13.474
 1496SOL     OW 5230   1.430   1.200  13.076
 1496SOL    HW1 5231   1.459   1.123  13.125
 1496SOL    HW2 5232   1.344   1.221  13.112
 1497SOL     OW 5233   0.343   0.052  13.234
 1497SOL    HW1 5234   0.359   0.091  13.149
 1497SOL    HW2 5235   0.430   0.030  13.268
 1498SOL     OW 5236   0.941   0.248  13.493
 1498SOL    HW1 5237   0.914   0.290  13.412
 1498SOL    HW2 5238   1.037   0.255  13.493
 1499SOL     OW 5239   0.470   1.144  13.767
 1499SOL    HW1 5240   0.397   1.122  13.826
 1499SOL    HW2 5241   0.433   1.133  13.679
 1500SOL     OW 5242   1.262   1.793  13.635
 1500SOL    HW1 5243   1.308   1.860  13.585
 1500SOL    HW2 5244   1.195   1.842  13.683
 1501SOL     OW 5245   1.022   0.543  13.062
 1501SOL    HW1 5246   0.979   0.626  13.042
 1501SOL    HW2 5247   1.086   0.565  13.130
 1502SOL     OW 5248   0.898   0.474  13.669
 1502SOL    HW1 5249   0.827   0.518  13.622
 1502SOL    HW2 5250   0.904   0.388  13.627
 1503SOL     OW 5251   1.001   0.038  13.795
 1503SOL    HW1 5252   0.970   0.064  13.708
 1503SOL    HW2 5253   1.023   3.946  13.786
 1504SOL     OW 5254   1.847   0.818  13.417
 1504SOL    HW1 5255   1.904   0.766  13.473
 1504SOL    HW2 5256   1.816   0.756  13.350
 1505SOL     OW 5257   0.487   1.420  13.194
 1505SOL    HW1 5258   0.411   1.389  13.244
 1505SOL    HW2 5259   0.472   1.389  13.105
 1506SOL     OW 5260   1.680   1.257  13.668
 1506SOL    HW1 5261   1.773   1.265  13.691
 1506SOL    HW2 5262   1.640   1.337  13.701
 1507SOL     OW 5263   1.395   0.576  13.104
 1507SOL    HW1 5264   1.333   0.555  13.174
 1507SOL    HW2 5265   1.481   0.555  13.142
 1508SOL     OW 5266   0.558   0.271  13.352
 1508SOL    HW1 5267   0.603   0.229  13.279
 1508SOL    HW2 5268   0.528   0.355  13.317
 1509SOL     OW 5269   0.708   1.063  13.400
 1509SOL    HW1 5270   0.694   1.048  13.493
 1509SOL    HW2 5271   0.785   1.009  13.378
 1510SOL     OW 5272   0.373   1.103  13.516
 1510SOL    HW1 5273   0.366   1.184  13.464
 1510SOL    HW2 5274   0.371   1.033  13.451
 1511SOL     OW 5275   0.566   0.540  13.863
 1511SOL    HW1 5276   0.579   0.608  13.797
 1511SOL    HW2 5277   0.624   0.566   0.035
 1512SOL     OW 5278   1.240   1.345  13.417
 1512SOL    HW1 5279   1.293   1.419  13.444
 1512SOL    HW2 5280   1.153   1.364  13.452
 1513SOL     OW 5281   1.585   0.633  13.513
 1513SOL    HW1 5282   1.545   0.684  13.583
 1513SOL    HW2 5283   1.626   0.698  13.456
 1514SOL     OW 5284   1.201   0.533  13.294
 1514SOL    HW1 5285   1.209   0.454  13.347
 1514SOL    HW2 5286   1.158   0.596  13.352
 1515SOL     OW 5287   0.333   0.049  13.680
 1515SOL    HW1 5288   0.310   0.141  13.690
 1515SOL    HW2 5289   0.274   0.003  13.739
 1516SOL     OW 5290   1.589   0.391  13.407
 1516SOL    HW1 5291   1.571   0.325  13.475
 1516SOL    HW2 5292   1.580   0.475  13.452
 1517SOL     OW 5293   1.505   0.279  13.167
 1517SOL    HW1 5294   1.432   0.218  13.181
 1517SOL    HW2 5295   1.519   0.319  13.252
 1518SOL     OW 5296   1.288   0.826  13.062
 1518SOL    HW1 5297   1.332   0.741  13.066
 1518SOL    HW2 5298   1.321   0.866  12.981
 1519SOL     OW 5299   4.000   1.318  13.215
 1519SOL    HW1 5300   3.906   1.334  13.219
 1519SOL    HW2 5301   0.009   1.224  13.233
 1520SOL     OW 5302   0.818   0.575  13.388
 1520SOL    HW1 5303   0.822   0.496  13.333
 1520SOL    HW2 5304   0.741   0.622  13.356
 1521SOL     OW 5305   0.453   0.492  13.232
 1521SOL    HW1 5306   0.517   0.561  13.248
 1521SOL    HW2 5307   0.373   0.539  13.208
 1522SOL     OW 5308   1.315   0.851  13.338
 1522SOL    HW1 5309   1.237   0.827  13.388
 1522SOL    HW2 5310   1.288   0.840  13.246
 1523SOL     OW 5311   1.695   0.119  13.461
 1523SOL    HW1 5312   1.788   0.131  13.441
 1523SOL    HW2 5313   1.695   0.051  13.529
 1524SOL     OW 5314   1.366   1.564  13.505
 1524SOL    HW1 5315   1.427   1.600  13.440
 1524SOL    HW2 5316   1.328   1.641  13.547
 1525SOL     OW 5317   1.289   0.913  13.684
 1525SOL    HW1 5318   1.366   0.859  13.671
 1525SOL    HW2 5319   1.311   0.997  13.643
 1526SOL     OW 5320   0.670   1.622  13.189
 1526SOL    HW1 5321   0.681   1.634  13.095
 1526SOL    HW2 5322   0.615   1.544  13.197
 1527SOL     OW 5323   1.827   0.173   0.064
 1527SOL    HW1 5324   1.866   0.086   0.055
 1527SOL    HW2 5325   1.735   0.160   0.042
 1528SOL     OW 5326   0.285   0.309  13.737
 1528SOL    HW1 5327   0.205   0.355  13.712
 1528SOL    HW2 5328   0.292   0.323  13.832
 1529SOL     OW 5329   1.207   1.604  13.065
 1529SOL    HW1 5330   1.197   1.513  13.092
 1529SOL    HW2 5331   1.142   1.617  12.997
 1530SOL     OW 5332   0.918   0.913  13.328
 1530SOL    HW1 5333   0.978   0.943  13.260
 1530SOL    HW2 5334   0.964   0.839  13.369
 1531SOL     OW 5335   1.487   1.625  13.075
 1531SOL    HW1 5336   1.393   1.618  13.059
 1531SOL    HW2 5337   1.526   1.633  12.988
 1532SOL     OW 5338   1.050   1.091  13.755
 1532SOL    HW1 5339   0.963   1.053  13.742
 1532SOL    HW2 5340   1.104   1.052  13.686
 1533SOL     OW 5341   0.602   1.493  13.506
 1533SOL    HW1 5342   0.647   1.441  13.440
 1533SOL    HW2 5343   0.528   1.532  13.459
 1534SOL     OW 5344   0.253   1.340  13.325
 1534SOL    HW1 5345   0.159   1.348  13.306
 1534SOL    HW2 5346   0.263   1.379  13.412
 1535SOL     OW 5347   0.088   0.323  13.061
 1535SOL    HW1 5348   3.992   0.320  13.053
 1535SOL    HW2 5349   0.113   0.405  13.019
 1536SOL     OW 5350   0.043   0.169  13.306
 1536SOL    HW1 5351   0.044   0.234  13.236
 1536SOL    HW2 5352   0.120   0.187  13.359
 1537SOL     OW 5353   1.177   1.337  13.148
 1537SOL    HW1 5354   1.086   1.308  13.150
 1537SOL    HW2 5355   1.204   1.337  13.240
 1538SOL     OW 5356   1.221   0.330  13.483
 1538SOL    HW1 5357   1.290   0.265  13.473
 1538SOL    HW2 5358   1.247   0.381  13.559
 1539SOL     OW 5359   0.594   0.750  13.692
 1539SOL    HW1 5360   0.628   0.838  13.673
 1539SOL    HW2 5361   0.524   0.737  13.628
 1540SOL     OW 5362   0.863   1.366  13.071
 1540SOL    HW1 5363   0.825   1.393  13.154
 1540SOL    HW2 5364   0.880   1.448  13.024
 1541SOL     OW 5365   0.658   1.854   0.060
 1541SOL    HW1 5366   0.676   1.947   0.046
 1541SOL    HW2 5367   0.744   1.815   0.074
 1542SOL     OW 5368   0.827   0.965  13.896
 1542SOL    HW1 5369   0.856   0.883   0.037
 1542SOL    HW2 5370   0.853   1.033   0.059
 1543SOL     OW 5371   1.077   0.987  13.123
 1543SOL    HW1 5372   1.056   1.039  13.046
 1543SOL    HW2 5373   1.152   0.934  13.096
 1544SOL     OW 5374   0.115   1.274  13.757
 1544SOL    HW1 5375   0.053   1.232  13.816
 1544SOL    HW2 5376   0.122   1.215  13.683
 1545SOL     OW 5377   0.449   0.440  13.557
 1545SOL    HW1 5378   0.471   0.366  13.501
 1545SOL    HW2 5379   0.403   0.401  13.632
 1546SOL     OW 5380   1.703   1.505   0.318
 1546SOL    HW1 5381   1.668   1.453   0.247
 1546SOL    HW2 5382   1.766   1.446   0.361
 1547SOL     OW 5383   0.820   1.552  13.706
 1547SOL    HW1 5384   0.794   1.608  13.633
 1547SOL    HW2 5385   0.745   1.495  13.721
 1548SOL     OW 5386   0.772   1.334  13.347
 1548SOL    HW1 5387   0.744   1.243  13.355
 1548SOL    HW2 5388   0.853   1.338  13.399
 1549SOL     OW 5389   1.312   0.078  13.206
 1549SOL    HW1 5390   1.335   0.002  13.151
 1549SOL    HW2 5391   1.224   0.058  13.238
 1550SOL     OW 5392   1.291   0.459  13.715
 1550SOL    HW1 5393   1.242   0.541  13.716
 1550SOL    HW2 5394   1.286   0.428  13.806
 1551SOL     OW 5395   0.047   1.049  13.270
 1551SOL    HW1 5396   0.141   1.033  13.262
 1551SOL    HW2 5397   0.011   0.967  13.305
 1552SOL     OW 5398   0.887   1.655  13.374
 1552SOL    HW1 5399   0.813   1.639  13.316
 1552SOL    HW2 5400   0.859   1.727  13.430
 1553SOL     OW 5401   0.232   2.512   0.121
 1553SOL    HW1 5402   0.137   2.505   0.134
 1553SOL    HW2 5403   0.247   2.469   0.036
 1554SOL     OW 5404   0.229   2.134   0.987
 1554SOL    HW1 5405   0.250   2.100   1.074
 1554SOL    HW2 5406   0.134   2.126   0.981
 1555SOL     OW 5407   0.010   2.225   0.631
 1555SOL    HW1 5408   3.924   2.243   0.669
 1555SOL    HW2 5409   3.991   2.191   0.544
 1556SOL     OW 5410   0.579   3.150   1.189
 1556SOL    HW1 5411   0.493   3.154   1.148
 1556SOL    HW2 5412   0.594   3.238   1.222
 1557SOL     OW 5413   1.563   3.372   0.708
 1557SOL    HW1 5414   1.519   3.350   0.789
 1557SOL    HW2 5415   1.493   3.375   0.642
 1558SOL     OW 5416   1.132   2.560   0.700
 1558SOL    HW1 5417   1.180   2.641   0.686
 1558SOL    HW2 5418   1.085   2.573   0.782
 1559SOL     OW 5419   1.767   2.462   0.226
 1559SOL    HW1 5420   1.792   2.412   0.148
 1559SOL    HW2 5421   1.725   2.398   0.283
 1560SOL     OW 5422   0.753   3.001   1.041
 1560SOL    HW1 5423   0.689   3.037   1.103
 1560SOL    HW2 5424   0.789   3.078   0.997
 1561SOL     OW 5425   0.870   2.632   1.823
 1561SOL    HW1 5426   0.860   2.703   1.886
 1561SOL    HW2 5427   0.893   2.676   1.741
 1562SOL     OW 5428   0.684   2.863   0.647
 1562SOL    HW1 5429   0.751   2.852   0.716
 1562SOL    HW2 5430   0.616   2.916   0.688
 1563SOL     OW 5431   0.712   3.012   1.816
 1563SOL    HW1 5432   0.760   3.090   1.844
 1563SOL    HW2 5433   0.630   3.046   1.778
 1564SOL     OW 5434   0.351   3.264   1.077
 1564SOL    HW1 5435   0.268   3.250   1.031
 1564SOL    HW2 5436   0.401   3.322   1.021
 1565SOL     OW 5437   1.460   3.362   1.357
 1565SOL    HW1 5438   1.513   3.441   1.366
 1565SOL    HW2 5439   1.394   3.369   1.425
 1566SOL     OW 5440   0.450   2.261   1.487
 1566SOL    HW1 5441   0.525   2.201   1.491
 1566SOL    HW2 5442   0.374   2.204   1.501
 1567SOL     OW 5443   1.605   2.301   0.735
 1567SOL    HW1 5444   1.523   2.324   0.690
 1567SOL    HW2 5445   1.629   2.380   0.783
 1568SOL     OW 5446   0.226   3.571   0.471
 1568SOL    HW1 5447   0.222   3.656   0.516
 1568SOL    HW2 5448   0.301   3.579   0.412
 1569SOL     OW 5449   1.137   3.203   1.693
 1569SOL    HW1 5450   1.178   3.198   1.780
 1569SOL    HW2 5451   1.085   3.124   1.686
 1570SOL     OW 5452   0.244   3.307   0.543
 1570SOL    HW1 5453   0.223   3.399   0.527
 1570SOL    HW2 5454   0.170   3.275   0.594
 1571SOL     OW 5455   0.247   2.928   0.883
 1571SOL    HW1 5456   0.267   2.844   0.923
 1571SOL    HW2 5457   0.195   2.974   0.949
 1572SOL     OW 5458   0.611   3.648   1.428
 1572SOL    HW1 5459   0.529   3.634   1.474
 1572SOL    HW2 5460   0.637   3.737   1.452
 1573SOL     OW 5461   0.562   2.844   0.164
 1573SOL    HW1 5462   0.588   2.887   0.083
 1573SOL    HW2 5463   0.618   2.883   0.231
 1574SOL     OW 5464   1.563   1.993   1.449
 1574SOL    HW1 5465   1.575   2.079   1.409
 1574SOL    HW2 5466   1.563   2.011   1.543
 1575SOL     OW 5467   0.141   2.517   0.572
 1575SOL    HW1 5468   0.087   2.438   0.574
 1575SOL    HW2 5469   0.106   2.570   0.644
 1576SOL     OW 5470   1.838   3.606   0.337
 1576SOL    HW1 5471   1.900   3.573   0.402
 1576SOL    HW2 5472   1.862   3.698   0.326
 1577SOL     OW 5473   0.030   3.469   0.140
 1577SOL    HW1 5474   0.033   3.374   0.155
 1577SOL    HW2 5475   3.937   3.491   0.148
 1578SOL     OW 5476   1.688   2.779   0.643
 1578SOL    HW1 5477   1.770   2.737   0.618
 1578SOL    HW2 5478   1.665   2.832   0.567
 1579SOL     OW 5479   1.648   2.966   0.432
 1579SOL    HW1 5480   1.735   2.970   0.392
 1579SOL    HW2 5481   1.651   3.030   0.503
 1580SOL     OW 5482   0.139   2.615   1.589
 1580SOL    HW1 5483   0.234   2.610   1.587
 1580SOL    HW2 5484   0.120   2.704   1.620
 1581SOL     OW 5485   0.615   3.248   0.735
 1581SOL    HW1 5486   0.567   3.165   0.744
 1581SOL    HW2 5487   0.599   3.275   0.645
 1582SOL     OW 5488   1.287   3.099   1.422
 1582SOL    HW1 5489   1.319   3.031   1.362
 1582SOL    HW2 5490   1.346   3.094   1.498
 1583SOL     OW 5491   0.821   1.862   0.512
 1583SOL    HW1 5492   0.861   1.947   0.490
 1583SOL    HW2 5493   0.728   1.881   0.519
 1584SOL     OW 5494   0.184   2.813   1.279
 1584SOL    HW1 5495   0.272   2.777   1.266
 1584SOL    HW2 5496   0.132   2.774   1.209
 1585SOL     OW 5497   1.530   2.859   0.205
 1585SOL    HW1 5498   1.462   2.801   0.237
 1585SOL    HW2 5499   1.571   2.896   0.283
 1586SOL     OW 5500   1.217   3.666   1.627
 1586SOL    HW1 5501   1.194   3.727   1.557
 1586SOL    HW2 5502   1.218   3.580   1.585
 1587SOL     OW 5503   0.341   2.109   1.816
 1587SOL    HW1 5504   0.378   2.197   1.824
 1587SOL    HW2 5505   0.249   2.119   1.841
 1588SOL     OW 5506   1.466   3.281   0.951
 1588SOL    HW1 5507   1.398   3.296   1.016
 1588SOL    HW2 5508   1.453   3.190   0.924
 1589SOL     OW 5509   1.659   3.600   0.588
 1589SOL    HW1 5510   1.643   3.577   0.496
 1589SOL    HW2 5511   1.634   3.523   0.637
 1590SOL     OW 5512   0.598   2.579   0.265
 1590SOL    HW1 5513   0.599   2.662   0.217
 1590SOL    HW2 5514   0.537   2.594   0.338
 1591SOL     OW 5515   1.280   2.221   0.934
 1591SOL    HW1 5516   1.191   2.185   0.944
 1591SOL    HW2 5517   1.334   2.165   0.990
 1592SOL     OW 5518   1.561   3.594   0.314
 1592SOL    HW1 5519   1.657   3.593   0.312
 1592SOL    HW2 5520   1.535   3.559   0.229
 1593SOL     OW 5521   0.791   2.480   1.451
 1593SOL    HW1 5522   0.765   2.455   1.539
 1593SOL    HW2 5523   0.753   2.412   1.394
 1594SOL     OW 5524   1.393   2.335   1.678
 1594SOL    HW1 5525   1.396   2.381   1.762
 1594SOL    HW2 5526   1.455   2.263   1.688
 1595SOL     OW 5527   0.953   2.748   1.584
 1595SOL    HW1 5528   1.007   2.679   1.547
 1595SOL    HW2 5529   0.905   2.783   1.509
 1596SOL     OW 5530   0.993   2.274   1.237
 1596SOL    HW1 5531   0.906   2.294   1.271
 1596SOL    HW2 5532   0.976   2.229   1.154
 1597SOL     OW 5533   1.051   2.563   0.429
 1597SOL    HW1 5534   1.068   2.554   0.523
 1597SOL    HW2 5535   0.969   2.517   0.415
 1598SOL     OW 5536   0.082   2.690   0.791
 1598SOL    HW1 5537   0.157   2.660   0.842
 1598SOL    HW2 5538   0.098   2.783   0.777
 1599SOL     OW 5539   0.127   3.717   1.577
 1599SOL    HW1 5540   0.135   3.685   1.667
 1599SOL    HW2 5541   0.035   3.704   1.555
 1600SOL     OW 5542   0.870   2.222   0.215
 1600SOL    HW1 5543   0.908   2.282   0.152
 1600SOL    HW2 5544   0.883   2.135   0.177
 1601SOL     OW 5545   1.683   2.448   1.829
 1601SOL    HW1 5546   1.653   2.519   1.774
 1601SOL    HW2 5547   1.722   2.385   1.769
 1602SOL     OW 5548   1.378   3.004   0.543
 1602SOL    HW1 5549   1.456   2.991   0.489
 1602SOL    HW2 5550   1.325   3.067   0.495
 1603SOL     OW 5551   0.546   2.041   0.894
 1603SOL    HW1 5552   0.553   2.072   0.985
 1603SOL    HW2 5553   0.547   2.120   0.841
 1604SOL     OW 5554   1.004   3.305   0.474
 1604SOL    HW1 5555   0.970   3.379   0.424
 1604SOL    HW2 5556   0.983   3.326   0.565
 1605SOL     OW 5557   0.359   3.670   0.862
 1605SOL    HW1 5558   0.438   3.617   0.874
 1605SOL    HW2 5559   0.389   3.760   0.871
 1606SOL     OW 5560   1.800   2.913   0.870
 1606SOL    HW1 5561   1.745   2.898   0.792
 1606SOL    HW2 5562   1.737   2.922   0.942
 1607SOL     OW 5563   1.228   3.399   1.511
 1607SOL    HW1 5564   1.214   3.327   1.572
 1607SOL    HW2 5565   1.160   3.387   1.445
 1608SOL     OW 5566   0.310   2.793   0.241
 1608SOL    HW1 5567   0.400   2.808   0.214
 1608SOL    HW2 5568   0.298   2.699   0.235
 1609SOL     OW 5569   1.480   2.604   0.724
 1609SOL    HW1 5570   1.473   2.564   0.811
 1609SOL    HW2 5571   1.557   2.661   0.730
 1610SOL     OW 5572   0.468   3.122   1.737
 1610SOL    HW1 5573   0.442   3.130   1.645
 1610SOL    HW2 5574   0.385   3.126   1.785
 1611SOL     OW 5575   1.126   3.639   0.232
 1611SOL    HW1 5576   1.062   3.594   0.286
 1611SOL    HW2 5577   1.152   3.574   0.167
 1612SOL     OW 5578   0.204   2.136   1.508
 1612SOL    HW1 5579   0.114   2.168   1.501
 1612SOL    HW2 5580   0.195   2.049   1.548
 1613SOL     OW 5581   1.635   3.236   0.085
 1613SOL    HW1 5582   1.599   3.320   0.055
 1613SOL    HW2 5583   1.566   3.172   0.067
 1614SOL     OW 5584   0.467   3.604   0.321
 1614SOL    HW1 5585   0.504   3.665   0.384
 1614SOL    HW2 5586   0.542   3.572   0.271
 1615SOL     OW 5587   1.404   1.967   0.433
 1615SOL    HW1 5588   1.387   1.949   0.340
 1615SOL    HW2 5589   1.488   1.924   0.450
 1616SOL     OW 5590   0.253   3.656   1.227
 1616SOL    HW1 5591   0.297   3.590   1.279
 1616SOL    HW2 5592   0.251   3.620   1.138
 1617SOL     OW 5593   0.938   3.563   0.900
 1617SOL    HW1 5594   1.016   3.511   0.921
 1617SOL    HW2 5595   0.894   3.513   0.831
 1618SOL     OW 5596   0.397   2.557   0.471
 1618SOL    HW1 5597   0.421   2.465   0.484
 1618SOL    HW2 5598   0.306   2.562   0.499
 1619SOL     OW 5599   1.533   2.081   1.723
 1619SOL    HW1 5600   1.545   2.102   1.816
 1619SOL    HW2 5601   1.460   2.019   1.722
 1620SOL     OW 5602   0.765   2.140   1.755
 1620SOL    HW1 5603   0.844   2.085   1.753
 1620SOL    HW2 5604   0.719   2.113   1.834
 1621SOL     OW 5605   0.876   3.382   1.194
 1621SOL    HW1 5606   0.860   3.346   1.107
 1621SOL    HW2 5607   0.946   3.328   1.230
 1622SOL     OW 5608   1.341   2.451   1.432
 1622SOL    HW1 5609   1.371   2.420   1.518
 1622SOL    HW2 5610   1.376   2.539   1.425
 1623SOL     OW 5611   0.817   3.254   0.941
 1623SOL    HW1 5612   0.902   3.243   0.898
 1623SOL    HW2 5613   0.754   3.257   0.869
 1624SOL     OW 5614   0.928   2.371   0.902
 1624SOL    HW1 5615   0.904   2.363   0.809
 1624SOL    HW2 5616   0.959   2.284   0.926
 1625SOL     OW 5617   0.557   1.922   0.503
 1625SOL    HW1 5618   0.476   1.920   0.553
 1625SOL    HW2 5619   0.549   2.000   0.447
 1626SOL     OW 5620   1.431   3.068   0.044
 1626SOL    HW1 5621   1.450   2.988   0.092
 1626SOL    HW2 5622   1.339   3.086   0.064
 1627SOL     OW 5623   0.262   1.871   0.216
 1627SOL    HW1 5624   0.292   1.955   0.181
 1627SOL    HW2 5625   0.342   1.825   0.239
 1628SOL     OW 5626   0.942   2.108   0.461
 1628SOL    HW1 5627   0.911   2.149   0.380
 1628SOL    HW2 5628   1.036   2.127   0.462
 1629SOL     OW 5629   1.080   2.544   1.459
 1629SOL    HW1 5630   1.013   2.476   1.464
 1629SOL    HW2 5631   1.162   2.495   1.453
 1630SOL     OW 5632   1.221   3.433   0.795
 1630SOL    HW1 5633   1.237   3.499   0.727
 1630SOL    HW2 5634   1.291   3.447   0.859
 1631SOL     OW 5635   0.465   3.012   0.733
 1631SOL    HW1 5636   0.395   2.989   0.793
 1631SOL    HW2 5637   0.428   2.999   0.646
 1632SOL     OW 5638   1.266   3.657   0.608
 1632SOL    HW1 5639   1.314   3.722   0.555
 1632SOL    HW2 5640   1.194   3.707   0.646
 1633SOL     OW 5641   0.996   2.407   0.056
 1633SOL    HW1 5642   0.994   2.392  13.861
 1633SOL    HW2 5643   1.089   2.398   0.079
 1634SOL     OW 5644   0.082   2.434   1.390
 1634SOL    HW1 5645   0.172   2.421   1.359
 1634SOL    HW2 5646   0.088   2.504   1.455
 1635SOL     OW 5647   0.567   2.089   1.166
 1635SOL    HW1 5648   0.608   2.014   1.208
 1635SOL    HW2 5649   0.475   2.086   1.195
 1636SOL     OW 5650   0.867   2.320   0.639
 1636SOL    HW1 5651   0.824   2.376   0.574
 1636SOL    HW2 5652   0.888   2.240   0.592
 1637SOL     OW 5653   1.016   1.915   0.750
 1637SOL    HW1 5654   0.958   1.910   0.674
 1637SOL    HW2 5655   0.993   1.840   0.804
 1638SOL     OW 5656   1.438   3.024   0.857
 1638SOL    HW1 5657   1.367   2.959   0.856
 1638SOL    HW2 5658   1.462   3.034   0.765
 1639SOL     OW 5659   1.464   2.469   0.973
 1639SOL    HW1 5660   1.411   2.389   0.975
 1639SOL    HW2 5661   1.522   2.461   1.049
 1640SOL     OW 5662   1.848   2.672   0.382
 1640SOL    HW1 5663   1.902   2.620   0.440
 1640SOL    HW2 5664   1.816   2.610   0.316
 1641SOL     OW 5665   0.492   3.244   0.165
 1641SOL    HW1 5666   0.420   3.215   0.220
 1641SOL    HW2 5667   0.450   3.288   0.091
 1642SOL     OW 5668   1.672   3.124   0.647
 1642SOL    HW1 5669   1.767   3.128   0.659
 1642SOL    HW2 5670   1.643   3.214   0.661
 1643SOL     OW 5671   1.421   2.444   0.087
 1643SOL    HW1 5672   1.352   2.437   0.153
 1643SOL    HW2 5673   1.463   2.358   0.086
 1644SOL     OW 5674   0.532   2.124   0.326
 1644SOL    HW1 5675   0.583   2.089   0.252
 1644SOL    HW2 5676   0.500   2.209   0.295
 1645SOL     OW 5677   1.751   3.103   1.569
 1645SOL    HW1 5678   1.839   3.064   1.565
 1645SOL    HW2 5679   1.766   3.193   1.597
 1646SOL     OW 5680   1.057   3.214   1.332
 1646SOL    HW1 5681   0.982   3.184   1.383
 1646SOL    HW2 5682   1.132   3.173   1.374
 1647SOL     OW 5683   1.610   3.488   1.656
 1647SOL    HW1 5684   1.601   3.522   1.567
 1647SOL    HW2 5685   1.693   3.440   1.656
 1648SOL     OW 5686   1.131   3.067   1.104
 1648SOL    HW1 5687   1.072   3.105   1.169
 1648SOL    HW2 5688   1.100   3.101   1.020
 1649SOL     OW 5689   1.626   2.960   1.076
 1649SOL    HW1 5690   1.621   3.022   1.149
 1649SOL    HW2 5691   1.549   2.978   1.023
 1650SOL     OW 5692   0.918   1.957   1.394
 1650SOL    HW1 5693   0.941   1.939   1.303
 1650SOL    HW2 5694   0.997   1.997   1.431
 1651SOL     OW 5695   0.984   2.977   1.723
 1651SOL    HW1 5696   0.893   2.993   1.745
 1651SOL    HW2 5697   0.982   2.899   1.668
 1652SOL     OW 5698   0.715   2.922   0.377
 1652SOL    HW1 5699   0.701   2.903   0.470
 1652SOL    HW2 5700   0.790   2.867   0.353
 1653SOL     OW 5701   0.422   2.678   1.252
 1653SOL    HW1 5702   0.490   2.687   1.319
 1653SOL    HW2 5703   0.388   2.589   1.264
 1654SOL     OW 5704   1.265   2.238   1.277
 1654SOL    HW1 5705   1.297   2.315   1.323
 1654SOL    HW2 5706   1.174   2.259   1.255
 1655SOL     OW 5707   0.065   3.441   1.346
 1655SOL    HW1 5708   0.070   3.497   1.268
 1655SOL    HW2 5709   0.156   3.429   1.372
 1656SOL     OW 5710   0.362   2.965   0.481
 1656SOL    HW1 5711   0.355   3.043   0.426
 1656SOL    HW2 5712   0.380   2.894   0.420
 1657SOL     OW 5713   0.550   2.397   0.861
 1657SOL    HW1 5714   0.564   2.454   0.786
 1657SOL    HW2 5715   0.617   2.423   0.924
 1658SOL     OW 5716   1.248   3.208   0.399
 1658SOL    HW1 5717   1.304   3.282   0.424
 1658SOL    HW2 5718   1.161   3.233   0.430
 1659SOL     OW 5719   1.284   3.321   1.148
 1659SOL    HW1 5720   1.340   3.325   1.226
 1659SOL    HW2 5721   1.228   3.245   1.163
 1660SOL     OW 5722   1.579   2.489   0.477
 1660SOL    HW1 5723   1.531   2.534   0.547
 1660SOL    HW2 5724   1.609   2.560   0.420
 1661SOL     OW 5725   0.345   3.389   1.318
 1661SOL    HW1 5726   0.335   3.339   1.237
 1661SOL    HW2 5727   0.439   3.404   1.325
 1662SOL     OW 5728   0.416   2.601   1.601
 1662SOL    HW1 5729   0.478   2.646   1.545
 1662SOL    HW2 5730   0.456   2.516   1.618
 1663SOL     OW 5731   1.601   2.649   1.676
 1663SOL    HW1 5732   1.515   2.690   1.671
 1663SOL    HW2 5733   1.653   2.694   1.609
 1664SOL     OW 5734   0.996   1.989   1.753
 1664SOL    HW1 5735   1.054   2.062   1.729
 1664SOL    HW2 5736   1.044   1.910   1.729
 1665SOL     OW 5737   0.497   1.898   1.746
 1665SOL    HW1 5738   0.453   1.845   1.679
 1665SOL    HW2 5739   0.443   1.976   1.755
 1666SOL     OW 5740   0.585   2.736   1.031
 1666SOL    HW1 5741   0.618   2.826   1.032
 1666SOL    HW2 5742   0.529   2.730   1.109
 1667SOL     OW 5743   1.354   2.720   1.027
 1667SOL    HW1 5744   1.270   2.710   0.983
 1667SOL    HW2 5745   1.396   2.635   1.019
 1668SOL     OW 5746   1.219   2.404   0.273
 1668SOL    HW1 5747   1.222   2.323   0.325
 1668SOL    HW2 5748   1.163   2.463   0.323
 1669SOL     OW 5749   0.310   2.058   1.247
 1669SOL    HW1 5750   0.264   2.095   1.322
 1669SOL    HW2 5751   0.287   1.966   1.248
 1670SOL     OW 5752   0.059   3.167   1.280
 1670SOL    HW1 5753   0.091   3.127   1.362
 1670SOL    HW2 5754   0.052   3.260   1.301
 1671SOL     OW 5755   0.723   2.493   1.056
 1671SOL    HW1 5756   0.799   2.477   0.999
 1671SOL    HW2 5757   0.695   2.582   1.035
 1672SOL     OW 5758   1.736   2.821   1.853
 1672SOL    HW1 5759   1.690   2.758   1.798
 1672SOL    HW2 5760   1.676   2.836   1.927
 1673SOL     OW 5761   0.315   1.924   0.623
 1673SOL    HW1 5762   0.292   2.014   0.644
 1673SOL    HW2 5763   0.319   1.880   0.708
 1674SOL     OW 5764   1.622   2.241   0.380
 1674SOL    HW1 5765   1.623   2.182   0.456
 1674SOL    HW2 5766   1.596   2.326   0.417
 1675SOL     OW 5767   1.028   2.620   0.960
 1675SOL    HW1 5768   1.023   2.638   1.054
 1675SOL    HW2 5769   1.002   2.529   0.951
 1676SOL     OW 5770   0.986   3.430   1.720
 1676SOL    HW1 5771   0.967   3.471   1.636
 1676SOL    HW2 5772   1.027   3.347   1.697
 1677SOL     OW 5773   1.854   3.365   1.604
 1677SOL    HW1 5774   1.873   3.393   1.515
 1677SOL    HW2 5775   1.934   3.383   1.653
 1678SOL     OW 5776   0.353   2.783   1.800
 1678SOL    HW1 5777   0.431   2.804   1.851
 1678SOL    HW2 5778   0.381   2.716   1.738
 1679SOL     OW 5779   1.521   2.162   0.140
 1679SOL    HW1 5780   1.500   2.069   0.148
 1679SOL    HW2 5781   1.560   2.185   0.224
 1680SOL     OW 5782   1.292   2.690   0.055
 1680SOL    HW1 5783   1.340   2.607   0.060
 1680SOL    HW2 5784   1.310   2.724  13.868
 1681SOL     OW 5785   1.067   3.199   0.855
 1681SOL    HW1 5786   1.071   3.127   0.792
 1681SOL    HW2 5787   1.127   3.264   0.820
 1682SOL     OW 5788   0.314   2.664   0.949
 1682SOL    HW1 5789   0.408   2.682   0.944
 1682SOL    HW2 5790   0.308   2.574   0.982
 1683SOL     OW 5791   0.330   2.383   1.014
 1683SOL    HW1 5792   0.296   2.295   0.998
 1683SOL    HW2 5793   0.406   2.390   0.957
 1684SOL     OW 5794   1.134   2.236   1.684
 1684SOL    HW1 5795   1.086   2.291   1.746
 1684SOL    HW2 5796   1.222   2.275   1.680
 1685SOL     OW 5797   1.160   2.063   1.471
 1685SOL    HW1 5798   1.149   2.126   1.542
 1685SOL    HW2 5799   1.202   2.113   1.401
 1686SOL     OW 5800   0.013   3.189   0.189
 1686SOL    HW1 5801   3.918   3.204   0.183
 1686SOL    HW2 5802   0.021   3.097   0.215
 1687SOL     OW 5803   0.075   3.664   0.895
 1687SOL    HW1 5804   0.090   3.569   0.892
 1687SOL    HW2 5805   0.163   3.702   0.893
 1688SOL     OW 5806   0.507   3.425   0.917
 1688SOL    HW1 5807   0.573   3.492   0.937
 1688SOL    HW2 5808   0.550   3.367   0.854
 1689SOL     OW 5809   0.979   2.652   1.225
 1689SOL    HW1 5810   1.037   2.631   1.299
 1689SOL    HW2 5811   0.895   2.615   1.250
 1690SOL     OW 5812   0.038   2.420   1.109
 1690SOL    HW1 5813   0.120   2.396   1.067
 1690SOL    HW2 5814   0.057   2.417   1.203
 1691SOL     OW 5815   0.207   2.375   1.728
 1691SOL    HW1 5816   0.246   2.328   1.654
 1691SOL    HW2 5817   0.159   2.447   1.687
 1692SOL     OW 5818   1.374   2.801   1.657
 1692SOL    HW1 5819   1.397   2.894   1.654
 1692SOL    HW2 5820   1.371   2.774   1.565
 1693SOL     OW 5821   0.814   2.438   0.375
 1693SOL    HW1 5822   0.825   2.363   0.316
 1693SOL    HW2 5823   0.743   2.489   0.336
 1694SOL     OW 5824   1.639   2.464   1.185
 1694SOL    HW1 5825   1.628   2.409   1.262
 1694SOL    HW2 5826   1.724   2.439   1.150
 1695SOL     OW 5827   0.299   3.407   1.727
 1695SOL    HW1 5828   0.251   3.477   1.771
 1695SOL    HW2 5829   0.268   3.326   1.767
 1696SOL     OW 5830   0.706   2.311   1.257
 1696SOL    HW1 5831   0.653   2.237   1.228
 1696SOL    HW2 5832   0.700   2.375   1.186
 1697SOL     OW 5833   0.928   3.533   1.469
 1697SOL    HW1 5834   0.901   3.496   1.385
 1697SOL    HW2 5835   0.920   3.628   1.457
 1698SOL     OW 5836   0.431   2.356   0.234
 1698SOL    HW1 5837   0.506   2.416   0.240
 1698SOL    HW2 5838   0.360   2.410   0.201
 1699SOL     OW 5839   0.156   2.997   1.475
 1699SOL    HW1 5840   0.156   2.946   1.556
 1699SOL    HW2 5841   0.171   2.932   1.406
 1700SOL     OW 5842   1.324   2.907   1.221
 1700SOL    HW1 5843   1.346   2.844   1.153
 1700SOL    HW2 5844   1.255   2.961   1.182
 1701SOL     OW 5845   1.314   2.720   0.327
 1701SOL    HW1 5846   1.239   2.685   0.376
 1701SOL    HW2 5847   1.291   2.705   0.235
 1702SOL     OW 5848   1.772   3.602   1.150
 1702SOL    HW1 5849   1.834   3.631   1.083
 1702SOL    HW2 5850   1.750   3.512   1.127
 1703SOL     OW 5851   1.244   3.595   1.109
 1703SOL    HW1 5852   1.327   3.616   1.066
 1703SOL    HW2 5853   1.250   3.501   1.129
 1704SOL     OW 5854   0.076   3.075   1.028
 1704SOL    HW1 5855   0.083   3.103   1.119
 1704SOL    HW2 5856   3.983   3.086   1.007
 1705SOL     OW 5857   0.679   3.527   1.733
 1705SOL    HW1 5858   0.621   3.603   1.736
 1705SOL    HW2 5859   0.739   3.546   1.660
 1706SOL     OW 5860   0.927   1.971   0.130
 1706SOL    HW1 5861   0.961   1.960   0.041
 1706SOL    HW2 5862   0.976   1.907   0.182
 1707SOL     OW 5863   1.390   3.434   0.486
 1707SOL    HW1 5864   1.452   3.469   0.422
 1707SOL    HW2 5865   1.342   3.511   0.517
 1708SOL     OW 5866   0.170   3.623   1.831
 1708SOL    HW1 5867   0.114   3.571   1.890
 1708SOL    HW2 5868   0.216   3.683   1.890
 1709SOL     OW 5869   1.277   2.788   0.671
 1709SOL    HW1 5870   1.351   2.727   0.678
 1709SOL    HW2 5871   1.311   2.860   0.618
 1710SOL     OW 5872   0.811   3.136   1.429
 1710SOL    HW1 5873   0.782   3.176   1.511
 1710SOL    HW2 5874   0.740   3.155   1.367
 1711SOL     OW 5875   0.674   3.448   0.189
 1711SOL    HW1 5876   0.659   3.489   0.104
 1711SOL    HW2 5877   0.627   3.364   0.184
 1712SOL     OW 5878   1.623   3.588   1.390
 1712SOL    HW1 5879   1.674   3.593   1.309
 1712SOL    HW2 5880   1.609   3.679   1.416
 1713SOL     OW 5881   0.266   2.174   0.717
 1713SOL    HW1 5882   0.180   2.208   0.692
 1713SOL    HW2 5883   0.261   2.165   0.812
 1714SOL     OW 5884   1.222   3.461   0.034
 1714SOL    HW1 5885   1.210   3.370   0.061
 1714SOL    HW2 5886   1.177   3.467  13.849
 1715SOL     OW 5887   0.823   2.868   1.373
 1715SOL    HW1 5888   0.868   2.863   1.289
 1715SOL    HW2 5889   0.822   2.961   1.394
 1716SOL     OW 5890   0.922   2.773   0.289
 1716SOL    HW1 5891   0.992   2.812   0.236
 1716SOL    HW2 5892   0.965   2.702   0.336
 1717SOL     OW 5893   1.486   3.507   0.066
 1717SOL    HW1 5894   1.393   3.486   0.057
 1717SOL    HW2 5895   1.521   3.499  13.877
 1718SOL     OW 5896   0.374   3.165   1.491
 1718SOL    HW1 5897   0.359   3.245   1.441
 1718SOL    HW2 5898   0.297   3.111   1.474
 1719SOL     OW 5899   1.610   3.145   1.280
 1719SOL    HW1 5900   1.670   3.134   1.353
 1719SOL    HW2 5901   1.549   3.213   1.310
 1720SOL     OW 5902   1.055   2.970   0.708
 1720SOL    HW1 5903   0.984   2.919   0.746
 1720SOL    HW2 5904   1.119   2.905   0.679
 1721SOL     OW 5905   1.023   2.103   0.966
 1721SOL    HW1 5906   1.019   2.056   0.883
 1721SOL    HW2 5907   1.017   2.034   1.033
 1722SOL     OW 5908   0.606   3.349   0.482
 1722SOL    HW1 5909   0.652   3.300   0.413
 1722SOL    HW2 5910   0.536   3.395   0.436
 1723SOL     OW 5911   1.731   2.248   1.378
 1723SOL    HW1 5912   1.800   2.313   1.383
 1723SOL    HW2 5913   1.766   2.179   1.322
 1724SOL     OW 5914   0.264   3.178   0.308
 1724SOL    HW1 5915   0.185   3.206   0.261
 1724SOL    HW2 5916   0.261   3.228   0.390
 1725SOL     OW 5917   0.107   2.860   1.717
 1725SOL    HW1 5918   0.047   2.853   1.791
 1725SOL    HW2 5919   0.193   2.841   1.755
 1726SOL     OW 5920   0.675   2.058   1.500
 1726SOL    HW1 5921   0.760   2.037   1.459
 1726SOL    HW2 5922   0.698   2.090   1.587
 1727SOL     OW 5923   0.051   2.222   0.037
 1727SOL    HW1 5924   3.960   2.226   0.067
 1727SOL    HW2 5925   0.045   2.231  13.842
 1728SOL     OW 5926   1.428   2.720   1.399
 1728SOL    HW1 5927   1.379   2.781   1.343
 1728SOL    HW2 5928   1.517   2.723   1.365
 1729SOL     OW 5929   0.053   2.036   0.313
 1729SOL    HW1 5930   0.081   2.102   0.249
 1729SOL    HW2 5931   0.115   1.964   0.302
 1730SOL     OW 5932   1.186   3.208   0.123
 1730SOL    HW1 5933   1.091   3.196   0.112
 1730SOL    HW2 5934   1.201   3.195   0.216
 1731SOL     OW 5935   0.619   2.692   1.436
 1731SOL    HW1 5936   0.676   2.768   1.421
 1731SOL    HW2 5937   0.680   2.619   1.444
 1732SOL     OW 5938   1.486   3.641   0.981
 1732SOL    HW1 5939   1.508   3.698   0.907
 1732SOL    HW2 5940   1.570   3.619   1.021
 1733SOL     OW 5941   0.716   2.425   1.704
 1733SOL    HW1 5942   0.760   2.486   1.762
 1733SOL    HW2 5943   0.741   2.338   1.737
 1734SOL     OW 5944   1.473   3.060   1.631
 1734SOL    HW1 5945   1.460   3.074   1.724
 1734SOL    HW2 5946   1.566   3.077   1.616
 1735SOL     OW 5947   0.378   3.607   1.559
 1735SOL    HW1 5948   0.290   3.643   1.546
 1735SOL    HW2 5949   0.364   3.524   1.605
 1736SOL     OW 5950   1.669   2.743   1.254
 1736SOL    HW1 5951   1.660   2.658   1.211
 1736SOL    HW2 5952   1.657   2.807   1.183
 1737SOL     OW 5953   1.218   2.182   0.456
 1737SOL    HW1 5954   1.282   2.111   0.449
 1737SOL    HW2 5955   1.245   2.231   0.533
 1738SOL     OW 5956   0.588   2.599   0.673
 1738SOL    HW1 5957   0.627   2.685   0.657
 1738SOL    HW2 5958   0.522   2.590   0.604
 1739SOL     OW 5959   1.753   2.230   1.659
 1739SOL    HW1 5960   1.755   2.236   1.563
 1739SOL    HW2 5961   1.679   2.171   1.677
 1740SOL     OW 5962   1.744   2.805   1.509
 1740SOL    HW1 5963   1.735   2.900   1.521
 1740SOL    HW2 5964   1.728   2.791   1.416
 1741SOL     OW 5965   0.907   3.261   0.065
 1741SOL    HW1 5966   0.839   3.242   0.130
 1741SOL    HW2 5967   0.859   3.263  13.882
 1742SOL     OW 5968   0.659   3.651   0.936
 1742SOL    HW1 5969   0.637   3.742   0.917
 1742SOL    HW2 5970   0.754   3.648   0.933
 1743SOL     OW 5971   0.868   2.829   0.854
 1743SOL    HW1 5972   0.919   2.758   0.893
 1743SOL    HW2 5973   0.833   2.877   0.928
 1744SOL     OW 5974   1.098   2.872   0.110
 1744SOL    HW1 5975   1.088   2.918   0.026
 1744SOL    HW2 5976   1.172   2.813   0.095
 1745SOL     OW 5977   1.852   3.412   0.842
 1745SOL    HW1 5978   1.772   3.404   0.789
 1745SOL    HW2 5979   1.838   3.352   0.915
 1746SOL     OW 5980   0.226   3.166   1.856
 1746SOL    HW1 5981   0.153   3.111   1.830
 1746SOL    HW2 5982   0.214   3.179   1.950
 1747SOL     OW 5983   0.107   3.140   0.727
 1747SOL    HW1 5984   0.128   3.093   0.807
 1747SOL    HW2 5985   0.103   3.073   0.659
 1748SOL     OW 5986   0.683   3.266   1.630
 1748SOL    HW1 5987   0.602   3.224   1.660
 1748SOL    HW2 5988   0.679   3.354   1.667
 1749SOL     OW 5989   0.439   2.297   0.537
 1749SOL    HW1 5990   0.465   2.224   0.481
 1749SOL    HW2 5991   0.384   2.256   0.605
 1750SOL     OW 5992   1.701   3.348   1.091
 1750SOL    HW1 5993   1.619   3.327   1.046
 1750SOL    HW2 5994   1.709   3.280   1.158
 1751SOL     OW 5995   0.334   2.419   1.292
 1751SOL    HW1 5996   0.388   2.362   1.347
 1751SOL    HW2 5997   0.349   2.388   1.203
 1752SOL     OW 5998   0.829   3.441   0.677
 1752SOL    HW1 5999   0.814   3.497   0.600
 1752SOL    HW2 6000   0.754   3.382   0.677
 1753SOL     OW 6001   1.436   2.090   1.120
 1753SOL    HW1 6002   1.442   2.002   1.156
 1753SOL    HW2 6003   1.382   2.139   1.183
 1754SOL     OW 6004   1.010   1.879   1.140
 1754SOL    HW1 6005   0.956   1.812   1.099
 1754SOL    HW2 6006   1.098   1.841   1.142
 1755SOL     OW 6007   0.778   3.185   0.320
 1755SOL    HW1 6008   0.746   3.096   0.336
 1755SOL    HW2 6009   0.860   3.191   0.369
 1756SOL     OW 6010   0.621   3.416   1.286
 1756SOL    HW1 6011   0.622   3.497   1.336
 1756SOL    HW2 6012   0.708   3.410   1.248
 1757SOL     OW 6013   1.344   1.927   0.164
 1757SOL    HW1 6014   1.376   1.872   0.092
 1757SOL    HW2 6015   1.263   1.885   0.191
 1758SOL     OW 6016   1.298   2.324   0.680
 1758SOL    HW1 6017   1.244   2.403   0.685
 1758SOL    HW2 6018   1.292   2.285   0.767
 1759SOL     OW 6019   1.576   2.056   0.873
 1759SOL    HW1 6020   1.537   2.081   0.956
 1759SOL    HW2 6021   1.587   2.138   0.825
 1760SOL     OW 6022   0.042   2.894   0.254
 1760SOL    HW1 6023   0.137   2.877   0.249
 1760SOL    HW2 6024   0.008   2.821   0.307
 1761SOL     OW 6025   0.893   3.519   0.345
 1761SOL    HW1 6026   0.819   3.489   0.292
 1761SOL    HW2 6027   0.859   3.595   0.393
 1762SOL     OW 6028   0.231   2.486   1.981
 1762SOL    HW1 6029   0.138   2.494   2.002
 1762SOL    HW2 6030   0.232   2.455   1.891
 1763SOL     OW 6031   0.229   2.134   2.849
 1763SOL    HW1 6032   0.250   2.100   2.936
 1763SOL    HW2 6033   0.134   2.126   2.842
 1764SOL     OW 6034   0.009   2.221   2.492
 1764SOL    HW1 6035   3.921   2.239   2.524
 1764SOL    HW2 6036   3.996   2.190   2.403
 1765SOL     OW 6037   0.579   3.150   3.051
 1765SOL    HW1 6038   0.493   3.153   3.010
 1765SOL    HW2 6039   0.594   3.239   3.084
 1766SOL     OW 6040   1.563   3.373   2.570
 1766SOL    HW1 6041   1.521   3.351   2.653
 1766SOL    HW2 6042   1.491   3.376   2.507
 1767SOL     OW 6043   1.131   2.560   2.561
 1767SOL    HW1 6044   1.180   2.641   2.547
 1767SOL    HW2 6045   1.084   2.573   2.643
 1768SOL     OW 6046   1.761   2.473   2.091
 1768SOL    HW1 6047   1.740   2.469   1.997
 1768SOL    HW2 6048   1.752   2.383   2.121
 1769SOL     OW 6049   0.753   3.001   2.904
 1769SOL    HW1 6050   0.689   3.037   2.965
 1769SOL    HW2 6051   0.789   3.078   2.859
 1770SOL     OW 6052   0.870   2.632   3.685
 1770SOL    HW1 6053   0.860   2.703   3.748
 1770SOL    HW2 6054   0.893   2.676   3.603
 1771SOL     OW 6055   0.685   2.864   2.508
 1771SOL    HW1 6056   0.751   2.853   2.576
 1771SOL    HW2 6057   0.616   2.916   2.549
 1772SOL     OW 6058   0.712   3.012   3.678
 1772SOL    HW1 6059   0.759   3.090   3.706
 1772SOL    HW2 6060   0.630   3.046   3.641
 1773SOL     OW 6061   0.351   3.263   2.940
 1773SOL    HW1 6062   0.269   3.248   2.893
 1773SOL    HW2 6063   0.400   3.322   2.883
 1774SOL     OW 6064   1.460   3.362   3.218
 1774SOL    HW1 6065   1.513   3.441   3.229
 1774SOL    HW2 6066   1.394   3.369   3.287
 1775SOL     OW 6067   0.450   2.261   3.349
 1775SOL    HW1 6068   0.525   2.201   3.353
 1775SOL    HW2 6069   0.374   2.204   3.363
 1776SOL     OW 6070   1.608   2.303   2.597
 1776SOL    HW1 6071   1.529   2.325   2.547
 1776SOL    HW2 6072   1.628   2.381   2.647
 1777SOL     OW 6073   0.223   3.571   2.328
 1777SOL    HW1 6074   0.224   3.654   2.376
 1777SOL    HW2 6075   0.300   3.576   2.271
 1778SOL     OW 6076   1.137   3.203   3.555
 1778SOL    HW1 6077   1.178   3.198   3.642
 1778SOL    HW2 6078   1.085   3.124   3.548
 1779SOL     OW 6079   0.250   3.306   2.402
 1779SOL    HW1 6080   0.222   3.396   2.388
 1779SOL    HW2 6081   0.180   3.267   2.455
 1780SOL     OW 6082   0.247   2.929   2.746
 1780SOL    HW1 6083   0.267   2.844   2.786
 1780SOL    HW2 6084   0.194   2.975   2.811
 1781SOL     OW 6085   0.611   3.648   3.290
 1781SOL    HW1 6086   0.529   3.634   3.336
 1781SOL    HW2 6087   0.637   3.737   3.314
 1782SOL     OW 6088   0.578   2.847   2.000
 1782SOL    HW1 6089   0.626   2.893   1.931
 1782SOL    HW2 6090   0.619   2.877   2.081
 1783SOL     OW 6091   1.559   1.996   3.307
 1783SOL    HW1 6092   1.574   2.082   3.267
 1783SOL    HW2 6093   1.558   2.013   3.402
 1784SOL     OW 6094   0.142   2.514   2.436
 1784SOL    HW1 6095   0.087   2.436   2.435
 1784SOL    HW2 6096   0.106   2.569   2.506
 1785SOL     OW 6097   1.843   3.610   2.200
 1785SOL    HW1 6098   1.911   3.586   2.262
 1785SOL    HW2 6099   1.863   3.700   2.176
 1786SOL     OW 6100   0.041   3.453   2.002
 1786SOL    HW1 6101   0.034   3.361   2.027
 1786SOL    HW2 6102   3.959   3.492   2.031
 1787SOL     OW 6103   1.690   2.781   2.504
 1787SOL    HW1 6104   1.770   2.736   2.478
 1787SOL    HW2 6105   1.665   2.832   2.427
 1788SOL     OW 6106   1.647   2.967   2.291
 1788SOL    HW1 6107   1.733   2.971   2.250
 1788SOL    HW2 6108   1.653   3.029   2.364
 1789SOL     OW 6109   0.139   2.615   3.451
 1789SOL    HW1 6110   0.234   2.610   3.449
 1789SOL    HW2 6111   0.120   2.704   3.482
 1790SOL     OW 6112   0.616   3.248   2.596
 1790SOL    HW1 6113   0.568   3.166   2.606
 1790SOL    HW2 6114   0.598   3.275   2.506
 1791SOL     OW 6115   1.287   3.099   3.284
 1791SOL    HW1 6116   1.319   3.031   3.224
 1791SOL    HW2 6117   1.346   3.094   3.360
 1792SOL     OW 6118   0.819   1.862   2.373
 1792SOL    HW1 6119   0.859   1.947   2.352
 1792SOL    HW2 6120   0.726   1.881   2.379
 1793SOL     OW 6121   0.184   2.813   3.141
 1793SOL    HW1 6122   0.272   2.777   3.128
 1793SOL    HW2 6123   0.132   2.773   3.071
 1794SOL     OW 6124   1.531   2.858   2.061
 1794SOL    HW1 6125   1.462   2.800   2.093
 1794SOL    HW2 6126   1.573   2.892   2.140
 1795SOL     OW 6127   1.217   3.666   3.489
 1795SOL    HW1 6128   1.194   3.727   3.419
 1795SOL    HW2 6129   1.218   3.580   3.447
 1796SOL     OW 6130   0.341   2.109   3.678
 1796SOL    HW1 6131   0.378   2.197   3.685
 1796SOL    HW2 6132   0.249   2.119   3.703
 1797SOL     OW 6133   1.466   3.281   2.812
 1797SOL    HW1 6134   1.399   3.297   2.878
 1797SOL    HW2 6135   1.454   3.190   2.786
 1798SOL     OW 6136   1.654   3.602   2.443
 1798SOL    HW1 6137   1.640   3.571   2.353
 1798SOL    HW2 6138   1.631   3.527   2.498
 1799SOL     OW 6139   0.596   2.579   2.127
 1799SOL    HW1 6140   0.602   2.663   2.082
 1799SOL    HW2 6141   0.533   2.594   2.198
 1800SOL     OW 6142   1.280   2.221   2.797
 1800SOL    HW1 6143   1.191   2.186   2.806
 1800SOL    HW2 6144   1.334   2.165   2.853
 1801SOL     OW 6145   1.577   3.537   2.170
 1801SOL    HW1 6146   1.669   3.561   2.165
 1801SOL    HW2 6147   1.552   3.518   2.080
 1802SOL     OW 6148   0.791   2.480   3.313
 1802SOL    HW1 6149   0.765   2.455   3.401
 1802SOL    HW2 6150   0.753   2.412   3.256
 1803SOL     OW 6151   1.393   2.335   3.540
 1803SOL    HW1 6152   1.396   2.381   3.624
 1803SOL    HW2 6153   1.455   2.262   3.550
 1804SOL     OW 6154   0.953   2.748   3.446
 1804SOL    HW1 6155   1.007   2.679   3.409
 1804SOL    HW2 6156   0.904   2.783   3.371
 1805SOL     OW 6157   0.993   2.274   3.099
 1805SOL    HW1 6158   0.905   2.294   3.133
 1805SOL    HW2 6159   0.977   2.229   3.016
 1806SOL     OW 6160   1.052   2.560   2.287
 1806SOL    HW1 6161   1.069   2.553   2.381
 1806SOL    HW2 6162   0.970   2.514   2.274
 1807SOL     OW 6163   0.082   2.690   2.652
 1807SOL    HW1 6164   0.157   2.660   2.704
 1807SOL    HW2 6165   0.099   2.784   2.638
 1808SOL     OW 6166   0.127   3.717   3.439
 1808SOL    HW1 6167   0.135   3.685   3.529
 1808SOL    HW2 6168   0.035   3.704   3.417
 1809SOL     OW 6169   0.896   2.212   2.055
 1809SOL    HW1 6170   0.936   2.274   1.995
 1809SOL    HW2 6171   0.913   2.126   2.016
 1810SOL     OW 6172   1.683   2.449   3.692
 1810SOL    HW1 6173   1.652   2.520   3.637
 1810SOL    HW2 6174   1.721   2.385   3.631
 1811SOL     OW 6175   1.379   3.004   2.403
 1811SOL    HW1 6176   1.457   2.992   2.350
 1811SOL    HW2 6177   1.325   3.066   2.353
 1812SOL     OW 6178   0.546   2.040   2.756
 1812SOL    HW1 6179   0.552   2.072   2.846
 1812SOL    HW2 6180   0.546   2.119   2.702
 1813SOL     OW 6181   1.004   3.307   2.333
 1813SOL    HW1 6182   0.967   3.380   2.284
 1813SOL    HW2 6183   0.984   3.326   2.424
 1814SOL     OW 6184   0.359   3.670   2.723
 1814SOL    HW1 6185   0.437   3.617   2.735
 1814SOL    HW2 6186   0.390   3.761   2.732
 1815SOL     OW 6187   1.800   2.915   2.731
 1815SOL    HW1 6188   1.746   2.897   2.654
 1815SOL    HW2 6189   1.737   2.922   2.803
 1816SOL     OW 6190   1.228   3.399   3.373
 1816SOL    HW1 6191   1.215   3.327   3.435
 1816SOL    HW2 6192   1.160   3.387   3.307
 1817SOL     OW 6193   0.311   2.816   2.104
 1817SOL    HW1 6194   0.394   2.839   2.063
 1817SOL    HW2 6195   0.298   2.724   2.082
 1818SOL     OW 6196   1.480   2.608   2.587
 1818SOL    HW1 6197   1.473   2.565   2.673
 1818SOL    HW2 6198   1.558   2.662   2.594
 1819SOL     OW 6199   0.468   3.122   3.599
 1819SOL    HW1 6200   0.442   3.130   3.507
 1819SOL    HW2 6201   0.385   3.126   3.647
 1820SOL     OW 6202   1.113   3.643   2.084
 1820SOL    HW1 6203   1.049   3.596   2.138
 1820SOL    HW2 6204   1.144   3.577   2.021
 1821SOL     OW 6205   0.204   2.136   3.370
 1821SOL    HW1 6206   0.114   2.168   3.363
 1821SOL    HW2 6207   0.195   2.049   3.410
 1822SOL     OW 6208   1.628   3.243   1.952
 1822SOL    HW1 6209   1.587   3.328   1.934
 1822SOL    HW2 6210   1.559   3.179   1.931
 1823SOL     OW 6211   0.468   3.601   2.183
 1823SOL    HW1 6212   0.507   3.664   2.244
 1823SOL    HW2 6213   0.541   3.573   2.128
 1824SOL     OW 6214   1.397   1.968   2.296
 1824SOL    HW1 6215   1.384   1.946   2.204
 1824SOL    HW2 6216   1.487   1.940   2.315
 1825SOL     OW 6217   0.253   3.656   3.089
 1825SOL    HW1 6218   0.297   3.590   3.142
 1825SOL    HW2 6219   0.251   3.619   3.001
 1826SOL     OW 6220   0.938   3.563   2.762
 1826SOL    HW1 6221   1.015   3.511   2.784
 1826SOL    HW2 6222   0.894   3.513   2.693
 1827SOL     OW 6223   0.398   2.555   2.333
 1827SOL    HW1 6224   0.424   2.464   2.348
 1827SOL    HW2 6225   0.307   2.559   2.360
 1828SOL     OW 6226   1.532   2.082   3.584
 1828SOL    HW1 6227   1.545   2.103   3.677
 1828SOL    HW2 6228   1.461   2.018   3.584
 1829SOL     OW 6229   0.641   1.981   1.959
 1829SOL    HW1 6230   0.703   1.910   1.979
 1829SOL    HW2 6231   0.592   1.949   1.884
 1830SOL     OW 6232   0.765   2.141   3.617
 1830SOL    HW1 6233   0.844   2.086   3.615
 1830SOL    HW2 6234   0.719   2.113   3.696
 1831SOL     OW 6235   0.876   3.383   3.056
 1831SOL    HW1 6236   0.859   3.346   2.969
 1831SOL    HW2 6237   0.946   3.328   3.092
 1832SOL     OW 6238   1.341   2.451   3.294
 1832SOL    HW1 6239   1.371   2.420   3.380
 1832SOL    HW2 6240   1.376   2.539   3.287
 1833SOL     OW 6241   0.817   3.254   2.803
 1833SOL    HW1 6242   0.902   3.243   2.760
 1833SOL    HW2 6243   0.754   3.256   2.731
 1834SOL     OW 6244   0.929   2.371   2.764
 1834SOL    HW1 6245   0.905   2.363   2.672
 1834SOL    HW2 6246   0.959   2.284   2.789
 1835SOL     OW 6247   0.556   1.924   2.358
 1835SOL    HW1 6248   0.474   1.929   2.407
 1835SOL    HW2 6249   0.560   2.007   2.309
 1836SOL     OW 6250   1.428   3.061   1.902
 1836SOL    HW1 6251   1.458   2.986   1.953
 1836SOL    HW2 6252   1.342   3.082   1.939
 1837SOL     OW 6253   0.308   1.913   2.032
 1837SOL    HW1 6254   0.372   1.951   1.972
 1837SOL    HW2 6255   0.358   1.848   2.081
 1838SOL     OW 6256   0.940   2.109   2.321
 1838SOL    HW1 6257   0.911   2.150   2.239
 1838SOL    HW2 6258   1.034   2.126   2.324
 1839SOL     OW 6259   1.080   2.544   3.320
 1839SOL    HW1 6260   1.013   2.476   3.325
 1839SOL    HW2 6261   1.162   2.495   3.315
 1840SOL     OW 6262   1.222   3.432   2.656
 1840SOL    HW1 6263   1.237   3.500   2.589
 1840SOL    HW2 6264   1.291   3.447   2.721
 1841SOL     OW 6265   0.467   3.013   2.597
 1841SOL    HW1 6266   0.395   2.989   2.656
 1841SOL    HW2 6267   0.432   2.997   2.510
 1842SOL     OW 6268   1.266   3.656   2.470
 1842SOL    HW1 6269   1.313   3.721   2.417
 1842SOL    HW2 6270   1.194   3.706   2.509
 1843SOL     OW 6271   1.023   2.401   1.886
 1843SOL    HW1 6272   0.981   2.485   1.867
 1843SOL    HW2 6273   1.089   2.422   1.952
 1844SOL     OW 6274   0.082   2.434   3.252
 1844SOL    HW1 6275   0.172   2.421   3.222
 1844SOL    HW2 6276   0.089   2.504   3.317
 1845SOL     OW 6277   0.567   2.089   3.028
 1845SOL    HW1 6278   0.608   2.014   3.070
 1845SOL    HW2 6279   0.475   2.086   3.057
 1846SOL     OW 6280   0.867   2.320   2.502
 1846SOL    HW1 6281   0.820   2.374   2.439
 1846SOL    HW2 6282   0.888   2.240   2.454
 1847SOL     OW 6283   1.016   1.916   2.613
 1847SOL    HW1 6284   0.958   1.910   2.537
 1847SOL    HW2 6285   0.993   1.840   2.666
 1848SOL     OW 6286   1.438   3.024   2.719
 1848SOL    HW1 6287   1.368   2.959   2.719
 1848SOL    HW2 6288   1.462   3.033   2.627
 1849SOL     OW 6289   1.464   2.469   2.835
 1849SOL    HW1 6290   1.411   2.389   2.837
 1849SOL    HW2 6291   1.522   2.461   2.911
 1850SOL     OW 6292   1.847   2.676   2.249
 1850SOL    HW1 6293   1.904   2.623   2.304
 1850SOL    HW2 6294   1.815   2.615   2.182
 1851SOL     OW 6295   0.488   3.281   2.021
 1851SOL    HW1 6296   0.412   3.251   2.071
 1851SOL    HW2 6297   0.470   3.253   1.931
 1852SOL     OW 6298   1.673   3.126   2.506
 1852SOL    HW1 6299   1.767   3.128   2.520
 1852SOL    HW2 6300   1.643   3.214   2.528
 1853SOL     OW 6301   1.392   2.436   1.931
 1853SOL    HW1 6302   1.336   2.413   2.005
 1853SOL    HW2 6303   1.480   2.413   1.960
 1854SOL     OW 6304   0.574   2.130   2.181
 1854SOL    HW1 6305   0.604   2.083   2.103
 1854SOL    HW2 6306   0.542   2.214   2.147
 1855SOL     OW 6307   1.751   3.103   3.431
 1855SOL    HW1 6308   1.839   3.064   3.427
 1855SOL    HW2 6309   1.766   3.193   3.459
 1856SOL     OW 6310   1.057   3.214   3.194
 1856SOL    HW1 6311   0.982   3.184   3.245
 1856SOL    HW2 6312   1.132   3.174   3.236
 1857SOL     OW 6313   1.610   3.488   3.518
 1857SOL    HW1 6314   1.601   3.522   3.429
 1857SOL    HW2 6315   1.693   3.440   3.518
 1858SOL     OW 6316   1.132   3.067   2.966
 1858SOL    HW1 6317   1.072   3.105   3.031
 1858SOL    HW2 6318   1.099   3.101   2.882
 1859SOL     OW 6319   1.626   2.959   2.938
 1859SOL    HW1 6320   1.621   3.022   3.011
 1859SOL    HW2 6321   1.548   2.977   2.886
 1860SOL     OW 6322   0.918   1.957   3.256
 1860SOL    HW1 6323   0.941   1.939   3.165
 1860SOL    HW2 6324   0.997   1.997   3.293
 1861SOL     OW 6325   0.984   2.977   3.585
 1861SOL    HW1 6326   0.893   2.993   3.607
 1861SOL    HW2 6327   0.982   2.899   3.530
 1862SOL     OW 6328   0.708   2.922   2.233
 1862SOL    HW1 6329   0.694   2.906   2.326
 1862SOL    HW2 6330   0.784   2.869   2.210
 1863SOL     OW 6331   0.422   2.678   3.114
 1863SOL    HW1 6332   0.490   2.687   3.181
 1863SOL    HW2 6333   0.388   2.590   3.126
 1864SOL     OW 6334   1.265   2.238   3.139
 1864SOL    HW1 6335   1.297   2.315   3.185
 1864SOL    HW2 6336   1.174   2.259   3.117
 1865SOL     OW 6337   0.065   3.441   3.208
 1865SOL    HW1 6338   0.071   3.498   3.131
 1865SOL    HW2 6339   0.156   3.429   3.235
 1866SOL     OW 6340   0.370   2.964   2.345
 1866SOL    HW1 6341   0.366   3.044   2.293
 1866SOL    HW2 6342   0.370   2.894   2.280
 1867SOL     OW 6343   0.550   2.398   2.723
 1867SOL    HW1 6344   0.564   2.455   2.648
 1867SOL    HW2 6345   0.617   2.424   2.786
 1868SOL     OW 6346   1.248   3.211   2.251
 1868SOL    HW1 6347   1.304   3.282   2.283
 1868SOL    HW2 6348   1.161   3.232   2.285
 1869SOL     OW 6349   1.284   3.321   3.010
 1869SOL    HW1 6350   1.340   3.325   3.087
 1869SOL    HW2 6351   1.228   3.245   3.024
 1870SOL     OW 6352   1.577   2.483   2.339
 1870SOL    HW1 6353   1.532   2.538   2.403
 1870SOL    HW2 6354   1.622   2.545   2.282
 1871SOL     OW 6355   0.345   3.389   3.180
 1871SOL    HW1 6356   0.335   3.339   3.099
 1871SOL    HW2 6357   0.439   3.404   3.188
 1872SOL     OW 6358   0.416   2.601   3.463
 1872SOL    HW1 6359   0.478   2.646   3.407
 1872SOL    HW2 6360   0.456   2.515   3.480
 1873SOL     OW 6361   1.601   2.649   3.538
 1873SOL    HW1 6362   1.515   2.691   3.533
 1873SOL    HW2 6363   1.653   2.694   3.471
 1874SOL     OW 6364   0.996   1.990   3.615
 1874SOL    HW1 6365   1.054   2.062   3.591
 1874SOL    HW2 6366   1.044   1.910   3.591
 1875SOL     OW 6367   0.497   1.898   3.608
 1875SOL    HW1 6368   0.453   1.845   3.541
 1875SOL    HW2 6369   0.443   1.976   3.617
 1876SOL     OW 6370   0.585   2.736   2.894
 1876SOL    HW1 6371   0.617   2.826   2.894
 1876SOL    HW2 6372   0.529   2.730   2.971
 1877SOL     OW 6373   1.354   2.720   2.889
 1877SOL    HW1 6374   1.270   2.709   2.845
 1877SOL    HW2 6375   1.397   2.635   2.881
 1878SOL     OW 6376   1.203   2.390   2.127
 1878SOL    HW1 6377   1.211   2.312   2.182
 1878SOL    HW2 6378   1.160   2.455   2.183
 1879SOL     OW 6379   0.311   2.058   3.109
 1879SOL    HW1 6380   0.264   2.095   3.184
 1879SOL    HW2 6381   0.287   1.966   3.110
 1880SOL     OW 6382   0.060   3.167   3.142
 1880SOL    HW1 6383   0.091   3.127   3.223
 1880SOL    HW2 6384   0.052   3.260   3.164
 1881SOL     OW 6385   0.724   2.493   2.918
 1881SOL    HW1 6386   0.799   2.478   2.861
 1881SOL    HW2 6387   0.696   2.582   2.897
 1882SOL     OW 6388   1.736   2.822   3.715
 1882SOL    HW1 6389   1.690   2.758   3.660
 1882SOL    HW2 6390   1.676   2.836   3.789
 1883SOL     OW 6391   0.314   1.924   2.482
 1883SOL    HW1 6392   0.293   2.015   2.503
 1883SOL    HW2 6393   0.320   1.881   2.567
 1884SOL     OW 6394   1.609   2.236   2.232
 1884SOL    HW1 6395   1.625   2.184   2.311
 1884SOL    HW2 6396   1.589   2.324   2.265
 1885SOL     OW 6397   1.028   2.621   2.822
 1885SOL    HW1 6398   1.023   2.638   2.916
 1885SOL    HW2 6399   1.002   2.529   2.812
 1886SOL     OW 6400   0.986   3.430   3.582
 1886SOL    HW1 6401   0.967   3.471   3.498
 1886SOL    HW2 6402   1.027   3.347   3.559
 1887SOL     OW 6403   1.854   3.365   3.466
 1887SOL    HW1 6404   1.873   3.393   3.377
 1887SOL    HW2 6405   1.934   3.383   3.515
 1888SOL     OW 6406   0.353   2.783   3.662
 1888SOL    HW1 6407   0.431   2.804   3.713
 1888SOL    HW2 6408   0.381   2.716   3.600
 1889SOL     OW 6409   1.529   2.131   1.988
 1889SOL    HW1 6410   1.462   2.069   2.017
 1889SOL    HW2 6411   1.562   2.171   2.069
 1890SOL     OW 6412   1.289   2.688   1.892
 1890SOL    HW1 6413   1.331   2.603   1.896
 1890SOL    HW2 6414   1.321   2.727   1.810
 1891SOL     OW 6415   1.067   3.199   2.717
 1891SOL    HW1 6416   1.071   3.126   2.654
 1891SOL    HW2 6417   1.127   3.264   2.681
 1892SOL     OW 6418   0.313   2.664   2.812
 1892SOL    HW1 6419   0.407   2.682   2.806
 1892SOL    HW2 6420   0.308   2.574   2.844
 1893SOL     OW 6421   0.330   2.382   2.876
 1893SOL    HW1 6422   0.296   2.294   2.860
 1893SOL    HW2 6423   0.406   2.390   2.819
 1894SOL     OW 6424   1.134   2.237   3.546
 1894SOL    HW1 6425   1.086   2.291   3.608
 1894SOL    HW2 6426   1.222   2.275   3.542
 1895SOL     OW 6427   1.160   2.063   3.333
 1895SOL    HW1 6428   1.149   2.126   3.404
 1895SOL    HW2 6429   1.202   2.113   3.263
 1896SOL     OW 6430   4.000   3.180   2.044
 1896SOL    HW1 6431   3.905   3.196   2.048
 1896SOL    HW2 6432   0.009   3.087   2.062
 1897SOL     OW 6433   0.075   3.663   2.757
 1897SOL    HW1 6434   0.090   3.568   2.756
 1897SOL    HW2 6435   0.163   3.700   2.755
 1898SOL     OW 6436   0.507   3.426   2.779
 1898SOL    HW1 6437   0.573   3.492   2.799
 1898SOL    HW2 6438   0.550   3.367   2.716
 1899SOL     OW 6439   0.979   2.652   3.087
 1899SOL    HW1 6440   1.037   2.631   3.161
 1899SOL    HW2 6441   0.895   2.614   3.111
 1900SOL     OW 6442   0.038   2.420   2.971
 1900SOL    HW1 6443   0.120   2.396   2.929
 1900SOL    HW2 6444   0.057   2.416   3.065
 1901SOL     OW 6445   0.207   2.375   3.590
 1901SOL    HW1 6446   0.246   2.328   3.516
 1901SOL    HW2 6447   0.159   2.447   3.549
 1902SOL     OW 6448   1.374   2.801   3.519
 1902SOL    HW1 6449   1.397   2.894   3.516
 1902SOL    HW2 6450   1.371   2.774   3.427
 1903SOL     OW 6451   0.818   2.431   2.223
 1903SOL    HW1 6452   0.822   2.356   2.165
 1903SOL    HW2 6453   0.744   2.482   2.191
 1904SOL     OW 6454   1.640   2.464   3.046
 1904SOL    HW1 6455   1.628   2.408   3.123
 1904SOL    HW2 6456   1.725   2.439   3.011
 1905SOL     OW 6457   0.299   3.407   3.588
 1905SOL    HW1 6458   0.251   3.477   3.633
 1905SOL    HW2 6459   0.268   3.326   3.629
 1906SOL     OW 6460   0.706   2.312   3.119
 1906SOL    HW1 6461   0.653   2.237   3.090
 1906SOL    HW2 6462   0.701   2.375   3.048
 1907SOL     OW 6463   0.928   3.534   3.331
 1907SOL    HW1 6464   0.901   3.496   3.247
 1907SOL    HW2 6465   0.920   3.628   3.319
 1908SOL     OW 6466   0.455   2.351   2.057
 1908SOL    HW1 6467   0.521   2.419   2.075
 1908SOL    HW2 6468   0.376   2.400   2.035
 1909SOL     OW 6469   0.156   2.997   3.337
 1909SOL    HW1 6470   0.156   2.946   3.418
 1909SOL    HW2 6471   0.171   2.932   3.268
 1910SOL     OW 6472   1.324   2.907   3.083
 1910SOL    HW1 6473   1.346   2.844   3.015
 1910SOL    HW2 6474   1.256   2.961   3.044
 1911SOL     OW 6475   1.313   2.719   2.167
 1911SOL    HW1 6476   1.238   2.688   2.218
 1911SOL    HW2 6477   1.287   2.705   2.076
 1912SOL     OW 6478   1.771   3.603   3.012
 1912SOL    HW1 6479   1.834   3.631   2.945
 1912SOL    HW2 6480   1.750   3.512   2.989
 1913SOL     OW 6481   1.244   3.595   2.971
 1913SOL    HW1 6482   1.327   3.616   2.928
 1913SOL    HW2 6483   1.250   3.501   2.991
 1914SOL     OW 6484   0.076   3.076   2.890
 1914SOL    HW1 6485   0.083   3.104   2.981
 1914SOL    HW2 6486   3.983   3.087   2.868
 1915SOL     OW 6487   0.679   3.527   3.595
 1915SOL    HW1 6488   0.621   3.603   3.598
 1915SOL    HW2 6489   0.739   3.546   3.522
 1916SOL     OW 6490   1.390   3.431   2.349
 1916SOL    HW1 6491   1.450   3.464   2.282
 1916SOL    HW2 6492   1.342   3.508   2.379
 1917SOL     OW 6493   0.170   3.623   3.693
 1917SOL    HW1 6494   0.114   3.571   3.751
 1917SOL    HW2 6495   0.216   3.683   3.752
 1918SOL     OW 6496   1.277   2.789   2.533
 1918SOL    HW1 6497   1.351   2.728   2.542
 1918SOL    HW2 6498   1.312   2.861   2.480
 1919SOL     OW 6499   0.811   3.136   3.290
 1919SOL    HW1 6500   0.782   3.176   3.372
 1919SOL    HW2 6501   0.740   3.155   3.229
 1920SOL     OW 6502   0.675   3.479   2.020
 1920SOL    HW1 6503   0.683   3.496   1.926
 1920SOL    HW2 6504   0.616   3.403   2.025
 1921SOL     OW 6505   1.623   3.588   3.252
 1921SOL    HW1 6506   1.674   3.594   3.171
 1921SOL    HW2 6507   1.609   3.679   3.278
 1922SOL     OW 6508   0.267   2.175   2.578
 1922SOL    HW1 6509   0.180   2.208   2.552
 1922SOL    HW2 6510   0.261   2.165   2.673
 1923SOL     OW 6511   1.208   3.466   1.898
 1923SOL    HW1 6512   1.197   3.374   1.921
 1923SOL    HW2 6513   1.147   3.479   1.825
 1924SOL     OW 6514   0.823   2.868   3.235
 1924SOL    HW1 6515   0.868   2.863   3.151
 1924SOL    HW2 6516   0.822   2.961   3.256
 1925SOL     OW 6517   0.916   2.772   2.152
 1925SOL    HW1 6518   0.976   2.805   2.086
 1925SOL    HW2 6519   0.965   2.704   2.198
 1926SOL     OW 6520   1.489   3.490   1.904
 1926SOL    HW1 6521   1.396   3.480   1.888
 1926SOL    HW2 6522   1.528   3.496   1.817
 1927SOL     OW 6523   0.374   3.165   3.353
 1927SOL    HW1 6524   0.359   3.245   3.303
 1927SOL    HW2 6525   0.297   3.111   3.336
 1928SOL     OW 6526   1.609   3.145   3.142
 1928SOL    HW1 6527   1.670   3.133   3.215
 1928SOL    HW2 6528   1.549   3.213   3.172
 1929SOL     OW 6529   1.056   2.970   2.570
 1929SOL    HW1 6530   0.984   2.920   2.608
 1929SOL    HW2 6531   1.119   2.905   2.541
 1930SOL     OW 6532   1.023   2.103   2.829
 1930SOL    HW1 6533   1.019   2.056   2.746
 1930SOL    HW2 6534   1.017   2.034   2.895
 1931SOL     OW 6535   0.606   3.352   2.342
 1931SOL    HW1 6536   0.651   3.302   2.275
 1931SOL    HW2 6537   0.534   3.396   2.296
 1932SOL     OW 6538   1.730   2.247   3.239
 1932SOL    HW1 6539   1.800   2.313   3.243
 1932SOL    HW2 6540   1.768   2.176   3.186
 1933SOL     OW 6541   0.253   3.203   2.153
 1933SOL    HW1 6542   0.160   3.211   2.135
 1933SOL    HW2 6543   0.264   3.241   2.241
 1934SOL     OW 6544   0.107   2.860   3.579
 1934SOL    HW1 6545   0.047   2.853   3.653
 1934SOL    HW2 6546   0.193   2.842   3.616
 1935SOL     OW 6547   0.675   2.058   3.362
 1935SOL    HW1 6548   0.759   2.037   3.321
 1935SOL    HW2 6549   0.698   2.090   3.449
 1936SOL     OW 6550   0.081   2.177   1.900
 1936SOL    HW1 6551   3.985   2.177   1.907
 1936SOL    HW2 6552   0.101   2.258   1.852
 1937SOL     OW 6553   1.428   2.721   3.261
 1937SOL    HW1 6554   1.379   2.782   3.205
 1937SOL    HW2 6555   1.517   2.723   3.227
 1938SOL     OW 6556   0.019   2.096   2.238
 1938SOL    HW1 6557   0.045   2.160   2.172
 1938SOL    HW2 6558   0.101   2.057   2.268
 1939SOL     OW 6559   1.178   3.199   1.979
 1939SOL    HW1 6560   1.087   3.171   1.980
 1939SOL    HW2 6561   1.205   3.199   2.071
 1940SOL     OW 6562   0.619   2.692   3.298
 1940SOL    HW1 6563   0.676   2.768   3.283
 1940SOL    HW2 6564   0.680   2.619   3.306
 1941SOL     OW 6565   1.486   3.640   2.843
 1941SOL    HW1 6566   1.508   3.700   2.771
 1941SOL    HW2 6567   1.570   3.619   2.884
 1942SOL     OW 6568   0.716   2.425   3.566
 1942SOL    HW1 6569   0.760   2.486   3.624
 1942SOL    HW2 6570   0.741   2.338   3.598
 1943SOL     OW 6571   1.473   3.060   3.493
 1943SOL    HW1 6572   1.460   3.074   3.586
 1943SOL    HW2 6573   1.566   3.077   3.478
 1944SOL     OW 6574   0.378   3.607   3.421
 1944SOL    HW1 6575   0.290   3.643   3.408
 1944SOL    HW2 6576   0.364   3.524   3.467
 1945SOL     OW 6577   1.668   2.743   3.116
 1945SOL    HW1 6578   1.660   2.658   3.074
 1945SOL    HW2 6579   1.657   2.807   3.045
 1946SOL     OW 6580   1.215   2.182   2.320
 1946SOL    HW1 6581   1.278   2.110   2.312
 1946SOL    HW2 6582   1.245   2.231   2.396
 1947SOL     OW 6583   0.589   2.599   2.534
 1947SOL    HW1 6584   0.628   2.686   2.519
 1947SOL    HW2 6585   0.523   2.590   2.466
 1948SOL     OW 6586   1.749   2.232   3.518
 1948SOL    HW1 6587   1.751   2.238   3.423
 1948SOL    HW2 6588   1.677   2.172   3.537
 1949SOL     OW 6589   1.745   2.805   3.371
 1949SOL    HW1 6590   1.735   2.900   3.383
 1949SOL    HW2 6591   1.728   2.791   3.278
 1950SOL     OW 6592   0.865   3.229   1.901
 1950SOL    HW1 6593   0.823   3.257   1.982
 1950SOL    HW2 6594   0.879   3.310   1.851
 1951SOL     OW 6595   0.659   3.651   2.798
 1951SOL    HW1 6596   0.637   3.742   2.779
 1951SOL    HW2 6597   0.754   3.648   2.796
 1952SOL     OW 6598   0.869   2.830   2.716
 1952SOL    HW1 6599   0.919   2.758   2.754
 1952SOL    HW2 6600   0.832   2.877   2.791
 1953SOL     OW 6601   1.077   2.850   1.951
 1953SOL    HW1 6602   1.057   2.902   1.873
 1953SOL    HW2 6603   1.152   2.796   1.925
 1954SOL     OW 6604   1.851   3.413   2.704
 1954SOL    HW1 6605   1.771   3.403   2.653
 1954SOL    HW2 6606   1.842   3.351   2.776
 1955SOL     OW 6607   0.226   3.166   3.718
 1955SOL    HW1 6608   0.153   3.111   3.692
 1955SOL    HW2 6609   0.214   3.179   3.812
 1956SOL     OW 6610   0.115   3.139   2.583
 1956SOL    HW1 6611   0.132   3.089   2.663
 1956SOL    HW2 6612   0.105   3.073   2.515
 1957SOL     OW 6613   0.683   3.266   3.492
 1957SOL    HW1 6614   0.602   3.224   3.522
 1957SOL    HW2 6615   0.679   3.354   3.529
 1958SOL     OW 6616   0.441   2.296   2.396
 1958SOL    HW1 6617   0.441   2.226   2.330
 1958SOL    HW2 6618   0.385   2.262   2.466
 1959SOL     OW 6619   1.700   3.348   2.954
 1959SOL    HW1 6620   1.619   3.327   2.909
 1959SOL    HW2 6621   1.709   3.280   3.021
 1960SOL     OW 6622   0.334   2.419   3.154
 1960SOL    HW1 6623   0.389   2.362   3.208
 1960SOL    HW2 6624   0.349   2.388   3.064
 1961SOL     OW 6625   0.828   3.441   2.538
 1961SOL    HW1 6626   0.812   3.494   2.461
 1961SOL    HW2 6627   0.754   3.381   2.542
 1962SOL     OW 6628   1.436   2.090   2.982
 1962SOL    HW1 6629   1.442   2.002   3.019
 1962SOL    HW2 6630   1.383   2.139   3.045
 1963SOL     OW 6631   1.010   1.879   3.002
 1963SOL    HW1 6632   0.956   1.812   2.960
 1963SOL    HW2 6633   1.098   1.841   3.004
 1964SOL     OW 6634   0.772   3.194   2.180
 1964SOL    HW1 6635   0.742   3.103   2.186
 1964SOL    HW2 6636   0.855   3.195   2.229
 1965SOL     OW 6637   0.621   3.416   3.148
 1965SOL    HW1 6638   0.622   3.497   3.197
 1965SOL    HW2 6639   0.708   3.410   3.110
 1966SOL     OW 6640   1.353   1.912   2.030
 1966SOL    HW1 6641   1.381   1.850   1.963
 1966SOL    HW2 6642   1.264   1.883   2.054
 1967SOL     OW 6643   1.297   2.324   2.542
 1967SOL    HW1 6644   1.244   2.403   2.548
 1967SOL    HW2 6645   1.292   2.285   2.630
 1968SOL     OW 6646   1.576   2.057   2.734
 1968SOL    HW1 6647   1.536   2.082   2.818
 1968SOL    HW2 6648   1.586   2.139   2.687
 1969SOL     OW 6649   0.047   2.911   2.101
 1969SOL    HW1 6650   0.141   2.896   2.093
 1969SOL    HW2 6651   0.011   2.828   2.133
 1970SOL     OW 6652   0.886   3.520   2.205
 1970SOL    HW1 6653   0.815   3.501   2.144
 1970SOL    HW2 6654   0.854   3.595   2.255
 1971SOL     OW 6655   0.231   2.486   3.843
 1971SOL    HW1 6656   0.138   2.494   3.864
 1971SOL    HW2 6657   0.233   2.455   3.753
 1972SOL     OW 6658   0.229   2.134   4.711
 1972SOL    HW1 6659   0.250   2.100   4.798
 1972SOL    HW2 6660   0.134   2.126   4.704
 1973SOL     OW 6661   0.009   2.221   4.354
 1973SOL    HW1 6662   3.921   2.239   4.386
 1973SOL    HW2 6663   3.996   2.190   4.265
 1974SOL     OW 6664   0.579   3.150   4.913
 1974SOL    HW1 6665   0.493   3.153   4.872
 1974SOL    HW2 6666   0.594   3.239   4.946
 1975SOL     OW 6667   1.563   3.373   4.432
 1975SOL    HW1 6668   1.521   3.351   4.515
 1975SOL    HW2 6669   1.491   3.376   4.369
 1976SOL     OW 6670   1.131   2.560   4.423
 1976SOL    HW1 6671   1.180   2.641   4.409
 1976SOL    HW2 6672   1.084   2.573   4.505
 1977SOL     OW 6673   1.764   2.471   3.952
 1977SOL    HW1 6674   1.742   2.468   3.859
 1977SOL    HW2 6675   1.751   2.382   3.983
 1978SOL     OW 6676   0.753   3.001   4.766
 1978SOL    HW1 6677   0.689   3.037   4.827
 1978SOL    HW2 6678   0.789   3.078   4.721
 1979SOL     OW 6679   0.869   2.632   5.546
 1979SOL    HW1 6680   0.859   2.703   5.609
 1979SOL    HW2 6681   0.893   2.676   5.464
 1980SOL     OW 6682   0.685   2.864   4.370
 1980SOL    HW1 6683   0.751   2.853   4.438
 1980SOL    HW2 6684   0.616   2.916   4.411
 1981SOL     OW 6685   0.712   3.012   5.540
 1981SOL    HW1 6686   0.759   3.089   5.568
 1981SOL    HW2 6687   0.630   3.045   5.503
 1982SOL     OW 6688   0.351   3.263   4.802
 1982SOL    HW1 6689   0.269   3.248   4.755
 1982SOL    HW2 6690   0.400   3.322   4.745
 1983SOL     OW 6691   1.460   3.363   5.081
 1983SOL    HW1 6692   1.513   3.441   5.091
 1983SOL    HW2 6693   1.394   3.369   5.149
 1984SOL     OW 6694   0.450   2.261   5.212
 1984SOL    HW1 6695   0.525   2.201   5.215
 1984SOL    HW2 6696   0.374   2.204   5.225
 1985SOL     OW 6697   1.607   2.302   4.459
 1985SOL    HW1 6698   1.528   2.325   4.409
 1985SOL    HW2 6699   1.628   2.381   4.508
 1986SOL     OW 6700   0.223   3.571   4.190
 1986SOL    HW1 6701   0.224   3.654   4.238
 1986SOL    HW2 6702   0.300   3.576   4.133
 1987SOL     OW 6703   1.137   3.203   5.417
 1987SOL    HW1 6704   1.178   3.198   5.504
 1987SOL    HW2 6705   1.085   3.124   5.410
 1988SOL     OW 6706   0.250   3.306   4.264
 1988SOL    HW1 6707   0.222   3.396   4.250
 1988SOL    HW2 6708   0.180   3.267   4.317
 1989SOL     OW 6709   0.247   2.929   4.608
 1989SOL    HW1 6710   0.267   2.844   4.648
 1989SOL    HW2 6711   0.194   2.975   4.673
 1990SOL     OW 6712   0.611   3.648   5.151
 1990SOL    HW1 6713   0.529   3.634   5.198
 1990SOL    HW2 6714   0.637   3.737   5.176
 1991SOL     OW 6715   0.578   2.847   3.862
 1991SOL    HW1 6716   0.626   2.893   3.793
 1991SOL    HW2 6717   0.619   2.877   3.943
 1992SOL     OW 6718   1.556   1.998   5.164
 1992SOL    HW1 6719   1.574   2.084   5.125
 1992SOL    HW2 6720   1.553   2.015   5.258
 1993SOL     OW 6721   0.142   2.514   4.298
 1993SOL    HW1 6722   0.087   2.436   4.297
 1993SOL    HW2 6723   0.106   2.569   4.368
 1994SOL     OW 6724   1.843   3.609   4.061
 1994SOL    HW1 6725   1.911   3.586   4.124
 1994SOL    HW2 6726   1.863   3.700   4.038
 1995SOL     OW 6727   0.041   3.453   3.864
 1995SOL    HW1 6728   0.034   3.361   3.889
 1995SOL    HW2 6729   3.959   3.492   3.893
 1996SOL     OW 6730   1.690   2.781   4.366
 1996SOL    HW1 6731   1.770   2.736   4.340
 1996SOL    HW2 6732   1.665   2.832   4.289
 1997SOL     OW 6733   1.647   2.967   4.153
 1997SOL    HW1 6734   1.733   2.971   4.112
 1997SOL    HW2 6735   1.653   3.030   4.226
 1998SOL     OW 6736   0.139   2.615   5.313
 1998SOL    HW1 6737   0.234   2.610   5.311
 1998SOL    HW2 6738   0.120   2.704   5.344
 1999SOL     OW 6739   0.616   3.248   4.458
 1999SOL    HW1 6740   0.568   3.166   4.468
 1999SOL    HW2 6741   0.598   3.275   4.368
 2000SOL     OW 6742   1.287   3.099   5.146
 2000SOL    HW1 6743   1.319   3.031   5.086
 2000SOL    HW2 6744   1.346   3.094   5.222
 2001SOL     OW 6745   0.820   1.862   4.235
 2001SOL    HW1 6746   0.859   1.947   4.214
 2001SOL    HW2 6747   0.726   1.881   4.241
 2002SOL     OW 6748   0.184   2.813   5.003
 2002SOL    HW1 6749   0.272   2.777   4.990
 2002SOL    HW2 6750   0.132   2.774   4.933
 2003SOL     OW 6751   1.531   2.858   3.923
 2003SOL    HW1 6752   1.462   2.800   3.955
 2003SOL    HW2 6753   1.573   2.892   4.002
 2004SOL     OW 6754   1.217   3.666   5.351
 2004SOL    HW1 6755   1.194   3.727   5.281
 2004SOL    HW2 6756   1.218   3.580   5.309
 2005SOL     OW 6757   0.341   2.109   5.541
 2005SOL    HW1 6758   0.377   2.198   5.547
 2005SOL    HW2 6759   0.249   2.119   5.565
 2006SOL     OW 6760   1.466   3.281   4.674
 2006SOL    HW1 6761   1.399   3.297   4.740
 2006SOL    HW2 6762   1.454   3.190   4.648
 2007SOL     OW 6763   1.654   3.601   4.305
 2007SOL    HW1 6764   1.640   3.571   4.215
 2007SOL    HW2 6765   1.631   3.527   4.360
 2008SOL     OW 6766   0.596   2.579   3.989
 2008SOL    HW1 6767   0.602   2.663   3.944
 2008SOL    HW2 6768   0.533   2.594   4.060
 2009SOL     OW 6769   1.280   2.221   4.659
 2009SOL    HW1 6770   1.191   2.185   4.668
 2009SOL    HW2 6771   1.334   2.165   4.715
 2010SOL     OW 6772   1.577   3.537   4.032
 2010SOL    HW1 6773   1.669   3.561   4.027
 2010SOL    HW2 6774   1.552   3.518   3.942
 2011SOL     OW 6775   0.791   2.480   5.175
 2011SOL    HW1 6776   0.765   2.455   5.263
 2011SOL    HW2 6777   0.753   2.412   5.118
 2012SOL     OW 6778   1.393   2.335   5.401
 2012SOL    HW1 6779   1.397   2.380   5.485
 2012SOL    HW2 6780   1.452   2.260   5.411
 2013SOL     OW 6781   0.953   2.748   5.308
 2013SOL    HW1 6782   1.007   2.679   5.271
 2013SOL    HW2 6783   0.904   2.783   5.233
 2014SOL     OW 6784   0.992   2.274   4.961
 2014SOL    HW1 6785   0.905   2.293   4.995
 2014SOL    HW2 6786   0.977   2.229   4.878
 2015SOL     OW 6787   1.052   2.560   4.149
 2015SOL    HW1 6788   1.069   2.553   4.243
 2015SOL    HW2 6789   0.970   2.514   4.136
 2016SOL     OW 6790   0.082   2.690   4.514
 2016SOL    HW1 6791   0.157   2.660   4.566
 2016SOL    HW2 6792   0.099   2.784   4.500
 2017SOL     OW 6793   0.127   3.717   5.301
 2017SOL    HW1 6794   0.135   3.685   5.391
 2017SOL    HW2 6795   0.035   3.704   5.279
 2018SOL     OW 6796   0.896   2.212   3.917
 2018SOL    HW1 6797   0.936   2.274   3.857
 2018SOL    HW2 6798   0.913   2.126   3.878
 2019SOL     OW 6799   1.680   2.453   5.557
 2019SOL    HW1 6800   1.651   2.523   5.500
 2019SOL    HW2 6801   1.718   2.388   5.498
 2020SOL     OW 6802   1.379   3.004   4.265
 2020SOL    HW1 6803   1.457   2.992   4.212
 2020SOL    HW2 6804   1.325   3.066   4.215
 2021SOL     OW 6805   0.546   2.040   4.618
 2021SOL    HW1 6806   0.552   2.072   4.708
 2021SOL    HW2 6807   0.546   2.119   4.564
 2022SOL     OW 6808   1.004   3.307   4.195
 2022SOL    HW1 6809   0.967   3.380   4.146
 2022SOL    HW2 6810   0.984   3.326   4.286
 2023SOL     OW 6811   0.359   3.670   4.585
 2023SOL    HW1 6812   0.437   3.617   4.597
 2023SOL    HW2 6813   0.389   3.761   4.594
 2024SOL     OW 6814   1.800   2.915   4.593
 2024SOL    HW1 6815   1.746   2.897   4.516
 2024SOL    HW2 6816   1.737   2.922   4.665
 2025SOL     OW 6817   1.228   3.399   5.235
 2025SOL    HW1 6818   1.215   3.327   5.297
 2025SOL    HW2 6819   1.159   3.387   5.169
 2026SOL     OW 6820   0.311   2.816   3.966
 2026SOL    HW1 6821   0.394   2.839   3.925
 2026SOL    HW2 6822   0.298   2.724   3.944
 2027SOL     OW 6823   1.480   2.608   4.449
 2027SOL    HW1 6824   1.473   2.565   4.535
 2027SOL    HW2 6825   1.558   2.662   4.456
 2028SOL     OW 6826   0.468   3.122   5.461
 2028SOL    HW1 6827   0.442   3.130   5.369
 2028SOL    HW2 6828   0.385   3.126   5.509
 2029SOL     OW 6829   1.113   3.643   3.946
 2029SOL    HW1 6830   1.049   3.596   4.000
 2029SOL    HW2 6831   1.144   3.577   3.883
 2030SOL     OW 6832   0.204   2.136   5.233
 2030SOL    HW1 6833   0.114   2.169   5.225
 2030SOL    HW2 6834   0.195   2.049   5.271
 2031SOL     OW 6835   1.628   3.243   3.814
 2031SOL    HW1 6836   1.587   3.328   3.797
 2031SOL    HW2 6837   1.559   3.179   3.793
 2032SOL     OW 6838   0.468   3.601   4.045
 2032SOL    HW1 6839   0.507   3.664   4.106
 2032SOL    HW2 6840   0.541   3.573   3.990
 2033SOL     OW 6841   1.397   1.968   4.158
 2033SOL    HW1 6842   1.384   1.946   4.066
 2033SOL    HW2 6843   1.486   1.940   4.177
 2034SOL     OW 6844   0.253   3.656   4.951
 2034SOL    HW1 6845   0.297   3.590   5.004
 2034SOL    HW2 6846   0.251   3.619   4.863
 2035SOL     OW 6847   0.938   3.563   4.624
 2035SOL    HW1 6848   1.015   3.511   4.646
 2035SOL    HW2 6849   0.894   3.513   4.555
 2036SOL     OW 6850   0.398   2.555   4.195
 2036SOL    HW1 6851   0.424   2.464   4.210
 2036SOL    HW2 6852   0.307   2.559   4.222
 2037SOL     OW 6853   1.529   2.078   5.436
 2037SOL    HW1 6854   1.541   2.100   5.528
 2037SOL    HW2 6855   1.460   2.011   5.436
 2038SOL     OW 6856   0.641   1.981   3.821
 2038SOL    HW1 6857   0.703   1.910   3.841
 2038SOL    HW2 6858   0.592   1.949   3.746
 2039SOL     OW 6859   0.766   2.142   5.480
 2039SOL    HW1 6860   0.844   2.086   5.477
 2039SOL    HW2 6861   0.717   2.109   5.555
 2040SOL     OW 6862   0.876   3.383   4.918
 2040SOL    HW1 6863   0.859   3.346   4.831
 2040SOL    HW2 6864   0.946   3.328   4.954
 2041SOL     OW 6865   1.341   2.451   5.156
 2041SOL    HW1 6866   1.371   2.420   5.241
 2041SOL    HW2 6867   1.376   2.539   5.149
 2042SOL     OW 6868   0.817   3.254   4.665
 2042SOL    HW1 6869   0.902   3.243   4.622
 2042SOL    HW2 6870   0.754   3.256   4.593
 2043SOL     OW 6871   0.929   2.371   4.626
 2043SOL    HW1 6872   0.905   2.363   4.534
 2043SOL    HW2 6873   0.959   2.284   4.651
 2044SOL     OW 6874   0.556   1.924   4.220
 2044SOL    HW1 6875   0.474   1.929   4.268
 2044SOL    HW2 6876   0.560   2.007   4.171
 2045SOL     OW 6877   1.428   3.061   3.764
 2045SOL    HW1 6878   1.458   2.986   3.815
 2045SOL    HW2 6879   1.342   3.082   3.801
 2046SOL     OW 6880   0.308   1.913   3.894
 2046SOL    HW1 6881   0.372   1.951   3.834
 2046SOL    HW2 6882   0.358   1.848   3.943
 2047SOL     OW 6883   0.940   2.109   4.183
 2047SOL    HW1 6884   0.911   2.150   4.101
 2047SOL    HW2 6885   1.034   2.126   4.186
 2048SOL     OW 6886   1.080   2.544   5.183
 2048SOL    HW1 6887   1.013   2.476   5.187
 2048SOL    HW2 6888   1.162   2.495   5.176
 2049SOL     OW 6889   1.222   3.432   4.518
 2049SOL    HW1 6890   1.237   3.500   4.451
 2049SOL    HW2 6891   1.291   3.447   4.583
 2050SOL     OW 6892   0.467   3.013   4.459
 2050SOL    HW1 6893   0.395   2.989   4.518
 2050SOL    HW2 6894   0.432   2.997   4.372
 2051SOL     OW 6895   1.266   3.657   4.332
 2051SOL    HW1 6896   1.313   3.721   4.279
 2051SOL    HW2 6897   1.194   3.706   4.371
 2052SOL     OW 6898   1.023   2.401   3.748
 2052SOL    HW1 6899   0.981   2.485   3.729
 2052SOL    HW2 6900   1.089   2.422   3.814
 2053SOL     OW 6901   0.082   2.434   5.114
 2053SOL    HW1 6902   0.172   2.421   5.084
 2053SOL    HW2 6903   0.089   2.504   5.179
 2054SOL     OW 6904   0.567   2.089   4.890
 2054SOL    HW1 6905   0.608   2.013   4.931
 2054SOL    HW2 6906   0.475   2.086   4.919
 2055SOL     OW 6907   0.867   2.320   4.364
 2055SOL    HW1 6908   0.820   2.374   4.300
 2055SOL    HW2 6909   0.888   2.240   4.316
 2056SOL     OW 6910   1.015   1.916   4.475
 2056SOL    HW1 6911   0.958   1.910   4.399
 2056SOL    HW2 6912   0.993   1.841   4.529
 2057SOL     OW 6913   1.438   3.024   4.581
 2057SOL    HW1 6914   1.368   2.959   4.581
 2057SOL    HW2 6915   1.462   3.033   4.489
 2058SOL     OW 6916   1.464   2.469   4.697
 2058SOL    HW1 6917   1.411   2.389   4.699
 2058SOL    HW2 6918   1.522   2.461   4.773
 2059SOL     OW 6919   1.846   2.676   4.111
 2059SOL    HW1 6920   1.904   2.624   4.166
 2059SOL    HW2 6921   1.815   2.615   4.044
 2060SOL     OW 6922   0.488   3.281   3.883
 2060SOL    HW1 6923   0.412   3.251   3.933
 2060SOL    HW2 6924   0.470   3.253   3.793
 2061SOL     OW 6925   1.672   3.126   4.368
 2061SOL    HW1 6926   1.767   3.128   4.382
 2061SOL    HW2 6927   1.643   3.214   4.390
 2062SOL     OW 6928   1.392   2.436   3.793
 2062SOL    HW1 6929   1.336   2.413   3.867
 2062SOL    HW2 6930   1.480   2.412   3.822
 2063SOL     OW 6931   0.574   2.130   4.043
 2063SOL    HW1 6932   0.604   2.083   3.965
 2063SOL    HW2 6933   0.542   2.214   4.009
 2064SOL     OW 6934   1.752   3.103   5.293
 2064SOL    HW1 6935   1.839   3.065   5.288
 2064SOL    HW2 6936   1.767   3.193   5.321
 2065SOL     OW 6937   1.057   3.214   5.056
 2065SOL    HW1 6938   0.982   3.184   5.107
 2065SOL    HW2 6939   1.132   3.174   5.098
 2066SOL     OW 6940   1.610   3.488   5.380
 2066SOL    HW1 6941   1.602   3.522   5.291
 2066SOL    HW2 6942   1.693   3.440   5.380
 2067SOL     OW 6943   1.132   3.067   4.828
 2067SOL    HW1 6944   1.072   3.105   4.893
 2067SOL    HW2 6945   1.099   3.101   4.744
 2068SOL     OW 6946   1.626   2.959   4.800
 2068SOL    HW1 6947   1.621   3.022   4.873
 2068SOL    HW2 6948   1.548   2.977   4.748
 2069SOL     OW 6949   0.918   1.958   5.118
 2069SOL    HW1 6950   0.941   1.939   5.027
 2069SOL    HW2 6951   0.997   1.997   5.155
 2070SOL     OW 6952   0.984   2.977   5.447
 2070SOL    HW1 6953   0.893   2.993   5.469
 2070SOL    HW2 6954   0.982   2.899   5.392
 2071SOL     OW 6955   0.708   2.922   4.095
 2071SOL    HW1 6956   0.694   2.906   4.188
 2071SOL    HW2 6957   0.784   2.869   4.072
 2072SOL     OW 6958   0.422   2.678   4.976
 2072SOL    HW1 6959   0.490   2.687   5.043
 2072SOL    HW2 6960   0.388   2.590   4.988
 2073SOL     OW 6961   1.264   2.238   5.002
 2073SOL    HW1 6962   1.297   2.316   5.047
 2073SOL    HW2 6963   1.174   2.259   4.979
 2074SOL     OW 6964   0.065   3.442   5.070
 2074SOL    HW1 6965   0.071   3.498   4.993
 2074SOL    HW2 6966   0.156   3.429   5.097
 2075SOL     OW 6967   0.370   2.964   4.207
 2075SOL    HW1 6968   0.366   3.044   4.155
 2075SOL    HW2 6969   0.370   2.894   4.142
 2076SOL     OW 6970   0.550   2.398   4.586
 2076SOL    HW1 6971   0.564   2.455   4.510
 2076SOL    HW2 6972   0.617   2.424   4.648
 2077SOL     OW 6973   1.248   3.211   4.113
 2077SOL    HW1 6974   1.304   3.282   4.145
 2077SOL    HW2 6975   1.161   3.232   4.147
 2078SOL     OW 6976   1.284   3.321   4.872
 2078SOL    HW1 6977   1.340   3.325   4.949
 2078SOL    HW2 6978   1.228   3.245   4.886
 2079SOL     OW 6979   1.577   2.483   4.201
 2079SOL    HW1 6980   1.532   2.538   4.265
 2079SOL    HW2 6981   1.622   2.546   4.144
 2080SOL     OW 6982   0.345   3.389   5.042
 2080SOL    HW1 6983   0.335   3.339   4.961
 2080SOL    HW2 6984   0.439   3.404   5.050
 2081SOL     OW 6985   0.416   2.601   5.325
 2081SOL    HW1 6986   0.478   2.646   5.269
 2081SOL    HW2 6987   0.455   2.515   5.342
 2082SOL     OW 6988   1.601   2.650   5.399
 2082SOL    HW1 6989   1.515   2.692   5.395
 2082SOL    HW2 6990   1.653   2.694   5.332
 2083SOL     OW 6991   0.995   1.990   5.477
 2083SOL    HW1 6992   1.054   2.061   5.453
 2083SOL    HW2 6993   1.043   1.910   5.453
 2084SOL     OW 6994   0.497   1.898   5.471
 2084SOL    HW1 6995   0.453   1.845   5.404
 2084SOL    HW2 6996   0.442   1.976   5.480
 2085SOL     OW 6997   0.585   2.736   4.756
 2085SOL    HW1 6998   0.617   2.826   4.756
 2085SOL    HW2 6999   0.529   2.730   4.833
 2086SOL     OW 7000   1.354   2.720   4.751
 2086SOL    HW1 7001   1.270   2.709   4.707
 2086SOL    HW2 7002   1.397   2.635   4.743
 2087SOL     OW 7003   1.203   2.390   3.989
 2087SOL    HW1 7004   1.211   2.312   4.044
 2087SOL    HW2 7005   1.160   2.454   4.045
 2088SOL     OW 7006   0.311   2.058   4.971
 2088SOL    HW1 7007   0.263   2.095   5.046
 2088SOL    HW2 7008   0.287   1.966   4.971
 2089SOL     OW 7009   0.060   3.167   5.004
 2089SOL    HW1 7010   0.091   3.127   5.085
 2089SOL    HW2 7011   0.052   3.260   5.025
 2090SOL     OW 7012   0.724   2.493   4.780
 2090SOL    HW1 7013   0.799   2.477   4.723
 2090SOL    HW2 7014   0.696   2.582   4.759
 2091SOL     OW 7015   1.736   2.821   5.578
 2091SOL    HW1 7016   1.693   2.758   5.521
 2091SOL    HW2 7017   1.674   2.836   5.650
 2092SOL     OW 7018   0.314   1.924   4.344
 2092SOL    HW1 7019   0.293   2.015   4.365
 2092SOL    HW2 7020   0.320   1.881   4.429
 2093SOL     OW 7021   1.609   2.237   4.093
 2093SOL    HW1 7022   1.627   2.184   4.171
 2093SOL    HW2 7023   1.588   2.324   4.127
 2094SOL     OW 7024   1.028   2.621   4.684
 2094SOL    HW1 7025   1.023   2.638   4.778
 2094SOL    HW2 7026   1.002   2.529   4.674
 2095SOL     OW 7027   0.986   3.430   5.444
 2095SOL    HW1 7028   0.967   3.471   5.360
 2095SOL    HW2 7029   1.027   3.347   5.421
 2096SOL     OW 7030   1.854   3.365   5.328
 2096SOL    HW1 7031   1.873   3.393   5.239
 2096SOL    HW2 7032   1.934   3.383   5.377
 2097SOL     OW 7033   0.352   2.783   5.524
 2097SOL    HW1 7034   0.431   2.804   5.574
 2097SOL    HW2 7035   0.381   2.716   5.462
 2098SOL     OW 7036   1.528   2.132   3.849
 2098SOL    HW1 7037   1.462   2.069   3.879
 2098SOL    HW2 7038   1.562   2.171   3.930
 2099SOL     OW 7039   1.289   2.688   3.754
 2099SOL    HW1 7040   1.331   2.603   3.758
 2099SOL    HW2 7041   1.321   2.727   3.672
 2100SOL     OW 7042   1.067   3.199   4.579
 2100SOL    HW1 7043   1.071   3.126   4.516
 2100SOL    HW2 7044   1.127   3.264   4.543
 2101SOL     OW 7045   0.313   2.664   4.674
 2101SOL    HW1 7046   0.407   2.682   4.668
 2101SOL    HW2 7047   0.308   2.574   4.706
 2102SOL     OW 7048   0.330   2.382   4.738
 2102SOL    HW1 7049   0.296   2.295   4.722
 2102SOL    HW2 7050   0.406   2.390   4.681
 2103SOL     OW 7051   1.133   2.237   5.408
 2103SOL    HW1 7052   1.086   2.292   5.470
 2103SOL    HW2 7053   1.221   2.275   5.404
 2104SOL     OW 7054   1.160   2.063   5.195
 2104SOL    HW1 7055   1.149   2.126   5.266
 2104SOL    HW2 7056   1.202   2.113   5.125
 2105SOL     OW 7057   4.000   3.180   3.906
 2105SOL    HW1 7058   3.905   3.196   3.910
 2105SOL    HW2 7059   0.009   3.087   3.924
 2106SOL     OW 7060   0.075   3.663   4.619
 2106SOL    HW1 7061   0.090   3.568   4.618
 2106SOL    HW2 7062   0.163   3.700   4.617
 2107SOL     OW 7063   0.507   3.426   4.641
 2107SOL    HW1 7064   0.573   3.492   4.661
 2107SOL    HW2 7065   0.550   3.367   4.578
 2108SOL     OW 7066   0.979   2.652   4.949
 2108SOL    HW1 7067   1.037   2.631   5.023
 2108SOL    HW2 7068   0.895   2.614   4.973
 2109SOL     OW 7069   0.038   2.420   4.833
 2109SOL    HW1 7070   0.120   2.396   4.791
 2109SOL    HW2 7071   0.057   2.416   4.927
 2110SOL     OW 7072   0.207   2.375   5.451
 2110SOL    HW1 7073   0.246   2.327   5.378
 2110SOL    HW2 7074   0.159   2.447   5.411
 2111SOL     OW 7075   1.374   2.802   5.381
 2111SOL    HW1 7076   1.397   2.894   5.378
 2111SOL    HW2 7077   1.371   2.775   5.289
 2112SOL     OW 7078   0.818   2.431   4.085
 2112SOL    HW1 7079   0.823   2.356   4.027
 2112SOL    HW2 7080   0.744   2.482   4.053
 2113SOL     OW 7081   1.639   2.464   4.909
 2113SOL    HW1 7082   1.628   2.408   4.985
 2113SOL    HW2 7083   1.724   2.440   4.873
 2114SOL     OW 7084   0.299   3.407   5.451
 2114SOL    HW1 7085   0.251   3.477   5.495
 2114SOL    HW2 7086   0.268   3.326   5.491
 2115SOL     OW 7087   0.706   2.312   4.982
 2115SOL    HW1 7088   0.653   2.237   4.952
 2115SOL    HW2 7089   0.701   2.375   4.910
 2116SOL     OW 7090   0.928   3.534   5.193
 2116SOL    HW1 7091   0.901   3.496   5.109
 2116SOL    HW2 7092   0.920   3.628   5.181
 2117SOL     OW 7093   0.455   2.351   3.919
 2117SOL    HW1 7094   0.521   2.419   3.937
 2117SOL    HW2 7095   0.376   2.400   3.897
 2118SOL     OW 7096   0.156   2.997   5.199
 2118SOL    HW1 7097   0.156   2.946   5.280
 2118SOL    HW2 7098   0.171   2.932   5.130
 2119SOL     OW 7099   1.324   2.907   4.945
 2119SOL    HW1 7100   1.346   2.844   4.877
 2119SOL    HW2 7101   1.256   2.961   4.906
 2120SOL     OW 7102   1.313   2.719   4.030
 2120SOL    HW1 7103   1.238   2.687   4.080
 2120SOL    HW2 7104   1.288   2.705   3.938
 2121SOL     OW 7105   1.771   3.603   4.874
 2121SOL    HW1 7106   1.834   3.631   4.807
 2121SOL    HW2 7107   1.750   3.512   4.851
 2122SOL     OW 7108   1.244   3.595   4.833
 2122SOL    HW1 7109   1.327   3.616   4.790
 2122SOL    HW2 7110   1.250   3.501   4.853
 2123SOL     OW 7111   0.076   3.076   4.752
 2123SOL    HW1 7112   0.083   3.104   4.843
 2123SOL    HW2 7113   3.983   3.087   4.730
 2124SOL     OW 7114   0.679   3.527   5.457
 2124SOL    HW1 7115   0.621   3.603   5.460
 2124SOL    HW2 7116   0.739   3.546   5.384
 2125SOL     OW 7117   1.390   3.431   4.211
 2125SOL    HW1 7118   1.450   3.464   4.144
 2125SOL    HW2 7119   1.342   3.508   4.241
 2126SOL     OW 7120   0.170   3.623   5.555
 2126SOL    HW1 7121   0.114   3.571   5.613
 2126SOL    HW2 7122   0.217   3.683   5.614
 2127SOL     OW 7123   1.277   2.789   4.395
 2127SOL    HW1 7124   1.351   2.728   4.404
 2127SOL    HW2 7125   1.312   2.861   4.342
 2128SOL     OW 7126   0.811   3.136   5.152
 2128SOL    HW1 7127   0.782   3.176   5.234
 2128SOL    HW2 7128   0.740   3.155   5.091
 2129SOL     OW 7129   0.675   3.479   3.882
 2129SOL    HW1 7130   0.683   3.496   3.788
 2129SOL    HW2 7131   0.616   3.403   3.887
 2130SOL     OW 7132   1.623   3.588   5.114
 2130SOL    HW1 7133   1.674   3.594   5.033
 2130SOL    HW2 7134   1.609   3.679   5.140
 2131SOL     OW 7135   0.267   2.175   4.440
 2131SOL    HW1 7136   0.180   2.208   4.414
 2131SOL    HW2 7137   0.261   2.165   4.535
 2132SOL     OW 7138   1.208   3.466   3.760
 2132SOL    HW1 7139   1.197   3.374   3.784
 2132SOL    HW2 7140   1.147   3.479   3.687
 2133SOL     OW 7141   0.823   2.868   5.097
 2133SOL    HW1 7142   0.868   2.863   5.013
 2133SOL    HW2 7143   0.822   2.961   5.118
 2134SOL     OW 7144   0.916   2.772   4.014
 2134SOL    HW1 7145   0.976   2.805   3.948
 2134SOL    HW2 7146   0.965   2.704   4.060
 2135SOL     OW 7147   1.489   3.490   3.766
 2135SOL    HW1 7148   1.396   3.480   3.750
 2135SOL    HW2 7149   1.528   3.496   3.679
 2136SOL     OW 7150   0.374   3.165   5.215
 2136SOL    HW1 7151   0.359   3.245   5.165
 2136SOL    HW2 7152   0.297   3.111   5.198
 2137SOL     OW 7153   1.609   3.145   5.004
 2137SOL    HW1 7154   1.670   3.134   5.077
 2137SOL    HW2 7155   1.549   3.213   5.034
 2138SOL     OW 7156   1.056   2.970   4.432
 2138SOL    HW1 7157   0.984   2.920   4.470
 2138SOL    HW2 7158   1.119   2.905   4.403
 2139SOL     OW 7159   1.023   2.103   4.691
 2139SOL    HW1 7160   1.019   2.056   4.608
 2139SOL    HW2 7161   1.017   2.034   4.758
 2140SOL     OW 7162   0.606   3.352   4.204
 2140SOL    HW1 7163   0.651   3.302   4.137
 2140SOL    HW2 7164   0.534   3.396   4.158
 2141SOL     OW 7165   1.730   2.246   5.098
 2141SOL    HW1 7166   1.800   2.312   5.103
 2141SOL    HW2 7167   1.769   2.174   5.049
 2142SOL     OW 7168   0.253   3.203   4.015
 2142SOL    HW1 7169   0.160   3.211   3.997
 2142SOL    HW2 7170   0.264   3.241   4.103
 2143SOL     OW 7171   0.107   2.860   5.441
 2143SOL    HW1 7172   0.047   2.853   5.515
 2143SOL    HW2 7173   0.193   2.842   5.479
 2144SOL     OW 7174   0.676   2.058   5.224
 2144SOL    HW1 7175   0.759   2.037   5.183
 2144SOL    HW2 7176   0.699   2.091   5.311
 2145SOL     OW 7177   0.081   2.177   3.762
 2145SOL    HW1 7178   3.985   2.177   3.769
 2145SOL    HW2 7179   0.101   2.257   3.714
 2146SOL     OW 7180   1.428   2.721   5.123
 2146SOL    HW1 7181   1.379   2.782   5.068
 2146SOL    HW2 7182   1.517   2.723   5.088
 2147SOL     OW 7183   0.019   2.096   4.100
 2147SOL    HW1 7184   0.045   2.160   4.034
 2147SOL    HW2 7185   0.101   2.057   4.130
 2148SOL     OW 7186   1.178   3.199   3.841
 2148SOL    HW1 7187   1.087   3.171   3.842
 2148SOL    HW2 7188   1.205   3.199   3.933
 2149SOL     OW 7189   0.620   2.692   5.160
 2149SOL    HW1 7190   0.676   2.768   5.145
 2149SOL    HW2 7191   0.680   2.619   5.168
 2150SOL     OW 7192   1.486   3.640   4.705
 2150SOL    HW1 7193   1.508   3.700   4.633
 2150SOL    HW2 7194   1.570   3.619   4.746
 2151SOL     OW 7195   0.716   2.424   5.428
 2151SOL    HW1 7196   0.760   2.486   5.486
 2151SOL    HW2 7197   0.741   2.338   5.460
 2152SOL     OW 7198   1.473   3.060   5.354
 2152SOL    HW1 7199   1.460   3.075   5.448
 2152SOL    HW2 7200   1.566   3.078   5.340
 2153SOL     OW 7201   0.378   3.607   5.283
 2153SOL    HW1 7202   0.290   3.643   5.270
 2153SOL    HW2 7203   0.364   3.524   5.329
 2154SOL     OW 7204   1.668   2.743   4.978
 2154SOL    HW1 7205   1.660   2.658   4.936
 2154SOL    HW2 7206   1.657   2.807   4.907
 2155SOL     OW 7207   1.215   2.182   4.182
 2155SOL    HW1 7208   1.278   2.110   4.174
 2155SOL    HW2 7209   1.245   2.231   4.258
 2156SOL     OW 7210   0.589   2.600   4.396
 2156SOL    HW1 7211   0.628   2.686   4.381
 2156SOL    HW2 7212   0.523   2.590   4.328
 2157SOL     OW 7213   1.745   2.234   5.377
 2157SOL    HW1 7214   1.747   2.241   5.282
 2157SOL    HW2 7215   1.674   2.173   5.395
 2158SOL     OW 7216   1.746   2.805   5.233
 2158SOL    HW1 7217   1.736   2.899   5.245
 2158SOL    HW2 7218   1.729   2.790   5.140
 2159SOL     OW 7219   0.865   3.229   3.762
 2159SOL    HW1 7220   0.823   3.257   3.844
 2159SOL    HW2 7221   0.879   3.310   3.713
 2160SOL     OW 7222   0.659   3.651   4.660
 2160SOL    HW1 7223   0.637   3.742   4.640
 2160SOL    HW2 7224   0.754   3.648   4.658
 2161SOL     OW 7225   0.869   2.830   4.578
 2161SOL    HW1 7226   0.918   2.758   4.616
 2161SOL    HW2 7227   0.832   2.877   4.653
 2162SOL     OW 7228   1.077   2.850   3.813
 2162SOL    HW1 7229   1.057   2.901   3.735
 2162SOL    HW2 7230   1.152   2.796   3.787
 2163SOL     OW 7231   1.851   3.412   4.566
 2163SOL    HW1 7232   1.771   3.403   4.514
 2163SOL    HW2 7233   1.841   3.351   4.638
 2164SOL     OW 7234   0.226   3.166   5.580
 2164SOL    HW1 7235   0.153   3.111   5.554
 2164SOL    HW2 7236   0.214   3.179   5.674
 2165SOL     OW 7237   0.115   3.139   4.445
 2165SOL    HW1 7238   0.132   3.089   4.525
 2165SOL    HW2 7239   0.105   3.073   4.377
 2166SOL     OW 7240   0.683   3.266   5.354
 2166SOL    HW1 7241   0.602   3.224   5.384
 2166SOL    HW2 7242   0.679   3.354   5.391
 2167SOL     OW 7243   0.441   2.296   4.258
 2167SOL    HW1 7244   0.442   2.226   4.192
 2167SOL    HW2 7245   0.385   2.262   4.328
 2168SOL     OW 7246   1.701   3.348   4.815
 2168SOL    HW1 7247   1.619   3.327   4.770
 2168SOL    HW2 7248   1.709   3.280   4.883
 2169SOL     OW 7249   0.334   2.419   5.016
 2169SOL    HW1 7250   0.389   2.362   5.070
 2169SOL    HW2 7251   0.349   2.388   4.926
 2170SOL     OW 7252   0.828   3.441   4.400
 2170SOL    HW1 7253   0.812   3.494   4.323
 2170SOL    HW2 7254   0.754   3.381   4.404
 2171SOL     OW 7255   1.436   2.090   4.845
 2171SOL    HW1 7256   1.443   2.002   4.882
 2171SOL    HW2 7257   1.382   2.139   4.907
 2172SOL     OW 7258   1.009   1.879   4.864
 2172SOL    HW1 7259   0.956   1.812   4.821
 2172SOL    HW2 7260   1.098   1.841   4.866
 2173SOL     OW 7261   0.772   3.194   4.042
 2173SOL    HW1 7262   0.742   3.103   4.048
 2173SOL    HW2 7263   0.855   3.195   4.091
 2174SOL     OW 7264   0.621   3.416   5.010
 2174SOL    HW1 7265   0.621   3.497   5.059
 2174SOL    HW2 7266   0.708   3.410   4.972
 2175SOL     OW 7267   1.353   1.912   3.892
 2175SOL    HW1 7268   1.381   1.850   3.825
 2175SOL    HW2 7269   1.265   1.883   3.916
 2176SOL     OW 7270   1.297   2.324   4.404
 2176SOL    HW1 7271   1.244   2.403   4.410
 2176SOL    HW2 7272   1.292   2.285   4.492
 2177SOL     OW 7273   1.575   2.057   4.596
 2177SOL    HW1 7274   1.535   2.082   4.680
 2177SOL    HW2 7275   1.586   2.139   4.549
 2178SOL     OW 7276   0.047   2.911   3.963
 2178SOL    HW1 7277   0.141   2.896   3.955
 2178SOL    HW2 7278   0.011   2.828   3.995
 2179SOL     OW 7279   0.886   3.520   4.067
 2179SOL    HW1 7280   0.815   3.501   4.006
 2179SOL    HW2 7281   0.854   3.595   4.117
 2180SOL     OW 7282   0.231   2.485   5.705
 2180SOL    HW1 7283   0.138   2.494   5.726
 2180SOL    HW2 7284   0.233   2.454   5.615
 2181SOL     OW 7285   0.229   2.134   6.573
 2181SOL    HW1 7286   0.250   2.100   6.660
 2181SOL    HW2 7287   0.134   2.126   6.566
 2182SOL     OW 7288   0.010   2.222   6.216
 2182SOL    HW1 7289   3.921   2.239   6.249
 2182SOL    HW2 7290   3.996   2.190   6.127
 2183SOL     OW 7291   0.579   3.150   6.775
 2183SOL    HW1 7292   0.493   3.154   6.734
 2183SOL    HW2 7293   0.594   3.238   6.808
 2184SOL     OW 7294   1.559   3.381   6.299
 2184SOL    HW1 7295   1.519   3.355   6.382
 2184SOL    HW2 7296   1.487   3.381   6.236
 2185SOL     OW 7297   1.124   2.578   6.281
 2185SOL    HW1 7298   1.180   2.655   6.275
 2185SOL    HW2 7299   1.081   2.586   6.367
 2186SOL     OW 7300   1.758   2.454   5.821
 2186SOL    HW1 7301   1.736   2.469   5.729
 2186SOL    HW2 7302   1.761   2.359   5.831
 2187SOL     OW 7303   0.753   3.001   6.626
 2187SOL    HW1 7304   0.689   3.036   6.688
 2187SOL    HW2 7305   0.789   3.078   6.583
 2188SOL     OW 7306   0.864   2.638   7.408
 2188SOL    HW1 7307   0.863   2.708   7.473
 2188SOL    HW2 7308   0.891   2.680   7.326
 2189SOL     OW 7309   0.686   2.864   6.233
 2189SOL    HW1 7310   0.751   2.852   6.301
 2189SOL    HW2 7311   0.617   2.916   6.274
 2190SOL     OW 7312   0.711   3.011   7.401
 2190SOL    HW1 7313   0.760   3.089   7.430
 2190SOL    HW2 7314   0.630   3.046   7.365
 2191SOL     OW 7315   0.350   3.264   6.664
 2191SOL    HW1 7316   0.269   3.248   6.617
 2191SOL    HW2 7317   0.400   3.322   6.607
 2192SOL     OW 7318   1.459   3.364   6.943
 2192SOL    HW1 7319   1.512   3.443   6.953
 2192SOL    HW2 7320   1.393   3.370   7.012
 2193SOL     OW 7321   0.450   2.261   7.073
 2193SOL    HW1 7322   0.525   2.202   7.077
 2193SOL    HW2 7323   0.374   2.204   7.087
 2194SOL     OW 7324   0.223   3.571   6.052
 2194SOL    HW1 7325   0.224   3.654   6.100
 2194SOL    HW2 7326   0.300   3.575   5.995
 2195SOL     OW 7327   1.137   3.204   7.279
 2195SOL    HW1 7328   1.179   3.197   7.365
 2195SOL    HW2 7329   1.085   3.124   7.271
 2196SOL     OW 7330   0.250   3.305   6.126
 2196SOL    HW1 7331   0.222   3.396   6.112
 2196SOL    HW2 7332   0.180   3.267   6.179
 2197SOL     OW 7333   0.247   2.929   6.470
 2197SOL    HW1 7334   0.267   2.844   6.510
 2197SOL    HW2 7335   0.194   2.975   6.535
 2198SOL     OW 7336   0.610   3.649   7.013
 2198SOL    HW1 7337   0.528   3.634   7.060
 2198SOL    HW2 7338   0.637   3.737   7.038
 2199SOL     OW 7339   0.578   2.847   5.724
 2199SOL    HW1 7340   0.626   2.893   5.655
 2199SOL    HW2 7341   0.619   2.877   5.805
 2200SOL     OW 7342   1.546   1.995   7.014
 2200SOL    HW1 7343   1.571   2.083   6.984
 2200SOL    HW2 7344   1.539   2.003   7.109
 2201SOL     OW 7345   0.142   2.514   6.160
 2201SOL    HW1 7346   0.087   2.436   6.159
 2201SOL    HW2 7347   0.106   2.569   6.230
 2202SOL     OW 7348   1.843   3.609   5.923
 2202SOL    HW1 7349   1.910   3.586   5.986
 2202SOL    HW2 7350   1.862   3.700   5.900
 2203SOL     OW 7351   0.041   3.453   5.726
 2203SOL    HW1 7352   0.034   3.361   5.751
 2203SOL    HW2 7353   3.959   3.492   5.756
 2204SOL     OW 7354   1.657   2.860   6.227
 2204SOL    HW1 7355   1.677   2.767   6.217
 2204SOL    HW2 7356   1.650   2.893   6.137
 2205SOL     OW 7357   1.644   2.994   5.989
 2205SOL    HW1 7358   1.732   2.992   5.952
 2205SOL    HW2 7359   1.648   3.062   6.057
 2206SOL     OW 7360   0.139   2.615   7.175
 2206SOL    HW1 7361   0.234   2.610   7.172
 2206SOL    HW2 7362   0.121   2.704   7.206
 2207SOL     OW 7363   0.616   3.248   6.320
 2207SOL    HW1 7364   0.568   3.166   6.330
 2207SOL    HW2 7365   0.598   3.275   6.230
 2208SOL     OW 7366   1.287   3.102   7.010
 2208SOL    HW1 7367   1.319   3.033   6.951
 2208SOL    HW2 7368   1.344   3.095   7.087
 2209SOL     OW 7369   0.815   1.859   6.097
 2209SOL    HW1 7370   0.853   1.945   6.078
 2209SOL    HW2 7371   0.721   1.875   6.104
 2210SOL     OW 7372   0.184   2.813   6.865
 2210SOL    HW1 7373   0.273   2.777   6.852
 2210SOL    HW2 7374   0.132   2.773   6.795
 2211SOL     OW 7375   1.531   2.857   5.779
 2211SOL    HW1 7376   1.464   2.799   5.816
 2211SOL    HW2 7377   1.567   2.903   5.855
 2212SOL     OW 7378   1.217   3.666   7.213
 2212SOL    HW1 7379   1.194   3.726   7.143
 2212SOL    HW2 7380   1.218   3.580   7.172
 2213SOL     OW 7381   0.341   2.109   7.401
 2213SOL    HW1 7382   0.378   2.196   7.410
 2213SOL    HW2 7383   0.249   2.119   7.427
 2214SOL     OW 7384   1.464   3.282   6.535
 2214SOL    HW1 7385   1.398   3.296   6.603
 2214SOL    HW2 7386   1.452   3.191   6.508
 2215SOL     OW 7387   1.654   3.603   6.166
 2215SOL    HW1 7388   1.640   3.570   6.077
 2215SOL    HW2 7389   1.631   3.530   6.223
 2216SOL     OW 7390   0.596   2.579   5.851
 2216SOL    HW1 7391   0.601   2.663   5.806
 2216SOL    HW2 7392   0.533   2.593   5.922
 2217SOL     OW 7393   1.577   3.537   5.894
 2217SOL    HW1 7394   1.669   3.561   5.889
 2217SOL    HW2 7395   1.552   3.518   5.804
 2218SOL     OW 7396   0.797   2.478   7.038
 2218SOL    HW1 7397   0.768   2.455   7.126
 2218SOL    HW2 7398   0.757   2.413   6.982
 2219SOL     OW 7399   0.954   2.748   7.169
 2219SOL    HW1 7400   1.014   2.682   7.133
 2219SOL    HW2 7401   0.907   2.782   7.093
 2220SOL     OW 7402   0.988   2.271   6.817
 2220SOL    HW1 7403   0.900   2.290   6.848
 2220SOL    HW2 7404   0.974   2.229   6.732
 2221SOL     OW 7405   1.055   2.558   6.012
 2221SOL    HW1 7406   1.069   2.557   6.106
 2221SOL    HW2 7407   0.971   2.513   6.000
 2222SOL     OW 7408   0.082   2.690   6.376
 2222SOL    HW1 7409   0.157   2.660   6.428
 2222SOL    HW2 7410   0.099   2.783   6.362
 2223SOL     OW 7411   0.127   3.717   7.164
 2223SOL    HW1 7412   0.135   3.685   7.253
 2223SOL    HW2 7413   0.035   3.704   7.141
 2224SOL     OW 7414   0.906   2.209   5.784
 2224SOL    HW1 7415   0.941   2.273   5.721
 2224SOL    HW2 7416   0.906   2.126   5.735
 2225SOL     OW 7417   1.373   3.008   6.124
 2225SOL    HW1 7418   1.454   3.002   6.073
 2225SOL    HW2 7419   1.318   3.070   6.075
 2226SOL     OW 7420   0.544   2.040   6.481
 2226SOL    HW1 7421   0.552   2.072   6.571
 2226SOL    HW2 7422   0.546   2.119   6.427
 2227SOL     OW 7423   1.003   3.306   6.057
 2227SOL    HW1 7424   0.966   3.381   6.008
 2227SOL    HW2 7425   0.984   3.326   6.148
 2228SOL     OW 7426   0.359   3.670   6.447
 2228SOL    HW1 7427   0.437   3.617   6.459
 2228SOL    HW2 7428   0.390   3.761   6.456
 2229SOL     OW 7429   1.795   2.979   6.443
 2229SOL    HW1 7430   1.735   2.954   6.372
 2229SOL    HW2 7431   1.742   2.970   6.522
 2230SOL     OW 7432   1.227   3.400   7.098
 2230SOL    HW1 7433   1.215   3.327   7.159
 2230SOL    HW2 7434   1.161   3.386   7.030
 2231SOL     OW 7435   0.311   2.816   5.828
 2231SOL    HW1 7436   0.394   2.839   5.787
 2231SOL    HW2 7437   0.298   2.724   5.806
 2232SOL     OW 7438   0.468   3.123   7.323
 2232SOL    HW1 7439   0.442   3.131   7.231
 2232SOL    HW2 7440   0.385   3.127   7.372
 2233SOL     OW 7441   1.113   3.643   5.808
 2233SOL    HW1 7442   1.049   3.597   5.862
 2233SOL    HW2 7443   1.144   3.577   5.745
 2234SOL     OW 7444   0.204   2.136   7.093
 2234SOL    HW1 7445   0.114   2.168   7.087
 2234SOL    HW2 7446   0.196   2.049   7.134
 2235SOL     OW 7447   1.629   3.242   5.675
 2235SOL    HW1 7448   1.589   3.328   5.659
 2235SOL    HW2 7449   1.559   3.179   5.655
 2236SOL     OW 7450   0.468   3.601   5.907
 2236SOL    HW1 7451   0.506   3.664   5.968
 2236SOL    HW2 7452   0.541   3.573   5.852
 2237SOL     OW 7453   0.252   3.656   6.813
 2237SOL    HW1 7454   0.297   3.591   6.866
 2237SOL    HW2 7455   0.251   3.619   6.725
 2238SOL     OW 7456   0.938   3.563   6.486
 2238SOL    HW1 7457   1.015   3.511   6.508
 2238SOL    HW2 7458   0.894   3.513   6.417
 2239SOL     OW 7459   0.399   2.555   6.057
 2239SOL    HW1 7460   0.424   2.464   6.072
 2239SOL    HW2 7461   0.307   2.559   6.084
 2240SOL     OW 7462   0.645   1.982   5.681
 2240SOL    HW1 7463   0.702   1.909   5.704
 2240SOL    HW2 7464   0.593   1.949   5.607
 2241SOL     OW 7465   0.761   2.141   7.340
 2241SOL    HW1 7466   0.843   2.092   7.344
 2241SOL    HW2 7467   0.717   2.119   7.422
 2242SOL     OW 7468   0.876   3.383   6.780
 2242SOL    HW1 7469   0.860   3.346   6.693
 2242SOL    HW2 7470   0.946   3.329   6.817
 2243SOL     OW 7471   0.816   3.254   6.527
 2243SOL    HW1 7472   0.901   3.243   6.485
 2243SOL    HW2 7473   0.754   3.256   6.455
 2244SOL     OW 7474   0.930   2.374   6.488
 2244SOL    HW1 7475   0.908   2.365   6.395
 2244SOL    HW2 7476   0.952   2.285   6.516
 2245SOL     OW 7477   0.553   1.924   6.081
 2245SOL    HW1 7478   0.472   1.930   6.130
 2245SOL    HW2 7479   0.559   2.007   6.033
 2246SOL     OW 7480   1.427   3.062   5.625
 2246SOL    HW1 7481   1.456   2.985   5.674
 2246SOL    HW2 7482   1.342   3.084   5.663
 2247SOL     OW 7483   0.307   1.913   5.756
 2247SOL    HW1 7484   0.371   1.952   5.695
 2247SOL    HW2 7485   0.357   1.848   5.805
 2248SOL     OW 7486   0.932   2.103   6.050
 2248SOL    HW1 7487   0.918   2.145   5.965
 2248SOL    HW2 7488   1.027   2.091   6.055
 2249SOL     OW 7489   1.075   2.534   7.042
 2249SOL    HW1 7490   0.990   2.492   7.049
 2249SOL    HW2 7491   1.138   2.462   7.051
 2250SOL     OW 7492   1.221   3.433   6.380
 2250SOL    HW1 7493   1.238   3.500   6.314
 2250SOL    HW2 7494   1.291   3.444   6.444
 2251SOL     OW 7495   0.467   3.013   6.321
 2251SOL    HW1 7496   0.395   2.989   6.380
 2251SOL    HW2 7497   0.432   2.997   6.234
 2252SOL     OW 7498   1.266   3.657   6.193
 2252SOL    HW1 7499   1.313   3.722   6.141
 2252SOL    HW2 7500   1.195   3.706   6.233
 2253SOL     OW 7501   1.022   2.403   5.610
 2253SOL    HW1 7502   0.977   2.484   5.589
 2253SOL    HW2 7503   1.091   2.429   5.671
 2254SOL     OW 7504   0.082   2.434   6.976
 2254SOL    HW1 7505   0.172   2.421   6.945
 2254SOL    HW2 7506   0.089   2.504   7.041
 2255SOL     OW 7507   0.567   2.089   6.753
 2255SOL    HW1 7508   0.608   2.014   6.795
 2255SOL    HW2 7509   0.475   2.086   6.781
 2256SOL     OW 7510   0.868   2.322   6.226
 2256SOL    HW1 7511   0.819   2.375   6.163
 2256SOL    HW2 7512   0.884   2.239   6.179
 2257SOL     OW 7513   0.988   1.927   6.353
 2257SOL    HW1 7514   0.949   1.915   6.266
 2257SOL    HW2 7515   0.974   1.843   6.397
 2258SOL     OW 7516   1.431   3.026   6.441
 2258SOL    HW1 7517   1.372   2.952   6.452
 2258SOL    HW2 7518   1.453   3.026   6.348
 2259SOL     OW 7519   0.488   3.281   5.745
 2259SOL    HW1 7520   0.412   3.251   5.795
 2259SOL    HW2 7521   0.470   3.253   5.655
 2260SOL     OW 7522   1.674   3.155   6.200
 2260SOL    HW1 7523   1.764   3.149   6.230
 2260SOL    HW2 7524   1.639   3.234   6.242
 2261SOL     OW 7525   1.393   2.438   5.653
 2261SOL    HW1 7526   1.340   2.415   5.729
 2261SOL    HW2 7527   1.483   2.417   5.678
 2262SOL     OW 7528   0.575   2.130   5.904
 2262SOL    HW1 7529   0.605   2.083   5.826
 2262SOL    HW2 7530   0.541   2.213   5.870
 2263SOL     OW 7531   1.758   3.099   7.160
 2263SOL    HW1 7532   1.844   3.066   7.133
 2263SOL    HW2 7533   1.775   3.190   7.186
 2264SOL     OW 7534   1.056   3.216   6.921
 2264SOL    HW1 7535   0.981   3.184   6.972
 2264SOL    HW2 7536   1.132   3.175   6.961
 2265SOL     OW 7537   1.612   3.488   7.243
 2265SOL    HW1 7538   1.602   3.522   7.154
 2265SOL    HW2 7539   1.694   3.439   7.242
 2266SOL     OW 7540   1.130   3.072   6.693
 2266SOL    HW1 7541   1.069   3.110   6.756
 2266SOL    HW2 7542   1.098   3.102   6.608
 2267SOL     OW 7543   1.628   2.979   6.654
 2267SOL    HW1 7544   1.620   3.028   6.736
 2267SOL    HW2 7545   1.541   2.986   6.614
 2268SOL     OW 7546   0.912   1.959   6.981
 2268SOL    HW1 7547   0.940   1.943   6.892
 2268SOL    HW2 7548   0.983   2.009   7.021
 2269SOL     OW 7549   0.983   2.979   7.306
 2269SOL    HW1 7550   0.891   2.992   7.328
 2269SOL    HW2 7551   0.983   2.900   7.252
 2270SOL     OW 7552   0.708   2.922   5.957
 2270SOL    HW1 7553   0.694   2.906   6.050
 2270SOL    HW2 7554   0.784   2.869   5.934
 2271SOL     OW 7555   0.422   2.678   6.838
 2271SOL    HW1 7556   0.490   2.686   6.905
 2271SOL    HW2 7557   0.388   2.589   6.850
 2272SOL     OW 7558   1.246   2.234   6.887
 2272SOL    HW1 7559   1.300   2.298   6.840
 2272SOL    HW2 7560   1.156   2.255   6.861
 2273SOL     OW 7561   0.066   3.442   6.932
 2273SOL    HW1 7562   0.071   3.499   6.855
 2273SOL    HW2 7563   0.157   3.429   6.959
 2274SOL     OW 7564   0.370   2.964   6.069
 2274SOL    HW1 7565   0.366   3.045   6.017
 2274SOL    HW2 7566   0.370   2.894   6.004
 2275SOL     OW 7567   0.549   2.398   6.447
 2275SOL    HW1 7568   0.565   2.455   6.372
 2275SOL    HW2 7569   0.617   2.424   6.510
 2276SOL     OW 7570   1.246   3.212   5.974
 2276SOL    HW1 7571   1.303   3.283   6.006
 2276SOL    HW2 7572   1.159   3.234   6.008
 2277SOL     OW 7573   1.283   3.321   6.734
 2277SOL    HW1 7574   1.340   3.324   6.811
 2277SOL    HW2 7575   1.230   3.243   6.746
 2278SOL     OW 7576   0.345   3.389   6.904
 2278SOL    HW1 7577   0.335   3.339   6.823
 2278SOL    HW2 7578   0.439   3.404   6.912
 2279SOL     OW 7579   0.416   2.601   7.187
 2279SOL    HW1 7580   0.479   2.646   7.131
 2279SOL    HW2 7581   0.456   2.516   7.205
 2280SOL     OW 7582   0.993   1.995   7.336
 2280SOL    HW1 7583   1.037   2.026   7.257
 2280SOL    HW2 7584   1.012   1.901   7.338
 2281SOL     OW 7585   0.498   1.898   7.331
 2281SOL    HW1 7586   0.454   1.845   7.265
 2281SOL    HW2 7587   0.444   1.976   7.340
 2282SOL     OW 7588   0.585   2.736   6.618
 2282SOL    HW1 7589   0.618   2.826   6.618
 2282SOL    HW2 7590   0.529   2.730   6.695
 2283SOL     OW 7591   1.335   2.749   6.594
 2283SOL    HW1 7592   1.254   2.705   6.569
 2283SOL    HW2 7593   1.398   2.678   6.607
 2284SOL     OW 7594   1.211   2.393   5.854
 2284SOL    HW1 7595   1.209   2.312   5.905
 2284SOL    HW2 7596   1.165   2.456   5.910
 2285SOL     OW 7597   0.310   2.058   6.833
 2285SOL    HW1 7598   0.265   2.095   6.909
 2285SOL    HW2 7599   0.286   1.966   6.834
 2286SOL     OW 7600   0.059   3.167   6.866
 2286SOL    HW1 7601   0.091   3.126   6.947
 2286SOL    HW2 7602   0.052   3.260   6.888
 2287SOL     OW 7603   0.724   2.493   6.642
 2287SOL    HW1 7604   0.799   2.477   6.585
 2287SOL    HW2 7605   0.696   2.582   6.621
 2288SOL     OW 7606   0.313   1.924   6.207
 2288SOL    HW1 7607   0.292   2.015   6.228
 2288SOL    HW2 7608   0.320   1.881   6.291
 2289SOL     OW 7609   1.606   2.210   5.935
 2289SOL    HW1 7610   1.654   2.170   6.008
 2289SOL    HW2 7611   1.580   2.296   5.968
 2290SOL     OW 7612   1.036   2.619   6.547
 2290SOL    HW1 7613   1.026   2.637   6.640
 2290SOL    HW2 7614   1.006   2.529   6.536
 2291SOL     OW 7615   0.985   3.430   7.306
 2291SOL    HW1 7616   0.967   3.471   7.222
 2291SOL    HW2 7617   1.028   3.347   7.284
 2292SOL     OW 7618   1.856   3.362   7.190
 2292SOL    HW1 7619   1.872   3.392   7.100
 2292SOL    HW2 7620   1.936   3.384   7.237
 2293SOL     OW 7621   0.353   2.784   7.386
 2293SOL    HW1 7622   0.431   2.804   7.437
 2293SOL    HW2 7623   0.381   2.717   7.324
 2294SOL     OW 7624   1.520   2.129   5.695
 2294SOL    HW1 7625   1.458   2.062   5.724
 2294SOL    HW2 7626   1.560   2.161   5.776
 2295SOL     OW 7627   1.289   2.689   5.616
 2295SOL    HW1 7628   1.331   2.603   5.619
 2295SOL    HW2 7629   1.320   2.728   5.534
 2296SOL     OW 7630   1.066   3.199   6.440
 2296SOL    HW1 7631   1.071   3.126   6.379
 2296SOL    HW2 7632   1.127   3.264   6.406
 2297SOL     OW 7633   0.313   2.664   6.536
 2297SOL    HW1 7634   0.407   2.682   6.530
 2297SOL    HW2 7635   0.308   2.574   6.568
 2298SOL     OW 7636   0.330   2.382   6.600
 2298SOL    HW1 7637   0.296   2.294   6.584
 2298SOL    HW2 7638   0.406   2.390   6.542
 2299SOL     OW 7639   1.122   2.099   7.092
 2299SOL    HW1 7640   1.174   2.144   7.158
 2299SOL    HW2 7641   1.161   2.125   7.009
 2300SOL     OW 7642   4.000   3.180   5.768
 2300SOL    HW1 7643   3.905   3.196   5.772
 2300SOL    HW2 7644   0.009   3.087   5.786
 2301SOL     OW 7645   0.075   3.663   6.480
 2301SOL    HW1 7646   0.090   3.568   6.480
 2301SOL    HW2 7647   0.163   3.700   6.479
 2302SOL     OW 7648   0.507   3.426   6.503
 2302SOL    HW1 7649   0.573   3.492   6.523
 2302SOL    HW2 7650   0.550   3.367   6.440
 2303SOL     OW 7651   0.980   2.652   6.810
 2303SOL    HW1 7652   1.039   2.630   6.882
 2303SOL    HW2 7653   0.896   2.614   6.836
 2304SOL     OW 7654   0.038   2.420   6.695
 2304SOL    HW1 7655   0.120   2.396   6.653
 2304SOL    HW2 7656   0.057   2.416   6.789
 2305SOL     OW 7657   0.206   2.375   7.314
 2305SOL    HW1 7658   0.247   2.328   7.241
 2305SOL    HW2 7659   0.160   2.448   7.272
 2306SOL     OW 7660   1.351   2.813   7.242
 2306SOL    HW1 7661   1.394   2.898   7.238
 2306SOL    HW2 7662   1.376   2.770   7.160
 2307SOL     OW 7663   0.819   2.433   5.947
 2307SOL    HW1 7664   0.821   2.355   5.891
 2307SOL    HW2 7665   0.744   2.484   5.915
 2308SOL     OW 7666   1.662   2.479   6.850
 2308SOL    HW1 7667   1.652   2.396   6.897
 2308SOL    HW2 7668   1.739   2.466   6.795
 2309SOL     OW 7669   0.298   3.407   7.312
 2309SOL    HW1 7670   0.250   3.477   7.357
 2309SOL    HW2 7671   0.268   3.326   7.353
 2310SOL     OW 7672   0.706   2.313   6.844
 2310SOL    HW1 7673   0.653   2.238   6.816
 2310SOL    HW2 7674   0.700   2.376   6.772
 2311SOL     OW 7675   0.927   3.534   7.056
 2311SOL    HW1 7676   0.901   3.496   6.972
 2311SOL    HW2 7677   0.919   3.629   7.042
 2312SOL     OW 7678   0.456   2.352   5.780
 2312SOL    HW1 7679   0.521   2.420   5.799
 2312SOL    HW2 7680   0.376   2.400   5.758
 2313SOL     OW 7681   0.156   2.997   7.061
 2313SOL    HW1 7682   0.157   2.946   7.142
 2313SOL    HW2 7683   0.171   2.932   6.992
 2314SOL     OW 7684   1.323   2.913   6.807
 2314SOL    HW1 7685   1.341   2.854   6.734
 2314SOL    HW2 7686   1.253   2.970   6.776
 2315SOL     OW 7687   1.311   2.722   5.891
 2315SOL    HW1 7688   1.237   2.687   5.940
 2315SOL    HW2 7689   1.287   2.707   5.799
 2316SOL     OW 7690   1.774   3.603   6.739
 2316SOL    HW1 7691   1.835   3.630   6.670
 2316SOL    HW2 7692   1.749   3.513   6.715
 2317SOL     OW 7693   1.243   3.595   6.695
 2317SOL    HW1 7694   1.326   3.616   6.652
 2317SOL    HW2 7695   1.250   3.501   6.715
 2318SOL     OW 7696   0.076   3.077   6.614
 2318SOL    HW1 7697   0.083   3.104   6.705
 2318SOL    HW2 7698   3.983   3.087   6.592
 2319SOL     OW 7699   0.680   3.527   7.319
 2319SOL    HW1 7700   0.622   3.603   7.322
 2319SOL    HW2 7701   0.740   3.545   7.247
 2320SOL     OW 7702   1.389   3.431   6.072
 2320SOL    HW1 7703   1.450   3.464   6.006
 2320SOL    HW2 7704   1.342   3.508   6.102
 2321SOL     OW 7705   0.169   3.623   7.418
 2321SOL    HW1 7706   0.114   3.571   7.476
 2321SOL    HW2 7707   0.216   3.683   7.476
 2322SOL     OW 7708   1.298   2.782   6.249
 2322SOL    HW1 7709   1.364   2.723   6.214
 2322SOL    HW2 7710   1.317   2.867   6.209
 2323SOL     OW 7711   0.810   3.135   7.015
 2323SOL    HW1 7712   0.782   3.175   7.097
 2323SOL    HW2 7713   0.740   3.154   6.953
 2324SOL     OW 7714   0.675   3.479   5.744
 2324SOL    HW1 7715   0.683   3.495   5.650
 2324SOL    HW2 7716   0.616   3.403   5.749
 2325SOL     OW 7717   1.624   3.588   6.977
 2325SOL    HW1 7718   1.674   3.593   6.896
 2325SOL    HW2 7719   1.610   3.680   7.002
 2326SOL     OW 7720   0.267   2.175   6.302
 2326SOL    HW1 7721   0.180   2.208   6.277
 2326SOL    HW2 7722   0.261   2.166   6.397
 2327SOL     OW 7723   1.208   3.466   5.622
 2327SOL    HW1 7724   1.197   3.374   5.646
 2327SOL    HW2 7725   1.147   3.479   5.549
 2328SOL     OW 7726   0.824   2.867   6.959
 2328SOL    HW1 7727   0.870   2.863   6.875
 2328SOL    HW2 7728   0.822   2.960   6.981
 2329SOL     OW 7729   0.916   2.771   5.878
 2329SOL    HW1 7730   0.976   2.804   5.811
 2329SOL    HW2 7731   0.965   2.702   5.922
 2330SOL     OW 7732   1.490   3.490   5.628
 2330SOL    HW1 7733   1.396   3.480   5.613
 2330SOL    HW2 7734   1.528   3.496   5.541
 2331SOL     OW 7735   0.374   3.165   7.077
 2331SOL    HW1 7736   0.359   3.245   7.027
 2331SOL    HW2 7737   0.297   3.111   7.060
 2332SOL     OW 7738   1.606   3.144   6.871
 2332SOL    HW1 7739   1.671   3.137   6.941
 2332SOL    HW2 7740   1.547   3.214   6.900
 2333SOL     OW 7741   1.054   2.970   6.293
 2333SOL    HW1 7742   0.984   2.920   6.334
 2333SOL    HW2 7743   1.113   2.904   6.256
 2334SOL     OW 7744   0.994   2.110   6.564
 2334SOL    HW1 7745   0.992   2.064   6.479
 2334SOL    HW2 7746   1.006   2.040   6.628
 2335SOL     OW 7747   0.605   3.352   6.066
 2335SOL    HW1 7748   0.650   3.302   5.998
 2335SOL    HW2 7749   0.534   3.396   6.020
 2336SOL     OW 7750   1.733   2.227   6.958
 2336SOL    HW1 7751   1.806   2.289   6.962
 2336SOL    HW2 7752   1.772   2.145   6.927
 2337SOL     OW 7753   0.253   3.203   5.877
 2337SOL    HW1 7754   0.160   3.211   5.859
 2337SOL    HW2 7755   0.264   3.241   5.965
 2338SOL     OW 7756   0.107   2.860   7.303
 2338SOL    HW1 7757   0.047   2.852   7.377
 2338SOL    HW2 7758   0.193   2.842   7.340
 2339SOL     OW 7759   0.671   2.059   7.086
 2339SOL    HW1 7760   0.755   2.038   7.045
 2339SOL    HW2 7761   0.695   2.090   7.174
 2340SOL     OW 7762   0.081   2.177   5.624
 2340SOL    HW1 7763   3.985   2.177   5.631
 2340SOL    HW2 7764   0.101   2.257   5.576
 2341SOL     OW 7765   1.435   2.734   6.993
 2341SOL    HW1 7766   1.391   2.794   6.933
 2341SOL    HW2 7767   1.507   2.697   6.941
 2342SOL     OW 7768   0.019   2.096   5.962
 2342SOL    HW1 7769   0.045   2.160   5.896
 2342SOL    HW2 7770   0.101   2.057   5.991
 2343SOL     OW 7771   1.178   3.199   5.703
 2343SOL    HW1 7772   1.086   3.171   5.704
 2343SOL    HW2 7773   1.204   3.199   5.795
 2344SOL     OW 7774   0.620   2.691   7.022
 2344SOL    HW1 7775   0.676   2.767   7.007
 2344SOL    HW2 7776   0.682   2.618   7.031
 2345SOL     OW 7777   1.485   3.642   6.568
 2345SOL    HW1 7778   1.509   3.699   6.495
 2345SOL    HW2 7779   1.568   3.615   6.606
 2346SOL     OW 7780   0.717   2.427   7.290
 2346SOL    HW1 7781   0.760   2.490   7.348
 2346SOL    HW2 7782   0.745   2.342   7.323
 2347SOL     OW 7783   1.475   3.063   7.216
 2347SOL    HW1 7784   1.461   3.073   7.310
 2347SOL    HW2 7785   1.569   3.078   7.204
 2348SOL     OW 7786   0.378   3.607   7.145
 2348SOL    HW1 7787   0.290   3.643   7.132
 2348SOL    HW2 7788   0.364   3.524   7.191
 2349SOL     OW 7789   0.590   2.599   6.257
 2349SOL    HW1 7790   0.628   2.686   6.243
 2349SOL    HW2 7791   0.523   2.591   6.189
 2350SOL     OW 7792   1.730   2.186   7.228
 2350SOL    HW1 7793   1.743   2.212   7.137
 2350SOL    HW2 7794   1.643   2.218   7.250
 2351SOL     OW 7795   1.782   2.810   7.102
 2351SOL    HW1 7796   1.735   2.891   7.123
 2351SOL    HW2 7797   1.739   2.777   7.023
 2352SOL     OW 7798   0.865   3.229   5.625
 2352SOL    HW1 7799   0.823   3.257   5.706
 2352SOL    HW2 7800   0.879   3.310   5.576
 2353SOL     OW 7801   0.658   3.651   6.521
 2353SOL    HW1 7802   0.637   3.742   6.502
 2353SOL    HW2 7803   0.754   3.648   6.520
 2354SOL     OW 7804   0.870   2.829   6.441
 2354SOL    HW1 7805   0.920   2.758   6.481
 2354SOL    HW2 7806   0.833   2.877   6.515
 2355SOL     OW 7807   1.076   2.849   5.674
 2355SOL    HW1 7808   1.056   2.902   5.597
 2355SOL    HW2 7809   1.152   2.796   5.649
 2356SOL     OW 7810   1.853   3.413   6.429
 2356SOL    HW1 7811   1.770   3.400   6.384
 2356SOL    HW2 7812   1.858   3.341   6.492
 2357SOL     OW 7813   0.226   3.166   7.442
 2357SOL    HW1 7814   0.153   3.110   7.416
 2357SOL    HW2 7815   0.214   3.179   7.536
 2358SOL     OW 7816   0.114   3.139   6.307
 2358SOL    HW1 7817   0.132   3.089   6.387
 2358SOL    HW2 7818   0.105   3.073   6.239
 2359SOL     OW 7819   0.682   3.266   7.216
 2359SOL    HW1 7820   0.602   3.224   7.246
 2359SOL    HW2 7821   0.679   3.354   7.253
 2360SOL     OW 7822   0.441   2.296   6.119
 2360SOL    HW1 7823   0.439   2.226   6.054
 2360SOL    HW2 7824   0.386   2.262   6.191
 2361SOL     OW 7825   1.695   3.351   6.683
 2361SOL    HW1 7826   1.617   3.326   6.634
 2361SOL    HW2 7827   1.711   3.278   6.743
 2362SOL     OW 7828   0.334   2.419   6.878
 2362SOL    HW1 7829   0.388   2.362   6.933
 2362SOL    HW2 7830   0.349   2.387   6.789
 2363SOL     OW 7831   0.828   3.441   6.263
 2363SOL    HW1 7832   0.812   3.494   6.184
 2363SOL    HW2 7833   0.753   3.381   6.266
 2364SOL     OW 7834   1.014   1.882   6.731
 2364SOL    HW1 7835   0.968   1.809   6.689
 2364SOL    HW2 7836   1.104   1.850   6.740
 2365SOL     OW 7837   0.772   3.194   5.904
 2365SOL    HW1 7838   0.743   3.103   5.910
 2365SOL    HW2 7839   0.855   3.196   5.953
 2366SOL     OW 7840   0.620   3.416   6.871
 2366SOL    HW1 7841   0.621   3.498   6.921
 2366SOL    HW2 7842   0.708   3.410   6.834
 2367SOL     OW 7843   1.354   1.919   5.749
 2367SOL    HW1 7844   1.376   1.846   5.690
 2367SOL    HW2 7845   1.272   1.892   5.790
 2368SOL     OW 7846   0.047   2.911   5.825
 2368SOL    HW1 7847   0.141   2.896   5.817
 2368SOL    HW2 7848   0.011   2.828   5.857
 2369SOL     OW 7849   0.886   3.520   5.929
 2369SOL    HW1 7850   0.815   3.501   5.868
 2369SOL    HW2 7851   0.854   3.595   5.979
 2370SOL     OW 7852   0.231   2.487   7.567
 2370SOL    HW1 7853   0.138   2.495   7.588
 2370SOL    HW2 7854   0.232   2.455   7.477
 2371SOL     OW 7855   0.229   2.134   8.435
 2371SOL    HW1 7856   0.249   2.100   8.522
 2371SOL    HW2 7857   0.134   2.126   8.428
 2372SOL     OW 7858   0.009   2.222   8.078
 2372SOL    HW1 7859   3.921   2.239   8.110
 2372SOL    HW2 7860   3.997   2.190   7.988
 2373SOL     OW 7861   0.579   3.150   8.638
 2373SOL    HW1 7862   0.493   3.153   8.596
 2373SOL    HW2 7863   0.594   3.239   8.670
 2374SOL     OW 7864   1.563   3.374   8.157
 2374SOL    HW1 7865   1.520   3.352   8.240
 2374SOL    HW2 7866   1.491   3.377   8.093
 2375SOL     OW 7867   1.135   2.558   8.153
 2375SOL    HW1 7868   1.182   2.640   8.137
 2375SOL    HW2 7869   1.087   2.573   8.234
 2376SOL     OW 7870   0.754   3.001   8.490
 2376SOL    HW1 7871   0.689   3.037   8.551
 2376SOL    HW2 7872   0.789   3.078   8.445
 2377SOL     OW 7873   0.870   2.632   9.271
 2377SOL    HW1 7874   0.860   2.703   9.334
 2377SOL    HW2 7875   0.893   2.676   9.189
 2378SOL     OW 7876   0.685   2.864   8.094
 2378SOL    HW1 7877   0.751   2.853   8.162
 2378SOL    HW2 7878   0.616   2.916   8.135
 2379SOL     OW 7879   0.712   3.012   9.264
 2379SOL    HW1 7880   0.760   3.090   9.292
 2379SOL    HW2 7881   0.630   3.046   9.227
 2380SOL     OW 7882   0.350   3.264   8.526
 2380SOL    HW1 7883   0.269   3.248   8.479
 2380SOL    HW2 7884   0.400   3.322   8.469
 2381SOL     OW 7885   1.460   3.363   8.805
 2381SOL    HW1 7886   1.513   3.442   8.815
 2381SOL    HW2 7887   1.394   3.369   8.873
 2382SOL     OW 7888   0.450   2.261   8.936
 2382SOL    HW1 7889   0.525   2.202   8.939
 2382SOL    HW2 7890   0.374   2.204   8.949
 2383SOL     OW 7891   1.597   2.307   8.184
 2383SOL    HW1 7892   1.510   2.326   8.150
 2383SOL    HW2 7893   1.620   2.384   8.237
 2384SOL     OW 7894   0.223   3.571   7.914
 2384SOL    HW1 7895   0.224   3.654   7.962
 2384SOL    HW2 7896   0.300   3.575   7.857
 2385SOL     OW 7897   1.137   3.203   9.141
 2385SOL    HW1 7898   1.178   3.197   9.228
 2385SOL    HW2 7899   1.085   3.124   9.134
 2386SOL     OW 7900   0.250   3.306   7.988
 2386SOL    HW1 7901   0.222   3.396   7.974
 2386SOL    HW2 7902   0.180   3.267   8.040
 2387SOL     OW 7903   0.247   2.929   8.332
 2387SOL    HW1 7904   0.266   2.844   8.372
 2387SOL    HW2 7905   0.194   2.975   8.398
 2388SOL     OW 7906   0.611   3.648   8.876
 2388SOL    HW1 7907   0.529   3.634   8.922
 2388SOL    HW2 7908   0.637   3.737   8.900
 2389SOL     OW 7909   0.577   2.848   7.586
 2389SOL    HW1 7910   0.626   2.892   7.516
 2389SOL    HW2 7911   0.618   2.877   7.667
 2390SOL     OW 7912   1.554   2.002   8.888
 2390SOL    HW1 7913   1.573   2.088   8.850
 2390SOL    HW2 7914   1.548   2.018   8.982
 2391SOL     OW 7915   0.142   2.515   8.022
 2391SOL    HW1 7916   0.088   2.436   8.021
 2391SOL    HW2 7917   0.105   2.568   8.092
 2392SOL     OW 7918   1.843   3.609   7.784
 2392SOL    HW1 7919   1.910   3.586   7.848
 2392SOL    HW2 7920   1.863   3.700   7.761
 2393SOL     OW 7921   0.041   3.453   7.588
 2393SOL    HW1 7922   0.034   3.361   7.612
 2393SOL    HW2 7923   3.958   3.492   7.617
 2394SOL     OW 7924   1.684   2.776   8.099
 2394SOL    HW1 7925   1.772   2.739   8.088
 2394SOL    HW2 7926   1.668   2.825   8.018
 2395SOL     OW 7927   1.647   2.962   7.887
 2395SOL    HW1 7928   1.730   2.972   7.840
 2395SOL    HW2 7929   1.652   3.026   7.958
 2396SOL     OW 7930   0.139   2.615   9.038
 2396SOL    HW1 7931   0.234   2.610   9.035
 2396SOL    HW2 7932   0.121   2.704   9.067
 2397SOL     OW 7933   0.615   3.248   8.182
 2397SOL    HW1 7934   0.568   3.166   8.192
 2397SOL    HW2 7935   0.598   3.275   8.092
 2398SOL     OW 7936   1.287   3.099   8.870
 2398SOL    HW1 7937   1.319   3.031   8.810
 2398SOL    HW2 7938   1.346   3.094   8.946
 2399SOL     OW 7939   0.820   1.863   7.960
 2399SOL    HW1 7940   0.860   1.947   7.938
 2399SOL    HW2 7941   0.727   1.882   7.966
 2400SOL     OW 7942   0.184   2.813   8.727
 2400SOL    HW1 7943   0.272   2.777   8.714
 2400SOL    HW2 7944   0.132   2.774   8.656
 2401SOL     OW 7945   1.507   2.881   7.667
 2401SOL    HW1 7946   1.433   2.829   7.699
 2401SOL    HW2 7947   1.557   2.902   7.745
 2402SOL     OW 7948   1.217   3.666   9.075
 2402SOL    HW1 7949   1.194   3.727   9.005
 2402SOL    HW2 7950   1.218   3.580   9.033
 2403SOL     OW 7951   0.341   2.109   9.264
 2403SOL    HW1 7952   0.378   2.197   9.271
 2403SOL    HW2 7953   0.249   2.119   9.289
 2404SOL     OW 7954   1.467   3.281   8.398
 2404SOL    HW1 7955   1.399   3.296   8.464
 2404SOL    HW2 7956   1.453   3.190   8.371
 2405SOL     OW 7957   1.656   3.601   8.028
 2405SOL    HW1 7958   1.639   3.570   7.939
 2405SOL    HW2 7959   1.631   3.527   8.083
 2406SOL     OW 7960   0.596   2.578   7.713
 2406SOL    HW1 7961   0.603   2.662   7.667
 2406SOL    HW2 7962   0.533   2.594   7.783
 2407SOL     OW 7963   1.280   2.219   8.382
 2407SOL    HW1 7964   1.191   2.185   8.390
 2407SOL    HW2 7965   1.333   2.163   8.438
 2408SOL     OW 7966   1.577   3.537   7.757
 2408SOL    HW1 7967   1.669   3.562   7.750
 2408SOL    HW2 7968   1.551   3.518   7.666
 2409SOL     OW 7969   0.791   2.480   8.899
 2409SOL    HW1 7970   0.765   2.455   8.987
 2409SOL    HW2 7971   0.754   2.412   8.842
 2410SOL     OW 7972   1.393   2.336   9.125
 2410SOL    HW1 7973   1.396   2.381   9.209
 2410SOL    HW2 7974   1.452   2.261   9.136
 2411SOL     OW 7975   0.953   2.748   9.032
 2411SOL    HW1 7976   1.007   2.679   8.995
 2411SOL    HW2 7977   0.904   2.783   8.957
 2412SOL     OW 7978   0.993   2.274   8.685
 2412SOL    HW1 7979   0.905   2.293   8.718
 2412SOL    HW2 7980   0.978   2.230   8.601
 2413SOL     OW 7981   1.040   2.577   7.889
 2413SOL    HW1 7982   1.060   2.562   7.982
 2413SOL    HW2 7983   0.961   2.526   7.874
 2414SOL     OW 7984   0.082   2.691   8.238
 2414SOL    HW1 7985   0.157   2.660   8.289
 2414SOL    HW2 7986   0.099   2.783   8.223
 2415SOL     OW 7987   0.127   3.717   9.025
 2415SOL    HW1 7988   0.135   3.685   9.115
 2415SOL    HW2 7989   0.035   3.704   9.003
 2416SOL     OW 7990   0.891   2.208   7.642
 2416SOL    HW1 7991   0.927   2.274   7.582
 2416SOL    HW2 7992   0.913   2.124   7.602
 2417SOL     OW 7993   1.675   2.448   9.279
 2417SOL    HW1 7994   1.647   2.523   9.227
 2417SOL    HW2 7995   1.711   2.387   9.215
 2418SOL     OW 7996   1.378   3.006   7.992
 2418SOL    HW1 7997   1.455   2.991   7.938
 2418SOL    HW2 7998   1.323   3.065   7.941
 2419SOL     OW 7999   0.544   2.040   8.342
 2419SOL    HW1 8000   0.552   2.073   8.432
 2419SOL    HW2 8001   0.546   2.118   8.287
 2420SOL     OW 8002   1.004   3.308   7.919
 2420SOL    HW1 8003   0.967   3.381   7.870
 2420SOL    HW2 8004   0.983   3.327   8.010
 2421SOL     OW 8005   0.359   3.671   8.309
 2421SOL    HW1 8006   0.437   3.617   8.321
 2421SOL    HW2 8007   0.390   3.761   8.318
 2422SOL     OW 8008   1.797   2.921   8.318
 2422SOL    HW1 8009   1.741   2.901   8.243
 2422SOL    HW2 8010   1.736   2.927   8.392
 2423SOL     OW 8011   1.228   3.399   8.959
 2423SOL    HW1 8012   1.214   3.327   9.021
 2423SOL    HW2 8013   1.160   3.387   8.893
 2424SOL     OW 8014   0.311   2.816   7.690
 2424SOL    HW1 8015   0.395   2.839   7.649
 2424SOL    HW2 8016   0.298   2.724   7.668
 2425SOL     OW 8017   1.473   2.605   8.173
 2425SOL    HW1 8018   1.474   2.565   8.260
 2425SOL    HW2 8019   1.554   2.656   8.169
 2426SOL     OW 8020   0.468   3.122   9.185
 2426SOL    HW1 8021   0.442   3.130   9.093
 2426SOL    HW2 8022   0.385   3.126   9.234
 2427SOL     OW 8023   1.113   3.642   7.670
 2427SOL    HW1 8024   1.049   3.596   7.724
 2427SOL    HW2 8025   1.143   3.577   7.607
 2428SOL     OW 8026   0.204   2.136   8.956
 2428SOL    HW1 8027   0.114   2.169   8.949
 2428SOL    HW2 8028   0.195   2.049   8.995
 2429SOL     OW 8029   1.628   3.244   7.537
 2429SOL    HW1 8030   1.587   3.329   7.520
 2429SOL    HW2 8031   1.560   3.180   7.517
 2430SOL     OW 8032   0.468   3.601   7.769
 2430SOL    HW1 8033   0.507   3.663   7.830
 2430SOL    HW2 8034   0.541   3.572   7.714
 2431SOL     OW 8035   0.253   3.656   8.675
 2431SOL    HW1 8036   0.297   3.590   8.728
 2431SOL    HW2 8037   0.251   3.619   8.587
 2432SOL     OW 8038   0.938   3.562   8.348
 2432SOL    HW1 8039   1.015   3.510   8.369
 2432SOL    HW2 8040   0.894   3.513   8.279
 2433SOL     OW 8041   0.398   2.556   7.920
 2433SOL    HW1 8042   0.424   2.464   7.934
 2433SOL    HW2 8043   0.306   2.559   7.946
 2434SOL     OW 8044   1.529   2.083   9.169
 2434SOL    HW1 8045   1.544   2.103   9.262
 2434SOL    HW2 8046   1.462   2.015   9.170
 2435SOL     OW 8047   0.639   1.979   7.548
 2435SOL    HW1 8048   0.704   1.911   7.567
 2435SOL    HW2 8049   0.592   1.947   7.471
 2436SOL     OW 8050   0.766   2.141   9.203
 2436SOL    HW1 8051   0.844   2.086   9.201
 2436SOL    HW2 8052   0.719   2.113   9.282
 2437SOL     OW 8053   0.876   3.383   8.642
 2437SOL    HW1 8054   0.860   3.346   8.555
 2437SOL    HW2 8055   0.946   3.328   8.678
 2438SOL     OW 8056   1.341   2.451   8.880
 2438SOL    HW1 8057   1.371   2.420   8.966
 2438SOL    HW2 8058   1.376   2.540   8.873
 2439SOL     OW 8059   0.817   3.254   8.389
 2439SOL    HW1 8060   0.901   3.243   8.346
 2439SOL    HW2 8061   0.754   3.256   8.317
 2440SOL     OW 8062   0.928   2.372   8.350
 2440SOL    HW1 8063   0.904   2.364   8.257
 2440SOL    HW2 8064   0.959   2.284   8.374
 2441SOL     OW 8065   0.556   1.924   7.944
 2441SOL    HW1 8066   0.474   1.929   7.993
 2441SOL    HW2 8067   0.560   2.006   7.895
 2442SOL     OW 8068   1.428   3.066   7.486
 2442SOL    HW1 8069   1.457   2.992   7.539
 2442SOL    HW2 8070   1.341   3.087   7.519
 2443SOL     OW 8071   0.309   1.912   7.617
 2443SOL    HW1 8072   0.373   1.951   7.558
 2443SOL    HW2 8073   0.358   1.847   7.667
 2444SOL     OW 8074   0.938   2.109   7.907
 2444SOL    HW1 8075   0.910   2.150   7.825
 2444SOL    HW2 8076   1.032   2.127   7.912
 2445SOL     OW 8077   1.080   2.544   8.907
 2445SOL    HW1 8078   1.012   2.476   8.911
 2445SOL    HW2 8079   1.162   2.495   8.900
 2446SOL     OW 8080   1.222   3.433   8.242
 2446SOL    HW1 8081   1.237   3.500   8.175
 2446SOL    HW2 8082   1.291   3.448   8.307
 2447SOL     OW 8083   0.466   3.013   8.183
 2447SOL    HW1 8084   0.395   2.989   8.242
 2447SOL    HW2 8085   0.431   2.997   8.096
 2448SOL     OW 8086   1.266   3.657   8.056
 2448SOL    HW1 8087   1.313   3.721   8.003
 2448SOL    HW2 8088   1.194   3.706   8.095
 2449SOL     OW 8089   1.000   2.401   7.475
 2449SOL    HW1 8090   0.967   2.488   7.453
 2449SOL    HW2 8091   1.056   2.415   7.551
 2450SOL     OW 8092   0.082   2.434   8.838
 2450SOL    HW1 8093   0.172   2.421   8.808
 2450SOL    HW2 8094   0.089   2.504   8.903
 2451SOL     OW 8095   0.567   2.090   8.614
 2451SOL    HW1 8096   0.608   2.013   8.654
 2451SOL    HW2 8097   0.475   2.086   8.643
 2452SOL     OW 8098   0.868   2.322   8.087
 2452SOL    HW1 8099   0.822   2.375   8.021
 2452SOL    HW2 8100   0.888   2.240   8.041
 2453SOL     OW 8101   0.994   1.927   8.211
 2453SOL    HW1 8102   0.953   1.915   8.125
 2453SOL    HW2 8103   0.980   1.844   8.256
 2454SOL     OW 8104   1.437   3.024   8.304
 2454SOL    HW1 8105   1.367   2.958   8.306
 2454SOL    HW2 8106   1.458   3.033   8.211
 2455SOL     OW 8107   1.465   2.468   8.421
 2455SOL    HW1 8108   1.411   2.390   8.424
 2455SOL    HW2 8109   1.522   2.462   8.498
 2456SOL     OW 8110   0.488   3.281   7.607
 2456SOL    HW1 8111   0.412   3.251   7.657
 2456SOL    HW2 8112   0.471   3.251   7.518
 2457SOL     OW 8113   1.674   3.128   8.093
 2457SOL    HW1 8114   1.768   3.131   8.108
 2457SOL    HW2 8115   1.643   3.216   8.115
 2458SOL     OW 8116   0.571   2.130   7.768
 2458SOL    HW1 8117   0.603   2.082   7.692
 2458SOL    HW2 8118   0.542   2.214   7.733
 2459SOL     OW 8119   1.751   3.103   9.017
 2459SOL    HW1 8120   1.839   3.064   9.014
 2459SOL    HW2 8121   1.767   3.194   9.045
 2460SOL     OW 8122   1.057   3.215   8.781
 2460SOL    HW1 8123   0.982   3.184   8.832
 2460SOL    HW2 8124   1.132   3.174   8.822
 2461SOL     OW 8125   1.610   3.488   9.104
 2461SOL    HW1 8126   1.601   3.522   9.015
 2461SOL    HW2 8127   1.693   3.440   9.104
 2462SOL     OW 8128   1.132   3.068   8.552
 2462SOL    HW1 8129   1.072   3.105   8.617
 2462SOL    HW2 8130   1.100   3.100   8.468
 2463SOL     OW 8131   1.626   2.960   8.525
 2463SOL    HW1 8132   1.620   3.022   8.598
 2463SOL    HW2 8133   1.547   2.977   8.473
 2464SOL     OW 8134   0.918   1.957   8.843
 2464SOL    HW1 8135   0.941   1.939   8.752
 2464SOL    HW2 8136   0.997   1.997   8.879
 2465SOL     OW 8137   0.984   2.977   9.171
 2465SOL    HW1 8138   0.893   2.993   9.193
 2465SOL    HW2 8139   0.982   2.899   9.116
 2466SOL     OW 8140   0.706   2.924   7.819
 2466SOL    HW1 8141   0.694   2.906   7.912
 2466SOL    HW2 8142   0.782   2.871   7.794
 2467SOL     OW 8143   0.422   2.679   8.701
 2467SOL    HW1 8144   0.490   2.687   8.767
 2467SOL    HW2 8145   0.388   2.590   8.712
 2468SOL     OW 8146   1.264   2.238   8.725
 2468SOL    HW1 8147   1.296   2.316   8.771
 2468SOL    HW2 8148   1.174   2.259   8.703
 2469SOL     OW 8149   0.065   3.441   8.794
 2469SOL    HW1 8150   0.070   3.497   8.716
 2469SOL    HW2 8151   0.157   3.429   8.820
 2470SOL     OW 8152   0.369   2.964   7.931
 2470SOL    HW1 8153   0.367   3.044   7.878
 2470SOL    HW2 8154   0.370   2.893   7.867
 2471SOL     OW 8155   0.549   2.399   8.310
 2471SOL    HW1 8156   0.564   2.455   8.234
 2471SOL    HW2 8157   0.618   2.424   8.372
 2472SOL     OW 8158   1.248   3.211   7.838
 2472SOL    HW1 8159   1.304   3.282   7.870
 2472SOL    HW2 8160   1.161   3.233   7.871
 2473SOL     OW 8161   1.284   3.321   8.595
 2473SOL    HW1 8162   1.339   3.324   8.673
 2473SOL    HW2 8163   1.228   3.245   8.609
 2474SOL     OW 8164   0.345   3.389   8.766
 2474SOL    HW1 8165   0.335   3.339   8.685
 2474SOL    HW2 8166   0.439   3.404   8.774
 2475SOL     OW 8167   0.416   2.601   9.049
 2475SOL    HW1 8168   0.478   2.646   8.993
 2475SOL    HW2 8169   0.455   2.515   9.066
 2476SOL     OW 8170   1.599   2.651   9.126
 2476SOL    HW1 8171   1.514   2.694   9.118
 2476SOL    HW2 8172   1.653   2.693   9.058
 2477SOL     OW 8173   0.996   1.990   9.202
 2477SOL    HW1 8174   1.054   2.062   9.177
 2477SOL    HW2 8175   1.044   1.910   9.177
 2478SOL     OW 8176   0.497   1.897   9.194
 2478SOL    HW1 8177   0.453   1.845   9.127
 2478SOL    HW2 8178   0.443   1.976   9.203
 2479SOL     OW 8179   0.585   2.736   8.480
 2479SOL    HW1 8180   0.617   2.826   8.480
 2479SOL    HW2 8181   0.529   2.730   8.557
 2480SOL     OW 8182   1.354   2.720   8.475
 2480SOL    HW1 8183   1.271   2.710   8.430
 2480SOL    HW2 8184   1.397   2.635   8.467
 2481SOL     OW 8185   1.141   2.410   7.699
 2481SOL    HW1 8186   1.204   2.347   7.734
 2481SOL    HW2 8187   1.121   2.468   7.773
 2482SOL     OW 8188   0.311   2.058   8.696
 2482SOL    HW1 8189   0.264   2.095   8.770
 2482SOL    HW2 8190   0.287   1.965   8.696
 2483SOL     OW 8191   0.058   3.167   8.729
 2483SOL    HW1 8192   0.090   3.127   8.809
 2483SOL    HW2 8193   0.052   3.260   8.750
 2484SOL     OW 8194   0.725   2.493   8.505
 2484SOL    HW1 8195   0.799   2.477   8.447
 2484SOL    HW2 8196   0.696   2.582   8.483
 2485SOL     OW 8197   1.736   2.821   9.302
 2485SOL    HW1 8198   1.691   2.759   9.245
 2485SOL    HW2 8199   1.676   2.836   9.375
 2486SOL     OW 8200   0.313   1.924   8.068
 2486SOL    HW1 8201   0.293   2.015   8.089
 2486SOL    HW2 8202   0.320   1.881   8.153
 2487SOL     OW 8203   1.028   2.621   8.408
 2487SOL    HW1 8204   1.022   2.638   8.502
 2487SOL    HW2 8205   1.001   2.529   8.399
 2488SOL     OW 8206   0.986   3.430   9.168
 2488SOL    HW1 8207   0.967   3.471   9.084
 2488SOL    HW2 8208   1.027   3.347   9.145
 2489SOL     OW 8209   1.854   3.365   9.052
 2489SOL    HW1 8210   1.873   3.393   8.963
 2489SOL    HW2 8211   1.934   3.383   9.101
 2490SOL     OW 8212   0.353   2.783   9.248
 2490SOL    HW1 8213   0.431   2.804   9.298
 2490SOL    HW2 8214   0.381   2.716   9.186
 2491SOL     OW 8215   1.291   2.696   7.475
 2491SOL    HW1 8216   1.332   2.610   7.461
 2491SOL    HW2 8217   1.314   2.747   7.397
 2492SOL     OW 8218   1.067   3.199   8.303
 2492SOL    HW1 8219   1.070   3.126   8.241
 2492SOL    HW2 8220   1.127   3.264   8.267
 2493SOL     OW 8221   0.313   2.664   8.398
 2493SOL    HW1 8222   0.407   2.682   8.391
 2493SOL    HW2 8223   0.308   2.574   8.430
 2494SOL     OW 8224   0.330   2.383   8.462
 2494SOL    HW1 8225   0.296   2.295   8.446
 2494SOL    HW2 8226   0.406   2.390   8.405
 2495SOL     OW 8227   1.134   2.236   9.132
 2495SOL    HW1 8228   1.086   2.291   9.194
 2495SOL    HW2 8229   1.221   2.275   9.128
 2496SOL     OW 8230   1.160   2.063   8.919
 2496SOL    HW1 8231   1.149   2.126   8.990
 2496SOL    HW2 8232   1.202   2.113   8.848
 2497SOL     OW 8233   4.000   3.180   7.630
 2497SOL    HW1 8234   3.905   3.196   7.634
 2497SOL    HW2 8235   0.009   3.087   7.648
 2498SOL     OW 8236   0.076   3.663   8.343
 2498SOL    HW1 8237   0.090   3.568   8.341
 2498SOL    HW2 8238   0.164   3.700   8.341
 2499SOL     OW 8239   0.507   3.426   8.365
 2499SOL    HW1 8240   0.573   3.492   8.385
 2499SOL    HW2 8241   0.549   3.367   8.302
 2500SOL     OW 8242   0.979   2.652   8.674
 2500SOL    HW1 8243   1.036   2.631   8.747
 2500SOL    HW2 8244   0.895   2.614   8.697
 2501SOL     OW 8245   0.037   2.420   8.558
 2501SOL    HW1 8246   0.120   2.396   8.514
 2501SOL    HW2 8247   0.057   2.416   8.651
 2502SOL     OW 8248   0.207   2.375   9.175
 2502SOL    HW1 8249   0.246   2.328   9.102
 2502SOL    HW2 8250   0.159   2.447   9.135
 2503SOL     OW 8251   1.373   2.802   9.104
 2503SOL    HW1 8252   1.396   2.895   9.101
 2503SOL    HW2 8253   1.370   2.775   9.012
 2504SOL     OW 8254   0.817   2.432   7.815
 2504SOL    HW1 8255   0.827   2.358   7.754
 2504SOL    HW2 8256   0.744   2.482   7.778
 2505SOL     OW 8257   1.635   2.466   8.635
 2505SOL    HW1 8258   1.624   2.409   8.711
 2505SOL    HW2 8259   1.721   2.442   8.600
 2506SOL     OW 8260   0.299   3.407   9.175
 2506SOL    HW1 8261   0.251   3.477   9.219
 2506SOL    HW2 8262   0.268   3.326   9.215
 2507SOL     OW 8263   0.706   2.312   8.706
 2507SOL    HW1 8264   0.653   2.237   8.676
 2507SOL    HW2 8265   0.701   2.375   8.634
 2508SOL     OW 8266   0.928   3.534   8.917
 2508SOL    HW1 8267   0.901   3.496   8.833
 2508SOL    HW2 8268   0.920   3.628   8.905
 2509SOL     OW 8269   0.454   2.351   7.643
 2509SOL    HW1 8270   0.520   2.418   7.660
 2509SOL    HW2 8271   0.375   2.400   7.621
 2510SOL     OW 8272   0.156   2.997   8.923
 2510SOL    HW1 8273   0.157   2.946   9.004
 2510SOL    HW2 8274   0.171   2.932   8.854
 2511SOL     OW 8275   1.325   2.908   8.669
 2511SOL    HW1 8276   1.346   2.843   8.602
 2511SOL    HW2 8277   1.256   2.962   8.630
 2512SOL     OW 8278   1.291   2.744   7.754
 2512SOL    HW1 8279   1.224   2.697   7.805
 2512SOL    HW2 8280   1.274   2.718   7.664
 2513SOL     OW 8281   1.771   3.603   8.598
 2513SOL    HW1 8282   1.834   3.631   8.531
 2513SOL    HW2 8283   1.750   3.512   8.575
 2514SOL     OW 8284   1.244   3.595   8.557
 2514SOL    HW1 8285   1.327   3.616   8.514
 2514SOL    HW2 8286   1.250   3.501   8.577
 2515SOL     OW 8287   0.076   3.076   8.476
 2515SOL    HW1 8288   0.082   3.104   8.568
 2515SOL    HW2 8289   3.983   3.087   8.454
 2516SOL     OW 8290   0.679   3.527   9.181
 2516SOL    HW1 8291   0.621   3.603   9.184
 2516SOL    HW2 8292   0.739   3.545   9.108
 2517SOL     OW 8293   1.391   3.431   7.936
 2517SOL    HW1 8294   1.450   3.464   7.868
 2517SOL    HW2 8295   1.342   3.508   7.965
 2518SOL     OW 8296   0.169   3.623   9.279
 2518SOL    HW1 8297   0.114   3.571   9.338
 2518SOL    HW2 8298   0.216   3.683   9.338
 2519SOL     OW 8299   1.276   2.789   8.121
 2519SOL    HW1 8300   1.350   2.728   8.129
 2519SOL    HW2 8301   1.311   2.860   8.067
 2520SOL     OW 8302   0.811   3.136   8.876
 2520SOL    HW1 8303   0.782   3.176   8.958
 2520SOL    HW2 8304   0.740   3.155   8.814
 2521SOL     OW 8305   0.675   3.479   7.606
 2521SOL    HW1 8306   0.683   3.496   7.512
 2521SOL    HW2 8307   0.616   3.403   7.611
 2522SOL     OW 8308   1.623   3.588   8.838
 2522SOL    HW1 8309   1.674   3.594   8.757
 2522SOL    HW2 8310   1.609   3.679   8.864
 2523SOL     OW 8311   0.267   2.175   8.164
 2523SOL    HW1 8312   0.181   2.208   8.138
 2523SOL    HW2 8313   0.261   2.165   8.259
 2524SOL     OW 8314   1.208   3.466   7.484
 2524SOL    HW1 8315   1.197   3.374   7.508
 2524SOL    HW2 8316   1.148   3.479   7.411
 2525SOL     OW 8317   0.823   2.868   8.821
 2525SOL    HW1 8318   0.867   2.862   8.737
 2525SOL    HW2 8319   0.822   2.961   8.842
 2526SOL     OW 8320   0.912   2.775   7.736
 2526SOL    HW1 8321   0.974   2.805   7.670
 2526SOL    HW2 8322   0.961   2.710   7.787
 2527SOL     OW 8323   1.490   3.491   7.491
 2527SOL    HW1 8324   1.396   3.480   7.475
 2527SOL    HW2 8325   1.528   3.496   7.403
 2528SOL     OW 8326   0.374   3.165   8.939
 2528SOL    HW1 8327   0.359   3.245   8.889
 2528SOL    HW2 8328   0.297   3.111   8.922
 2529SOL     OW 8329   1.610   3.146   8.728
 2529SOL    HW1 8330   1.669   3.133   8.802
 2529SOL    HW2 8331   1.549   3.214   8.758
 2530SOL     OW 8332   1.055   2.971   8.156
 2530SOL    HW1 8333   0.983   2.919   8.194
 2530SOL    HW2 8334   1.118   2.905   8.125
 2531SOL     OW 8335   1.023   2.106   8.419
 2531SOL    HW1 8336   1.013   2.059   8.335
 2531SOL    HW2 8337   1.018   2.037   8.485
 2532SOL     OW 8338   0.606   3.353   7.929
 2532SOL    HW1 8339   0.651   3.302   7.862
 2532SOL    HW2 8340   0.534   3.395   7.882
 2533SOL     OW 8341   1.730   2.244   8.820
 2533SOL    HW1 8342   1.799   2.311   8.824
 2533SOL    HW2 8343   1.770   2.173   8.769
 2534SOL     OW 8344   0.253   3.203   7.739
 2534SOL    HW1 8345   0.160   3.211   7.721
 2534SOL    HW2 8346   0.264   3.241   7.827
 2535SOL     OW 8347   0.107   2.860   9.165
 2535SOL    HW1 8348   0.047   2.853   9.239
 2535SOL    HW2 8349   0.193   2.842   9.203
 2536SOL     OW 8350   0.675   2.058   8.948
 2536SOL    HW1 8351   0.759   2.037   8.907
 2536SOL    HW2 8352   0.698   2.091   9.035
 2537SOL     OW 8353   0.080   2.176   7.485
 2537SOL    HW1 8354   3.985   2.177   7.492
 2537SOL    HW2 8355   0.101   2.257   7.438
 2538SOL     OW 8356   1.428   2.721   8.847
 2538SOL    HW1 8357   1.380   2.781   8.791
 2538SOL    HW2 8358   1.518   2.723   8.813
 2539SOL     OW 8359   0.018   2.096   7.825
 2539SOL    HW1 8360   0.044   2.160   7.758
 2539SOL    HW2 8361   0.100   2.056   7.854
 2540SOL     OW 8362   1.178   3.199   7.565
 2540SOL    HW1 8363   1.088   3.169   7.566
 2540SOL    HW2 8364   1.205   3.198   7.657
 2541SOL     OW 8365   0.620   2.692   8.884
 2541SOL    HW1 8366   0.676   2.768   8.869
 2541SOL    HW2 8367   0.680   2.619   8.892
 2542SOL     OW 8368   1.486   3.641   8.429
 2542SOL    HW1 8369   1.508   3.700   8.357
 2542SOL    HW2 8370   1.570   3.620   8.470
 2543SOL     OW 8371   0.716   2.425   9.152
 2543SOL    HW1 8372   0.760   2.486   9.210
 2543SOL    HW2 8373   0.741   2.338   9.184
 2544SOL     OW 8374   1.473   3.060   9.079
 2544SOL    HW1 8375   1.461   3.074   9.172
 2544SOL    HW2 8376   1.566   3.077   9.064
 2545SOL     OW 8377   0.378   3.607   9.007
 2545SOL    HW1 8378   0.290   3.643   8.994
 2545SOL    HW2 8379   0.364   3.524   9.053
 2546SOL     OW 8380   1.669   2.744   8.702
 2546SOL    HW1 8381   1.659   2.658   8.660
 2546SOL    HW2 8382   1.657   2.807   8.631
 2547SOL     OW 8383   1.207   2.178   7.917
 2547SOL    HW1 8384   1.290   2.153   7.877
 2547SOL    HW2 8385   1.232   2.233   7.992
 2548SOL     OW 8386   0.587   2.600   8.121
 2548SOL    HW1 8387   0.628   2.686   8.105
 2548SOL    HW2 8388   0.522   2.590   8.052
 2549SOL     OW 8389   1.741   2.240   9.095
 2549SOL    HW1 8390   1.740   2.245   8.999
 2549SOL    HW2 8391   1.672   2.177   9.116
 2550SOL     OW 8392   1.746   2.800   8.957
 2550SOL    HW1 8393   1.741   2.895   8.968
 2550SOL    HW2 8394   1.731   2.786   8.863
 2551SOL     OW 8395   0.863   3.229   7.486
 2551SOL    HW1 8396   0.822   3.259   7.568
 2551SOL    HW2 8397   0.879   3.310   7.437
 2552SOL     OW 8398   0.659   3.651   8.384
 2552SOL    HW1 8399   0.637   3.742   8.365
 2552SOL    HW2 8400   0.754   3.648   8.382
 2553SOL     OW 8401   0.868   2.830   8.302
 2553SOL    HW1 8402   0.918   2.758   8.340
 2553SOL    HW2 8403   0.832   2.877   8.377
 2554SOL     OW 8404   1.073   2.850   7.533
 2554SOL    HW1 8405   1.054   2.903   7.455
 2554SOL    HW2 8406   1.150   2.799   7.509
 2555SOL     OW 8407   1.851   3.411   8.289
 2555SOL    HW1 8408   1.770   3.404   8.239
 2555SOL    HW2 8409   1.839   3.352   8.363
 2556SOL     OW 8410   0.226   3.166   9.304
 2556SOL    HW1 8411   0.153   3.110   9.277
 2556SOL    HW2 8412   0.213   3.179   9.398
 2557SOL     OW 8413   0.114   3.139   8.169
 2557SOL    HW1 8414   0.133   3.088   8.248
 2557SOL    HW2 8415   0.105   3.073   8.100
 2558SOL     OW 8416   0.683   3.266   9.079
 2558SOL    HW1 8417   0.602   3.224   9.108
 2558SOL    HW2 8418   0.679   3.354   9.115
 2559SOL     OW 8419   0.441   2.297   7.982
 2559SOL    HW1 8420   0.447   2.226   7.917
 2559SOL    HW2 8421   0.385   2.261   8.051
 2560SOL     OW 8422   1.701   3.347   8.538
 2560SOL    HW1 8423   1.619   3.327   8.494
 2560SOL    HW2 8424   1.709   3.281   8.606
 2561SOL     OW 8425   0.334   2.419   8.740
 2561SOL    HW1 8426   0.389   2.362   8.794
 2561SOL    HW2 8427   0.349   2.388   8.650
 2562SOL     OW 8428   0.828   3.441   8.124
 2562SOL    HW1 8429   0.813   3.494   8.046
 2562SOL    HW2 8430   0.754   3.381   8.128
 2563SOL     OW 8431   1.436   2.090   8.570
 2563SOL    HW1 8432   1.442   2.003   8.610
 2563SOL    HW2 8433   1.381   2.140   8.631
 2564SOL     OW 8434   1.009   1.879   8.589
 2564SOL    HW1 8435   0.955   1.813   8.545
 2564SOL    HW2 8436   1.097   1.841   8.590
 2565SOL     OW 8437   0.772   3.195   7.768
 2565SOL    HW1 8438   0.741   3.104   7.772
 2565SOL    HW2 8439   0.855   3.194   7.814
 2566SOL     OW 8440   0.621   3.416   8.734
 2566SOL    HW1 8441   0.622   3.497   8.784
 2566SOL    HW2 8442   0.708   3.410   8.696
 2567SOL     OW 8443   1.303   2.326   8.130
 2567SOL    HW1 8444   1.250   2.405   8.135
 2567SOL    HW2 8445   1.293   2.286   8.216
 2568SOL     OW 8446   1.572   2.057   8.322
 2568SOL    HW1 8447   1.533   2.083   8.405
 2568SOL    HW2 8448   1.585   2.139   8.274
 2569SOL     OW 8449   0.047   2.912   7.687
 2569SOL    HW1 8450   0.141   2.896   7.678
 2569SOL    HW2 8451   0.012   2.829   7.719
 2570SOL     OW 8452   0.886   3.520   7.791
 2570SOL    HW1 8453   0.814   3.501   7.730
 2570SOL    HW2 8454   0.854   3.595   7.841
 2571SOL     OW 8455   0.231   2.486   9.429
 2571SOL    HW1 8456   0.138   2.494   9.450
 2571SOL    HW2 8457   0.233   2.455   9.339
 2572SOL     OW 8458   0.229   2.134  10.297
 2572SOL    HW1 8459   0.250   2.100  10.384
 2572SOL    HW2 8460   0.134   2.126  10.290
 2573SOL     OW 8461   0.009   2.221   9.940
 2573SOL    HW1 8462   3.921   2.239   9.972
 2573SOL    HW2 8463   3.996   2.190   9.851
 2574SOL     OW 8464   0.579   3.150  10.499
 2574SOL    HW1 8465   0.493   3.153  10.458
 2574SOL    HW2 8466   0.594   3.239  10.532
 2575SOL     OW 8467   1.563   3.373  10.018
 2575SOL    HW1 8468   1.521   3.351  10.101
 2575SOL    HW2 8469   1.491   3.376   9.955
 2576SOL     OW 8470   1.132   2.560  10.009
 2576SOL    HW1 8471   1.180   2.641   9.995
 2576SOL    HW2 8472   1.084   2.573  10.091
 2577SOL     OW 8473   1.767   2.471   9.536
 2577SOL    HW1 8474   1.742   2.467   9.444
 2577SOL    HW2 8475   1.748   2.384   9.571
 2578SOL     OW 8476   0.753   3.001  10.352
 2578SOL    HW1 8477   0.689   3.037  10.413
 2578SOL    HW2 8478   0.789   3.078  10.307
 2579SOL     OW 8479   0.870   2.632  11.133
 2579SOL    HW1 8480   0.860   2.703  11.196
 2579SOL    HW2 8481   0.893   2.676  11.051
 2580SOL     OW 8482   0.685   2.864   9.956
 2580SOL    HW1 8483   0.751   2.853  10.025
 2580SOL    HW2 8484   0.616   2.916   9.997
 2581SOL     OW 8485   0.712   3.012  11.126
 2581SOL    HW1 8486   0.760   3.090  11.154
 2581SOL    HW2 8487   0.630   3.046  11.089
 2582SOL     OW 8488   0.351   3.264  10.388
 2582SOL    HW1 8489   0.269   3.248  10.341
 2582SOL    HW2 8490   0.400   3.322  10.331
 2583SOL     OW 8491   1.460   3.363  10.666
 2583SOL    HW1 8492   1.513   3.441  10.677
 2583SOL    HW2 8493   1.394   3.369  10.735
 2584SOL     OW 8494   0.450   2.261  10.798
 2584SOL    HW1 8495   0.525   2.202  10.801
 2584SOL    HW2 8496   0.374   2.204  10.811
 2585SOL     OW 8497   1.604   2.304  10.046
 2585SOL    HW1 8498   1.523   2.326   9.998
 2585SOL    HW2 8499   1.622   2.382  10.098
 2586SOL     OW 8500   0.223   3.571   9.776
 2586SOL    HW1 8501   0.224   3.654   9.824
 2586SOL    HW2 8502   0.300   3.575   9.719
 2587SOL     OW 8503   1.137   3.203  11.003
 2587SOL    HW1 8504   1.178   3.197  11.090
 2587SOL    HW2 8505   1.085   3.124  10.996
 2588SOL     OW 8506   0.250   3.306   9.850
 2588SOL    HW1 8507   0.222   3.396   9.836
 2588SOL    HW2 8508   0.180   3.267   9.903
 2589SOL     OW 8509   0.247   2.929  10.194
 2589SOL    HW1 8510   0.267   2.844  10.234
 2589SOL    HW2 8511   0.194   2.975  10.259
 2590SOL     OW 8512   0.611   3.648  10.737
 2590SOL    HW1 8513   0.529   3.634  10.784
 2590SOL    HW2 8514   0.637   3.737  10.762
 2591SOL     OW 8515   0.578   2.847   9.448
 2591SOL    HW1 8516   0.626   2.893   9.379
 2591SOL    HW2 8517   0.619   2.877   9.529
 2592SOL     OW 8518   1.554   2.003  10.753
 2592SOL    HW1 8519   1.574   2.088  10.714
 2592SOL    HW2 8520   1.550   2.021  10.847
 2593SOL     OW 8521   0.142   2.514   9.884
 2593SOL    HW1 8522   0.087   2.436   9.883
 2593SOL    HW2 8523   0.106   2.569   9.954
 2594SOL     OW 8524   1.843   3.609   9.647
 2594SOL    HW1 8525   1.911   3.586   9.710
 2594SOL    HW2 8526   1.863   3.700   9.624
 2595SOL     OW 8527   0.041   3.453   9.450
 2595SOL    HW1 8528   0.034   3.361   9.475
 2595SOL    HW2 8529   3.959   3.492   9.479
 2596SOL     OW 8530   1.689   2.781   9.952
 2596SOL    HW1 8531   1.770   2.736   9.926
 2596SOL    HW2 8532   1.665   2.832   9.875
 2597SOL     OW 8533   1.647   2.967   9.739
 2597SOL    HW1 8534   1.733   2.971   9.698
 2597SOL    HW2 8535   1.653   3.030   9.812
 2598SOL     OW 8536   0.139   2.615  10.899
 2598SOL    HW1 8537   0.234   2.610  10.897
 2598SOL    HW2 8538   0.121   2.704  10.930
 2599SOL     OW 8539   0.616   3.248  10.044
 2599SOL    HW1 8540   0.568   3.166  10.054
 2599SOL    HW2 8541   0.598   3.275   9.954
 2600SOL     OW 8542   1.287   3.099  10.732
 2600SOL    HW1 8543   1.319   3.031  10.672
 2600SOL    HW2 8544   1.346   3.094  10.808
 2601SOL     OW 8545   0.819   1.863   9.821
 2601SOL    HW1 8546   0.859   1.947   9.800
 2601SOL    HW2 8547   0.726   1.881   9.827
 2602SOL     OW 8548   0.184   2.813  10.589
 2602SOL    HW1 8549   0.272   2.777  10.576
 2602SOL    HW2 8550   0.132   2.774  10.519
 2603SOL     OW 8551   1.531   2.858   9.509
 2603SOL    HW1 8552   1.462   2.800   9.541
 2603SOL    HW2 8553   1.573   2.892   9.588
 2604SOL     OW 8554   1.217   3.666  10.937
 2604SOL    HW1 8555   1.194   3.727  10.867
 2604SOL    HW2 8556   1.218   3.580  10.895
 2605SOL     OW 8557   0.341   2.109  11.126
 2605SOL    HW1 8558   0.378   2.197  11.133
 2605SOL    HW2 8559   0.249   2.119  11.151
 2606SOL     OW 8560   1.466   3.281  10.260
 2606SOL    HW1 8561   1.399   3.297  10.326
 2606SOL    HW2 8562   1.454   3.190  10.234
 2607SOL     OW 8563   1.654   3.601   9.891
 2607SOL    HW1 8564   1.640   3.571   9.801
 2607SOL    HW2 8565   1.631   3.527   9.946
 2608SOL     OW 8566   0.596   2.579   9.575
 2608SOL    HW1 8567   0.602   2.663   9.530
 2608SOL    HW2 8568   0.533   2.594   9.646
 2609SOL     OW 8569   1.280   2.220  10.245
 2609SOL    HW1 8570   1.191   2.185  10.254
 2609SOL    HW2 8571   1.333   2.165  10.301
 2610SOL     OW 8572   1.577   3.537   9.618
 2610SOL    HW1 8573   1.669   3.561   9.613
 2610SOL    HW2 8574   1.551   3.518   9.528
 2611SOL     OW 8575   0.791   2.480  10.761
 2611SOL    HW1 8576   0.765   2.455  10.849
 2611SOL    HW2 8577   0.753   2.412  10.704
 2612SOL     OW 8578   1.393   2.335  10.987
 2612SOL    HW1 8579   1.397   2.381  11.072
 2612SOL    HW2 8580   1.455   2.263  10.997
 2613SOL     OW 8581   0.953   2.748  10.894
 2613SOL    HW1 8582   1.007   2.679  10.857
 2613SOL    HW2 8583   0.904   2.783  10.819
 2614SOL     OW 8584   0.992   2.274  10.547
 2614SOL    HW1 8585   0.905   2.294  10.581
 2614SOL    HW2 8586   0.977   2.229  10.464
 2615SOL     OW 8587   1.052   2.560   9.735
 2615SOL    HW1 8588   1.069   2.553   9.830
 2615SOL    HW2 8589   0.970   2.514   9.722
 2616SOL     OW 8590   0.082   2.691  10.100
 2616SOL    HW1 8591   0.157   2.660  10.152
 2616SOL    HW2 8592   0.099   2.784  10.085
 2617SOL     OW 8593   0.127   3.717  10.887
 2617SOL    HW1 8594   0.135   3.685  10.977
 2617SOL    HW2 8595   0.035   3.704  10.865
 2618SOL     OW 8596   0.896   2.212   9.503
 2618SOL    HW1 8597   0.936   2.274   9.443
 2618SOL    HW2 8598   0.913   2.126   9.463
 2619SOL     OW 8599   1.706   2.440  11.144
 2619SOL    HW1 8600   1.670   2.511  11.091
 2619SOL    HW2 8601   1.735   2.374  11.080
 2620SOL     OW 8602   1.378   3.004   9.851
 2620SOL    HW1 8603   1.457   2.992   9.798
 2620SOL    HW2 8604   1.325   3.066   9.801
 2621SOL     OW 8605   0.546   2.040  10.204
 2621SOL    HW1 8606   0.552   2.072  10.294
 2621SOL    HW2 8607   0.546   2.119  10.150
 2622SOL     OW 8608   1.004   3.307   9.781
 2622SOL    HW1 8609   0.967   3.380   9.732
 2622SOL    HW2 8610   0.984   3.326   9.872
 2623SOL     OW 8611   0.359   3.670  10.171
 2623SOL    HW1 8612   0.437   3.617  10.183
 2623SOL    HW2 8613   0.390   3.761  10.180
 2624SOL     OW 8614   1.800   2.914  10.179
 2624SOL    HW1 8615   1.746   2.897  10.102
 2624SOL    HW2 8616   1.737   2.922  10.251
 2625SOL     OW 8617   1.228   3.399  10.821
 2625SOL    HW1 8618   1.214   3.327  10.883
 2625SOL    HW2 8619   1.160   3.387  10.755
 2626SOL     OW 8620   0.311   2.816   9.552
 2626SOL    HW1 8621   0.394   2.839   9.511
 2626SOL    HW2 8622   0.298   2.724   9.530
 2627SOL     OW 8623   1.480   2.607  10.035
 2627SOL    HW1 8624   1.473   2.565  10.121
 2627SOL    HW2 8625   1.558   2.662  10.042
 2628SOL     OW 8626   0.468   3.122  11.047
 2628SOL    HW1 8627   0.442   3.130  10.955
 2628SOL    HW2 8628   0.385   3.126  11.095
 2629SOL     OW 8629   1.113   3.643   9.532
 2629SOL    HW1 8630   1.049   3.596   9.586
 2629SOL    HW2 8631   1.144   3.577   9.469
 2630SOL     OW 8632   0.204   2.136  10.818
 2630SOL    HW1 8633   0.114   2.168  10.811
 2630SOL    HW2 8634   0.195   2.049  10.857
 2631SOL     OW 8635   1.628   3.243   9.400
 2631SOL    HW1 8636   1.587   3.328   9.383
 2631SOL    HW2 8637   1.559   3.179   9.379
 2632SOL     OW 8638   0.468   3.601   9.631
 2632SOL    HW1 8639   0.507   3.664   9.692
 2632SOL    HW2 8640   0.541   3.573   9.576
 2633SOL     OW 8641   1.397   1.969   9.744
 2633SOL    HW1 8642   1.383   1.946   9.652
 2633SOL    HW2 8643   1.485   1.936   9.764
 2634SOL     OW 8644   0.253   3.656  10.537
 2634SOL    HW1 8645   0.297   3.590  10.590
 2634SOL    HW2 8646   0.251   3.619  10.449
 2635SOL     OW 8647   0.938   3.563  10.210
 2635SOL    HW1 8648   1.015   3.511  10.232
 2635SOL    HW2 8649   0.894   3.513  10.141
 2636SOL     OW 8650   0.398   2.555   9.781
 2636SOL    HW1 8651   0.424   2.464   9.796
 2636SOL    HW2 8652   0.307   2.559   9.808
 2637SOL     OW 8653   1.534   2.085  11.033
 2637SOL    HW1 8654   1.549   2.106  11.125
 2637SOL    HW2 8655   1.467   2.017  11.034
 2638SOL     OW 8656   0.642   1.981   9.407
 2638SOL    HW1 8657   0.703   1.910   9.427
 2638SOL    HW2 8658   0.592   1.949   9.332
 2639SOL     OW 8659   0.765   2.141  11.065
 2639SOL    HW1 8660   0.844   2.086  11.063
 2639SOL    HW2 8661   0.719   2.113  11.144
 2640SOL     OW 8662   0.876   3.383  10.504
 2640SOL    HW1 8663   0.860   3.346  10.417
 2640SOL    HW2 8664   0.946   3.328  10.540
 2641SOL     OW 8665   1.340   2.451  10.742
 2641SOL    HW1 8666   1.371   2.420  10.828
 2641SOL    HW2 8667   1.376   2.539  10.735
 2642SOL     OW 8668   0.817   3.254  10.251
 2642SOL    HW1 8669   0.902   3.243  10.208
 2642SOL    HW2 8670   0.754   3.256  10.179
 2643SOL     OW 8671   0.929   2.371  10.212
 2643SOL    HW1 8672   0.905   2.363  10.120
 2643SOL    HW2 8673   0.959   2.284  10.237
 2644SOL     OW 8674   0.556   1.924   9.806
 2644SOL    HW1 8675   0.474   1.929   9.854
 2644SOL    HW2 8676   0.560   2.007   9.757
 2645SOL     OW 8677   1.428   3.061   9.350
 2645SOL    HW1 8678   1.458   2.985   9.401
 2645SOL    HW2 8679   1.342   3.082   9.387
 2646SOL     OW 8680   0.308   1.913   9.480
 2646SOL    HW1 8681   0.371   1.951   9.419
 2646SOL    HW2 8682   0.358   1.848   9.529
 2647SOL     OW 8683   0.940   2.109   9.769
 2647SOL    HW1 8684   0.911   2.149   9.687
 2647SOL    HW2 8685   1.034   2.126   9.772
 2648SOL     OW 8686   1.080   2.544  10.769
 2648SOL    HW1 8687   1.013   2.476  10.773
 2648SOL    HW2 8688   1.163   2.495  10.762
 2649SOL     OW 8689   1.222   3.432  10.104
 2649SOL    HW1 8690   1.237   3.500  10.037
 2649SOL    HW2 8691   1.291   3.447  10.169
 2650SOL     OW 8692   0.467   3.013  10.045
 2650SOL    HW1 8693   0.395   2.989  10.104
 2650SOL    HW2 8694   0.432   2.997   9.958
 2651SOL     OW 8695   1.266   3.657   9.918
 2651SOL    HW1 8696   1.313   3.721   9.865
 2651SOL    HW2 8697   1.194   3.706   9.957
 2652SOL     OW 8698   1.023   2.401   9.334
 2652SOL    HW1 8699   0.980   2.485   9.315
 2652SOL    HW2 8700   1.089   2.423   9.400
 2653SOL     OW 8701   0.082   2.434  10.700
 2653SOL    HW1 8702   0.172   2.421  10.670
 2653SOL    HW2 8703   0.089   2.504  10.765
 2654SOL     OW 8704   0.567   2.089  10.476
 2654SOL    HW1 8705   0.608   2.013  10.517
 2654SOL    HW2 8706   0.475   2.086  10.505
 2655SOL     OW 8707   0.868   2.320   9.950
 2655SOL    HW1 8708   0.820   2.374   9.886
 2655SOL    HW2 8709   0.888   2.240   9.902
 2656SOL     OW 8710   1.015   1.917  10.061
 2656SOL    HW1 8711   0.958   1.910   9.985
 2656SOL    HW2 8712   0.992   1.841  10.115
 2657SOL     OW 8713   1.438   3.024  10.167
 2657SOL    HW1 8714   1.368   2.959  10.167
 2657SOL    HW2 8715   1.462   3.033  10.074
 2658SOL     OW 8716   1.464   2.469  10.283
 2658SOL    HW1 8717   1.411   2.389  10.285
 2658SOL    HW2 8718   1.521   2.461  10.359
 2659SOL     OW 8719   1.845   2.676   9.696
 2659SOL    HW1 8720   1.904   2.625   9.751
 2659SOL    HW2 8721   1.816   2.615   9.629
 2660SOL     OW 8722   0.488   3.281   9.469
 2660SOL    HW1 8723   0.412   3.251   9.519
 2660SOL    HW2 8724   0.470   3.253   9.379
 2661SOL     OW 8725   1.672   3.126   9.954
 2661SOL    HW1 8726   1.767   3.128   9.968
 2661SOL    HW2 8727   1.643   3.214   9.976
 2662SOL     OW 8728   1.390   2.436   9.379
 2662SOL    HW1 8729   1.335   2.413   9.453
 2662SOL    HW2 8730   1.479   2.415   9.407
 2663SOL     OW 8731   0.574   2.130   9.629
 2663SOL    HW1 8732   0.604   2.083   9.551
 2663SOL    HW2 8733   0.541   2.214   9.595
 2664SOL     OW 8734   1.751   3.103  10.879
 2664SOL    HW1 8735   1.838   3.064  10.875
 2664SOL    HW2 8736   1.767   3.194  10.907
 2665SOL     OW 8737   1.057   3.214  10.642
 2665SOL    HW1 8738   0.982   3.184  10.693
 2665SOL    HW2 8739   1.132   3.174  10.684
 2666SOL     OW 8740   1.610   3.488  10.966
 2666SOL    HW1 8741   1.601   3.522  10.877
 2666SOL    HW2 8742   1.693   3.440  10.966
 2667SOL     OW 8743   1.132   3.067  10.414
 2667SOL    HW1 8744   1.072   3.105  10.479
 2667SOL    HW2 8745   1.100   3.101  10.330
 2668SOL     OW 8746   1.627   2.960  10.386
 2668SOL    HW1 8747   1.621   3.022  10.459
 2668SOL    HW2 8748   1.548   2.977  10.334
 2669SOL     OW 8749   0.918   1.958  10.704
 2669SOL    HW1 8750   0.941   1.939  10.613
 2669SOL    HW2 8751   0.997   1.997  10.741
 2670SOL     OW 8752   0.984   2.977  11.033
 2670SOL    HW1 8753   0.893   2.993  11.055
 2670SOL    HW2 8754   0.982   2.899  10.978
 2671SOL     OW 8755   0.708   2.922   9.681
 2671SOL    HW1 8756   0.694   2.906   9.774
 2671SOL    HW2 8757   0.784   2.869   9.658
 2672SOL     OW 8758   0.422   2.678  10.562
 2672SOL    HW1 8759   0.490   2.687  10.629
 2672SOL    HW2 8760   0.388   2.590  10.574
 2673SOL     OW 8761   1.264   2.238  10.587
 2673SOL    HW1 8762   1.297   2.316  10.633
 2673SOL    HW2 8763   1.174   2.259  10.565
 2674SOL     OW 8764   0.065   3.441  10.656
 2674SOL    HW1 8765   0.070   3.498  10.578
 2674SOL    HW2 8766   0.156   3.429  10.682
 2675SOL     OW 8767   0.370   2.964   9.793
 2675SOL    HW1 8768   0.366   3.044   9.741
 2675SOL    HW2 8769   0.370   2.894   9.728
 2676SOL     OW 8770   0.550   2.398  10.172
 2676SOL    HW1 8771   0.564   2.455  10.096
 2676SOL    HW2 8772   0.617   2.424  10.234
 2677SOL     OW 8773   1.248   3.211   9.700
 2677SOL    HW1 8774   1.304   3.282   9.731
 2677SOL    HW2 8775   1.161   3.232   9.733
 2678SOL     OW 8776   1.284   3.321  10.458
 2678SOL    HW1 8777   1.340   3.325  10.535
 2678SOL    HW2 8778   1.228   3.245  10.471
 2679SOL     OW 8779   1.576   2.485   9.785
 2679SOL    HW1 8780   1.532   2.537   9.852
 2679SOL    HW2 8781   1.623   2.550   9.733
 2680SOL     OW 8782   0.345   3.389  10.628
 2680SOL    HW1 8783   0.335   3.339  10.547
 2680SOL    HW2 8784   0.439   3.404  10.636
 2681SOL     OW 8785   0.416   2.601  10.911
 2681SOL    HW1 8786   0.478   2.646  10.855
 2681SOL    HW2 8787   0.456   2.515  10.928
 2682SOL     OW 8788   1.603   2.642  10.994
 2682SOL    HW1 8789   1.517   2.684  10.987
 2682SOL    HW2 8790   1.656   2.684  10.926
 2683SOL     OW 8791   0.996   1.990  11.063
 2683SOL    HW1 8792   1.054   2.062  11.039
 2683SOL    HW2 8793   1.044   1.910  11.039
 2684SOL     OW 8794   0.497   1.898  11.056
 2684SOL    HW1 8795   0.453   1.845  10.989
 2684SOL    HW2 8796   0.443   1.976  11.065
 2685SOL     OW 8797   0.585   2.736  10.342
 2685SOL    HW1 8798   0.617   2.826  10.342
 2685SOL    HW2 8799   0.529   2.730  10.419
 2686SOL     OW 8800   1.354   2.720  10.336
 2686SOL    HW1 8801   1.270   2.709  10.293
 2686SOL    HW2 8802   1.397   2.635  10.329
 2687SOL     OW 8803   1.203   2.390   9.576
 2687SOL    HW1 8804   1.211   2.312   9.631
 2687SOL    HW2 8805   1.160   2.455   9.632
 2688SOL     OW 8806   0.311   2.058  10.557
 2688SOL    HW1 8807   0.264   2.095  10.632
 2688SOL    HW2 8808   0.287   1.966  10.558
 2689SOL     OW 8809   0.059   3.167  10.590
 2689SOL    HW1 8810   0.091   3.127  10.671
 2689SOL    HW2 8811   0.052   3.260  10.612
 2690SOL     OW 8812   0.724   2.493  10.366
 2690SOL    HW1 8813   0.799   2.477  10.309
 2690SOL    HW2 8814   0.696   2.582  10.345
 2691SOL     OW 8815   1.737   2.821  11.165
 2691SOL    HW1 8816   1.692   2.757  11.109
 2691SOL    HW2 8817   1.676   2.837  11.237
 2692SOL     OW 8818   0.314   1.924   9.930
 2692SOL    HW1 8819   0.293   2.015   9.951
 2692SOL    HW2 8820   0.320   1.881  10.015
 2693SOL     OW 8821   1.610   2.240   9.677
 2693SOL    HW1 8822   1.623   2.185   9.754
 2693SOL    HW2 8823   1.588   2.326   9.712
 2694SOL     OW 8824   1.028   2.621  10.270
 2694SOL    HW1 8825   1.023   2.638  10.364
 2694SOL    HW2 8826   1.002   2.529  10.261
 2695SOL     OW 8827   0.986   3.430  11.030
 2695SOL    HW1 8828   0.967   3.471  10.946
 2695SOL    HW2 8829   1.027   3.347  11.007
 2696SOL     OW 8830   1.854   3.365  10.914
 2696SOL    HW1 8831   1.873   3.393  10.825
 2696SOL    HW2 8832   1.934   3.383  10.963
 2697SOL     OW 8833   0.353   2.783  11.110
 2697SOL    HW1 8834   0.431   2.804  11.160
 2697SOL    HW2 8835   0.381   2.716  11.048
 2698SOL     OW 8836   1.533   2.128   9.436
 2698SOL    HW1 8837   1.464   2.068   9.464
 2698SOL    HW2 8838   1.562   2.170   9.517
 2699SOL     OW 8839   1.290   2.689   9.340
 2699SOL    HW1 8840   1.331   2.603   9.343
 2699SOL    HW2 8841   1.321   2.728   9.258
 2700SOL     OW 8842   1.067   3.199  10.165
 2700SOL    HW1 8843   1.071   3.126  10.102
 2700SOL    HW2 8844   1.127   3.264  10.130
 2701SOL     OW 8845   0.313   2.664  10.260
 2701SOL    HW1 8846   0.407   2.682  10.254
 2701SOL    HW2 8847   0.308   2.574  10.292
 2702SOL     OW 8848   0.330   2.382  10.324
 2702SOL    HW1 8849   0.296   2.295  10.308
 2702SOL    HW2 8850   0.406   2.390  10.267
 2703SOL     OW 8851   1.134   2.236  10.994
 2703SOL    HW1 8852   1.087   2.292  11.056
 2703SOL    HW2 8853   1.222   2.275  10.990
 2704SOL     OW 8854   1.159   2.063  10.781
 2704SOL    HW1 8855   1.149   2.126  10.852
 2704SOL    HW2 8856   1.202   2.113  10.711
 2705SOL     OW 8857   4.000   3.180   9.492
 2705SOL    HW1 8858   3.905   3.196   9.496
 2705SOL    HW2 8859   0.009   3.087   9.510
 2706SOL     OW 8860   0.076   3.663  10.205
 2706SOL    HW1 8861   0.090   3.568  10.203
 2706SOL    HW2 8862   0.163   3.700  10.203
 2707SOL     OW 8863   0.507   3.426  10.227
 2707SOL    HW1 8864   0.573   3.492  10.247
 2707SOL    HW2 8865   0.550   3.367  10.164
 2708SOL     OW 8866   0.979   2.652  10.535
 2708SOL    HW1 8867   1.037   2.631  10.609
 2708SOL    HW2 8868   0.895   2.614  10.559
 2709SOL     OW 8869   0.037   2.420  10.419
 2709SOL    HW1 8870   0.120   2.396  10.377
 2709SOL    HW2 8871   0.057   2.416  10.513
 2710SOL     OW 8872   0.207   2.375  11.037
 2710SOL    HW1 8873   0.246   2.328  10.964
 2710SOL    HW2 8874   0.159   2.447  10.997
 2711SOL     OW 8875   1.377   2.799  10.968
 2711SOL    HW1 8876   1.399   2.892  10.965
 2711SOL    HW2 8877   1.375   2.772  10.876
 2712SOL     OW 8878   0.818   2.431   9.672
 2712SOL    HW1 8879   0.823   2.356   9.613
 2712SOL    HW2 8880   0.744   2.482   9.639
 2713SOL     OW 8881   1.635   2.465  10.496
 2713SOL    HW1 8882   1.624   2.409  10.573
 2713SOL    HW2 8883   1.721   2.442  10.461
 2714SOL     OW 8884   0.299   3.407  11.037
 2714SOL    HW1 8885   0.251   3.477  11.081
 2714SOL    HW2 8886   0.268   3.326  11.077
 2715SOL     OW 8887   0.706   2.312  10.568
 2715SOL    HW1 8888   0.653   2.237  10.538
 2715SOL    HW2 8889   0.700   2.375  10.496
 2716SOL     OW 8890   0.928   3.534  10.779
 2716SOL    HW1 8891   0.901   3.496  10.695
 2716SOL    HW2 8892   0.920   3.628  10.767
 2717SOL     OW 8893   0.455   2.351   9.505
 2717SOL    HW1 8894   0.521   2.419   9.523
 2717SOL    HW2 8895   0.376   2.400   9.483
 2718SOL     OW 8896   0.156   2.997  10.785
 2718SOL    HW1 8897   0.157   2.946  10.866
 2718SOL    HW2 8898   0.171   2.932  10.716
 2719SOL     OW 8899   1.324   2.907  10.531
 2719SOL    HW1 8900   1.346   2.844  10.463
 2719SOL    HW2 8901   1.256   2.961  10.492
 2720SOL     OW 8902   1.313   2.719   9.615
 2720SOL    HW1 8903   1.238   2.687   9.666
 2720SOL    HW2 8904   1.288   2.705   9.524
 2721SOL     OW 8905   1.771   3.603  10.460
 2721SOL    HW1 8906   1.834   3.631  10.393
 2721SOL    HW2 8907   1.750   3.512  10.437
 2722SOL     OW 8908   1.244   3.595  10.419
 2722SOL    HW1 8909   1.327   3.616  10.376
 2722SOL    HW2 8910   1.250   3.501  10.439
 2723SOL     OW 8911   0.076   3.076  10.338
 2723SOL    HW1 8912   0.083   3.104  10.429
 2723SOL    HW2 8913   3.983   3.087  10.316
 2724SOL     OW 8914   0.679   3.527  11.043
 2724SOL    HW1 8915   0.621   3.603  11.046
 2724SOL    HW2 8916   0.739   3.546  10.970
 2725SOL     OW 8917   1.391   3.431   9.797
 2725SOL    HW1 8918   1.450   3.464   9.730
 2725SOL    HW2 8919   1.342   3.508   9.827
 2726SOL     OW 8920   0.170   3.623  11.141
 2726SOL    HW1 8921   0.114   3.571  11.200
 2726SOL    HW2 8922   0.216   3.683  11.200
 2727SOL     OW 8923   1.277   2.789   9.981
 2727SOL    HW1 8924   1.351   2.728   9.989
 2727SOL    HW2 8925   1.312   2.861   9.928
 2728SOL     OW 8926   0.811   3.136  10.738
 2728SOL    HW1 8927   0.782   3.176  10.820
 2728SOL    HW2 8928   0.740   3.155  10.677
 2729SOL     OW 8929   0.675   3.479   9.468
 2729SOL    HW1 8930   0.683   3.496   9.374
 2729SOL    HW2 8931   0.616   3.403   9.473
 2730SOL     OW 8932   1.623   3.588  10.700
 2730SOL    HW1 8933   1.674   3.593  10.619
 2730SOL    HW2 8934   1.609   3.679  10.726
 2731SOL     OW 8935   0.267   2.175  10.026
 2731SOL    HW1 8936   0.180   2.208  10.000
 2731SOL    HW2 8937   0.261   2.165  10.121
 2732SOL     OW 8938   1.208   3.466   9.346
 2732SOL    HW1 8939   1.197   3.374   9.369
 2732SOL    HW2 8940   1.147   3.479   9.273
 2733SOL     OW 8941   0.823   2.868  10.683
 2733SOL    HW1 8942   0.868   2.862  10.599
 2733SOL    HW2 8943   0.822   2.961  10.704
 2734SOL     OW 8944   0.916   2.772   9.601
 2734SOL    HW1 8945   0.976   2.805   9.534
 2734SOL    HW2 8946   0.965   2.704   9.646
 2735SOL     OW 8947   1.489   3.490   9.352
 2735SOL    HW1 8948   1.396   3.480   9.336
 2735SOL    HW2 8949   1.528   3.496   9.265
 2736SOL     OW 8950   0.374   3.165  10.801
 2736SOL    HW1 8951   0.359   3.245  10.751
 2736SOL    HW2 8952   0.297   3.111  10.784
 2737SOL     OW 8953   1.610   3.145  10.590
 2737SOL    HW1 8954   1.669   3.132  10.664
 2737SOL    HW2 8955   1.549   3.213  10.620
 2738SOL     OW 8956   1.056   2.970  10.018
 2738SOL    HW1 8957   0.984   2.920  10.056
 2738SOL    HW2 8958   1.119   2.905   9.989
 2739SOL     OW 8959   1.023   2.103  10.277
 2739SOL    HW1 8960   1.019   2.056  10.194
 2739SOL    HW2 8961   1.017   2.034  10.344
 2740SOL     OW 8962   0.606   3.352   9.790
 2740SOL    HW1 8963   0.651   3.302   9.723
 2740SOL    HW2 8964   0.534   3.396   9.744
 2741SOL     OW 8965   1.730   2.243  10.684
 2741SOL    HW1 8966   1.798   2.310  10.690
 2741SOL    HW2 8967   1.770   2.172  10.634
 2742SOL     OW 8968   0.253   3.203   9.602
 2742SOL    HW1 8969   0.160   3.211   9.583
 2742SOL    HW2 8970   0.264   3.241   9.689
 2743SOL     OW 8971   0.107   2.860  11.027
 2743SOL    HW1 8972   0.047   2.853  11.101
 2743SOL    HW2 8973   0.193   2.842  11.065
 2744SOL     OW 8974   0.675   2.058  10.810
 2744SOL    HW1 8975   0.759   2.037  10.769
 2744SOL    HW2 8976   0.699   2.091  10.897
 2745SOL     OW 8977   0.081   2.177   9.348
 2745SOL    HW1 8978   3.985   2.177   9.355
 2745SOL    HW2 8979   0.101   2.257   9.300
 2746SOL     OW 8980   1.428   2.720  10.709
 2746SOL    HW1 8981   1.380   2.781  10.654
 2746SOL    HW2 8982   1.518   2.723  10.676
 2747SOL     OW 8983   0.018   2.096   9.686
 2747SOL    HW1 8984   0.045   2.160   9.620
 2747SOL    HW2 8985   0.101   2.057   9.715
 2748SOL     OW 8986   1.178   3.199   9.427
 2748SOL    HW1 8987   1.087   3.171   9.428
 2748SOL    HW2 8988   1.205   3.199   9.519
 2749SOL     OW 8989   0.619   2.692  10.746
 2749SOL    HW1 8990   0.676   2.768  10.731
 2749SOL    HW2 8991   0.680   2.619  10.754
 2750SOL     OW 8992   1.486   3.641  10.291
 2750SOL    HW1 8993   1.508   3.700  10.219
 2750SOL    HW2 8994   1.569   3.619  10.332
 2751SOL     OW 8995   0.716   2.425  11.014
 2751SOL    HW1 8996   0.761   2.486  11.073
 2751SOL    HW2 8997   0.741   2.338  11.046
 2752SOL     OW 8998   1.473   3.060  10.941
 2752SOL    HW1 8999   1.461   3.074  11.034
 2752SOL    HW2 9000   1.566   3.077  10.926
 2753SOL     OW 9001   0.378   3.607  10.869
 2753SOL    HW1 9002   0.290   3.643  10.856
 2753SOL    HW2 9003   0.364   3.524  10.915
 2754SOL     OW 9004   1.669   2.744  10.564
 2754SOL    HW1 9005   1.659   2.658  10.522
 2754SOL    HW2 9006   1.658   2.807  10.493
 2755SOL     OW 9007   1.215   2.182   9.768
 2755SOL    HW1 9008   1.278   2.110   9.760
 2755SOL    HW2 9009   1.245   2.231   9.845
 2756SOL     OW 9010   0.589   2.600   9.982
 2756SOL    HW1 9011   0.628   2.686   9.967
 2756SOL    HW2 9012   0.523   2.590   9.914
 2757SOL     OW 9013   1.754   2.242  10.962
 2757SOL    HW1 9014   1.744   2.244  10.866
 2757SOL    HW2 9015   1.689   2.177  10.990
 2758SOL     OW 9016   1.742   2.798  10.822
 2758SOL    HW1 9017   1.738   2.893  10.833
 2758SOL    HW2 9018   1.729   2.785  10.728
 2759SOL     OW 9019   0.865   3.229   9.349
 2759SOL    HW1 9020   0.823   3.257   9.430
 2759SOL    HW2 9021   0.879   3.310   9.299
 2760SOL     OW 9022   0.659   3.651  10.246
 2760SOL    HW1 9023   0.637   3.742  10.226
 2760SOL    HW2 9024   0.754   3.648  10.244
 2761SOL     OW 9025   0.869   2.830  10.164
 2761SOL    HW1 9026   0.919   2.758  10.203
 2761SOL    HW2 9027   0.832   2.877  10.239
 2762SOL     OW 9028   1.077   2.850   9.399
 2762SOL    HW1 9029   1.056   2.901   9.321
 2762SOL    HW2 9030   1.152   2.797   9.373
 2763SOL     OW 9031   1.851   3.413  10.152
 2763SOL    HW1 9032   1.771   3.403  10.100
 2763SOL    HW2 9033   1.841   3.351  10.224
 2764SOL     OW 9034   0.226   3.166  11.166
 2764SOL    HW1 9035   0.153   3.110  11.139
 2764SOL    HW2 9036   0.213   3.179  11.260
 2765SOL     OW 9037   0.114   3.139  10.031
 2765SOL    HW1 9038   0.133   3.089  10.111
 2765SOL    HW2 9039   0.105   3.073   9.963
 2766SOL     OW 9040   0.683   3.266  10.941
 2766SOL    HW1 9041   0.602   3.224  10.970
 2766SOL    HW2 9042   0.679   3.354  10.977
 2767SOL     OW 9043   0.441   2.296   9.844
 2767SOL    HW1 9044   0.442   2.226   9.778
 2767SOL    HW2 9045   0.385   2.262   9.914
 2768SOL     OW 9046   1.700   3.348  10.402
 2768SOL    HW1 9047   1.619   3.327  10.356
 2768SOL    HW2 9048   1.709   3.280  10.469
 2769SOL     OW 9049   0.334   2.419  10.602
 2769SOL    HW1 9050   0.389   2.362  10.656
 2769SOL    HW2 9051   0.349   2.388  10.512
 2770SOL     OW 9052   0.828   3.441   9.986
 2770SOL    HW1 9053   0.813   3.494   9.909
 2770SOL    HW2 9054   0.754   3.381   9.990
 2771SOL     OW 9055   1.435   2.090  10.431
 2771SOL    HW1 9056   1.442   2.002  10.469
 2771SOL    HW2 9057   1.382   2.139  10.493
 2772SOL     OW 9058   1.009   1.879  10.450
 2772SOL    HW1 9059   0.955   1.812  10.408
 2772SOL    HW2 9060   1.097   1.842  10.452
 2773SOL     OW 9061   0.772   3.194   9.629
 2773SOL    HW1 9062   0.742   3.103   9.634
 2773SOL    HW2 9063   0.855   3.195   9.677
 2774SOL     OW 9064   0.621   3.416  10.596
 2774SOL    HW1 9065   0.622   3.497  10.645
 2774SOL    HW2 9066   0.708   3.410  10.558
 2775SOL     OW 9067   1.353   1.912   9.477
 2775SOL    HW1 9068   1.381   1.850   9.410
 2775SOL    HW2 9069   1.265   1.884   9.502
 2776SOL     OW 9070   1.298   2.324   9.991
 2776SOL    HW1 9071   1.244   2.403   9.996
 2776SOL    HW2 9072   1.292   2.285  10.078
 2777SOL     OW 9073   1.577   2.059  10.186
 2777SOL    HW1 9074   1.535   2.084  10.268
 2777SOL    HW2 9075   1.587   2.141  10.138
 2778SOL     OW 9076   0.047   2.911   9.549
 2778SOL    HW1 9077   0.141   2.896   9.541
 2778SOL    HW2 9078   0.011   2.828   9.581
 2779SOL     OW 9079   0.886   3.520   9.653
 2779SOL    HW1 9080   0.815   3.501   9.592
 2779SOL    HW2 9081   0.854   3.595   9.703
 2780SOL     OW 9082   0.231   2.486  11.291
 2780SOL    HW1 9083   0.138   2.494  11.312
 2780SOL    HW2 9084   0.233   2.455  11.201
 2781SOL     OW 9085   0.229   2.134  12.159
 2781SOL    HW1 9086   0.250   2.100  12.246
 2781SOL    HW2 9087   0.134   2.126  12.152
 2782SOL     OW 9088   0.009   2.222  11.802
 2782SOL    HW1 9089   3.921   2.239  11.834
 2782SOL    HW2 9090   3.996   2.190  11.713
 2783SOL     OW 9091   0.579   3.150  12.361
 2783SOL    HW1 9092   0.493   3.153  12.320
 2783SOL    HW2 9093   0.594   3.239  12.394
 2784SOL     OW 9094   1.563   3.373  11.880
 2784SOL    HW1 9095   1.521   3.351  11.963
 2784SOL    HW2 9096   1.491   3.376  11.817
 2785SOL     OW 9097   1.132   2.560  11.871
 2785SOL    HW1 9098   1.180   2.641  11.857
 2785SOL    HW2 9099   1.084   2.573  11.953
 2786SOL     OW 9100   1.779   2.465  11.400
 2786SOL    HW1 9101   1.751   2.461  11.308
 2786SOL    HW2 9102   1.740   2.387  11.440
 2787SOL     OW 9103   0.753   3.001  12.214
 2787SOL    HW1 9104   0.689   3.037  12.275
 2787SOL    HW2 9105   0.789   3.078  12.169
 2788SOL     OW 9106   0.869   2.632  12.994
 2788SOL    HW1 9107   0.860   2.704  13.057
 2788SOL    HW2 9108   0.893   2.675  12.912
 2789SOL     OW 9109   0.685   2.864  11.818
 2789SOL    HW1 9110   0.751   2.853  11.887
 2789SOL    HW2 9111   0.616   2.916  11.859
 2790SOL     OW 9112   0.712   3.011  12.987
 2790SOL    HW1 9113   0.760   3.089  13.016
 2790SOL    HW2 9114   0.630   3.046  12.950
 2791SOL     OW 9115   0.351   3.264  12.250
 2791SOL    HW1 9116   0.269   3.248  12.203
 2791SOL    HW2 9117   0.400   3.322  12.193
 2792SOL     OW 9118   1.460   3.363  12.528
 2792SOL    HW1 9119   1.513   3.441  12.539
 2792SOL    HW2 9120   1.394   3.369  12.597
 2793SOL     OW 9121   0.450   2.261  12.660
 2793SOL    HW1 9122   0.525   2.202  12.663
 2793SOL    HW2 9123   0.374   2.204  12.673
 2794SOL     OW 9124   1.601   2.306  11.909
 2794SOL    HW1 9125   1.519   2.325  11.864
 2794SOL    HW2 9126   1.618   2.383  11.963
 2795SOL     OW 9127   0.223   3.571  11.638
 2795SOL    HW1 9128   0.224   3.654  11.686
 2795SOL    HW2 9129   0.300   3.575  11.581
 2796SOL     OW 9130   1.137   3.203  12.865
 2796SOL    HW1 9131   1.177   3.198  12.952
 2796SOL    HW2 9132   1.085   3.124  12.858
 2797SOL     OW 9133   0.250   3.306  11.712
 2797SOL    HW1 9134   0.222   3.396  11.698
 2797SOL    HW2 9135   0.180   3.267  11.765
 2798SOL     OW 9136   0.247   2.929  12.056
 2798SOL    HW1 9137   0.267   2.844  12.096
 2798SOL    HW2 9138   0.194   2.975  12.121
 2799SOL     OW 9139   0.611   3.648  12.599
 2799SOL    HW1 9140   0.529   3.634  12.646
 2799SOL    HW2 9141   0.637   3.737  12.624
 2800SOL     OW 9142   0.578   2.847  11.310
 2800SOL    HW1 9143   0.626   2.893  11.241
 2800SOL    HW2 9144   0.619   2.877  11.391
 2801SOL     OW 9145   1.553   2.003  12.617
 2801SOL    HW1 9146   1.574   2.088  12.577
 2801SOL    HW2 9147   1.549   2.021  12.711
 2802SOL     OW 9148   0.142   2.514  11.746
 2802SOL    HW1 9149   0.087   2.436  11.745
 2802SOL    HW2 9150   0.106   2.569  11.816
 2803SOL     OW 9151   1.843   3.609  11.509
 2803SOL    HW1 9152   1.911   3.586  11.572
 2803SOL    HW2 9153   1.863   3.700  11.486
 2804SOL     OW 9154   0.041   3.453  11.312
 2804SOL    HW1 9155   0.034   3.361  11.337
 2804SOL    HW2 9156   3.959   3.492  11.341
 2805SOL     OW 9157   1.689   2.781  11.814
 2805SOL    HW1 9158   1.771   2.737  11.789
 2805SOL    HW2 9159   1.665   2.832  11.737
 2806SOL     OW 9160   1.647   2.967  11.601
 2806SOL    HW1 9161   1.733   2.971  11.559
 2806SOL    HW2 9162   1.653   3.030  11.674
 2807SOL     OW 9163   0.139   2.615  12.762
 2807SOL    HW1 9164   0.234   2.609  12.759
 2807SOL    HW2 9165   0.121   2.704  12.792
 2808SOL     OW 9166   0.616   3.248  11.906
 2808SOL    HW1 9167   0.568   3.166  11.916
 2808SOL    HW2 9168   0.598   3.275  11.816
 2809SOL     OW 9169   1.287   3.099  12.594
 2809SOL    HW1 9170   1.320   3.031  12.535
 2809SOL    HW2 9171   1.346   3.094  12.670
 2810SOL     OW 9172   0.819   1.863  11.683
 2810SOL    HW1 9173   0.859   1.947  11.662
 2810SOL    HW2 9174   0.726   1.881  11.689
 2811SOL     OW 9175   0.184   2.813  12.451
 2811SOL    HW1 9176   0.272   2.777  12.438
 2811SOL    HW2 9177   0.132   2.774  12.381
 2812SOL     OW 9178   1.531   2.857  11.371
 2812SOL    HW1 9179   1.461   2.800  11.403
 2812SOL    HW2 9180   1.573   2.892  11.451
 2813SOL     OW 9181   1.216   3.666  12.799
 2813SOL    HW1 9182   1.194   3.726  12.728
 2813SOL    HW2 9183   1.218   3.580  12.757
 2814SOL     OW 9184   0.341   2.109  12.988
 2814SOL    HW1 9185   0.378   2.197  12.995
 2814SOL    HW2 9186   0.250   2.119  13.013
 2815SOL     OW 9187   1.466   3.281  12.122
 2815SOL    HW1 9188   1.399   3.297  12.188
 2815SOL    HW2 9189   1.454   3.190  12.096
 2816SOL     OW 9190   1.655   3.601  11.753
 2816SOL    HW1 9191   1.640   3.571  11.663
 2816SOL    HW2 9192   1.631   3.527  11.808
 2817SOL     OW 9193   0.596   2.579  11.437
 2817SOL    HW1 9194   0.602   2.663  11.392
 2817SOL    HW2 9195   0.533   2.594  11.508
 2818SOL     OW 9196   1.280   2.220  12.106
 2818SOL    HW1 9197   1.191   2.185  12.116
 2818SOL    HW2 9198   1.333   2.165  12.163
 2819SOL     OW 9199   1.577   3.537  11.480
 2819SOL    HW1 9200   1.669   3.561  11.475
 2819SOL    HW2 9201   1.552   3.518  11.390
 2820SOL     OW 9202   0.791   2.480  12.623
 2820SOL    HW1 9203   0.765   2.455  12.711
 2820SOL    HW2 9204   0.753   2.412  12.566
 2821SOL     OW 9205   1.393   2.335  12.849
 2821SOL    HW1 9206   1.396   2.381  12.933
 2821SOL    HW2 9207   1.455   2.263  12.859
 2822SOL     OW 9208   0.953   2.748  12.756
 2822SOL    HW1 9209   1.007   2.679  12.719
 2822SOL    HW2 9210   0.904   2.783  12.681
 2823SOL     OW 9211   0.992   2.274  12.409
 2823SOL    HW1 9212   0.905   2.294  12.443
 2823SOL    HW2 9213   0.977   2.229  12.326
 2824SOL     OW 9214   1.052   2.560  11.597
 2824SOL    HW1 9215   1.069   2.553  11.691
 2824SOL    HW2 9216   0.970   2.514  11.584
 2825SOL     OW 9217   0.082   2.691  11.962
 2825SOL    HW1 9218   0.157   2.660  12.014
 2825SOL    HW2 9219   0.099   2.784  11.947
 2826SOL     OW 9220   0.127   3.717  12.750
 2826SOL    HW1 9221   0.135   3.686  12.840
 2826SOL    HW2 9222   0.035   3.704  12.727
 2827SOL     OW 9223   0.896   2.212  11.365
 2827SOL    HW1 9224   0.936   2.274  11.305
 2827SOL    HW2 9225   0.913   2.126  11.325
 2828SOL     OW 9226   1.705   2.439  13.005
 2828SOL    HW1 9227   1.669   2.511  12.952
 2828SOL    HW2 9228   1.734   2.374  12.942
 2829SOL     OW 9229   1.378   3.004  11.713
 2829SOL    HW1 9230   1.457   2.992  11.660
 2829SOL    HW2 9231   1.325   3.066  11.663
 2830SOL     OW 9232   0.546   2.040  12.066
 2830SOL    HW1 9233   0.552   2.072  12.156
 2830SOL    HW2 9234   0.546   2.119  12.012
 2831SOL     OW 9235   1.004   3.307  11.643
 2831SOL    HW1 9236   0.967   3.380  11.594
 2831SOL    HW2 9237   0.984   3.326  11.734
 2832SOL     OW 9238   0.359   3.671  12.033
 2832SOL    HW1 9239   0.437   3.617  12.045
 2832SOL    HW2 9240   0.390   3.761  12.042
 2833SOL     OW 9241   1.800   2.914  12.041
 2833SOL    HW1 9242   1.746   2.897  11.964
 2833SOL    HW2 9243   1.737   2.922  12.113
 2834SOL     OW 9244   1.228   3.399  12.683
 2834SOL    HW1 9245   1.215   3.327  12.745
 2834SOL    HW2 9246   1.160   3.387  12.617
 2835SOL     OW 9247   0.311   2.816  11.414
 2835SOL    HW1 9248   0.394   2.839  11.373
 2835SOL    HW2 9249   0.298   2.724  11.392
 2836SOL     OW 9250   1.481   2.606  11.896
 2836SOL    HW1 9251   1.473   2.565  11.983
 2836SOL    HW2 9252   1.558   2.662  11.903
 2837SOL     OW 9253   0.468   3.122  12.909
 2837SOL    HW1 9254   0.442   3.130  12.817
 2837SOL    HW2 9255   0.385   3.126  12.957
 2838SOL     OW 9256   1.113   3.643  11.394
 2838SOL    HW1 9257   1.049   3.596  11.448
 2838SOL    HW2 9258   1.144   3.577  11.331
 2839SOL     OW 9259   0.204   2.136  12.680
 2839SOL    HW1 9260   0.114   2.168  12.673
 2839SOL    HW2 9261   0.195   2.049  12.719
 2840SOL     OW 9262   1.628   3.243  11.262
 2840SOL    HW1 9263   1.587   3.328  11.245
 2840SOL    HW2 9264   1.559   3.179  11.241
 2841SOL     OW 9265   0.468   3.601  11.493
 2841SOL    HW1 9266   0.507   3.664  11.554
 2841SOL    HW2 9267   0.541   3.573  11.438
 2842SOL     OW 9268   1.400   1.969  11.605
 2842SOL    HW1 9269   1.385   1.946  11.514
 2842SOL    HW2 9270   1.484   1.929  11.627
 2843SOL     OW 9271   0.253   3.656  12.399
 2843SOL    HW1 9272   0.297   3.590  12.452
 2843SOL    HW2 9273   0.251   3.619  12.311
 2844SOL     OW 9274   0.937   3.563  12.072
 2844SOL    HW1 9275   1.015   3.511  12.094
 2844SOL    HW2 9276   0.894   3.513  12.003
 2845SOL     OW 9277   0.398   2.555  11.643
 2845SOL    HW1 9278   0.424   2.464  11.658
 2845SOL    HW2 9279   0.307   2.559  11.670
 2846SOL     OW 9280   1.534   2.086  12.896
 2846SOL    HW1 9281   1.549   2.107  12.988
 2846SOL    HW2 9282   1.466   2.018  12.897
 2847SOL     OW 9283   0.642   1.981  11.269
 2847SOL    HW1 9284   0.703   1.910  11.289
 2847SOL    HW2 9285   0.592   1.949  11.194
 2848SOL     OW 9286   0.765   2.140  12.927
 2848SOL    HW1 9287   0.844   2.086  12.925
 2848SOL    HW2 9288   0.719   2.114  13.006
 2849SOL     OW 9289   0.876   3.383  12.366
 2849SOL    HW1 9290   0.860   3.346  12.279
 2849SOL    HW2 9291   0.946   3.328  12.402
 2850SOL     OW 9292   1.341   2.451  12.604
 2850SOL    HW1 9293   1.371   2.420  12.690
 2850SOL    HW2 9294   1.376   2.539  12.597
 2851SOL     OW 9295   0.817   3.254  12.113
 2851SOL    HW1 9296   0.902   3.243  12.070
 2851SOL    HW2 9297   0.754   3.256  12.041
 2852SOL     OW 9298   0.929   2.372  12.074
 2852SOL    HW1 9299   0.905   2.363  11.982
 2852SOL    HW2 9300   0.959   2.284  12.099
 2853SOL     OW 9301   0.556   1.924  11.668
 2853SOL    HW1 9302   0.473   1.929  11.716
 2853SOL    HW2 9303   0.560   2.007  11.619
 2854SOL     OW 9304   1.428   3.061  11.212
 2854SOL    HW1 9305   1.458   2.985  11.263
 2854SOL    HW2 9306   1.342   3.082  11.249
 2855SOL     OW 9307   0.308   1.913  11.342
 2855SOL    HW1 9308   0.372   1.951  11.281
 2855SOL    HW2 9309   0.358   1.848  11.391
 2856SOL     OW 9310   0.940   2.109  11.631
 2856SOL    HW1 9311   0.911   2.149  11.549
 2856SOL    HW2 9312   1.034   2.126  11.634
 2857SOL     OW 9313   1.080   2.544  12.630
 2857SOL    HW1 9314   1.013   2.476  12.635
 2857SOL    HW2 9315   1.163   2.496  12.625
 2858SOL     OW 9316   1.222   3.432  11.966
 2858SOL    HW1 9317   1.237   3.500  11.899
 2858SOL    HW2 9318   1.291   3.447  12.031
 2859SOL     OW 9319   0.467   3.013  11.907
 2859SOL    HW1 9320   0.395   2.989  11.966
 2859SOL    HW2 9321   0.432   2.997  11.820
 2860SOL     OW 9322   1.266   3.656  11.780
 2860SOL    HW1 9323   1.313   3.721  11.727
 2860SOL    HW2 9324   1.194   3.706  11.819
 2861SOL     OW 9325   1.023   2.401  11.196
 2861SOL    HW1 9326   0.980   2.485  11.177
 2861SOL    HW2 9327   1.089   2.423  11.262
 2862SOL     OW 9328   0.082   2.434  12.562
 2862SOL    HW1 9329   0.172   2.421  12.532
 2862SOL    HW2 9330   0.089   2.504  12.627
 2863SOL     OW 9331   0.567   2.089  12.338
 2863SOL    HW1 9332   0.608   2.014  12.379
 2863SOL    HW2 9333   0.475   2.086  12.367
 2864SOL     OW 9334   0.868   2.321  11.812
 2864SOL    HW1 9335   0.820   2.374  11.748
 2864SOL    HW2 9336   0.888   2.240  11.764
 2865SOL     OW 9337   1.015   1.917  11.923
 2865SOL    HW1 9338   0.958   1.910  11.847
 2865SOL    HW2 9339   0.992   1.841  11.977
 2866SOL     OW 9340   1.438   3.024  12.029
 2866SOL    HW1 9341   1.368   2.959  12.029
 2866SOL    HW2 9342   1.461   3.033  11.936
 2867SOL     OW 9343   1.464   2.468  12.145
 2867SOL    HW1 9344   1.411   2.389  12.147
 2867SOL    HW2 9345   1.521   2.462  12.221
 2868SOL     OW 9346   1.845   2.675  11.558
 2868SOL    HW1 9347   1.905   2.626  11.614
 2868SOL    HW2 9348   1.818   2.613  11.491
 2869SOL     OW 9349   0.488   3.281  11.331
 2869SOL    HW1 9350   0.412   3.251  11.381
 2869SOL    HW2 9351   0.470   3.253  11.241
 2870SOL     OW 9352   1.672   3.126  11.816
 2870SOL    HW1 9353   1.767   3.128  11.830
 2870SOL    HW2 9354   1.643   3.214  11.838
 2871SOL     OW 9355   1.394   2.435  11.242
 2871SOL    HW1 9356   1.334   2.414  11.314
 2871SOL    HW2 9357   1.479   2.404  11.272
 2872SOL     OW 9358   0.574   2.130  11.491
 2872SOL    HW1 9359   0.604   2.083  11.413
 2872SOL    HW2 9360   0.541   2.214  11.457
 2873SOL     OW 9361   1.751   3.103  12.741
 2873SOL    HW1 9362   1.838   3.064  12.737
 2873SOL    HW2 9363   1.767   3.193  12.769
 2874SOL     OW 9364   1.057   3.214  12.504
 2874SOL    HW1 9365   0.982   3.184  12.555
 2874SOL    HW2 9366   1.133   3.174  12.546
 2875SOL     OW 9367   1.610   3.488  12.828
 2875SOL    HW1 9368   1.602   3.522  12.739
 2875SOL    HW2 9369   1.692   3.440  12.828
 2876SOL     OW 9370   1.132   3.067  12.276
 2876SOL    HW1 9371   1.072   3.105  12.341
 2876SOL    HW2 9372   1.099   3.101  12.192
 2877SOL     OW 9373   1.627   2.960  12.248
 2877SOL    HW1 9374   1.621   3.022  12.321
 2877SOL    HW2 9375   1.548   2.978  12.196
 2878SOL     OW 9376   0.918   1.958  12.566
 2878SOL    HW1 9377   0.941   1.939  12.475
 2878SOL    HW2 9378   0.997   1.997  12.603
 2879SOL     OW 9379   0.984   2.977  12.895
 2879SOL    HW1 9380   0.893   2.993  12.917
 2879SOL    HW2 9381   0.982   2.899  12.840
 2880SOL     OW 9382   0.708   2.922  11.543
 2880SOL    HW1 9383   0.694   2.906  11.636
 2880SOL    HW2 9384   0.784   2.869  11.520
 2881SOL     OW 9385   0.422   2.678  12.424
 2881SOL    HW1 9386   0.490   2.687  12.491
 2881SOL    HW2 9387   0.388   2.590  12.436
 2882SOL     OW 9388   1.264   2.238  12.450
 2882SOL    HW1 9389   1.297   2.316  12.495
 2882SOL    HW2 9390   1.173   2.260  12.427
 2883SOL     OW 9391   0.065   3.442  12.518
 2883SOL    HW1 9392   0.070   3.497  12.440
 2883SOL    HW2 9393   0.156   3.429  12.544
 2884SOL     OW 9394   0.370   2.964  11.655
 2884SOL    HW1 9395   0.366   3.044  11.603
 2884SOL    HW2 9396   0.370   2.894  11.590
 2885SOL     OW 9397   0.550   2.398  12.033
 2885SOL    HW1 9398   0.564   2.455  11.958
 2885SOL    HW2 9399   0.617   2.424  12.096
 2886SOL     OW 9400   1.248   3.211  11.562
 2886SOL    HW1 9401   1.304   3.282  11.593
 2886SOL    HW2 9402   1.161   3.232  11.595
 2887SOL     OW 9403   1.284   3.321  12.320
 2887SOL    HW1 9404   1.340   3.325  12.397
 2887SOL    HW2 9405   1.228   3.245  12.334
 2888SOL     OW 9406   1.576   2.489  11.646
 2888SOL    HW1 9407   1.530   2.536  11.716
 2888SOL    HW2 9408   1.624   2.558  11.599
 2889SOL     OW 9409   0.345   3.389  12.490
 2889SOL    HW1 9410   0.335   3.339  12.409
 2889SOL    HW2 9411   0.439   3.404  12.498
 2890SOL     OW 9412   0.416   2.601  12.773
 2890SOL    HW1 9413   0.478   2.646  12.717
 2890SOL    HW2 9414   0.456   2.515  12.790
 2891SOL     OW 9415   1.603   2.642  12.856
 2891SOL    HW1 9416   1.517   2.684  12.849
 2891SOL    HW2 9417   1.656   2.684  12.788
 2892SOL     OW 9418   0.996   1.990  12.925
 2892SOL    HW1 9419   1.054   2.062  12.901
 2892SOL    HW2 9420   1.044   1.911  12.900
 2893SOL     OW 9421   0.497   1.897  12.918
 2893SOL    HW1 9422   0.453   1.845  12.851
 2893SOL    HW2 9423   0.443   1.976  12.927
 2894SOL     OW 9424   0.585   2.736  12.204
 2894SOL    HW1 9425   0.617   2.826  12.204
 2894SOL    HW2 9426   0.529   2.730  12.281
 2895SOL     OW 9427   1.355   2.721  12.198
 2895SOL    HW1 9428   1.270   2.709  12.155
 2895SOL    HW2 9429   1.397   2.635  12.191
 2896SOL     OW 9430   1.203   2.390  11.437
 2896SOL    HW1 9431   1.211   2.312  11.492
 2896SOL    HW2 9432   1.160   2.455  11.493
 2897SOL     OW 9433   0.311   2.058  12.419
 2897SOL    HW1 9434   0.264   2.095  12.494
 2897SOL    HW2 9435   0.287   1.966  12.420
 2898SOL     OW 9436   0.060   3.167  12.452
 2898SOL    HW1 9437   0.091   3.127  12.533
 2898SOL    HW2 9438   0.052   3.260  12.474
 2899SOL     OW 9439   0.724   2.493  12.228
 2899SOL    HW1 9440   0.799   2.477  12.171
 2899SOL    HW2 9441   0.696   2.582  12.207
 2900SOL     OW 9442   1.737   2.821  13.027
 2900SOL    HW1 9443   1.692   2.757  12.972
 2900SOL    HW2 9444   1.676   2.836  13.099
 2901SOL     OW 9445   0.314   1.924  11.792
 2901SOL    HW1 9446   0.293   2.015  11.813
 2901SOL    HW2 9447   0.320   1.881  11.877
 2902SOL     OW 9448   1.612   2.245  11.538
 2902SOL    HW1 9449   1.619   2.185  11.612
 2902SOL    HW2 9450   1.590   2.329  11.576
 2903SOL     OW 9451   1.029   2.621  12.132
 2903SOL    HW1 9452   1.023   2.638  12.226
 2903SOL    HW2 9453   1.002   2.529  12.123
 2904SOL     OW 9454   0.986   3.430  12.892
 2904SOL    HW1 9455   0.967   3.471  12.808
 2904SOL    HW2 9456   1.027   3.347  12.869
 2905SOL     OW 9457   1.854   3.365  12.776
 2905SOL    HW1 9458   1.873   3.393  12.687
 2905SOL    HW2 9459   1.934   3.383  12.825
 2906SOL     OW 9460   0.352   2.783  12.973
 2906SOL    HW1 9461   0.431   2.804  13.023
 2906SOL    HW2 9462   0.381   2.716  12.911
 2907SOL     OW 9463   1.529   2.132  11.299
 2907SOL    HW1 9464   1.462   2.068  11.327
 2907SOL    HW2 9465   1.560   2.171  11.381
 2908SOL     OW 9466   1.290   2.688  11.202
 2908SOL    HW1 9467   1.333   2.602  11.206
 2908SOL    HW2 9468   1.321   2.727  11.120
 2909SOL     OW 9469   1.067   3.199  12.027
 2909SOL    HW1 9470   1.071   3.126  11.964
 2909SOL    HW2 9471   1.127   3.264  11.992
 2910SOL     OW 9472   0.313   2.664  12.122
 2910SOL    HW1 9473   0.407   2.682  12.116
 2910SOL    HW2 9474   0.308   2.574  12.154
 2911SOL     OW 9475   0.330   2.382  12.186
 2911SOL    HW1 9476   0.296   2.295  12.170
 2911SOL    HW2 9477   0.406   2.390  12.129
 2912SOL     OW 9478   1.134   2.236  12.856
 2912SOL    HW1 9479   1.087   2.292  12.918
 2912SOL    HW2 9480   1.222   2.275  12.852
 2913SOL     OW 9481   1.159   2.063  12.643
 2913SOL    HW1 9482   1.149   2.126  12.714
 2913SOL    HW2 9483   1.202   2.113  12.573
 2914SOL     OW 9484   4.000   3.180  11.354
 2914SOL    HW1 9485   3.905   3.196  11.358
 2914SOL    HW2 9486   0.009   3.087  11.372
 2915SOL     OW 9487   0.076   3.663  12.067
 2915SOL    HW1 9488   0.090   3.568  12.065
 2915SOL    HW2 9489   0.164   3.700  12.065
 2916SOL     OW 9490   0.507   3.426  12.089
 2916SOL    HW1 9491   0.573   3.492  12.109
 2916SOL    HW2 9492   0.550   3.367  12.026
 2917SOL     OW 9493   0.979   2.652  12.397
 2917SOL    HW1 9494   1.037   2.631  12.471
 2917SOL    HW2 9495   0.895   2.614  12.421
 2918SOL     OW 9496   0.037   2.420  12.281
 2918SOL    HW1 9497   0.120   2.396  12.239
 2918SOL    HW2 9498   0.057   2.416  12.375
 2919SOL     OW 9499   0.207   2.375  12.900
 2919SOL    HW1 9500   0.246   2.327  12.827
 2919SOL    HW2 9501   0.159   2.447  12.859
 2920SOL     OW 9502   1.378   2.799  12.829
 2920SOL    HW1 9503   1.400   2.893  12.827
 2920SOL    HW2 9504   1.375   2.773  12.738
 2921SOL     OW 9505   0.818   2.431  11.533
 2921SOL    HW1 9506   0.823   2.356  11.475
 2921SOL    HW2 9507   0.744   2.482  11.501
 2922SOL     OW 9508   1.635   2.465  12.358
 2922SOL    HW1 9509   1.624   2.409  12.435
 2922SOL    HW2 9510   1.721   2.442  12.323
 2923SOL     OW 9511   0.299   3.408  12.899
 2923SOL    HW1 9512   0.250   3.477  12.943
 2923SOL    HW2 9513   0.267   3.327  12.939
 2924SOL     OW 9514   0.706   2.312  12.430
 2924SOL    HW1 9515   0.653   2.237  12.400
 2924SOL    HW2 9516   0.700   2.375  12.358
 2925SOL     OW 9517   0.928   3.534  12.641
 2925SOL    HW1 9518   0.901   3.496  12.557
 2925SOL    HW2 9519   0.920   3.628  12.629
 2926SOL     OW 9520   0.455   2.351  11.367
 2926SOL    HW1 9521   0.521   2.419  11.385
 2926SOL    HW2 9522   0.376   2.400  11.345
 2927SOL     OW 9523   0.156   2.997  12.647
 2927SOL    HW1 9524   0.157   2.946  12.728
 2927SOL    HW2 9525   0.171   2.932  12.578
 2928SOL     OW 9526   1.325   2.907  12.393
 2928SOL    HW1 9527   1.347   2.844  12.325
 2928SOL    HW2 9528   1.256   2.961  12.354
 2929SOL     OW 9529   1.313   2.719  11.477
 2929SOL    HW1 9530   1.238   2.688  11.528
 2929SOL    HW2 9531   1.288   2.705  11.386
 2930SOL     OW 9532   1.771   3.603  12.322
 2930SOL    HW1 9533   1.834   3.631  12.255
 2930SOL    HW2 9534   1.750   3.512  12.299
 2931SOL     OW 9535   1.244   3.595  12.281
 2931SOL    HW1 9536   1.327   3.616  12.238
 2931SOL    HW2 9537   1.250   3.501  12.301
 2932SOL     OW 9538   0.076   3.076  12.200
 2932SOL    HW1 9539   0.083   3.104  12.291
 2932SOL    HW2 9540   3.983   3.087  12.178
 2933SOL     OW 9541   0.679   3.527  12.904
 2933SOL    HW1 9542   0.621   3.603  12.908
 2933SOL    HW2 9543   0.739   3.545  12.832
 2934SOL     OW 9544   1.391   3.431  11.659
 2934SOL    HW1 9545   1.450   3.464  11.592
 2934SOL    HW2 9546   1.342   3.508  11.689
 2935SOL     OW 9547   0.169   3.624  13.005
 2935SOL    HW1 9548   0.114   3.571  13.062
 2935SOL    HW2 9549   0.216   3.683  13.064
 2936SOL     OW 9550   1.278   2.788  11.843
 2936SOL    HW1 9551   1.351   2.728  11.851
 2936SOL    HW2 9552   1.312   2.861  11.790
 2937SOL     OW 9553   0.811   3.136  12.600
 2937SOL    HW1 9554   0.782   3.176  12.682
 2937SOL    HW2 9555   0.740   3.155  12.539
 2938SOL     OW 9556   0.675   3.479  11.330
 2938SOL    HW1 9557   0.683   3.496  11.236
 2938SOL    HW2 9558   0.616   3.403  11.335
 2939SOL     OW 9559   1.623   3.588  12.562
 2939SOL    HW1 9560   1.674   3.594  12.481
 2939SOL    HW2 9561   1.609   3.679  12.588
 2940SOL     OW 9562   0.267   2.175  11.888
 2940SOL    HW1 9563   0.180   2.208  11.862
 2940SOL    HW2 9564   0.261   2.165  11.983
 2941SOL     OW 9565   1.208   3.466  11.208
 2941SOL    HW1 9566   1.197   3.374  11.231
 2941SOL    HW2 9567   1.147   3.479  11.135
 2942SOL     OW 9568   0.823   2.868  12.545
 2942SOL    HW1 9569   0.868   2.863  12.461
 2942SOL    HW2 9570   0.822   2.961  12.566
 2943SOL     OW 9571   0.916   2.772  11.463
 2943SOL    HW1 9572   0.976   2.805  11.396
 2943SOL    HW2 9573   0.965   2.704  11.508
 2944SOL     OW 9574   1.489   3.490  11.214
 2944SOL    HW1 9575   1.396   3.480  11.198
 2944SOL    HW2 9576   1.528   3.496  11.127
 2945SOL     OW 9577   0.374   3.165  12.663
 2945SOL    HW1 9578   0.359   3.245  12.613
 2945SOL    HW2 9579   0.297   3.111  12.646
 2946SOL     OW 9580   1.610   3.145  12.452
 2946SOL    HW1 9581   1.669   3.132  12.526
 2946SOL    HW2 9582   1.549   3.213  12.482
 2947SOL     OW 9583   1.056   2.970  11.880
 2947SOL    HW1 9584   0.984   2.920  11.918
 2947SOL    HW2 9585   1.119   2.904  11.851
 2948SOL     OW 9586   1.023   2.103  12.139
 2948SOL    HW1 9587   1.018   2.056  12.056
 2948SOL    HW2 9588   1.017   2.034  12.206
 2949SOL     OW 9589   0.605   3.352  11.652
 2949SOL    HW1 9590   0.651   3.302  11.585
 2949SOL    HW2 9591   0.534   3.396  11.606
 2950SOL     OW 9592   1.730   2.242  12.546
 2950SOL    HW1 9593   1.799   2.309  12.552
 2950SOL    HW2 9594   1.770   2.172  12.495
 2951SOL     OW 9595   0.253   3.203  11.464
 2951SOL    HW1 9596   0.160   3.211  11.445
 2951SOL    HW2 9597   0.264   3.241  11.551
 2952SOL     OW 9598   0.107   2.860  12.889
 2952SOL    HW1 9599   0.047   2.854  12.963
 2952SOL    HW2 9600   0.193   2.842  12.927
 2953SOL     OW 9601   0.675   2.058  12.672
 2953SOL    HW1 9602   0.759   2.037  12.631
 2953SOL    HW2 9603   0.698   2.090  12.759
 2954SOL     OW 9604   0.081   2.177  11.210
 2954SOL    HW1 9605   3.985   2.177  11.217
 2954SOL    HW2 9606   0.101   2.257  11.162
 2955SOL     OW 9607   1.428   2.720  12.571
 2955SOL    HW1 9608   1.380   2.781  12.515
 2955SOL    HW2 9609   1.518   2.723  12.538
 2956SOL     OW 9610   0.018   2.096  11.548
 2956SOL    HW1 9611   0.045   2.160  11.482
 2956SOL    HW2 9612   0.101   2.057  11.577
 2957SOL     OW 9613   1.178   3.199  11.289
 2957SOL    HW1 9614   1.087   3.171  11.290
 2957SOL    HW2 9615   1.205   3.199  11.381
 2958SOL     OW 9616   0.619   2.692  12.608
 2958SOL    HW1 9617   0.676   2.768  12.593
 2958SOL    HW2 9618   0.680   2.619  12.616
 2959SOL     OW 9619   1.486   3.641  12.153
 2959SOL    HW1 9620   1.508   3.700  12.081
 2959SOL    HW2 9621   1.569   3.619  12.194
 2960SOL     OW 9622   0.716   2.425  12.876
 2960SOL    HW1 9623   0.760   2.486  12.934
 2960SOL    HW2 9624   0.742   2.338  12.908
 2961SOL     OW 9625   1.473   3.060  12.803
 2961SOL    HW1 9626   1.460   3.074  12.897
 2961SOL    HW2 9627   1.566   3.077  12.788
 2962SOL     OW 9628   0.378   3.607  12.731
 2962SOL    HW1 9629   0.290   3.643  12.718
 2962SOL    HW2 9630   0.364   3.524  12.777
 2963SOL     OW 9631   1.669   2.744  12.426
 2963SOL    HW1 9632   1.660   2.658  12.384
 2963SOL    HW2 9633   1.658   2.807  12.355
 2964SOL     OW 9634   1.216   2.182  11.630
 2964SOL    HW1 9635   1.279   2.110  11.622
 2964SOL    HW2 9636   1.245   2.231  11.707
 2965SOL     OW 9637   0.589   2.600  11.844
 2965SOL    HW1 9638   0.628   2.686  11.829
 2965SOL    HW2 9639   0.523   2.590  11.776
 2966SOL     OW 9640   1.754   2.241  12.823
 2966SOL    HW1 9641   1.744   2.244  12.728
 2966SOL    HW2 9642   1.689   2.177  12.853
 2967SOL     OW 9643   1.742   2.798  12.684
 2967SOL    HW1 9644   1.738   2.893  12.696
 2967SOL    HW2 9645   1.729   2.785  12.590
 2968SOL     OW 9646   0.865   3.229  11.211
 2968SOL    HW1 9647   0.823   3.257  11.292
 2968SOL    HW2 9648   0.879   3.310  11.161
 2969SOL     OW 9649   0.659   3.651  12.108
 2969SOL    HW1 9650   0.637   3.742  12.089
 2969SOL    HW2 9651   0.754   3.648  12.106
 2970SOL     OW 9652   0.869   2.830  12.026
 2970SOL    HW1 9653   0.919   2.758  12.065
 2970SOL    HW2 9654   0.832   2.877  12.101
 2971SOL     OW 9655   1.078   2.850  11.261
 2971SOL    HW1 9656   1.057   2.901  11.183
 2971SOL    HW2 9657   1.153   2.796  11.234
 2972SOL     OW 9658   1.851   3.412  12.014
 2972SOL    HW1 9659   1.771   3.403  11.962
 2972SOL    HW2 9660   1.841   3.351  12.086
 2973SOL     OW 9661   0.226   3.166  13.028
 2973SOL    HW1 9662   0.152   3.111  13.002
 2973SOL    HW2 9663   0.214   3.179  13.122
 2974SOL     OW 9664   0.114   3.139  11.893
 2974SOL    HW1 9665   0.133   3.089  11.973
 2974SOL    HW2 9666   0.105   3.073  11.825
 2975SOL     OW 9667   0.682   3.266  12.802
 2975SOL    HW1 9668   0.602   3.224  12.832
 2975SOL    HW2 9669   0.679   3.354  12.839
 2976SOL     OW 9670   0.441   2.296  11.706
 2976SOL    HW1 9671   0.442   2.226  11.640
 2976SOL    HW2 9672   0.385   2.262  11.776
 2977SOL     OW 9673   1.701   3.348  12.263
 2977SOL    HW1 9674   1.619   3.327  12.218
 2977SOL    HW2 9675   1.709   3.280  12.331
 2978SOL     OW 9676   0.334   2.419  12.464
 2978SOL    HW1 9677   0.389   2.362  12.518
 2978SOL    HW2 9678   0.349   2.388  12.374
 2979SOL     OW 9679   0.828   3.441  11.848
 2979SOL    HW1 9680   0.813   3.494  11.771
 2979SOL    HW2 9681   0.754   3.381  11.852
 2980SOL     OW 9682   1.435   2.090  12.293
 2980SOL    HW1 9683   1.441   2.002  12.330
 2980SOL    HW2 9684   1.381   2.139  12.356
 2981SOL     OW 9685   1.009   1.879  12.312
 2981SOL    HW1 9686   0.955   1.812  12.270
 2981SOL    HW2 9687   1.097   1.842  12.314
 2982SOL     OW 9688   0.772   3.194  11.491
 2982SOL    HW1 9689   0.742   3.103  11.496
 2982SOL    HW2 9690   0.855   3.195  11.539
 2983SOL     OW 9691   0.621   3.416  12.458
 2983SOL    HW1 9692   0.622   3.497  12.507
 2983SOL    HW2 9693   0.708   3.410  12.420
 2984SOL     OW 9694   1.352   1.913  11.339
 2984SOL    HW1 9695   1.382   1.850  11.274
 2984SOL    HW2 9696   1.264   1.884  11.363
 2985SOL     OW 9697   1.300   2.325  11.853
 2985SOL    HW1 9698   1.245   2.403  11.858
 2985SOL    HW2 9699   1.292   2.285  11.940
 2986SOL     OW 9700   1.579   2.060  12.050
 2986SOL    HW1 9701   1.535   2.084  12.131
 2986SOL    HW2 9702   1.588   2.142  12.001
 2987SOL     OW 9703   0.047   2.911  11.411
 2987SOL    HW1 9704   0.141   2.896  11.403
 2987SOL    HW2 9705   0.011   2.828  11.443
 2988SOL     OW 9706   0.886   3.520  11.515
 2988SOL    HW1 9707   0.815   3.501  11.454
 2988SOL    HW2 9708   0.854   3.595  11.565
 2989SOL     OW 9709   0.230   2.487  13.153
 2989SOL    HW1 9710   0.136   2.494  13.174
 2989SOL    HW2 9711   0.232   2.455  13.063
 2990SOL     OW 9712   0.285   2.130   0.131
 2990SOL    HW1 9713   0.327   2.198   0.184
 2990SOL    HW2 9714   0.201   2.169   0.105
 2991SOL     OW 9715   0.005   2.222  13.660
 2991SOL    HW1 9716   3.911   2.241  13.662
 2991SOL    HW2 9717   0.021   2.191  13.571
 2992SOL     OW 9718   1.524   3.359  13.727
 2992SOL    HW1 9719   1.469   3.292  13.767
 2992SOL    HW2 9720   1.479   3.381  13.645
 2993SOL     OW 9721   1.129   2.561  13.730
 2993SOL    HW1 9722   1.182   2.638  13.710
 2993SOL    HW2 9723   1.082   2.584  13.810
 2994SOL     OW 9724   1.786   2.463  13.258
 2994SOL    HW1 9725   1.755   2.459  13.168
 2994SOL    HW2 9726   1.740   2.392  13.303
 2995SOL     OW 9727   0.686   2.872  13.671
 2995SOL    HW1 9728   0.740   2.852  13.748
 2995SOL    HW2 9729   0.613   2.923  13.705
 2996SOL     OW 9730   1.612   2.305  13.735
 2996SOL    HW1 9731   1.520   2.319  13.715
 2996SOL    HW2 9732   1.628   2.356  13.814
 2997SOL     OW 9733   0.222   3.571  13.499
 2997SOL    HW1 9734   0.240   3.631  13.572
 2997SOL    HW2 9735   0.299   3.576  13.444
 2998SOL     OW 9736   0.248   3.303  13.571
 2998SOL    HW1 9737   0.222   3.394  13.560
 2998SOL    HW2 9738   0.184   3.266  13.632
 2999SOL     OW 9739   0.255   2.937   0.018
 2999SOL    HW1 9740   0.275   2.897   0.103
 2999SOL    HW2 9741   0.215   3.021   0.040
 3000SOL     OW 9742   0.577   2.848  13.170
 3000SOL    HW1 9743   0.625   2.892  13.101
 3000SOL    HW2 9744   0.618   2.878  13.251
 3001SOL     OW 9745   0.142   2.509  13.615
 3001SOL    HW1 9746   0.069   2.453  13.593
 3001SOL    HW2 9747   0.106   2.575  13.674
 3002SOL     OW 9748   1.845   3.610  13.372
 3002SOL    HW1 9749   1.912   3.587  13.436
 3002SOL    HW2 9750   1.863   3.701  13.349
 3003SOL     OW 9751   0.041   3.454  13.174
 3003SOL    HW1 9752   0.034   3.362  13.199
 3003SOL    HW2 9753   3.963   3.495  13.211
 3004SOL     OW 9754   1.687   2.778  13.668
 3004SOL    HW1 9755   1.772   2.742  13.643
 3004SOL    HW2 9756   1.662   2.834  13.595
 3005SOL     OW 9757   1.648   2.966  13.460
 3005SOL    HW1 9758   1.733   2.969  13.417
 3005SOL    HW2 9759   1.654   3.030  13.531
 3006SOL     OW 9760   0.615   3.247  13.760
 3006SOL    HW1 9761   0.564   3.168  13.778
 3006SOL    HW2 9762   0.584   3.276  13.674
 3007SOL     OW 9763   0.818   1.861  13.544
 3007SOL    HW1 9764   0.858   1.946  13.523
 3007SOL    HW2 9765   0.725   1.879  13.552
 3008SOL     OW 9766   1.531   2.856  13.233
 3008SOL    HW1 9767   1.461   2.800  13.266
 3008SOL    HW2 9768   1.571   2.892  13.312
 3009SOL     OW 9769   1.654   3.598  13.612
 3009SOL    HW1 9770   1.636   3.569  13.523
 3009SOL    HW2 9771   1.644   3.520  13.666
 3010SOL     OW 9772   0.594   2.579  13.297
 3010SOL    HW1 9773   0.601   2.663  13.252
 3010SOL    HW2 9774   0.532   2.595  13.368
 3011SOL     OW 9775   1.251   2.192   0.042
 3011SOL    HW1 9776   1.185   2.133   0.080
 3011SOL    HW2 9777   1.333   2.166   0.084
 3012SOL     OW 9778   1.578   3.540  13.340
 3012SOL    HW1 9779   1.671   3.562  13.336
 3012SOL    HW2 9780   1.554   3.519  13.250
 3013SOL     OW 9781   1.050   2.559  13.458
 3013SOL    HW1 9782   1.065   2.548  13.552
 3013SOL    HW2 9783   0.968   2.512  13.442
 3014SOL     OW 9784   0.082   2.703  13.806
 3014SOL    HW1 9785   0.163   2.686  13.854
 3014SOL    HW2 9786   0.075   2.798  13.803
 3015SOL     OW 9787   0.895   2.211  13.226
 3015SOL    HW1 9788   0.935   2.274  13.166
 3015SOL    HW2 9789   0.915   2.125  13.188
 3016SOL     OW 9790   1.365   2.997  13.553
 3016SOL    HW1 9791   1.454   2.996  13.518
 3016SOL    HW2 9792   1.321   3.068  13.505
 3017SOL     OW 9793   1.000   3.303  13.502
 3017SOL    HW1 9794   0.967   3.379  13.455
 3017SOL    HW2 9795   0.970   3.316  13.592
 3018SOL     OW 9796   0.413   3.678  13.808
 3018SOL    HW1 9797   0.425   3.586  13.834
 3018SOL    HW2 9798   0.456   3.728  13.877
 3019SOL     OW 9799   1.791   2.912  13.898
 3019SOL    HW1 9800   1.734   2.901  13.821
 3019SOL    HW2 9801   1.731   2.907   0.072
 3020SOL     OW 9802   0.311   2.816  13.277
 3020SOL    HW1 9803   0.394   2.840  13.235
 3020SOL    HW2 9804   0.298   2.724  13.254
 3021SOL     OW 9805   1.490   2.594  13.744
 3021SOL    HW1 9806   1.482   2.549  13.828
 3021SOL    HW2 9807   1.563   2.654  13.755
 3022SOL     OW 9808   1.112   3.644  13.255
 3022SOL    HW1 9809   1.050   3.597  13.310
 3022SOL    HW2 9810   1.143   3.577  13.193
 3023SOL     OW 9811   1.628   3.243  13.124
 3023SOL    HW1 9812   1.587   3.328  13.106
 3023SOL    HW2 9813   1.559   3.179  13.104
 3024SOL     OW 9814   0.467   3.600  13.353
 3024SOL    HW1 9815   0.505   3.661  13.416
 3024SOL    HW2 9816   0.541   3.572  13.299
 3025SOL     OW 9817   1.401   1.974  13.464
 3025SOL    HW1 9818   1.384   1.949  13.373
 3025SOL    HW2 9819   1.487   1.935  13.484
 3026SOL     OW 9820   0.930   3.547   0.011
 3026SOL    HW1 9821   0.948   3.478   0.075
 3026SOL    HW2 9822   0.887   3.502  13.838
 3027SOL     OW 9823   0.396   2.557  13.504
 3027SOL    HW1 9824   0.424   2.467  13.516
 3027SOL    HW2 9825   0.305   2.559  13.534
 3028SOL     OW 9826   0.641   1.981  13.131
 3028SOL    HW1 9827   0.704   1.911  13.151
 3028SOL    HW2 9828   0.592   1.949  13.056
 3029SOL     OW 9829   0.554   1.925  13.530
 3029SOL    HW1 9830   0.470   1.928  13.576
 3029SOL    HW2 9831   0.558   2.007  13.482
 3030SOL     OW 9832   1.428   3.061  13.075
 3030SOL    HW1 9833   1.458   2.985  13.125
 3030SOL    HW2 9834   1.342   3.082  13.112
 3031SOL     OW 9835   0.308   1.912  13.202
 3031SOL    HW1 9836   0.373   1.950  13.143
 3031SOL    HW2 9837   0.357   1.848  13.253
 3032SOL     OW 9838   0.940   2.106  13.494
 3032SOL    HW1 9839   0.910   2.149  13.414
 3032SOL    HW2 9840   1.034   2.124  13.497
 3033SOL     OW 9841   0.469   3.005  13.767
 3033SOL    HW1 9842   0.397   2.984  13.826
 3033SOL    HW2 9843   0.433   2.995  13.679
 3034SOL     OW 9844   1.268   3.659  13.630
 3034SOL    HW1 9845   1.313   3.726  13.579
 3034SOL    HW2 9846   1.200   3.707  13.677
 3035SOL     OW 9847   1.023   2.401  13.058
 3035SOL    HW1 9848   0.981   2.485  13.039
 3035SOL    HW2 9849   1.089   2.422  13.125
 3036SOL     OW 9850   0.894   2.332  13.672
 3036SOL    HW1 9851   0.827   2.379  13.622
 3036SOL    HW2 9852   0.900   2.246  13.629
 3037SOL     OW 9853   1.025   1.899  13.776
 3037SOL    HW1 9854   0.966   1.910  13.701
 3037SOL    HW2 9855   0.993   1.820  13.820
 3038SOL     OW 9856   1.848   2.674  13.418
 3038SOL    HW1 9857   1.906   2.624  13.475
 3038SOL    HW2 9858   1.822   2.612  13.350
 3039SOL     OW 9859   0.488   3.281  13.193
 3039SOL    HW1 9860   0.412   3.251  13.243
 3039SOL    HW2 9861   0.470   3.253  13.104
 3040SOL     OW 9862   1.683   3.133  13.663
 3040SOL    HW1 9863   1.775   3.133  13.687
 3040SOL    HW2 9864   1.647   3.213  13.701
 3041SOL     OW 9865   1.393   2.435  13.104
 3041SOL    HW1 9866   1.334   2.415  13.176
 3041SOL    HW2 9867   1.479   2.406  13.135
 3042SOL     OW 9868   0.572   2.130  13.352
 3042SOL    HW1 9869   0.604   2.082  13.276
 3042SOL    HW2 9870   0.543   2.214  13.317
 3043SOL     OW 9871   0.708   2.924  13.400
 3043SOL    HW1 9872   0.694   2.909  13.493
 3043SOL    HW2 9873   0.784   2.871  13.378
 3044SOL     OW 9874   0.372   2.965  13.516
 3044SOL    HW1 9875   0.367   3.046  13.465
 3044SOL    HW2 9876   0.370   2.896  13.450
 3045SOL     OW 9877   0.569   2.405  13.870
 3045SOL    HW1 9878   0.578   2.469  13.799
 3045SOL    HW2 9879   0.632   2.434   0.036
 3046SOL     OW 9880   1.246   3.214  13.418
 3046SOL    HW1 9881   1.301   3.287  13.446
 3046SOL    HW2 9882   1.159   3.234  13.454
 3047SOL     OW 9883   1.577   2.495  13.492
 3047SOL    HW1 9884   1.537   2.527  13.573
 3047SOL    HW2 9885   1.622   2.571  13.455
 3048SOL     OW 9886   1.202   2.390  13.298
 3048SOL    HW1 9887   1.210   2.312  13.353
 3048SOL    HW2 9888   1.159   2.455  13.354
 3049SOL     OW 9889   0.303   1.922  13.641
 3049SOL    HW1 9890   0.291   2.012  13.669
 3049SOL    HW2 9891   0.320   1.874  13.722
 3050SOL     OW 9892   1.614   2.243  13.405
 3050SOL    HW1 9893   1.606   2.188  13.483
 3050SOL    HW2 9894   1.591   2.331  13.436
 3051SOL     OW 9895   1.530   2.132  13.163
 3051SOL    HW1 9896   1.463   2.069  13.190
 3051SOL    HW2 9897   1.561   2.170  13.245
 3052SOL     OW 9898   1.289   2.687  13.063
 3052SOL    HW1 9899   1.332   2.602  13.067
 3052SOL    HW2 9900   1.321   2.727  12.982
 3053SOL     OW 9901   3.999   3.181  13.215
 3053SOL    HW1 9902   3.905   3.197  13.219
 3053SOL    HW2 9903   0.009   3.087  13.232
 3054SOL     OW 9904   0.818   2.433  13.388
 3054SOL    HW1 9905   0.820   2.356  13.332
 3054SOL    HW2 9906   0.742   2.483  13.357
 3055SOL     OW 9907   0.455   2.351  13.227
 3055SOL    HW1 9908   0.520   2.419  13.246
 3055SOL    HW2 9909   0.375   2.400  13.206
 3056SOL     OW 9910   1.314   2.716  13.337
 3056SOL    HW1 9911   1.238   2.689  13.389
 3056SOL    HW2 9912   1.287   2.703  13.246
 3057SOL     OW 9913   1.383   3.436  13.507
 3057SOL    HW1 9914   1.443   3.474  13.443
 3057SOL    HW2 9915   1.338   3.512  13.544
 3058SOL     OW 9916   1.288   2.776  13.685
 3058SOL    HW1 9917   1.365   2.720  13.671
 3058SOL    HW2 9918   1.311   2.859  13.644
 3059SOL     OW 9919   0.674   3.479  13.191
 3059SOL    HW1 9920   0.683   3.495  13.097
 3059SOL    HW2 9921   0.616   3.403  13.197
 3060SOL     OW 9922   0.282   2.172  13.738
 3060SOL    HW1 9923   0.199   2.216  13.722
 3060SOL    HW2 9924   0.291   2.172  13.834
 3061SOL     OW 9925   1.208   3.466  13.069
 3061SOL    HW1 9926   1.197   3.374  13.093
 3061SOL    HW2 9927   1.147   3.480  12.997
 3062SOL     OW 9928   0.918   2.774  13.328
 3062SOL    HW1 9929   0.977   2.805  13.259
 3062SOL    HW2 9930   0.965   2.702  13.370
 3063SOL     OW 9931   1.490   3.490  13.076
 3063SOL    HW1 9932   1.396   3.480  13.060
 3063SOL    HW2 9933   1.528   3.496  12.989
 3064SOL     OW 9934   1.050   2.953  13.755
 3064SOL    HW1 9935   0.964   2.914  13.742
 3064SOL    HW2 9936   1.105   2.912  13.687
 3065SOL     OW 9937   0.602   3.356  13.505
 3065SOL    HW1 9938   0.647   3.304  13.439
 3065SOL    HW2 9939   0.530   3.399  13.458
 3066SOL     OW 9940   0.252   3.202  13.324
 3066SOL    HW1 9941   0.159   3.211  13.305
 3066SOL    HW2 9942   0.263   3.240  13.411
 3067SOL     OW 9943   0.080   2.176  13.072
 3067SOL    HW1 9944   3.985   2.176  13.079
 3067SOL    HW2 9945   0.101   2.256  13.025
 3068SOL     OW 9946   0.020   2.102  13.411
 3068SOL    HW1 9947   0.047   2.160  13.340
 3068SOL    HW2 9948   0.099   2.055  13.435
 3069SOL     OW 9949   1.178   3.199  13.149
 3069SOL    HW1 9950   1.086   3.171  13.151
 3069SOL    HW2 9951   1.205   3.200  13.241
 3070SOL     OW 9952   1.216   2.182  13.490
 3070SOL    HW1 9953   1.279   2.110  13.482
 3070SOL    HW2 9954   1.245   2.231  13.567
 3071SOL     OW 9955   0.593   2.611  13.692
 3071SOL    HW1 9956   0.627   2.698  13.674
 3071SOL    HW2 9957   0.523   2.599  13.627
 3072SOL     OW 9958   0.865   3.228  13.071
 3072SOL    HW1 9959   0.824   3.255  13.154
 3072SOL    HW2 9960   0.879   3.310  13.024
 3073SOL     OW 9961   0.657   3.712   0.069
 3073SOL    HW1 9962   0.654   3.805   0.090
 3073SOL    HW2 9963   0.749   3.688   0.079
 3074SOL     OW 9964   0.827   2.826  13.896
 3074SOL    HW1 9965   0.859   2.744   0.033
 3074SOL    HW2 9966   0.854   2.893   0.059
 3075SOL     OW 9967   1.076   2.848  13.122
 3075SOL    HW1 9968   1.056   2.901  13.045
 3075SOL    HW2 9969   1.152   2.795  13.096
 3076SOL     OW 9970   0.115   3.136  13.758
 3076SOL    HW1 9971   0.052   3.093  13.816
 3076SOL    HW2 9972   0.122   3.076  13.683
 3077SOL     OW 9973   0.446   2.300  13.557
 3077SOL    HW1 9974   0.452   2.227  13.495
 3077SOL    HW2 9975   0.402   2.264  13.633
 3078SOL     OW 9976   1.680   3.321   0.345
 3078SOL    HW1 9977   1.650   3.300   0.256
 3078SOL    HW2 9978   1.768   3.284   0.350
 3079SOL     OW 9979   0.820   3.415  13.706
 3079SOL    HW1 9980   0.791   3.465  13.629
 3079SOL    HW2 9981   0.746   3.357  13.725
 3080SOL     OW 9982   0.772   3.195  13.348
 3080SOL    HW1 9983   0.743   3.104  13.355
 3080SOL    HW2 9984   0.854   3.198  13.398
 3081SOL     OW 9985   1.352   1.913  13.201
 3081SOL    HW1 9986   1.380   1.851  13.134
 3081SOL    HW2 9987   1.264   1.884  13.225
 3082SOL     OW 9988   1.305   2.323  13.711
 3082SOL    HW1 9989   1.250   2.402  13.716
 3082SOL    HW2 9990   1.287   2.277  13.793
 3083SOL     OW 9991   0.047   2.911  13.269
 3083SOL    HW1 9992   0.141   2.896  13.262
 3083SOL    HW2 9993   0.011   2.830  13.303
 3084SOL     OW 9994   0.886   3.520  13.377
 3084SOL    HW1 9995   0.814   3.502  13.317
 3084SOL    HW2 9996   0.856   3.594  13.430
 3085SOL     OW 9997   0.233   3.946   0.966
 3085SOL    HW1 9998   0.253   3.959   1.059
 3085SOL    HW2 9999   0.140   3.966   0.958
 3086SOL     OW10000   0.017   0.098   0.634
 3086SOL    HW110001   3.928   0.084   0.666
 3086SOL    HW210002   0.020   0.054   0.549
 3087SOL     OW10003   1.808   0.356   0.272
 3087SOL    HW110004   1.785   0.314   0.190
 3087SOL    HW210005   1.725   0.360   0.321
 3088SOL     OW10006   0.440   0.098   1.510
 3088SOL    HW110007   0.511   0.059   1.459
 3088SOL    HW210008   0.363   0.047   1.487
 3089SOL     OW10009   1.596   3.849   1.462
 3089SOL    HW110010   1.602   3.934   1.419
 3089SOL    HW210011   1.579   3.870   1.554
 3090SOL     OW10012   0.806   3.727   0.507
 3090SOL    HW110013   0.834   3.818   0.497
 3090SOL    HW210014   0.711   3.732   0.516
 3091SOL     OW10015   1.268   0.062   0.936
 3091SOL    HW110016   1.196   0.008   0.905
 3091SOL    HW210017   1.324   0.002   0.986
 3092SOL     OW10018   0.554   3.904   0.890
 3092SOL    HW110019   0.551   3.926   0.984
 3092SOL    HW210020   0.548   3.989   0.846
 3093SOL     OW10021   0.192   3.980   1.498
 3093SOL    HW110022   0.103   0.015   1.501
 3093SOL    HW210023   0.187   3.899   1.549
 3094SOL     OW10024   1.409   3.838   0.430
 3094SOL    HW110025   1.403   3.796   0.344
 3094SOL    HW210026   1.501   3.828   0.455
 3095SOL     OW10027   1.533   3.939   1.722
 3095SOL    HW110028   1.559   3.942   1.814
 3095SOL    HW210029   1.465   3.872   1.718
 3096SOL     OW10030   0.772   3.956   1.743
 3096SOL    HW110031   0.829   3.929   1.815
 3096SOL    HW210032   0.687   3.972   1.785
 3097SOL     OW10033   0.535   3.783   0.514
 3097SOL    HW110034   0.480   3.783   0.593
 3097SOL    HW210035   0.546   3.876   0.494
 3098SOL     OW10036   0.265   3.736   0.183
 3098SOL    HW110037   0.299   3.825   0.173
 3098SOL    HW210038   0.337   3.688   0.225
 3099SOL     OW10039   0.563   3.944   1.167
 3099SOL    HW110040   0.604   3.872   1.215
 3099SOL    HW210041   0.471   3.942   1.195
 3100SOL     OW10042   1.020   3.767   0.735
 3100SOL    HW110043   0.955   3.756   0.667
 3100SOL    HW210044   0.997   3.702   0.802
 3101SOL     OW10045   0.924   3.803   1.398
 3101SOL    HW110046   0.952   3.782   1.309
 3101SOL    HW210047   0.996   3.852   1.436
 3102SOL     OW10048   1.266   0.075   1.265
 3102SOL    HW110049   1.280   0.143   1.331
 3102SOL    HW210050   1.199   0.110   1.208
 3103SOL     OW10051   0.506   3.751   1.756
 3103SOL    HW110052   0.453   3.705   1.691
 3103SOL    HW210053   0.476   3.841   1.753
 3104SOL     OW10054   0.304   3.924   1.255
 3104SOL    HW110055   0.258   3.942   1.337
 3104SOL    HW210056   0.288   3.831   1.238
 3105SOL     OW10057   1.597   3.938   0.156
 3105SOL    HW110058   1.517   3.885   0.158
 3105SOL    HW210059   1.569   0.025   0.185
 3106SOL     OW10060   1.164   3.922   1.474
 3106SOL    HW110061   1.168   3.997   1.534
 3106SOL    HW210062   1.205   3.954   1.393
 3107SOL     OW10063   0.921   3.825   0.150
 3107SOL    HW110064   0.951   3.816   0.060
 3107SOL    HW210065   0.980   3.769   0.201
 3108SOL     OW10066   1.708   3.858   0.512
 3108SOL    HW110067   1.787   3.848   0.459
 3108SOL    HW210068   1.698   3.773   0.556
 3109SOL     OW10069   1.836   3.881   0.971
 3109SOL    HW110070   1.871   3.798   0.938
 3109SOL    HW210071   1.755   3.894   0.921
 3110SOL     OW10072   0.676   3.909   1.490
 3110SOL    HW110073   0.759   3.902   1.443
 3110SOL    HW210074   0.702   3.931   1.580
 3111SOL     OW10075   0.045   0.017   0.041
 3111SOL    HW110076   3.957   0.020   0.004
 3111SOL    HW210077   0.087   0.096   0.008
 3112SOL     OW10078   0.125   3.932   0.375
 3112SOL    HW110079   0.073   3.975   0.307
 3112SOL    HW210080   0.166   3.858   0.330
 3113SOL     OW10081   1.192   0.011   0.464
 3113SOL    HW110082   1.256   3.940   0.467
 3113SOL    HW210083   1.212   0.064   0.541
 3114SOL     OW10084   1.786   0.041   1.640
 3114SOL    HW110085   1.759   0.075   1.555
 3114SOL    HW210086   1.706   0.004   1.677
 3115SOL     OW10087   1.816   3.913   1.238
 3115SOL    HW110088   1.822   3.822   1.268
 3115SOL    HW210089   1.822   3.908   1.143
 3116SOL     OW10090   1.439   3.933   1.117
 3116SOL    HW110091   1.472   3.855   1.162
 3116SOL    HW210092   1.380   3.974   1.180
 3117SOL     OW10093   1.015   3.736   1.148
 3117SOL    HW110094   0.958   3.681   1.095
 3117SOL    HW210095   1.101   3.694   1.143
 3118SOL     OW10096   1.352   3.783   0.151
 3118SOL    HW110097   1.390   3.712   0.099
 3118SOL    HW210098   1.269   3.748   0.183
 3119SOL     OW10099   1.283   0.163   0.680
 3119SOL    HW110100   1.280   0.258   0.688
 3119SOL    HW210101   1.288   0.131   0.770
 3120SOL     OW10102   1.580   3.927   0.880
 3120SOL    HW110103   1.530   3.932   0.961
 3120SOL    HW210104   1.581   0.017   0.846
 3121SOL     OW10105   0.234   3.947   2.826
 3121SOL    HW110106   0.254   3.960   2.919
 3121SOL    HW210107   0.140   3.965   2.820
 3122SOL     OW10108   0.011   0.105   2.488
 3122SOL    HW110109   3.927   0.089   2.530
 3122SOL    HW210110   0.011   0.046   2.412
 3123SOL     OW10111   1.777   0.320   2.052
 3123SOL    HW110112   1.703   0.297   1.995
 3123SOL    HW210113   1.737   0.337   2.137
 3124SOL     OW10114   0.440   0.098   3.372
 3124SOL    HW110115   0.511   0.059   3.321
 3124SOL    HW210116   0.363   0.047   3.349
 3125SOL     OW10117   1.596   3.849   3.324
 3125SOL    HW110118   1.602   3.934   3.281
 3125SOL    HW210119   1.579   3.869   3.416
 3126SOL     OW10120   0.805   3.729   2.367
 3126SOL    HW110121   0.832   3.820   2.361
 3126SOL    HW210122   0.710   3.732   2.377
 3127SOL     OW10123   1.267   0.062   2.801
 3127SOL    HW110124   1.196   0.008   2.767
 3127SOL    HW210125   1.324   0.002   2.849
 3128SOL     OW10126   0.554   3.905   2.752
 3128SOL    HW110127   0.551   3.925   2.846
 3128SOL    HW210128   0.550   3.990   2.709
 3129SOL     OW10129   0.192   3.980   3.360
 3129SOL    HW110130   0.103   0.015   3.362
 3129SOL    HW210131   0.187   3.899   3.410
 3130SOL     OW10132   1.407   3.832   2.293
 3130SOL    HW110133   1.398   3.799   2.204
 3130SOL    HW210134   1.500   3.825   2.313
 3131SOL     OW10135   1.533   3.939   3.584
 3131SOL    HW110136   1.559   3.942   3.676
 3131SOL    HW210137   1.465   3.872   3.580
 3132SOL     OW10138   0.626   3.850   1.987
 3132SOL    HW110139   0.717   3.821   1.989
 3132SOL    HW210140   0.587   3.801   1.915
 3133SOL     OW10141   0.772   3.956   3.605
 3133SOL    HW110142   0.829   3.929   3.677
 3133SOL    HW210143   0.687   3.972   3.647
 3134SOL     OW10144   0.534   3.786   2.375
 3134SOL    HW110145   0.482   3.787   2.455
 3134SOL    HW210146   0.544   3.878   2.351
 3135SOL     OW10147   0.287   3.758   2.039
 3135SOL    HW110148   0.330   3.843   2.028
 3135SOL    HW210149   0.353   3.703   2.081
 3136SOL     OW10150   0.563   3.943   3.029
 3136SOL    HW110151   0.604   3.872   3.078
 3136SOL    HW210152   0.471   3.942   3.057
 3137SOL     OW10153   1.020   3.767   2.598
 3137SOL    HW110154   0.955   3.755   2.529
 3137SOL    HW210155   0.997   3.702   2.664
 3138SOL     OW10156   0.924   3.803   3.260
 3138SOL    HW110157   0.952   3.783   3.171
 3138SOL    HW210158   0.996   3.852   3.298
 3139SOL     OW10159   1.267   0.075   3.127
 3139SOL    HW110160   1.281   0.143   3.193
 3139SOL    HW210161   1.200   0.110   3.069
 3140SOL     OW10162   0.507   3.751   3.618
 3140SOL    HW110163   0.453   3.705   3.553
 3140SOL    HW210164   0.476   3.841   3.615
 3141SOL     OW10165   0.304   3.924   3.117
 3141SOL    HW110166   0.258   3.942   3.199
 3141SOL    HW210167   0.288   3.831   3.100
 3142SOL     OW10168   1.577   3.954   1.982
 3142SOL    HW110169   1.517   3.898   2.031
 3142SOL    HW210170   1.606   0.020   2.045
 3143SOL     OW10171   1.164   3.922   3.335
 3143SOL    HW110172   1.168   3.996   3.396
 3143SOL    HW210173   1.205   3.954   3.255
 3144SOL     OW10174   0.900   3.812   1.966
 3144SOL    HW110175   0.960   3.772   1.903
 3144SOL    HW210176   0.941   3.795   2.051
 3145SOL     OW10177   1.711   3.857   2.361
 3145SOL    HW110178   1.789   3.843   2.307
 3145SOL    HW210179   1.700   3.774   2.409
 3146SOL     OW10180   1.835   3.881   2.834
 3146SOL    HW110181   1.871   3.798   2.801
 3146SOL    HW210182   1.755   3.895   2.784
 3147SOL     OW10183   0.676   3.909   3.352
 3147SOL    HW110184   0.759   3.902   3.305
 3147SOL    HW210185   0.702   3.931   3.442
 3148SOL     OW10186   0.071   0.027   1.846
 3148SOL    HW110187   3.977   0.027   1.864
 3148SOL    HW210188   0.100   0.113   1.875
 3149SOL     OW10189   0.106   3.915   2.231
 3149SOL    HW110190   0.081   3.998   2.190
 3149SOL    HW210191   0.186   3.889   2.185
 3150SOL     OW10192   1.193   0.011   2.329
 3150SOL    HW110193   1.261   3.945   2.327
 3150SOL    HW210194   1.214   0.066   2.404
 3151SOL     OW10195   1.786   0.041   3.502
 3151SOL    HW110196   1.760   0.075   3.417
 3151SOL    HW210197   1.705   0.004   3.539
 3152SOL     OW10198   1.816   3.913   3.101
 3152SOL    HW110199   1.822   3.822   3.130
 3152SOL    HW210200   1.822   3.908   3.005
 3153SOL     OW10201   1.439   3.932   2.979
 3153SOL    HW110202   1.472   3.855   3.025
 3153SOL    HW210203   1.380   3.974   3.042
 3154SOL     OW10204   1.015   3.736   3.010
 3154SOL    HW110205   0.958   3.681   2.957
 3154SOL    HW210206   1.101   3.694   3.005
 3155SOL     OW10207   1.353   3.770   2.024
 3155SOL    HW110208   1.386   3.702   1.965
 3155SOL    HW210209   1.266   3.741   2.049
 3156SOL     OW10210   1.281   0.162   2.545
 3156SOL    HW110211   1.282   0.258   2.550
 3156SOL    HW210212   1.287   0.133   2.636
 3157SOL     OW10213   1.580   3.927   2.741
 3157SOL    HW110214   1.530   3.932   2.823
 3157SOL    HW210215   1.581   0.016   2.708
 3158SOL     OW10216   0.234   3.947   4.688
 3158SOL    HW110217   0.254   3.960   4.781
 3158SOL    HW210218   0.140   3.965   4.682
 3159SOL     OW10219   0.011   0.105   4.350
 3159SOL    HW110220   3.927   0.089   4.392
 3159SOL    HW210221   0.011   0.046   4.274
 3160SOL     OW10222   1.777   0.320   3.914
 3160SOL    HW110223   1.703   0.297   3.857
 3160SOL    HW210224   1.736   0.337   3.999
 3161SOL     OW10225   0.440   0.098   5.234
 3161SOL    HW110226   0.511   0.058   5.183
 3161SOL    HW210227   0.363   0.047   5.211
 3162SOL     OW10228   1.596   3.849   5.186
 3162SOL    HW110229   1.602   3.934   5.143
 3162SOL    HW210230   1.579   3.869   5.278
 3163SOL     OW10231   0.805   3.729   4.229
 3163SOL    HW110232   0.832   3.821   4.223
 3163SOL    HW210233   0.710   3.732   4.239
 3164SOL     OW10234   1.267   0.062   4.663
 3164SOL    HW110235   1.196   0.008   4.630
 3164SOL    HW210236   1.324   0.002   4.711
 3165SOL     OW10237   0.554   3.905   4.614
 3165SOL    HW110238   0.551   3.925   4.708
 3165SOL    HW210239   0.550   3.990   4.571
 3166SOL     OW10240   0.192   3.980   5.222
 3166SOL    HW110241   0.103   0.015   5.224
 3166SOL    HW210242   0.187   3.899   5.273
 3167SOL     OW10243   1.407   3.832   4.155
 3167SOL    HW110244   1.398   3.799   4.066
 3167SOL    HW210245   1.500   3.825   4.175
 3168SOL     OW10246   1.533   3.939   5.446
 3168SOL    HW110247   1.559   3.942   5.538
 3168SOL    HW210248   1.465   3.872   5.442
 3169SOL     OW10249   0.626   3.850   3.849
 3169SOL    HW110250   0.717   3.821   3.851
 3169SOL    HW210251   0.587   3.801   3.777
 3170SOL     OW10252   0.772   3.956   5.467
 3170SOL    HW110253   0.829   3.929   5.539
 3170SOL    HW210254   0.687   3.972   5.509
 3171SOL     OW10255   0.534   3.786   4.237
 3171SOL    HW110256   0.482   3.787   4.317
 3171SOL    HW210257   0.544   3.878   4.213
 3172SOL     OW10258   0.287   3.758   3.901
 3172SOL    HW110259   0.330   3.843   3.890
 3172SOL    HW210260   0.353   3.703   3.943
 3173SOL     OW10261   0.563   3.943   4.891
 3173SOL    HW110262   0.604   3.872   4.940
 3173SOL    HW210263   0.471   3.942   4.919
 3174SOL     OW10264   1.020   3.767   4.460
 3174SOL    HW110265   0.955   3.755   4.391
 3174SOL    HW210266   0.997   3.702   4.526
 3175SOL     OW10267   0.924   3.803   5.122
 3175SOL    HW110268   0.952   3.783   5.033
 3175SOL    HW210269   0.996   3.852   5.160
 3176SOL     OW10270   1.267   0.074   4.989
 3176SOL    HW110271   1.281   0.143   5.055
 3176SOL    HW210272   1.200   0.110   4.931
 3177SOL     OW10273   0.507   3.751   5.480
 3177SOL    HW110274   0.453   3.705   5.415
 3177SOL    HW210275   0.476   3.841   5.477
 3178SOL     OW10276   0.304   3.924   4.979
 3178SOL    HW110277   0.258   3.942   5.061
 3178SOL    HW210278   0.288   3.831   4.962
 3179SOL     OW10279   1.577   3.954   3.844
 3179SOL    HW110280   1.517   3.898   3.893
 3179SOL    HW210281   1.606   0.020   3.907
 3180SOL     OW10282   1.164   3.922   5.197
 3180SOL    HW110283   1.168   3.996   5.258
 3180SOL    HW210284   1.205   3.954   5.117
 3181SOL     OW10285   0.900   3.812   3.828
 3181SOL    HW110286   0.960   3.772   3.765
 3181SOL    HW210287   0.941   3.795   3.913
 3182SOL     OW10288   1.711   3.857   4.223
 3182SOL    HW110289   1.789   3.843   4.169
 3182SOL    HW210290   1.700   3.774   4.271
 3183SOL     OW10291   1.835   3.881   4.696
 3183SOL    HW110292   1.871   3.798   4.663
 3183SOL    HW210293   1.755   3.895   4.646
 3184SOL     OW10294   0.676   3.909   5.214
 3184SOL    HW110295   0.759   3.902   5.167
 3184SOL    HW210296   0.702   3.931   5.304
 3185SOL     OW10297   0.071   0.027   3.708
 3185SOL    HW110298   3.977   0.027   3.725
 3185SOL    HW210299   0.100   0.113   3.737
 3186SOL     OW10300   0.106   3.915   4.093
 3186SOL    HW110301   0.081   3.998   4.052
 3186SOL    HW210302   0.186   3.889   4.047
 3187SOL     OW10303   1.193   0.011   4.191
 3187SOL    HW110304   1.261   3.945   4.189
 3187SOL    HW210305   1.214   0.066   4.266
 3188SOL     OW10306   1.786   0.041   5.364
 3188SOL    HW110307   1.760   0.075   5.279
 3188SOL    HW210308   1.705   0.004   5.401
 3189SOL     OW10309   1.816   3.913   4.963
 3189SOL    HW110310   1.822   3.822   4.992
 3189SOL    HW210311   1.822   3.908   4.868
 3190SOL     OW10312   1.439   3.932   4.841
 3190SOL    HW110313   1.472   3.855   4.887
 3190SOL    HW210314   1.380   3.974   4.904
 3191SOL     OW10315   1.015   3.736   4.872
 3191SOL    HW110316   0.958   3.681   4.819
 3191SOL    HW210317   1.101   3.694   4.867
 3192SOL     OW10318   1.353   3.770   3.886
 3192SOL    HW110319   1.386   3.702   3.827
 3192SOL    HW210320   1.266   3.741   3.911
 3193SOL     OW10321   1.281   0.162   4.407
 3193SOL    HW110322   1.282   0.258   4.412
 3193SOL    HW210323   1.287   0.133   4.498
 3194SOL     OW10324   1.580   3.927   4.603
 3194SOL    HW110325   1.530   3.932   4.685
 3194SOL    HW210326   1.581   0.016   4.570
 3195SOL     OW10327   0.234   3.947   6.550
 3195SOL    HW110328   0.255   3.960   6.642
 3195SOL    HW210329   0.140   3.965   6.543
 3196SOL     OW10330   0.011   0.105   6.211
 3196SOL    HW110331   3.927   0.089   6.254
 3196SOL    HW210332   0.011   0.046   6.136
 3197SOL     OW10333   1.777   0.320   5.776
 3197SOL    HW110334   1.703   0.297   5.719
 3197SOL    HW210335   1.737   0.337   5.861
 3198SOL     OW10336   0.440   0.098   7.096
 3198SOL    HW110337   0.511   0.060   7.045
 3198SOL    HW210338   0.363   0.047   7.073
 3199SOL     OW10339   1.596   3.849   7.048
 3199SOL    HW110340   1.602   3.934   7.004
 3199SOL    HW210341   1.579   3.870   7.140
 3200SOL     OW10342   0.805   3.729   6.090
 3200SOL    HW110343   0.832   3.821   6.084
 3200SOL    HW210344   0.710   3.732   6.101
 3201SOL     OW10345   1.267   0.062   6.524
 3201SOL    HW110346   1.196   0.006   6.492
 3201SOL    HW210347   1.324   0.002   6.573
 3202SOL     OW10348   0.554   3.905   6.476
 3202SOL    HW110349   0.551   3.925   6.570
 3202SOL    HW210350   0.550   3.991   6.434
 3203SOL     OW10351   0.192   3.979   7.084
 3203SOL    HW110352   0.103   0.015   7.087
 3203SOL    HW210353   0.187   3.898   7.134
 3204SOL     OW10354   1.407   3.833   6.017
 3204SOL    HW110355   1.398   3.799   5.928
 3204SOL    HW210356   1.500   3.825   6.037
 3205SOL     OW10357   1.533   3.939   7.308
 3205SOL    HW110358   1.560   3.941   7.400
 3205SOL    HW210359   1.465   3.872   7.304
 3206SOL     OW10360   0.626   3.850   5.711
 3206SOL    HW110361   0.717   3.821   5.713
 3206SOL    HW210362   0.587   3.801   5.639
 3207SOL     OW10363   0.772   3.956   7.329
 3207SOL    HW110364   0.829   3.929   7.401
 3207SOL    HW210365   0.687   3.972   7.371
 3208SOL     OW10366   0.534   3.786   6.099
 3208SOL    HW110367   0.482   3.787   6.180
 3208SOL    HW210368   0.543   3.878   6.075
 3209SOL     OW10369   0.287   3.758   5.763
 3209SOL    HW110370   0.330   3.843   5.752
 3209SOL    HW210371   0.353   3.703   5.805
 3210SOL     OW10372   0.563   3.943   6.753
 3210SOL    HW110373   0.604   3.872   6.802
 3210SOL    HW210374   0.471   3.941   6.781
 3211SOL     OW10375   1.020   3.767   6.322
 3211SOL    HW110376   0.955   3.755   6.253
 3211SOL    HW210377   0.997   3.702   6.389
 3212SOL     OW10378   0.923   3.803   6.984
 3212SOL    HW110379   0.952   3.783   6.895
 3212SOL    HW210380   0.996   3.852   7.022
 3213SOL     OW10381   1.267   0.075   6.851
 3213SOL    HW110382   1.281   0.143   6.917
 3213SOL    HW210383   1.200   0.111   6.793
 3214SOL     OW10384   0.506   3.751   7.342
 3214SOL    HW110385   0.453   3.705   7.277
 3214SOL    HW210386   0.476   3.841   7.338
 3215SOL     OW10387   0.304   3.924   6.841
 3215SOL    HW110388   0.258   3.942   6.923
 3215SOL    HW210389   0.288   3.831   6.824
 3216SOL     OW10390   1.576   3.954   5.706
 3216SOL    HW110391   1.517   3.898   5.756
 3216SOL    HW210392   1.606   0.019   5.769
 3217SOL     OW10393   1.164   3.923   7.060
 3217SOL    HW110394   1.167   3.997   7.119
 3217SOL    HW210395   1.205   3.954   6.979
 3218SOL     OW10396   0.900   3.812   5.690
 3218SOL    HW110397   0.960   3.772   5.627
 3218SOL    HW210398   0.940   3.795   5.775
 3219SOL     OW10399   1.711   3.857   6.085
 3219SOL    HW110400   1.789   3.843   6.031
 3219SOL    HW210401   1.700   3.775   6.132
 3220SOL     OW10402   1.836   3.881   6.557
 3220SOL    HW110403   1.871   3.798   6.525
 3220SOL    HW210404   1.755   3.894   6.507
 3221SOL     OW10405   0.676   3.909   7.076
 3221SOL    HW110406   0.759   3.902   7.029
 3221SOL    HW210407   0.702   3.932   7.166
 3222SOL     OW10408   0.071   0.027   5.570
 3222SOL    HW110409   3.977   0.027   5.587
 3222SOL    HW210410   0.100   0.113   5.599
 3223SOL     OW10411   0.106   3.915   5.955
 3223SOL    HW110412   0.081   3.998   5.914
 3223SOL    HW210413   0.186   3.889   5.909
 3224SOL     OW10414   1.193   0.012   6.052
 3224SOL    HW110415   1.261   3.945   6.050
 3224SOL    HW210416   1.214   0.066   6.128
 3225SOL     OW10417   1.786   0.041   7.226
 3225SOL    HW110418   1.760   0.076   7.141
 3225SOL    HW210419   1.705   0.004   7.263
 3226SOL     OW10420   1.817   3.912   6.825
 3226SOL    HW110421   1.821   3.821   6.853
 3226SOL    HW210422   1.822   3.908   6.729
 3227SOL     OW10423   1.439   3.932   6.703
 3227SOL    HW110424   1.471   3.854   6.747
 3227SOL    HW210425   1.381   3.974   6.766
 3228SOL     OW10426   1.015   3.736   6.734
 3228SOL    HW110427   0.958   3.680   6.681
 3228SOL    HW210428   1.101   3.694   6.729
 3229SOL     OW10429   1.353   3.771   5.747
 3229SOL    HW110430   1.386   3.702   5.689
 3229SOL    HW210431   1.265   3.741   5.773
 3230SOL     OW10432   1.281   0.162   6.268
 3230SOL    HW110433   1.282   0.258   6.275
 3230SOL    HW210434   1.287   0.132   6.359
 3231SOL     OW10435   1.580   3.927   6.465
 3231SOL    HW110436   1.530   3.932   6.546
 3231SOL    HW210437   1.581   0.017   6.432
 3232SOL     OW10438   0.234   3.948   8.412
 3232SOL    HW110439   0.254   3.960   8.505
 3232SOL    HW210440   0.140   3.965   8.406
 3233SOL     OW10441   0.011   0.105   8.074
 3233SOL    HW110442   3.927   0.089   8.116
 3233SOL    HW210443   0.012   0.046   7.998
 3234SOL     OW10444   1.777   0.320   7.639
 3234SOL    HW110445   1.704   0.297   7.581
 3234SOL    HW210446   1.736   0.336   7.724
 3235SOL     OW10447   0.440   0.098   8.958
 3235SOL    HW110448   0.511   0.059   8.907
 3235SOL    HW210449   0.363   0.047   8.934
 3236SOL     OW10450   1.596   3.849   8.910
 3236SOL    HW110451   1.602   3.934   8.867
 3236SOL    HW210452   1.579   3.869   9.002
 3237SOL     OW10453   0.806   3.729   7.953
 3237SOL    HW110454   0.832   3.821   7.947
 3237SOL    HW210455   0.710   3.732   7.963
 3238SOL     OW10456   1.266   0.063   8.388
 3238SOL    HW110457   1.196   0.008   8.353
 3238SOL    HW210458   1.323   0.002   8.435
 3239SOL     OW10459   0.554   3.905   8.338
 3239SOL    HW110460   0.551   3.925   8.432
 3239SOL    HW210461   0.550   3.990   8.295
 3240SOL     OW10462   0.192   3.980   8.946
 3240SOL    HW110463   0.103   0.015   8.948
 3240SOL    HW210464   0.187   3.899   8.996
 3241SOL     OW10465   1.406   3.832   7.879
 3241SOL    HW110466   1.397   3.799   7.790
 3241SOL    HW210467   1.500   3.825   7.898
 3242SOL     OW10468   1.533   3.939   9.170
 3242SOL    HW110469   1.559   3.942   9.262
 3242SOL    HW210470   1.465   3.872   9.166
 3243SOL     OW10471   0.626   3.850   7.573
 3243SOL    HW110472   0.717   3.821   7.575
 3243SOL    HW210473   0.587   3.801   7.501
 3244SOL     OW10474   0.772   3.956   9.191
 3244SOL    HW110475   0.829   3.929   9.263
 3244SOL    HW210476   0.687   3.972   9.233
 3245SOL     OW10477   0.534   3.786   7.961
 3245SOL    HW110478   0.482   3.787   8.041
 3245SOL    HW210479   0.544   3.878   7.937
 3246SOL     OW10480   0.287   3.758   7.625
 3246SOL    HW110481   0.331   3.842   7.614
 3246SOL    HW210482   0.353   3.702   7.667
 3247SOL     OW10483   0.563   3.944   8.615
 3247SOL    HW110484   0.604   3.872   8.663
 3247SOL    HW210485   0.471   3.942   8.643
 3248SOL     OW10486   1.020   3.767   8.184
 3248SOL    HW110487   0.955   3.755   8.114
 3248SOL    HW210488   0.996   3.702   8.250
 3249SOL     OW10489   0.924   3.803   8.846
 3249SOL    HW110490   0.952   3.783   8.757
 3249SOL    HW210491   0.996   3.852   8.884
 3250SOL     OW10492   1.267   0.074   8.713
 3250SOL    HW110493   1.280   0.143   8.779
 3250SOL    HW210494   1.200   0.110   8.655
 3251SOL     OW10495   0.506   3.751   9.204
 3251SOL    HW110496   0.453   3.705   9.139
 3251SOL    HW210497   0.476   3.841   9.201
 3252SOL     OW10498   0.304   3.924   8.703
 3252SOL    HW110499   0.258   3.942   8.785
 3252SOL    HW210500   0.288   3.831   8.686
 3253SOL     OW10501   1.577   3.952   7.568
 3253SOL    HW110502   1.515   3.899   7.617
 3253SOL    HW210503   1.603   0.021   7.629
 3254SOL     OW10504   1.164   3.922   8.922
 3254SOL    HW110505   1.168   3.997   8.981
 3254SOL    HW210506   1.205   3.954   8.841
 3255SOL     OW10507   0.900   3.812   7.552
 3255SOL    HW110508   0.959   3.771   7.488
 3255SOL    HW210509   0.941   3.794   7.637
 3256SOL     OW10510   1.711   3.857   7.947
 3256SOL    HW110511   1.788   3.843   7.893
 3256SOL    HW210512   1.700   3.774   7.995
 3257SOL     OW10513   1.836   3.880   8.420
 3257SOL    HW110514   1.871   3.798   8.387
 3257SOL    HW210515   1.755   3.895   8.370
 3258SOL     OW10516   0.676   3.909   8.938
 3258SOL    HW110517   0.759   3.902   8.891
 3258SOL    HW210518   0.702   3.932   9.028
 3259SOL     OW10519   0.070   0.027   7.433
 3259SOL    HW110520   3.976   0.027   7.450
 3259SOL    HW210521   0.100   0.113   7.461
 3260SOL     OW10522   0.107   3.915   7.818
 3260SOL    HW110523   0.081   3.997   7.776
 3260SOL    HW210524   0.186   3.888   7.771
 3261SOL     OW10525   1.192   0.010   7.915
 3261SOL    HW110526   1.261   3.945   7.913
 3261SOL    HW210527   1.214   0.065   7.991
 3262SOL     OW10528   1.786   0.041   9.088
 3262SOL    HW110529   1.760   0.075   9.003
 3262SOL    HW210530   1.706   0.004   9.125
 3263SOL     OW10531   1.816   3.913   8.687
 3263SOL    HW110532   1.822   3.822   8.716
 3263SOL    HW210533   1.822   3.908   8.592
 3264SOL     OW10534   1.439   3.932   8.565
 3264SOL    HW110535   1.472   3.855   8.611
 3264SOL    HW210536   1.380   3.974   8.628
 3265SOL     OW10537   1.015   3.736   8.596
 3265SOL    HW110538   0.958   3.681   8.543
 3265SOL    HW210539   1.101   3.693   8.591
 3266SOL     OW10540   1.353   3.770   7.610
 3266SOL    HW110541   1.385   3.702   7.550
 3266SOL    HW210542   1.265   3.740   7.635
 3267SOL     OW10543   1.281   0.162   8.131
 3267SOL    HW110544   1.282   0.258   8.136
 3267SOL    HW210545   1.287   0.133   8.223
 3268SOL     OW10546   1.580   3.927   8.328
 3268SOL    HW110547   1.530   3.933   8.409
 3268SOL    HW210548   1.581   0.016   8.293
 3269SOL     OW10549   0.234   3.947  10.274
 3269SOL    HW110550   0.254   3.960  10.367
 3269SOL    HW210551   0.140   3.965  10.268
 3270SOL     OW10552   0.011   0.105   9.936
 3270SOL    HW110553   3.927   0.089   9.978
 3270SOL    HW210554   0.011   0.046   9.860
 3271SOL     OW10555   1.777   0.320   9.500
 3271SOL    HW110556   1.704   0.297   9.443
 3271SOL    HW210557   1.736   0.337   9.585
 3272SOL     OW10558   0.440   0.098  10.820
 3272SOL    HW110559   0.511   0.059  10.769
 3272SOL    HW210560   0.363   0.047  10.796
 3273SOL     OW10561   1.596   3.849  10.772
 3273SOL    HW110562   1.602   3.934  10.729
 3273SOL    HW210563   1.579   3.869  10.864
 3274SOL     OW10564   0.805   3.729   9.815
 3274SOL    HW110565   0.832   3.821   9.809
 3274SOL    HW210566   0.710   3.732   9.825
 3275SOL     OW10567   1.267   0.062  10.249
 3275SOL    HW110568   1.196   0.008  10.215
 3275SOL    HW210569   1.323   0.002  10.297
 3276SOL     OW10570   0.554   3.905  10.200
 3276SOL    HW110571   0.551   3.925  10.294
 3276SOL    HW210572   0.550   3.990  10.157
 3277SOL     OW10573   0.192   3.980  10.808
 3277SOL    HW110574   0.103   0.015  10.810
 3277SOL    HW210575   0.187   3.899  10.858
 3278SOL     OW10576   1.407   3.832   9.741
 3278SOL    HW110577   1.398   3.799   9.652
 3278SOL    HW210578   1.500   3.825   9.760
 3279SOL     OW10579   1.533   3.939  11.032
 3279SOL    HW110580   1.559   3.942  11.124
 3279SOL    HW210581   1.465   3.872  11.028
 3280SOL     OW10582   0.626   3.850   9.435
 3280SOL    HW110583   0.717   3.821   9.437
 3280SOL    HW210584   0.587   3.801   9.363
 3281SOL     OW10585   0.772   3.956  11.053
 3281SOL    HW110586   0.829   3.929  11.125
 3281SOL    HW210587   0.687   3.972  11.095
 3282SOL     OW10588   0.534   3.786   9.823
 3282SOL    HW110589   0.482   3.787   9.903
 3282SOL    HW210590   0.544   3.878   9.799
 3283SOL     OW10591   0.287   3.758   9.487
 3283SOL    HW110592   0.330   3.843   9.476
 3283SOL    HW210593   0.353   3.703   9.529
 3284SOL     OW10594   0.563   3.943  10.477
 3284SOL    HW110595   0.604   3.872  10.526
 3284SOL    HW210596   0.471   3.942  10.505
 3285SOL     OW10597   1.020   3.767  10.046
 3285SOL    HW110598   0.955   3.755   9.977
 3285SOL    HW210599   0.996   3.702  10.112
 3286SOL     OW10600   0.924   3.803  10.708
 3286SOL    HW110601   0.952   3.783  10.619
 3286SOL    HW210602   0.996   3.852  10.746
 3287SOL     OW10603   1.267   0.074  10.575
 3287SOL    HW110604   1.281   0.143  10.641
 3287SOL    HW210605   1.200   0.110  10.517
 3288SOL     OW10606   0.506   3.751  11.066
 3288SOL    HW110607   0.453   3.705  11.001
 3288SOL    HW210608   0.476   3.841  11.063
 3289SOL     OW10609   0.304   3.924  10.565
 3289SOL    HW110610   0.258   3.942  10.647
 3289SOL    HW210611   0.288   3.831  10.548
 3290SOL     OW10612   1.577   3.954   9.430
 3290SOL    HW110613   1.516   3.898   9.479
 3290SOL    HW210614   1.605   0.020   9.493
 3291SOL     OW10615   1.164   3.922  10.784
 3291SOL    HW110616   1.168   3.997  10.843
 3291SOL    HW210617   1.205   3.954  10.703
 3292SOL     OW10618   0.900   3.812   9.414
 3292SOL    HW110619   0.960   3.772   9.351
 3292SOL    HW210620   0.941   3.795   9.499
 3293SOL     OW10621   1.711   3.857   9.809
 3293SOL    HW110622   1.789   3.843   9.755
 3293SOL    HW210623   1.700   3.774   9.857
 3294SOL     OW10624   1.835   3.881  10.282
 3294SOL    HW110625   1.871   3.798  10.249
 3294SOL    HW210626   1.755   3.895  10.232
 3295SOL     OW10627   0.676   3.909  10.800
 3295SOL    HW110628   0.759   3.902  10.753
 3295SOL    HW210629   0.702   3.931  10.890
 3296SOL     OW10630   0.071   0.027   9.295
 3296SOL    HW110631   3.977   0.027   9.312
 3296SOL    HW210632   0.100   0.113   9.323
 3297SOL     OW10633   0.106   3.915   9.679
 3297SOL    HW110634   0.081   3.998   9.638
 3297SOL    HW210635   0.186   3.888   9.633
 3298SOL     OW10636   1.192   0.011   9.777
 3298SOL    HW110637   1.261   3.945   9.775
 3298SOL    HW210638   1.214   0.066   9.852
 3299SOL     OW10639   1.786   0.041  10.950
 3299SOL    HW110640   1.760   0.075  10.865
 3299SOL    HW210641   1.705   0.004  10.987
 3300SOL     OW10642   1.816   3.913  10.549
 3300SOL    HW110643   1.822   3.822  10.578
 3300SOL    HW210644   1.822   3.908  10.454
 3301SOL     OW10645   1.439   3.932  10.427
 3301SOL    HW110646   1.472   3.855  10.473
 3301SOL    HW210647   1.380   3.974  10.490
 3302SOL     OW10648   1.015   3.736  10.458
 3302SOL    HW110649   0.958   3.681  10.405
 3302SOL    HW210650   1.101   3.694  10.453
 3303SOL     OW10651   1.353   3.770   9.472
 3303SOL    HW110652   1.386   3.702   9.413
 3303SOL    HW210653   1.266   3.741   9.497
 3304SOL     OW10654   1.281   0.162   9.993
 3304SOL    HW110655   1.282   0.258   9.998
 3304SOL    HW210656   1.287   0.133  10.084
 3305SOL     OW10657   1.580   3.927  10.189
 3305SOL    HW110658   1.530   3.932  10.271
 3305SOL    HW210659   1.581   0.016  10.156
 3306SOL     OW10660   0.234   3.947  12.136
 3306SOL    HW110661   0.254   3.960  12.229
 3306SOL    HW210662   0.140   3.965  12.130
 3307SOL     OW10663   0.011   0.105  11.798
 3307SOL    HW110664   3.927   0.089  11.840
 3307SOL    HW210665   0.011   0.046  11.722
 3308SOL     OW10666   1.777   0.320  11.363
 3308SOL    HW110667   1.704   0.297  11.305
 3308SOL    HW210668   1.736   0.336  11.448
 3309SOL     OW10669   0.440   0.098  12.683
 3309SOL    HW110670   0.511   0.060  12.631
 3309SOL    HW210671   0.363   0.047  12.658
 3310SOL     OW10672   1.596   3.849  12.634
 3310SOL    HW110673   1.602   3.934  12.591
 3310SOL    HW210674   1.579   3.869  12.726
 3311SOL     OW10675   0.805   3.729  11.677
 3311SOL    HW110676   0.832   3.820  11.671
 3311SOL    HW210677   0.710   3.732  11.687
 3312SOL     OW10678   1.267   0.063  12.111
 3312SOL    HW110679   1.196   0.008  12.077
 3312SOL    HW210680   1.323   0.002  12.159
 3313SOL     OW10681   0.554   3.905  12.062
 3313SOL    HW110682   0.551   3.925  12.156
 3313SOL    HW210683   0.550   3.990  12.019
 3314SOL     OW10684   0.192   3.980  12.670
 3314SOL    HW110685   0.103   0.015  12.672
 3314SOL    HW210686   0.187   3.898  12.720
 3315SOL     OW10687   1.407   3.832  11.603
 3315SOL    HW110688   1.398   3.799  11.514
 3315SOL    HW210689   1.500   3.825  11.622
 3316SOL     OW10690   1.533   3.939  12.894
 3316SOL    HW110691   1.558   3.944  12.987
 3316SOL    HW210692   1.465   3.872  12.891
 3317SOL     OW10693   0.626   3.850  11.297
 3317SOL    HW110694   0.717   3.821  11.299
 3317SOL    HW210695   0.587   3.801  11.225
 3318SOL     OW10696   0.771   3.956  12.916
 3318SOL    HW110697   0.829   3.929  12.987
 3318SOL    HW210698   0.687   3.971  12.958
 3319SOL     OW10699   0.534   3.786  11.685
 3319SOL    HW110700   0.482   3.787  11.765
 3319SOL    HW210701   0.544   3.878  11.661
 3320SOL     OW10702   0.287   3.758  11.349
 3320SOL    HW110703   0.330   3.843  11.338
 3320SOL    HW210704   0.353   3.703  11.391
 3321SOL     OW10705   0.563   3.944  12.339
 3321SOL    HW110706   0.604   3.872  12.388
 3321SOL    HW210707   0.471   3.942  12.367
 3322SOL     OW10708   1.020   3.767  11.908
 3322SOL    HW110709   0.955   3.755  11.839
 3322SOL    HW210710   0.996   3.702  11.974
 3323SOL     OW10711   0.924   3.803  12.570
 3323SOL    HW110712   0.952   3.783  12.481
 3323SOL    HW210713   0.996   3.852  12.608
 3324SOL     OW10714   1.267   0.075  12.437
 3324SOL    HW110715   1.281   0.143  12.503
 3324SOL    HW210716   1.200   0.110  12.379
 3325SOL     OW10717   0.505   3.751  12.928
 3325SOL    HW110718   0.453   3.704  12.863
 3325SOL    HW210719   0.476   3.841  12.923
 3326SOL     OW10720   0.304   3.924  12.427
 3326SOL    HW110721   0.258   3.942  12.509
 3326SOL    HW210722   0.288   3.831  12.410
 3327SOL     OW10723   1.577   3.954  11.292
 3327SOL    HW110724   1.516   3.898  11.341
 3327SOL    HW210725   1.605   0.020  11.354
 3328SOL     OW10726   1.164   3.922  12.645
 3328SOL    HW110727   1.168   3.997  12.705
 3328SOL    HW210728   1.205   3.954  12.565
 3329SOL     OW10729   0.900   3.812  11.276
 3329SOL    HW110730   0.960   3.772  11.213
 3329SOL    HW210731   0.941   3.795  11.361
 3330SOL     OW10732   1.711   3.857  11.671
 3330SOL    HW110733   1.788   3.843  11.617
 3330SOL    HW210734   1.700   3.774  11.719
 3331SOL     OW10735   1.835   3.881  12.144
 3331SOL    HW110736   1.871   3.798  12.111
 3331SOL    HW210737   1.755   3.895  12.094
 3332SOL     OW10738   0.676   3.909  12.662
 3332SOL    HW110739   0.759   3.902  12.615
 3332SOL    HW210740   0.702   3.932  12.752
 3333SOL     OW10741   0.071   0.027  11.157
 3333SOL    HW110742   3.977   0.027  11.174
 3333SOL    HW210743   0.100   0.113  11.185
 3334SOL     OW10744   0.106   3.915  11.541
 3334SOL    HW110745   0.081   3.998  11.500
 3334SOL    HW210746   0.186   3.889  11.495
 3335SOL     OW10747   1.192   0.011  11.639
 3335SOL    HW110748   1.261   3.945  11.637
 3335SOL    HW210749   1.214   0.066  11.714
 3336SOL     OW10750   1.786   0.041  12.811
 3336SOL    HW110751   1.759   0.075  12.726
 3336SOL    HW210752   1.706   0.004  12.849
 3337SOL     OW10753   1.816   3.913  12.411
 3337SOL    HW110754   1.822   3.822  12.440
 3337SOL    HW210755   1.822   3.908  12.316
 3338SOL     OW10756   1.439   3.932  12.289
 3338SOL    HW110757   1.472   3.855  12.335
 3338SOL    HW210758   1.380   3.974  12.352
 3339SOL     OW10759   1.015   3.736  12.320
 3339SOL    HW110760   0.958   3.681  12.267
 3339SOL    HW210761   1.101   3.693  12.315
 3340SOL     OW10762   1.353   3.770  11.334
 3340SOL    HW110763   1.386   3.702  11.275
 3340SOL    HW210764   1.266   3.741  11.359
 3341SOL     OW10765   1.281   0.162  11.855
 3341SOL    HW110766   1.282   0.258  11.860
 3341SOL    HW210767   1.287   0.133  11.946
 3342SOL     OW10768   1.580   3.927  12.051
 3342SOL    HW110769   1.530   3.932  12.133
 3342SOL    HW210770   1.581   0.016  12.018
 3343SOL     OW10771   0.010   0.101  13.646
 3343SOL    HW110772   3.916   0.092  13.657
 3343SOL    HW210773   0.031   0.047  13.570
 3344SOL     OW10774   1.777   0.321  13.224
 3344SOL    HW110775   1.701   0.302  13.169
 3344SOL    HW210776   1.741   0.324  13.313
 3345SOL     OW10777   1.613   0.171  13.766
 3345SOL    HW110778   1.524   0.148  13.736
 3345SOL    HW210779   1.604   0.262  13.797
 3346SOL     OW10780   0.808   3.730  13.539
 3346SOL    HW110781   0.832   3.822  13.533
 3346SOL    HW210782   0.713   3.730  13.550
 3347SOL     OW10783   1.405   3.833  13.462
 3347SOL    HW110784   1.399   3.799  13.373
 3347SOL    HW210785   1.498   3.829  13.484
 3348SOL     OW10786   0.625   3.851  13.158
 3348SOL    HW110787   0.715   3.821  13.163
 3348SOL    HW210788   0.587   3.801  13.086
 3349SOL     OW10789   0.535   3.780  13.546
 3349SOL    HW110790   0.484   3.770  13.627
 3349SOL    HW210791   0.539   3.875  13.533
 3350SOL     OW10792   0.288   3.759  13.213
 3350SOL    HW110793   0.340   3.837  13.192
 3350SOL    HW210794   0.349   3.700  13.256
 3351SOL     OW10795   1.012   3.763  13.772
 3351SOL    HW110796   0.955   3.757  13.695
 3351SOL    HW210797   0.992   3.684  13.823
 3352SOL     OW10798   1.574   3.959  13.155
 3352SOL    HW110799   1.523   3.897  13.206
 3352SOL    HW210800   1.623   0.009  13.221
 3353SOL     OW10801   0.900   3.812  13.138
 3353SOL    HW110802   0.959   3.772  13.075
 3353SOL    HW210803   0.940   3.793  13.223
 3354SOL     OW10804   1.729   3.859  13.557
 3354SOL    HW110805   1.796   3.846  13.489
 3354SOL    HW210806   1.711   3.771  13.590
 3355SOL     OW10807   1.847   3.893   0.055
 3355SOL    HW110808   1.870   3.800   0.053
 3355SOL    HW210809   1.756   3.895   0.085
 3356SOL     OW10810   0.072   0.025  13.020
 3356SOL    HW110811   3.978   0.025  13.037
 3356SOL    HW210812   0.102   0.111  13.049
 3357SOL     OW10813   0.114   3.922  13.408
 3357SOL    HW110814   0.088   3.996  13.353
 3357SOL    HW210815   0.187   3.883  13.361
 3358SOL     OW10816   1.186   0.002  13.517
 3358SOL    HW110817   1.260   3.944  13.497
 3358SOL    HW210818   1.220   0.061  13.585
 3359SOL     OW10819   1.354   3.770  13.195
 3359SOL    HW110820   1.385   3.701  13.136
 3359SOL    HW210821   1.266   3.741  13.221
 3360SOL     OW10822   1.310   0.157  13.736
 3360SOL    HW110823   1.278   0.245  13.715
 3360SOL    HW210824   1.292   0.146  13.829
 3361SOL     OW10825   2.097   0.644   0.118
 3361SOL    HW110826   2.010   0.615   0.147
 3361SOL    HW210827   2.112   0.597   0.036
 3362SOL     OW10828   2.078   0.301   0.992
 3362SOL    HW110829   2.116   0.257   1.068
 3362SOL    HW210830   1.994   0.257   0.979
 3363SOL     OW10831   1.872   0.399   0.633
 3363SOL    HW110832   1.784   0.412   0.670
 3363SOL    HW210833   1.861   0.327   0.571
 3364SOL     OW10834   2.429   1.290   1.176
 3364SOL    HW110835   2.343   1.294   1.135
 3364SOL    HW210836   2.447   1.379   1.206
 3365SOL     OW10837   3.426   1.513   0.707
 3365SOL    HW110838   3.381   1.490   0.789
 3365SOL    HW210839   3.356   1.516   0.642
 3366SOL     OW10840   2.994   0.698   0.698
 3366SOL    HW110841   3.042   0.780   0.685
 3366SOL    HW210842   2.947   0.710   0.780
 3367SOL     OW10843   3.616   0.630   0.224
 3367SOL    HW110844   3.624   0.620   0.129
 3367SOL    HW210845   3.628   0.542   0.260
 3368SOL     OW10846   2.615   1.140   1.043
 3368SOL    HW110847   2.547   1.176   1.100
 3368SOL    HW210848   2.652   1.217   0.999
 3369SOL     OW10849   2.732   0.770   1.823
 3369SOL    HW110850   2.718   0.841   1.886
 3369SOL    HW210851   2.755   0.815   1.742
 3370SOL     OW10852   2.547   0.999   0.647
 3370SOL    HW110853   2.613   0.990   0.716
 3370SOL    HW210854   2.479   1.053   0.686
 3371SOL     OW10855   2.576   1.150   1.815
 3371SOL    HW110856   2.623   1.227   1.844
 3371SOL    HW210857   2.493   1.183   1.780
 3372SOL     OW10858   2.189   1.423   1.067
 3372SOL    HW110859   2.117   1.387   1.016
 3372SOL    HW210860   2.239   1.474   1.004
 3373SOL     OW10861   3.321   1.501   1.357
 3373SOL    HW110862   3.375   1.580   1.367
 3373SOL    HW210863   3.256   1.507   1.427
 3374SOL     OW10864   2.307   0.393   1.493
 3374SOL    HW110865   2.397   0.362   1.492
 3374SOL    HW210866   2.253   0.314   1.501
 3375SOL     OW10867   3.472   0.450   0.735
 3375SOL    HW110868   3.405   0.487   0.678
 3375SOL    HW210869   3.497   0.523   0.792
 3376SOL     OW10870   2.109   1.697   0.489
 3376SOL    HW110871   2.062   1.780   0.499
 3376SOL    HW210872   2.175   1.715   0.422
 3377SOL     OW10873   2.999   1.342   1.693
 3377SOL    HW110874   3.040   1.337   1.780
 3377SOL    HW210875   2.947   1.262   1.687
 3378SOL     OW10876   2.080   1.433   0.535
 3378SOL    HW110877   2.089   1.528   0.530
 3378SOL    HW210878   2.024   1.418   0.611
 3379SOL     OW10879   2.123   1.090   0.890
 3379SOL    HW110880   2.119   1.002   0.928
 3379SOL    HW210881   2.066   1.142   0.947
 3380SOL     OW10882   2.475   1.784   1.434
 3380SOL    HW110883   2.394   1.770   1.484
 3380SOL    HW210884   2.496   1.876   1.448
 3381SOL     OW10885   2.429   0.980   0.161
 3381SOL    HW110886   2.455   1.026   0.082
 3381SOL    HW210887   2.481   1.019   0.231
 3382SOL     OW10888   3.444   0.140   1.457
 3382SOL    HW110889   3.469   0.213   1.400
 3382SOL    HW210890   3.408   0.182   1.535
 3383SOL     OW10891   1.979   0.656   0.559
 3383SOL    HW110892   1.951   0.567   0.583
 3383SOL    HW210893   1.971   0.706   0.640
 3384SOL     OW10894   3.708   1.758   0.333
 3384SOL    HW110895   3.769   1.723   0.397
 3384SOL    HW210896   3.729   1.852   0.329
 3385SOL     OW10897   1.927   1.576   0.112
 3385SOL    HW110898   1.911   1.485   0.134
 3385SOL    HW210899   1.853   1.624   0.149
 3386SOL     OW10900   3.548   0.917   0.647
 3386SOL    HW110901   3.632   0.874   0.631
 3386SOL    HW210902   3.531   0.968   0.568
 3387SOL     OW10903   3.506   1.103   0.434
 3387SOL    HW110904   3.591   1.111   0.391
 3387SOL    HW210905   3.508   1.168   0.505
 3388SOL     OW10906   1.985   0.749   1.581
 3388SOL    HW110907   2.076   0.779   1.586
 3388SOL    HW210908   1.933   0.829   1.588
 3389SOL     OW10909   2.478   1.388   0.734
 3389SOL    HW110910   2.431   1.305   0.743
 3389SOL    HW210911   2.460   1.415   0.644
 3390SOL     OW10912   3.149   1.238   1.423
 3390SOL    HW110913   3.182   1.171   1.362
 3390SOL    HW210914   3.208   1.232   1.498
 3391SOL     OW10915   2.684   0.003   0.520
 3391SOL    HW110916   2.728   0.083   0.493
 3391SOL    HW210917   2.591   0.026   0.519
 3392SOL     OW10918   2.051   0.963   1.273
 3392SOL    HW110919   2.136   0.922   1.258
 3392SOL    HW210920   1.991   0.912   1.218
 3393SOL     OW10921   3.392   0.996   0.205
 3393SOL    HW110922   3.324   0.938   0.239
 3393SOL    HW210923   3.431   1.034   0.284
 3394SOL     OW10924   3.048   1.809   1.623
 3394SOL    HW110925   3.057   1.867   1.548
 3394SOL    HW210926   3.065   1.721   1.588
 3395SOL     OW10927   2.219   0.253   1.837
 3395SOL    HW110928   2.263   0.338   1.836
 3395SOL    HW210929   2.125   0.275   1.842
 3396SOL     OW10930   3.328   1.420   0.950
 3396SOL    HW110931   3.261   1.435   1.016
 3396SOL    HW210932   3.317   1.328   0.924
 3397SOL     OW10933   3.521   1.744   0.584
 3397SOL    HW110934   3.499   1.719   0.494
 3397SOL    HW210935   3.499   1.666   0.636
 3398SOL     OW10936   2.458   0.718   0.265
 3398SOL    HW110937   2.460   0.801   0.218
 3398SOL    HW210938   2.398   0.734   0.338
 3399SOL     OW10939   3.137   0.368   0.940
 3399SOL    HW110940   3.050   0.329   0.947
 3399SOL    HW210941   3.194   0.306   0.985
 3400SOL     OW10942   3.427   1.730   0.314
 3400SOL    HW110943   3.522   1.730   0.310
 3400SOL    HW210944   3.400   1.695   0.229
 3401SOL     OW10945   2.658   0.616   1.452
 3401SOL    HW110946   2.629   0.591   1.540
 3401SOL    HW210947   2.619   0.550   1.394
 3402SOL     OW10948   3.254   0.476   1.677
 3402SOL    HW110949   3.260   0.521   1.761
 3402SOL    HW210950   3.312   0.400   1.687
 3403SOL     OW10951   2.814   0.887   1.584
 3403SOL    HW110952   2.869   0.818   1.547
 3403SOL    HW210953   2.766   0.922   1.509
 3404SOL     OW10954   2.854   0.402   1.239
 3404SOL    HW110955   2.770   0.424   1.278
 3404SOL    HW210956   2.833   0.374   1.150
 3405SOL     OW10957   2.914   0.702   0.428
 3405SOL    HW110958   2.931   0.694   0.522
 3405SOL    HW210959   2.831   0.656   0.414
 3406SOL     OW10960   1.950   0.823   0.775
 3406SOL    HW110961   2.029   0.815   0.827
 3406SOL    HW210962   1.905   0.900   0.811
 3407SOL     OW10963   2.736   0.360   0.221
 3407SOL    HW110964   2.773   0.418   0.154
 3407SOL    HW210965   2.739   0.273   0.181
 3408SOL     OW10966   3.570   0.574   1.829
 3408SOL    HW110967   3.533   0.648   1.782
 3408SOL    HW210968   3.595   0.512   1.761
 3409SOL     OW10969   3.239   1.141   0.542
 3409SOL    HW110970   3.318   1.130   0.489
 3409SOL    HW210971   3.187   1.205   0.494
 3410SOL     OW10972   2.419   0.198   0.881
 3410SOL    HW110973   2.423   0.218   0.975
 3410SOL    HW210974   2.416   0.284   0.839
 3411SOL     OW10975   2.866   1.442   0.475
 3411SOL    HW110976   2.834   1.516   0.424
 3411SOL    HW210977   2.843   1.463   0.566
 3412SOL     OW10978   2.248   1.814   0.827
 3412SOL    HW110979   2.253   1.719   0.841
 3412SOL    HW210980   2.323   1.849   0.875
 3413SOL     OW10981   3.667   1.062   0.868
 3413SOL    HW110982   3.613   1.037   0.793
 3413SOL    HW210983   3.605   1.065   0.941
 3414SOL     OW10984   3.090   1.539   1.513
 3414SOL    HW110985   3.077   1.466   1.574
 3414SOL    HW210986   3.024   1.525   1.445
 3415SOL     OW10987   2.172   0.938   0.231
 3415SOL    HW110988   2.264   0.950   0.207
 3415SOL    HW210989   2.158   0.843   0.226
 3416SOL     OW10990   3.339   0.748   0.731
 3416SOL    HW110991   3.335   0.705   0.816
 3416SOL    HW210992   3.418   0.803   0.736
 3417SOL     OW10993   2.332   1.265   1.744
 3417SOL    HW110994   2.306   1.267   1.652
 3417SOL    HW210995   2.250   1.261   1.792
 3418SOL     OW10996   2.984   1.780   0.230
 3418SOL    HW110997   2.921   1.734   0.285
 3418SOL    HW210998   3.013   1.715   0.166
 3419SOL     OW10999   2.032   0.274   1.499
 3419SOL    HW111000   1.976   0.351   1.490
 3419SOL    HW211001   2.039   0.261   1.594
 3420SOL     OW11002   3.494   1.374   0.088
 3420SOL    HW111003   3.462   1.458   0.057
 3420SOL    HW211004   3.424   1.312   0.067
 3421SOL     OW11005   2.332   1.739   0.327
 3421SOL    HW111006   2.375   1.800   0.386
 3421SOL    HW211007   2.396   1.722   0.259
 3422SOL     OW11008   3.298   0.141   0.393
 3422SOL    HW111009   3.256   0.055   0.394
 3422SOL    HW211010   3.381   0.127   0.438
 3423SOL     OW11011   2.132   1.739   1.257
 3423SOL    HW111012   2.166   1.655   1.289
 3423SOL    HW211013   2.137   1.732   1.162
 3424SOL     OW11014   2.799   1.698   0.898
 3424SOL    HW111015   2.878   1.648   0.919
 3424SOL    HW211016   2.758   1.649   0.828
 3425SOL     OW11017   2.255   0.695   0.472
 3425SOL    HW111018   2.276   0.603   0.485
 3425SOL    HW211019   2.163   0.703   0.495
 3426SOL     OW11020   3.392   0.230   1.727
 3426SOL    HW111021   3.385   0.255   1.819
 3426SOL    HW211022   3.372   0.136   1.726
 3427SOL     OW11023   2.483   0.103   0.119
 3427SOL    HW111024   2.578   0.102   0.127
 3427SOL    HW211025   2.466   0.132   0.030
 3428SOL     OW11026   2.637   0.282   1.768
 3428SOL    HW111027   2.708   0.218   1.771
 3428SOL    HW211028   2.579   0.257   1.840
 3429SOL     OW11029   2.739   1.522   1.193
 3429SOL    HW111030   2.723   1.485   1.106
 3429SOL    HW211031   2.809   1.468   1.230
 3430SOL     OW11032   3.203   0.587   1.430
 3430SOL    HW111033   3.233   0.559   1.517
 3430SOL    HW211034   3.236   0.676   1.421
 3431SOL     OW11035   2.679   1.392   0.942
 3431SOL    HW111036   2.763   1.381   0.898
 3431SOL    HW211037   2.615   1.396   0.871
 3432SOL     OW11038   2.791   0.511   0.900
 3432SOL    HW111039   2.767   0.503   0.808
 3432SOL    HW211040   2.818   0.423   0.925
 3433SOL     OW11041   2.411   0.053   0.499
 3433SOL    HW111042   2.334   0.059   0.557
 3433SOL    HW211043   2.403   0.129   0.442
 3434SOL     OW11044   3.291   1.205   0.044
 3434SOL    HW111045   3.310   1.125   0.093
 3434SOL    HW211046   3.200   1.225   0.065
 3435SOL     OW11047   2.200   0.007   0.185
 3435SOL    HW111048   2.173   0.087   0.141
 3435SOL    HW211049   2.285   0.027   0.224
 3436SOL     OW11050   2.804   0.249   0.466
 3436SOL    HW111051   2.773   0.288   0.384
 3436SOL    HW211052   2.899   0.251   0.458
 3437SOL     OW11053   2.942   0.683   1.459
 3437SOL    HW111054   2.872   0.619   1.465
 3437SOL    HW211055   3.022   0.631   1.453
 3438SOL     OW11056   3.083   1.571   0.795
 3438SOL    HW111057   3.100   1.636   0.727
 3438SOL    HW211058   3.153   1.585   0.858
 3439SOL     OW11059   2.332   1.151   0.730
 3439SOL    HW111060   2.264   1.131   0.794
 3439SOL    HW211061   2.290   1.138   0.645
 3440SOL     OW11062   3.129   1.794   0.608
 3440SOL    HW111063   3.178   1.857   0.554
 3440SOL    HW211064   3.063   1.848   0.652
 3441SOL     OW11065   2.862   0.531   0.054
 3441SOL    HW111066   2.861   0.532  13.858
 3441SOL    HW211067   2.952   0.553   0.077
 3442SOL     OW11068   1.943   0.550   1.396
 3442SOL    HW111069   2.034   0.552   1.367
 3442SOL    HW211070   1.936   0.623   1.458
 3443SOL     OW11071   2.426   0.231   1.161
 3443SOL    HW111072   2.450   0.139   1.171
 3443SOL    HW211073   2.336   0.236   1.194
 3444SOL     OW11074   2.732   0.462   0.638
 3444SOL    HW111075   2.686   0.516   0.574
 3444SOL    HW211076   2.753   0.381   0.591
 3445SOL     OW11077   2.858   0.040   0.779
 3445SOL    HW111078   2.818   0.068   0.697
 3445SOL    HW211079   2.869   3.946   0.770
 3446SOL     OW11080   3.301   1.161   0.858
 3446SOL    HW111081   3.230   1.098   0.856
 3446SOL    HW211082   3.326   1.172   0.766
 3447SOL     OW11083   3.326   0.607   0.975
 3447SOL    HW111084   3.273   0.528   0.980
 3447SOL    HW211085   3.386   0.601   1.049
 3448SOL     OW11086   3.724   0.824   0.374
 3448SOL    HW111087   3.763   0.767   0.440
 3448SOL    HW211088   3.678   0.765   0.315
 3449SOL     OW11089   2.349   1.407   0.156
 3449SOL    HW111090   2.275   1.375   0.207
 3449SOL    HW211091   2.329   1.381   0.066
 3450SOL     OW11092   3.529   1.264   0.646
 3450SOL    HW111093   3.624   1.268   0.655
 3450SOL    HW211094   3.499   1.354   0.660
 3451SOL     OW11095   3.283   0.590   0.087
 3451SOL    HW111096   3.213   0.578   0.152
 3451SOL    HW211097   3.334   0.509   0.091
 3452SOL     OW11098   2.379   0.254   0.322
 3452SOL    HW111099   2.422   0.208   0.250
 3452SOL    HW211100   2.358   0.341   0.287
 3453SOL     OW11101   3.613   1.234   1.567
 3453SOL    HW111102   3.701   1.199   1.549
 3453SOL    HW211103   3.629   1.323   1.597
 3454SOL     OW11104   2.919   1.353   1.332
 3454SOL    HW111105   2.844   1.322   1.383
 3454SOL    HW211106   2.995   1.312   1.374
 3455SOL     OW11107   3.468   1.628   1.656
 3455SOL    HW111108   3.460   1.662   1.567
 3455SOL    HW211109   3.549   1.577   1.655
 3456SOL     OW11110   2.993   1.205   1.104
 3456SOL    HW111111   2.934   1.244   1.169
 3456SOL    HW211112   2.962   1.239   1.020
 3457SOL     OW11113   3.490   1.096   1.075
 3457SOL    HW111114   3.482   1.158   1.148
 3457SOL    HW211115   3.414   1.113   1.021
 3458SOL     OW11116   2.774   0.115   1.401
 3458SOL    HW111117   2.794   0.089   1.312
 3458SOL    HW211118   2.855   0.157   1.432
 3459SOL     OW11119   2.846   1.115   1.723
 3459SOL    HW111120   2.755   1.132   1.746
 3459SOL    HW211121   2.844   1.037   1.668
 3460SOL     OW11122   2.577   1.058   0.377
 3460SOL    HW111123   2.562   1.040   0.470
 3460SOL    HW211124   2.651   1.003   0.353
 3461SOL     OW11125   2.282   0.816   1.252
 3461SOL    HW111126   2.351   0.824   1.318
 3461SOL    HW211127   2.247   0.728   1.264
 3462SOL     OW11128   3.128   0.375   1.276
 3462SOL    HW111129   3.162   0.453   1.320
 3462SOL    HW211130   3.041   0.400   1.246
 3463SOL     OW11131   2.209   1.113   0.487
 3463SOL    HW111132   2.205   1.186   0.424
 3463SOL    HW211133   2.215   1.035   0.432
 3464SOL     OW11134   2.416   0.532   0.857
 3464SOL    HW111135   2.430   0.591   0.783
 3464SOL    HW211136   2.481   0.560   0.922
 3465SOL     OW11137   3.110   1.346   0.398
 3465SOL    HW111138   3.166   1.419   0.424
 3465SOL    HW211139   3.023   1.370   0.430
 3466SOL     OW11140   3.146   1.459   1.148
 3466SOL    HW111141   3.202   1.463   1.225
 3466SOL    HW211142   3.090   1.382   1.162
 3467SOL     OW11143   3.439   0.633   0.491
 3467SOL    HW111144   3.396   0.694   0.551
 3467SOL    HW211145   3.474   0.689   0.422
 3468SOL     OW11146   2.222   1.494   1.320
 3468SOL    HW111147   2.207   1.465   1.230
 3468SOL    HW211148   2.315   1.516   1.323
 3469SOL     OW11149   2.279   0.744   1.602
 3469SOL    HW111150   2.340   0.789   1.544
 3469SOL    HW211151   2.320   0.660   1.619
 3470SOL     OW11152   3.466   0.778   1.683
 3470SOL    HW111153   3.380   0.821   1.677
 3470SOL    HW211154   3.518   0.821   1.615
 3471SOL     OW11155   2.877   0.130   1.780
 3471SOL    HW111156   2.925   0.204   1.742
 3471SOL    HW211157   2.860   0.072   1.706
 3472SOL     OW11158   2.350   0.034   1.762
 3472SOL    HW111159   2.353   0.046   1.667
 3472SOL    HW211160   2.291   0.103   1.793
 3473SOL     OW11161   2.445   0.874   1.031
 3473SOL    HW111162   2.476   0.964   1.033
 3473SOL    HW211163   2.389   0.866   1.108
 3474SOL     OW11164   3.216   0.859   1.027
 3474SOL    HW111165   3.132   0.847   0.983
 3474SOL    HW211166   3.259   0.773   1.019
 3475SOL     OW11167   3.079   0.549   0.267
 3475SOL    HW111168   3.085   0.470   0.320
 3475SOL    HW211169   3.023   0.607   0.319
 3476SOL     OW11170   2.162   0.210   1.243
 3476SOL    HW111171   2.120   0.238   1.324
 3476SOL    HW211172   2.150   0.115   1.242
 3477SOL     OW11173   1.907   1.332   1.292
 3477SOL    HW111174   1.936   1.263   1.352
 3477SOL    HW211175   1.977   1.397   1.294
 3478SOL     OW11176   2.585   0.632   1.053
 3478SOL    HW111177   2.660   0.619   0.996
 3478SOL    HW211178   2.555   0.721   1.033
 3479SOL     OW11179   3.594   0.957   1.862
 3479SOL    HW111180   3.551   0.896   1.802
 3479SOL    HW211181   3.530   0.972   1.931
 3480SOL     OW11182   2.184   0.056   0.650
 3480SOL    HW111183   2.164   0.149   0.662
 3480SOL    HW211184   2.145   0.013   0.727
 3481SOL     OW11185   3.438   0.389   0.390
 3481SOL    HW111186   3.420   0.327   0.460
 3481SOL    HW211187   3.431   0.475   0.431
 3482SOL     OW11188   2.891   0.759   0.959
 3482SOL    HW111189   2.885   0.776   1.053
 3482SOL    HW211190   2.864   0.668   0.949
 3483SOL     OW11191   2.845   1.567   1.719
 3483SOL    HW111192   2.829   1.610   1.635
 3483SOL    HW211193   2.888   1.484   1.695
 3484SOL     OW11194   3.706   1.499   1.599
 3484SOL    HW111195   3.729   1.528   1.510
 3484SOL    HW211196   3.786   1.510   1.649
 3485SOL     OW11197   2.214   0.916   1.808
 3485SOL    HW111198   2.295   0.936   1.855
 3485SOL    HW211199   2.240   0.853   1.741
 3486SOL     OW11200   3.390   0.270   0.144
 3486SOL    HW111201   3.326   0.199   0.148
 3486SOL    HW211202   3.395   0.303   0.234
 3487SOL     OW11203   3.152   0.832   0.055
 3487SOL    HW111204   3.199   0.749   0.061
 3487SOL    HW211205   3.169   0.864  13.867
 3488SOL     OW11206   2.929   1.336   0.855
 3488SOL    HW111207   2.932   1.265   0.792
 3488SOL    HW211208   2.989   1.402   0.820
 3489SOL     OW11209   2.170   0.809   0.946
 3489SOL    HW111210   2.263   0.831   0.940
 3489SOL    HW211211   2.167   0.719   0.978
 3490SOL     OW11212   2.198   0.536   1.014
 3490SOL    HW111213   2.157   0.451   0.998
 3490SOL    HW211214   2.274   0.536   0.956
 3491SOL     OW11215   2.995   0.381   1.696
 3491SOL    HW111216   2.946   0.436   1.758
 3491SOL    HW211217   3.081   0.421   1.692
 3492SOL     OW11218   3.013   0.226   1.481
 3492SOL    HW111219   3.004   0.280   1.560
 3492SOL    HW211220   3.037   0.288   1.412
 3493SOL     OW11221   1.881   1.306   0.177
 3493SOL    HW111222   1.797   1.316   0.132
 3493SOL    HW211223   1.875   1.221   0.220
 3494SOL     OW11224   2.360   1.568   0.911
 3494SOL    HW111225   2.426   1.635   0.930
 3494SOL    HW211226   2.404   1.508   0.850
 3495SOL     OW11227   2.841   0.788   1.224
 3495SOL    HW111228   2.898   0.769   1.299
 3495SOL    HW211229   2.756   0.753   1.249
 3496SOL     OW11230   1.895   0.547   1.117
 3496SOL    HW111231   1.970   0.521   1.063
 3496SOL    HW211232   1.929   0.547   1.206
 3497SOL     OW11233   2.065   0.526   1.712
 3497SOL    HW111234   2.136   0.506   1.651
 3497SOL    HW211235   2.021   0.602   1.674
 3498SOL     OW11236   3.242   0.936   1.658
 3498SOL    HW111237   3.262   1.030   1.655
 3498SOL    HW211238   3.237   0.911   1.566
 3499SOL     OW11239   2.677   0.580   0.374
 3499SOL    HW111240   2.687   0.503   0.318
 3499SOL    HW211241   2.604   0.628   0.335
 3500SOL     OW11242   3.502   0.602   1.183
 3500SOL    HW111243   3.491   0.541   1.257
 3500SOL    HW211244   3.588   0.581   1.147
 3501SOL     OW11245   2.089   1.560   1.740
 3501SOL    HW111246   2.049   1.592   1.821
 3501SOL    HW211247   2.115   1.470   1.759
 3502SOL     OW11248   2.569   0.454   1.257
 3502SOL    HW111249   2.518   0.376   1.231
 3502SOL    HW211250   2.560   0.513   1.182
 3503SOL     OW11251   2.790   1.678   1.468
 3503SOL    HW111252   2.762   1.642   1.384
 3503SOL    HW211253   2.783   1.773   1.457
 3504SOL     OW11254   2.298   0.493   0.230
 3504SOL    HW111255   2.371   0.554   0.244
 3504SOL    HW211256   2.228   0.547   0.192
 3505SOL     OW11257   2.004   1.140   1.469
 3505SOL    HW111258   2.007   1.092   1.551
 3505SOL    HW211259   2.021   1.075   1.401
 3506SOL     OW11260   3.184   1.045   1.222
 3506SOL    HW111261   3.208   0.982   1.154
 3506SOL    HW211262   3.116   1.099   1.183
 3507SOL     OW11263   3.177   0.857   0.327
 3507SOL    HW111264   3.102   0.825   0.377
 3507SOL    HW211265   3.151   0.844   0.235
 3508SOL     OW11266   3.642   1.742   1.157
 3508SOL    HW111267   3.697   1.769   1.083
 3508SOL    HW211268   3.612   1.654   1.133
 3509SOL     OW11269   3.103   1.734   1.110
 3509SOL    HW111270   3.185   1.756   1.067
 3509SOL    HW211271   3.110   1.640   1.129
 3510SOL     OW11272   1.952   1.252   1.027
 3510SOL    HW111273   1.923   1.274   1.116
 3510SOL    HW211274   1.874   1.217   0.984
 3511SOL     OW11275   2.542   1.664   1.732
 3511SOL    HW111276   2.489   1.744   1.737
 3511SOL    HW211277   2.604   1.681   1.661
 3512SOL     OW11278   2.758   0.103   0.134
 3512SOL    HW111279   2.799   0.091   0.049
 3512SOL    HW211280   2.769   0.018   0.178
 3513SOL     OW11281   3.555   0.124   0.484
 3513SOL    HW111282   3.636   0.135   0.435
 3513SOL    HW211283   3.553   0.031   0.508
 3514SOL     OW11284   3.252   1.571   0.486
 3514SOL    HW111285   3.314   1.606   0.422
 3514SOL    HW211286   3.204   1.649   0.516
 3515SOL     OW11287   3.138   0.927   0.671
 3515SOL    HW111288   3.212   0.868   0.682
 3515SOL    HW211289   3.172   0.999   0.618
 3516SOL     OW11290   2.673   1.274   1.427
 3516SOL    HW111291   2.644   1.314   1.510
 3516SOL    HW211292   2.604   1.296   1.365
 3517SOL     OW11293   2.551   1.580   0.182
 3517SOL    HW111294   2.528   1.641   0.112
 3517SOL    HW211295   2.487   1.510   0.175
 3518SOL     OW11296   3.483   1.727   1.391
 3518SOL    HW111297   3.537   1.732   1.313
 3518SOL    HW211298   3.470   1.818   1.417
 3519SOL     OW11299   3.703   0.182   0.970
 3519SOL    HW111300   3.729   0.098   0.931
 3519SOL    HW211301   3.617   0.200   0.933
 3520SOL     OW11302   2.125   0.316   0.716
 3520SOL    HW111303   2.039   0.351   0.695
 3520SOL    HW211304   2.124   0.307   0.812
 3521SOL     OW11305   3.083   1.600   0.035
 3521SOL    HW111306   3.071   1.509   0.061
 3521SOL    HW211307   3.040   1.606  13.850
 3522SOL     OW11308   2.686   1.006   1.373
 3522SOL    HW111309   2.729   1.002   1.287
 3522SOL    HW211310   2.684   1.099   1.394
 3523SOL     OW11311   2.783   0.910   0.287
 3523SOL    HW111312   2.853   0.950   0.236
 3523SOL    HW211313   2.827   0.840   0.337
 3524SOL     OW11314   3.349   1.643   0.067
 3524SOL    HW111315   3.255   1.625   0.056
 3524SOL    HW211316   3.385   1.636  13.879
 3525SOL     OW11317   2.230   1.294   1.502
 3525SOL    HW111318   2.227   1.366   1.439
 3525SOL    HW211319   2.153   1.241   1.481
 3526SOL     OW11320   3.464   1.280   1.278
 3526SOL    HW111321   3.531   1.272   1.345
 3526SOL    HW211322   3.406   1.350   1.310
 3527SOL     OW11323   2.917   1.108   0.708
 3527SOL    HW111324   2.846   1.057   0.746
 3527SOL    HW211325   2.981   1.043   0.679
 3528SOL     OW11326   2.877   0.249   0.969
 3528SOL    HW111327   2.866   0.198   0.888
 3528SOL    HW211328   2.872   0.183   1.039
 3529SOL     OW11329   2.467   1.489   0.480
 3529SOL    HW111330   2.512   1.440   0.412
 3529SOL    HW211331   2.398   1.537   0.434
 3530SOL     OW11332   3.582   0.394   1.372
 3530SOL    HW111333   3.654   0.457   1.372
 3530SOL    HW211334   3.614   0.321   1.318
 3531SOL     OW11335   2.131   1.320   0.298
 3531SOL    HW111336   2.048   1.333   0.251
 3531SOL    HW211337   2.119   1.366   0.381
 3532SOL     OW11338   1.975   1.026   1.719
 3532SOL    HW111339   1.899   1.002   1.771
 3532SOL    HW211340   2.049   0.988   1.765
 3533SOL     OW11341   2.555   0.253   1.501
 3533SOL    HW111342   2.622   0.199   1.460
 3533SOL    HW211343   2.582   0.260   1.592
 3534SOL     OW11344   1.902   0.439   0.008
 3534SOL    HW111345   1.873   0.349   0.022
 3534SOL    HW211346   1.901   0.450  13.813
 3535SOL     OW11347   3.288   0.857   1.398
 3535SOL    HW111348   3.238   0.919   1.345
 3535SOL    HW211349   3.376   0.859   1.362
 3536SOL     OW11350   1.943   0.146   0.368
 3536SOL    HW111351   1.913   0.227   0.326
 3536SOL    HW211352   2.027   0.128   0.327
 3537SOL     OW11353   3.048   1.345   0.122
 3537SOL    HW111354   2.954   1.335   0.110
 3537SOL    HW211355   3.062   1.333   0.216
 3538SOL     OW11356   2.483   0.829   1.434
 3538SOL    HW111357   2.539   0.905   1.419
 3538SOL    HW211358   2.544   0.755   1.443
 3539SOL     OW11359   3.344   1.781   0.980
 3539SOL    HW111360   3.368   1.841   0.910
 3539SOL    HW211361   3.428   1.753   1.017
 3540SOL     OW11362   2.580   0.561   1.705
 3540SOL    HW111363   2.622   0.624   1.763
 3540SOL    HW211364   2.606   0.475   1.738
 3541SOL     OW11365   3.334   1.197   1.631
 3541SOL    HW111366   3.323   1.212   1.724
 3541SOL    HW211367   3.427   1.214   1.615
 3542SOL     OW11368   2.238   1.739   1.575
 3542SOL    HW111369   2.174   1.755   1.506
 3542SOL    HW211370   2.203   1.665   1.624
 3543SOL     OW11371   3.527   0.881   1.259
 3543SOL    HW111372   3.526   0.796   1.215
 3543SOL    HW211373   3.520   0.944   1.188
 3544SOL     OW11374   3.091   0.334   0.436
 3544SOL    HW111375   3.155   0.263   0.430
 3544SOL    HW211376   3.109   0.376   0.520
 3545SOL     OW11377   2.451   0.736   0.671
 3545SOL    HW111378   2.489   0.823   0.657
 3545SOL    HW211379   2.384   0.728   0.603
 3546SOL     OW11380   3.617   0.381   1.642
 3546SOL    HW111381   3.596   0.389   1.549
 3546SOL    HW211382   3.556   0.314   1.674
 3547SOL     OW11383   3.616   0.930   1.514
 3547SOL    HW111384   3.607   1.024   1.531
 3547SOL    HW211385   3.592   0.920   1.421
 3548SOL     OW11386   2.771   1.396   0.064
 3548SOL    HW111387   2.702   1.388   0.129
 3548SOL    HW211388   2.725   1.407  13.880
 3549SOL     OW11389   2.525   1.792   0.936
 3549SOL    HW111390   2.516   1.887   0.931
 3549SOL    HW211391   2.619   1.777   0.936
 3550SOL     OW11392   2.730   0.968   0.854
 3550SOL    HW111393   2.780   0.897   0.893
 3550SOL    HW211394   2.694   1.016   0.929
 3551SOL     OW11395   2.960   1.012   0.111
 3551SOL    HW111396   2.949   1.058   0.028
 3551SOL    HW211397   3.034   0.953   0.096
 3552SOL     OW11398   3.715   1.556   0.841
 3552SOL    HW111399   3.635   1.541   0.789
 3552SOL    HW211400   3.711   1.489   0.910
 3553SOL     OW11401   2.088   1.299   1.852
 3553SOL    HW111402   2.020   1.236   1.829
 3553SOL    HW211403   2.071   1.321   1.944
 3554SOL     OW11404   1.942   1.214   0.663
 3554SOL    HW111405   1.960   1.174   0.747
 3554SOL    HW211406   2.021   1.199   0.611
 3555SOL     OW11407   2.543   1.404   1.627
 3555SOL    HW111408   2.466   1.361   1.664
 3555SOL    HW211409   2.542   1.492   1.665
 3556SOL     OW11410   3.676   0.181   1.244
 3556SOL    HW111411   3.678   0.086   1.252
 3556SOL    HW211412   3.694   0.198   1.151
 3557SOL     OW11413   2.293   0.435   0.532
 3557SOL    HW111414   2.325   0.364   0.477
 3557SOL    HW211415   2.244   0.392   0.602
 3558SOL     OW11416   3.559   1.491   1.096
 3558SOL    HW111417   3.480   1.468   1.047
 3558SOL    HW211418   3.569   1.419   1.159
 3559SOL     OW11419   2.193   0.556   1.294
 3559SOL    HW111420   2.246   0.498   1.348
 3559SOL    HW211421   2.212   0.530   1.204
 3560SOL     OW11422   2.691   1.577   0.677
 3560SOL    HW111423   2.674   1.635   0.602
 3560SOL    HW211424   2.616   1.518   0.680
 3561SOL     OW11425   3.323   0.252   1.110
 3561SOL    HW111426   3.337   0.165   1.146
 3561SOL    HW211427   3.267   0.296   1.175
 3562SOL     OW11428   2.866   0.028   1.146
 3562SOL    HW111429   2.786   3.989   1.111
 3562SOL    HW211430   2.926   3.954   1.155
 3563SOL     OW11431   2.637   1.321   0.322
 3563SOL    HW111432   2.608   1.232   0.339
 3563SOL    HW211433   2.720   1.329   0.368
 3564SOL     OW11434   2.485   1.554   1.284
 3564SOL    HW111435   2.484   1.636   1.335
 3564SOL    HW211436   2.573   1.549   1.247
 3565SOL     OW11437   3.182   0.068   0.128
 3565SOL    HW111438   3.201   3.980   0.093
 3565SOL    HW211439   3.116   0.053   0.195
 3566SOL     OW11440   3.142   0.455   0.684
 3566SOL    HW111441   3.096   0.538   0.678
 3566SOL    HW211442   3.147   0.436   0.777
 3567SOL     OW11443   3.452   0.210   0.867
 3567SOL    HW111444   3.404   0.233   0.946
 3567SOL    HW211445   3.450   0.290   0.814
 3568SOL     OW11446   1.902   1.069   0.309
 3568SOL    HW111447   1.997   1.067   0.309
 3568SOL    HW211448   1.876   0.979   0.331
 3569SOL     OW11449   2.758   1.655   0.343
 3569SOL    HW111450   2.685   1.624   0.291
 3569SOL    HW211451   2.722   1.727   0.394
 3570SOL     OW11452   2.089   0.619   1.983
 3570SOL    HW111453   2.000   0.628   2.015
 3570SOL    HW211454   2.080   0.600   1.890
 3571SOL     OW11455   2.079   0.300   2.853
 3571SOL    HW111456   2.116   0.257   2.930
 3571SOL    HW211457   1.994   0.257   2.840
 3572SOL     OW11458   1.871   0.397   2.496
 3572SOL    HW111459   1.784   0.412   2.533
 3572SOL    HW211460   1.857   0.328   2.431
 3573SOL     OW11461   2.429   1.290   3.039
 3573SOL    HW111462   2.343   1.294   2.997
 3573SOL    HW211463   2.446   1.380   3.068
 3574SOL     OW11464   3.425   1.513   2.570
 3574SOL    HW111465   3.383   1.491   2.653
 3574SOL    HW211466   3.354   1.517   2.506
 3575SOL     OW11467   2.994   0.698   2.560
 3575SOL    HW111468   3.042   0.780   2.547
 3575SOL    HW211469   2.947   0.711   2.642
 3576SOL     OW11470   3.623   0.623   2.088
 3576SOL    HW111471   3.605   0.611   1.995
 3576SOL    HW211472   3.606   0.537   2.127
 3577SOL     OW11473   2.615   1.140   2.906
 3577SOL    HW111474   2.547   1.176   2.963
 3577SOL    HW211475   2.652   1.217   2.861
 3578SOL     OW11476   2.732   0.770   3.685
 3578SOL    HW111477   2.718   0.841   3.748
 3578SOL    HW211478   2.755   0.815   3.604
 3579SOL     OW11479   2.548   1.000   2.507
 3579SOL    HW111480   2.613   0.991   2.577
 3579SOL    HW211481   2.479   1.053   2.546
 3580SOL     OW11482   2.576   1.150   3.677
 3580SOL    HW111483   2.623   1.227   3.706
 3580SOL    HW211484   2.493   1.183   3.642
 3581SOL     OW11485   2.189   1.424   2.929
 3581SOL    HW111486   2.117   1.386   2.879
 3581SOL    HW211487   2.239   1.474   2.866
 3582SOL     OW11488   3.321   1.501   3.219
 3582SOL    HW111489   3.375   1.580   3.229
 3582SOL    HW211490   3.256   1.507   3.289
 3583SOL     OW11491   2.307   0.393   3.355
 3583SOL    HW111492   2.397   0.362   3.354
 3583SOL    HW211493   2.253   0.314   3.363
 3584SOL     OW11494   3.473   0.450   2.598
 3584SOL    HW111495   3.403   0.483   2.541
 3584SOL    HW211496   3.495   0.524   2.654
 3585SOL     OW11497   2.100   1.692   2.342
 3585SOL    HW111498   2.071   1.780   2.366
 3585SOL    HW211499   2.174   1.707   2.283
 3586SOL     OW11500   2.999   1.342   3.555
 3586SOL    HW111501   3.040   1.337   3.642
 3586SOL    HW211502   2.947   1.262   3.549
 3587SOL     OW11503   2.093   1.430   2.401
 3587SOL    HW111504   2.090   1.525   2.393
 3587SOL    HW211505   2.029   1.410   2.470
 3588SOL     OW11506   2.123   1.090   2.754
 3588SOL    HW111507   2.119   1.002   2.790
 3588SOL    HW211508   2.066   1.142   2.810
 3589SOL     OW11509   2.474   1.784   3.296
 3589SOL    HW111510   2.394   1.770   3.347
 3589SOL    HW211511   2.496   1.876   3.310
 3590SOL     OW11512   2.445   0.983   1.998
 3590SOL    HW111513   2.493   1.030   1.929
 3590SOL    HW211514   2.484   1.015   2.080
 3591SOL     OW11515   3.443   0.140   3.319
 3591SOL    HW111516   3.469   0.213   3.262
 3591SOL    HW211517   3.408   0.182   3.397
 3592SOL     OW11518   1.979   0.656   2.422
 3592SOL    HW111519   1.952   0.567   2.446
 3592SOL    HW211520   1.971   0.706   2.503
 3593SOL     OW11521   3.702   1.757   2.197
 3593SOL    HW111522   3.771   1.733   2.259
 3593SOL    HW211523   3.721   1.849   2.176
 3594SOL     OW11524   1.939   1.576   1.966
 3594SOL    HW111525   1.901   1.497   2.005
 3594SOL    HW211526   1.871   1.643   1.974
 3595SOL     OW11527   3.549   0.918   2.507
 3595SOL    HW111528   3.634   0.875   2.491
 3595SOL    HW211529   3.532   0.968   2.428
 3596SOL     OW11530   3.504   1.104   2.293
 3596SOL    HW111531   3.589   1.111   2.249
 3596SOL    HW211532   3.510   1.167   2.365
 3597SOL     OW11533   1.985   0.749   3.443
 3597SOL    HW111534   2.076   0.780   3.448
 3597SOL    HW211535   1.933   0.829   3.450
 3598SOL     OW11536   2.477   1.388   2.596
 3598SOL    HW111537   2.431   1.305   2.605
 3598SOL    HW211538   2.459   1.415   2.506
 3599SOL     OW11539   3.149   1.237   3.285
 3599SOL    HW111540   3.182   1.171   3.224
 3599SOL    HW211541   3.208   1.232   3.360
 3600SOL     OW11542   2.681   0.004   2.379
 3600SOL    HW111543   2.727   0.084   2.354
 3600SOL    HW211544   2.589   0.028   2.379
 3601SOL     OW11545   2.051   0.963   3.135
 3601SOL    HW111546   2.136   0.923   3.120
 3601SOL    HW211547   1.991   0.913   3.080
 3602SOL     OW11548   3.390   0.995   2.062
 3602SOL    HW111549   3.321   0.939   2.096
 3602SOL    HW211550   3.433   1.031   2.141
 3603SOL     OW11551   3.048   1.809   3.485
 3603SOL    HW111552   3.057   1.867   3.410
 3603SOL    HW211553   3.065   1.721   3.449
 3604SOL     OW11554   2.219   0.253   3.699
 3604SOL    HW111555   2.263   0.338   3.698
 3604SOL    HW211556   2.125   0.275   3.704
 3605SOL     OW11557   3.329   1.420   2.812
 3605SOL    HW111558   3.261   1.435   2.878
 3605SOL    HW211559   3.317   1.328   2.786
 3606SOL     OW11560   3.516   1.745   2.441
 3606SOL    HW111561   3.500   1.713   2.352
 3606SOL    HW211562   3.495   1.671   2.498
 3607SOL     OW11563   2.457   0.720   2.130
 3607SOL    HW111564   2.462   0.803   2.082
 3607SOL    HW211565   2.393   0.736   2.199
 3608SOL     OW11566   3.137   0.368   2.803
 3608SOL    HW111567   3.050   0.329   2.810
 3608SOL    HW211568   3.194   0.306   2.848
 3609SOL     OW11569   3.440   1.671   2.172
 3609SOL    HW111570   3.530   1.701   2.165
 3609SOL    HW211571   3.413   1.655   2.081
 3610SOL     OW11572   2.658   0.616   3.314
 3610SOL    HW111573   2.629   0.591   3.402
 3610SOL    HW211574   2.619   0.550   3.256
 3611SOL     OW11575   3.254   0.476   3.539
 3611SOL    HW111576   3.259   0.521   3.623
 3611SOL    HW211577   3.312   0.400   3.549
 3612SOL     OW11578   2.814   0.887   3.446
 3612SOL    HW111579   2.869   0.818   3.409
 3612SOL    HW211580   2.766   0.922   3.371
 3613SOL     OW11581   2.854   0.402   3.101
 3613SOL    HW111582   2.770   0.424   3.140
 3613SOL    HW211583   2.833   0.375   3.012
 3614SOL     OW11584   2.914   0.699   2.287
 3614SOL    HW111585   2.930   0.692   2.381
 3614SOL    HW211586   2.831   0.653   2.274
 3615SOL     OW11587   1.949   0.822   2.638
 3615SOL    HW111588   2.029   0.815   2.690
 3615SOL    HW211589   1.905   0.900   2.674
 3616SOL     OW11590   2.757   0.352   2.061
 3616SOL    HW111591   2.799   0.411   1.999
 3616SOL    HW211592   2.751   0.268   2.015
 3617SOL     OW11593   3.570   0.574   3.691
 3617SOL    HW111594   3.533   0.648   3.644
 3617SOL    HW211595   3.595   0.512   3.623
 3618SOL     OW11596   3.239   1.141   2.402
 3618SOL    HW111597   3.319   1.130   2.351
 3618SOL    HW211598   3.187   1.204   2.352
 3619SOL     OW11599   2.419   0.198   2.743
 3619SOL    HW111600   2.423   0.217   2.837
 3619SOL    HW211601   2.416   0.285   2.701
 3620SOL     OW11602   2.865   1.443   2.333
 3620SOL    HW111603   2.831   1.517   2.283
 3620SOL    HW211604   2.845   1.464   2.424
 3621SOL     OW11605   2.246   1.811   2.691
 3621SOL    HW111606   2.252   1.717   2.705
 3621SOL    HW211607   2.318   1.848   2.741
 3622SOL     OW11608   3.667   1.062   2.729
 3622SOL    HW111609   3.613   1.037   2.654
 3622SOL    HW211610   3.605   1.065   2.803
 3623SOL     OW11611   3.090   1.539   3.375
 3623SOL    HW111612   3.076   1.466   3.436
 3623SOL    HW211613   3.024   1.525   3.307
 3624SOL     OW11614   2.181   0.959   2.114
 3624SOL    HW111615   2.263   0.979   2.069
 3624SOL    HW211616   2.152   0.876   2.076
 3625SOL     OW11617   3.342   0.745   2.590
 3625SOL    HW111618   3.336   0.705   2.677
 3625SOL    HW211619   3.419   0.802   2.596
 3626SOL     OW11620   2.332   1.265   3.605
 3626SOL    HW111621   2.306   1.267   3.513
 3626SOL    HW211622   2.250   1.261   3.654
 3627SOL     OW11623   2.986   1.777   2.093
 3627SOL    HW111624   2.911   1.737   2.137
 3627SOL    HW211625   3.009   1.715   2.024
 3628SOL     OW11626   2.032   0.274   3.361
 3628SOL    HW111627   1.976   0.352   3.351
 3628SOL    HW211628   2.039   0.262   3.456
 3629SOL     OW11629   3.487   1.383   1.949
 3629SOL    HW111630   3.444   1.467   1.934
 3629SOL    HW211631   3.420   1.318   1.930
 3630SOL     OW11632   2.333   1.725   2.197
 3630SOL    HW111633   2.379   1.792   2.248
 3630SOL    HW211634   2.392   1.705   2.125
 3631SOL     OW11635   3.297   0.169   2.264
 3631SOL    HW111636   3.253   0.096   2.221
 3631SOL    HW211637   3.372   0.130   2.308
 3632SOL     OW11638   2.125   1.737   3.114
 3632SOL    HW111639   2.161   1.655   3.148
 3632SOL    HW211640   2.130   1.728   3.019
 3633SOL     OW11641   2.799   1.698   2.760
 3633SOL    HW111642   2.878   1.648   2.781
 3633SOL    HW211643   2.757   1.649   2.690
 3634SOL     OW11644   2.257   0.695   2.336
 3634SOL    HW111645   2.275   0.602   2.349
 3634SOL    HW211646   2.163   0.704   2.354
 3635SOL     OW11647   3.392   0.230   3.589
 3635SOL    HW111648   3.386   0.255   3.681
 3635SOL    HW211649   3.372   0.136   3.588
 3636SOL     OW11650   2.505   0.131   1.970
 3636SOL    HW111651   2.530   0.047   2.010
 3636SOL    HW211652   2.443   0.107   1.901
 3637SOL     OW11653   2.637   0.282   3.630
 3637SOL    HW111654   2.708   0.218   3.633
 3637SOL    HW211655   2.579   0.257   3.702
 3638SOL     OW11656   2.739   1.522   3.055
 3638SOL    HW111657   2.723   1.485   2.968
 3638SOL    HW211658   2.809   1.468   3.092
 3639SOL     OW11659   3.203   0.587   3.292
 3639SOL    HW111660   3.233   0.559   3.379
 3639SOL    HW211661   3.236   0.676   3.283
 3640SOL     OW11662   2.678   1.392   2.804
 3640SOL    HW111663   2.763   1.381   2.760
 3640SOL    HW211664   2.615   1.396   2.733
 3641SOL     OW11665   2.792   0.511   2.763
 3641SOL    HW111666   2.767   0.503   2.670
 3641SOL    HW211667   2.818   0.423   2.788
 3642SOL     OW11668   2.407   0.057   2.353
 3642SOL    HW111669   2.333   0.062   2.413
 3642SOL    HW211670   2.402   0.138   2.302
 3643SOL     OW11671   3.289   1.199   1.902
 3643SOL    HW111672   3.319   1.124   1.953
 3643SOL    HW211673   3.204   1.221   1.940
 3644SOL     OW11674   2.191   0.043   2.073
 3644SOL    HW111675   2.200   0.110   2.005
 3644SOL    HW211676   2.274   0.047   2.121
 3645SOL     OW11677   2.804   0.250   2.322
 3645SOL    HW111678   2.779   0.290   2.239
 3645SOL    HW211679   2.899   0.254   2.323
 3646SOL     OW11680   2.942   0.683   3.321
 3646SOL    HW111681   2.871   0.619   3.327
 3646SOL    HW211682   3.022   0.631   3.316
 3647SOL     OW11683   3.084   1.571   2.656
 3647SOL    HW111684   3.099   1.637   2.589
 3647SOL    HW211685   3.153   1.586   2.721
 3648SOL     OW11686   2.333   1.151   2.593
 3648SOL    HW111687   2.264   1.131   2.657
 3648SOL    HW211688   2.292   1.136   2.508
 3649SOL     OW11689   3.130   1.793   2.472
 3649SOL    HW111690   3.177   1.854   2.415
 3649SOL    HW211691   3.062   1.847   2.514
 3650SOL     OW11692   2.884   0.543   1.890
 3650SOL    HW111693   2.840   0.626   1.870
 3650SOL    HW211694   2.947   0.565   1.958
 3651SOL     OW11695   1.943   0.550   3.258
 3651SOL    HW111696   2.034   0.552   3.229
 3651SOL    HW211697   1.936   0.623   3.320
 3652SOL     OW11698   2.426   0.231   3.023
 3652SOL    HW111699   2.450   0.139   3.033
 3652SOL    HW211700   2.336   0.236   3.055
 3653SOL     OW11701   2.732   0.460   2.500
 3653SOL    HW111702   2.684   0.515   2.438
 3653SOL    HW211703   2.753   0.381   2.452
 3654SOL     OW11704   2.858   0.040   2.642
 3654SOL    HW111705   2.822   0.068   2.558
 3654SOL    HW211706   2.869   3.945   2.633
 3655SOL     OW11707   3.301   1.161   2.720
 3655SOL    HW111708   3.229   1.098   2.718
 3655SOL    HW211709   3.326   1.172   2.628
 3656SOL     OW11710   3.326   0.607   2.836
 3656SOL    HW111711   3.273   0.528   2.842
 3656SOL    HW211712   3.386   0.601   2.911
 3657SOL     OW11713   3.722   0.824   2.237
 3657SOL    HW111714   3.764   0.767   2.301
 3657SOL    HW211715   3.684   0.764   2.173
 3658SOL     OW11716   2.354   1.420   2.018
 3658SOL    HW111717   2.278   1.394   2.070
 3658SOL    HW211718   2.342   1.375   1.934
 3659SOL     OW11719   3.529   1.265   2.506
 3659SOL    HW111720   3.624   1.269   2.516
 3659SOL    HW211721   3.500   1.354   2.527
 3660SOL     OW11722   3.257   0.575   1.931
 3660SOL    HW111723   3.193   0.556   2.000
 3660SOL    HW211724   3.342   0.559   1.972
 3661SOL     OW11725   2.388   0.266   2.178
 3661SOL    HW111726   2.443   0.227   2.110
 3661SOL    HW211727   2.360   0.350   2.142
 3662SOL     OW11728   3.613   1.234   3.429
 3662SOL    HW111729   3.701   1.199   3.411
 3662SOL    HW211730   3.629   1.323   3.459
 3663SOL     OW11731   2.919   1.353   3.194
 3663SOL    HW111732   2.844   1.322   3.245
 3663SOL    HW211733   2.995   1.312   3.236
 3664SOL     OW11734   3.468   1.628   3.518
 3664SOL    HW111735   3.460   1.662   3.429
 3664SOL    HW211736   3.549   1.577   3.517
 3665SOL     OW11737   2.993   1.205   2.966
 3665SOL    HW111738   2.934   1.243   3.031
 3665SOL    HW211739   2.962   1.239   2.882
 3666SOL     OW11740   3.490   1.096   2.937
 3666SOL    HW111741   3.482   1.158   3.010
 3666SOL    HW211742   3.414   1.113   2.883
 3667SOL     OW11743   2.774   0.115   3.263
 3667SOL    HW111744   2.794   0.089   3.174
 3667SOL    HW211745   2.855   0.157   3.294
 3668SOL     OW11746   2.846   1.115   3.586
 3668SOL    HW111747   2.755   1.132   3.608
 3668SOL    HW211748   2.844   1.037   3.530
 3669SOL     OW11749   2.571   1.062   2.232
 3669SOL    HW111750   2.556   1.044   2.325
 3669SOL    HW211751   2.647   1.008   2.209
 3670SOL     OW11752   2.282   0.816   3.114
 3670SOL    HW111753   2.351   0.824   3.180
 3670SOL    HW211754   2.247   0.728   3.126
 3671SOL     OW11755   3.128   0.375   3.138
 3671SOL    HW111756   3.162   0.453   3.182
 3671SOL    HW211757   3.041   0.400   3.108
 3672SOL     OW11758   2.210   1.111   2.352
 3672SOL    HW111759   2.210   1.187   2.294
 3672SOL    HW211760   2.206   1.036   2.293
 3673SOL     OW11761   2.416   0.533   2.719
 3673SOL    HW111762   2.430   0.593   2.645
 3673SOL    HW211763   2.481   0.560   2.784
 3674SOL     OW11764   3.110   1.349   2.251
 3674SOL    HW111765   3.166   1.420   2.282
 3674SOL    HW211766   3.023   1.370   2.285
 3675SOL     OW11767   3.146   1.459   3.010
 3675SOL    HW111768   3.202   1.463   3.087
 3675SOL    HW211769   3.091   1.382   3.023
 3676SOL     OW11770   3.434   0.632   2.347
 3676SOL    HW111771   3.393   0.688   2.413
 3676SOL    HW211772   3.482   0.693   2.290
 3677SOL     OW11773   2.221   1.496   3.182
 3677SOL    HW111774   2.206   1.466   3.093
 3677SOL    HW211775   2.314   1.518   3.185
 3678SOL     OW11776   2.279   0.744   3.464
 3678SOL    HW111777   2.340   0.789   3.406
 3678SOL    HW211778   2.320   0.660   3.481
 3679SOL     OW11779   3.466   0.778   3.545
 3679SOL    HW111780   3.380   0.821   3.539
 3679SOL    HW211781   3.518   0.821   3.477
 3680SOL     OW11782   2.877   0.130   3.642
 3680SOL    HW111783   2.925   0.204   3.604
 3680SOL    HW211784   2.860   0.072   3.568
 3681SOL     OW11785   2.350   0.034   3.624
 3681SOL    HW111786   2.353   0.046   3.529
 3681SOL    HW211787   2.291   0.103   3.655
 3682SOL     OW11788   2.446   0.873   2.894
 3682SOL    HW111789   2.475   0.964   2.894
 3682SOL    HW211790   2.389   0.867   2.970
 3683SOL     OW11791   3.216   0.859   2.888
 3683SOL    HW111792   3.131   0.847   2.845
 3683SOL    HW211793   3.259   0.773   2.881
 3684SOL     OW11794   3.063   0.536   2.120
 3684SOL    HW111795   3.071   0.457   2.174
 3684SOL    HW211796   3.020   0.600   2.178
 3685SOL     OW11797   2.162   0.210   3.105
 3685SOL    HW111798   2.120   0.239   3.186
 3685SOL    HW211799   2.150   0.115   3.105
 3686SOL     OW11800   1.906   1.332   3.154
 3686SOL    HW111801   1.936   1.264   3.214
 3686SOL    HW211802   1.977   1.397   3.155
 3687SOL     OW11803   2.584   0.632   2.915
 3687SOL    HW111804   2.660   0.619   2.858
 3687SOL    HW211805   2.555   0.721   2.896
 3688SOL     OW11806   3.594   0.957   3.724
 3688SOL    HW111807   3.551   0.896   3.664
 3688SOL    HW211808   3.530   0.972   3.793
 3689SOL     OW11809   2.184   0.056   2.513
 3689SOL    HW111810   2.164   0.149   2.524
 3689SOL    HW211811   2.149   0.014   2.591
 3690SOL     OW11812   3.473   0.391   2.241
 3690SOL    HW111813   3.437   0.323   2.297
 3690SOL    HW211814   3.452   0.473   2.287
 3691SOL     OW11815   2.892   0.759   2.821
 3691SOL    HW111816   2.885   0.776   2.915
 3691SOL    HW211817   2.864   0.668   2.811
 3692SOL     OW11818   2.845   1.567   3.581
 3692SOL    HW111819   2.829   1.610   3.497
 3692SOL    HW211820   2.888   1.484   3.557
 3693SOL     OW11821   3.706   1.499   3.461
 3693SOL    HW111822   3.729   1.528   3.372
 3693SOL    HW211823   3.786   1.510   3.511
 3694SOL     OW11824   2.214   0.915   3.670
 3694SOL    HW111825   2.295   0.936   3.717
 3694SOL    HW211826   2.240   0.853   3.603
 3695SOL     OW11827   3.364   0.274   1.996
 3695SOL    HW111828   3.290   0.214   2.007
 3695SOL    HW211829   3.377   0.313   2.083
 3696SOL     OW11830   3.151   0.826   1.891
 3696SOL    HW111831   3.193   0.741   1.894
 3696SOL    HW211832   3.183   0.866   1.810
 3697SOL     OW11833   2.929   1.337   2.717
 3697SOL    HW111834   2.933   1.265   2.654
 3697SOL    HW211835   2.989   1.402   2.682
 3698SOL     OW11836   2.170   0.810   2.808
 3698SOL    HW111837   2.263   0.831   2.801
 3698SOL    HW211838   2.168   0.719   2.840
 3699SOL     OW11839   2.198   0.536   2.876
 3699SOL    HW111840   2.157   0.451   2.860
 3699SOL    HW211841   2.274   0.537   2.817
 3700SOL     OW11842   2.995   0.381   3.558
 3700SOL    HW111843   2.946   0.436   3.620
 3700SOL    HW211844   3.081   0.421   3.554
 3701SOL     OW11845   3.013   0.226   3.343
 3701SOL    HW111846   3.004   0.280   3.422
 3701SOL    HW211847   3.037   0.288   3.274
 3702SOL     OW11848   1.865   1.319   2.057
 3702SOL    HW111849   1.778   1.333   2.020
 3702SOL    HW211850   1.863   1.230   2.092
 3703SOL     OW11851   2.360   1.568   2.773
 3703SOL    HW111852   2.426   1.635   2.791
 3703SOL    HW211853   2.403   1.508   2.712
 3704SOL     OW11854   2.841   0.788   3.086
 3704SOL    HW111855   2.898   0.769   3.161
 3704SOL    HW211856   2.756   0.754   3.111
 3705SOL     OW11857   1.895   0.547   2.979
 3705SOL    HW111858   1.970   0.522   2.925
 3705SOL    HW211859   1.929   0.547   3.069
 3706SOL     OW11860   2.065   0.526   3.574
 3706SOL    HW111861   2.136   0.506   3.513
 3706SOL    HW211862   2.020   0.602   3.536
 3707SOL     OW11863   3.242   0.936   3.520
 3707SOL    HW111864   3.262   1.030   3.517
 3707SOL    HW211865   3.237   0.911   3.428
 3708SOL     OW11866   2.679   0.572   2.225
 3708SOL    HW111867   2.684   0.497   2.166
 3708SOL    HW211868   2.604   0.622   2.193
 3709SOL     OW11869   3.502   0.602   3.045
 3709SOL    HW111870   3.491   0.542   3.119
 3709SOL    HW211871   3.588   0.581   3.009
 3710SOL     OW11872   2.088   1.560   3.603
 3710SOL    HW111873   2.048   1.593   3.684
 3710SOL    HW211874   2.113   1.470   3.623
 3711SOL     OW11875   2.568   0.453   3.119
 3711SOL    HW111876   2.518   0.376   3.093
 3711SOL    HW211877   2.560   0.513   3.044
 3712SOL     OW11878   2.790   1.678   3.330
 3712SOL    HW111879   2.762   1.642   3.246
 3712SOL    HW211880   2.783   1.773   3.319
 3713SOL     OW11881   2.325   0.494   2.045
 3713SOL    HW111882   2.383   0.566   2.069
 3713SOL    HW211883   2.240   0.534   2.033
 3714SOL     OW11884   2.004   1.141   3.331
 3714SOL    HW111885   2.007   1.092   3.413
 3714SOL    HW211886   2.021   1.075   3.264
 3715SOL     OW11887   3.184   1.045   3.084
 3715SOL    HW111888   3.208   0.982   3.016
 3715SOL    HW211889   3.116   1.099   3.045
 3716SOL     OW11890   3.176   0.854   2.167
 3716SOL    HW111891   3.100   0.827   2.219
 3716SOL    HW211892   3.148   0.843   2.076
 3717SOL     OW11893   3.642   1.742   3.019
 3717SOL    HW111894   3.697   1.769   2.945
 3717SOL    HW211895   3.612   1.654   2.995
 3718SOL     OW11896   3.103   1.734   2.972
 3718SOL    HW111897   3.185   1.756   2.928
 3718SOL    HW211898   3.110   1.640   2.992
 3719SOL     OW11899   1.951   1.253   2.889
 3719SOL    HW111900   1.922   1.274   2.977
 3719SOL    HW211901   1.874   1.216   2.846
 3720SOL     OW11902   2.541   1.665   3.593
 3720SOL    HW111903   2.488   1.745   3.598
 3720SOL    HW211904   2.605   1.682   3.524
 3721SOL     OW11905   3.551   0.120   2.349
 3721SOL    HW111906   3.633   0.135   2.301
 3721SOL    HW211907   3.553   0.027   2.371
 3722SOL     OW11908   3.253   1.567   2.349
 3722SOL    HW111909   3.312   1.600   2.282
 3722SOL    HW211910   3.203   1.644   2.377
 3723SOL     OW11911   3.139   0.926   2.532
 3723SOL    HW111912   3.214   0.867   2.542
 3723SOL    HW211913   3.173   0.999   2.480
 3724SOL     OW11914   2.673   1.274   3.290
 3724SOL    HW111915   2.644   1.314   3.372
 3724SOL    HW211916   2.604   1.296   3.227
 3725SOL     OW11917   2.534   1.622   2.015
 3725SOL    HW111918   2.545   1.633   1.921
 3725SOL    HW211919   2.478   1.545   2.024
 3726SOL     OW11920   3.483   1.727   3.253
 3726SOL    HW111921   3.537   1.732   3.175
 3726SOL    HW211922   3.470   1.818   3.279
 3727SOL     OW11923   3.703   0.181   2.833
 3727SOL    HW111924   3.727   0.097   2.795
 3727SOL    HW211925   3.617   0.201   2.796
 3728SOL     OW11926   2.126   0.316   2.577
 3728SOL    HW111927   2.040   0.351   2.555
 3728SOL    HW211928   2.125   0.308   2.672
 3729SOL     OW11929   3.070   1.604   1.894
 3729SOL    HW111930   3.059   1.513   1.921
 3729SOL    HW211931   3.004   1.617   1.826
 3730SOL     OW11932   2.686   1.006   3.234
 3730SOL    HW111933   2.728   1.002   3.148
 3730SOL    HW211934   2.684   1.099   3.257
 3731SOL     OW11935   2.778   0.910   2.152
 3731SOL    HW111936   2.839   0.943   2.086
 3731SOL    HW211937   2.827   0.842   2.198
 3732SOL     OW11938   3.351   1.628   1.905
 3732SOL    HW111939   3.257   1.619   1.890
 3732SOL    HW211940   3.389   1.634   1.817
 3733SOL     OW11941   2.230   1.295   3.364
 3733SOL    HW111942   2.227   1.367   3.301
 3733SOL    HW211943   2.153   1.242   3.342
 3734SOL     OW11944   3.464   1.280   3.140
 3734SOL    HW111945   3.531   1.272   3.207
 3734SOL    HW211946   3.406   1.350   3.172
 3735SOL     OW11947   2.918   1.109   2.570
 3735SOL    HW111948   2.846   1.058   2.608
 3735SOL    HW211949   2.980   1.043   2.540
 3736SOL     OW11950   2.877   0.249   2.831
 3736SOL    HW111951   2.867   0.198   2.750
 3736SOL    HW211952   2.872   0.183   2.901
 3737SOL     OW11953   2.466   1.491   2.342
 3737SOL    HW111954   2.508   1.441   2.273
 3737SOL    HW211955   2.397   1.540   2.298
 3738SOL     OW11956   3.582   0.394   3.234
 3738SOL    HW111957   3.654   0.457   3.234
 3738SOL    HW211958   3.614   0.321   3.180
 3739SOL     OW11959   2.122   1.342   2.151
 3739SOL    HW111960   2.029   1.340   2.128
 3739SOL    HW211961   2.124   1.378   2.239
 3740SOL     OW11962   1.975   1.026   3.581
 3740SOL    HW111963   1.899   1.002   3.633
 3740SOL    HW211964   2.049   0.988   3.627
 3741SOL     OW11965   2.555   0.253   3.363
 3741SOL    HW111966   2.622   0.199   3.322
 3741SOL    HW211967   2.582   0.260   3.454
 3742SOL     OW11968   1.961   0.317   1.853
 3742SOL    HW111969   1.893   0.337   1.917
 3742SOL    HW211970   1.970   0.398   1.803
 3743SOL     OW11971   3.288   0.857   3.260
 3743SOL    HW111972   3.238   0.919   3.207
 3743SOL    HW211973   3.376   0.859   3.224
 3744SOL     OW11974   1.943   0.152   2.202
 3744SOL    HW111975   1.912   0.212   2.134
 3744SOL    HW211976   2.029   0.124   2.172
 3745SOL     OW11977   3.040   1.338   1.979
 3745SOL    HW111978   2.949   1.308   1.982
 3745SOL    HW211979   3.068   1.339   2.071
 3746SOL     OW11980   2.483   0.829   3.296
 3746SOL    HW111981   2.539   0.905   3.281
 3746SOL    HW211982   2.544   0.755   3.305
 3747SOL     OW11983   3.344   1.781   2.842
 3747SOL    HW111984   3.367   1.842   2.772
 3747SOL    HW211985   3.429   1.754   2.879
 3748SOL     OW11986   2.580   0.561   3.566
 3748SOL    HW111987   2.622   0.624   3.625
 3748SOL    HW211988   2.606   0.476   3.600
 3749SOL     OW11989   3.334   1.197   3.493
 3749SOL    HW111990   3.323   1.212   3.586
 3749SOL    HW211991   3.427   1.214   3.477
 3750SOL     OW11992   2.239   1.737   3.438
 3750SOL    HW111993   2.174   1.751   3.369
 3750SOL    HW211994   2.205   1.663   3.488
 3751SOL     OW11995   3.527   0.881   3.121
 3751SOL    HW111996   3.526   0.796   3.077
 3751SOL    HW211997   3.520   0.944   3.050
 3752SOL     OW11998   3.083   0.337   2.305
 3752SOL    HW111999   3.151   0.270   2.296
 3752SOL    HW212000   3.103   0.381   2.388
 3753SOL     OW12001   2.452   0.736   2.532
 3753SOL    HW112002   2.490   0.823   2.518
 3753SOL    HW212003   2.385   0.728   2.465
 3754SOL     OW12004   3.617   0.381   3.504
 3754SOL    HW112005   3.596   0.389   3.411
 3754SOL    HW212006   3.556   0.314   3.536
 3755SOL     OW12007   3.616   0.930   3.376
 3755SOL    HW112008   3.607   1.024   3.393
 3755SOL    HW212009   3.592   0.920   3.283
 3756SOL     OW12010   2.724   1.367   1.899
 3756SOL    HW112011   2.687   1.393   1.983
 3756SOL    HW212012   2.741   1.449   1.853
 3757SOL     OW12013   2.524   1.792   2.798
 3757SOL    HW112014   2.516   1.887   2.792
 3757SOL    HW212015   2.619   1.777   2.798
 3758SOL     OW12016   2.730   0.969   2.717
 3758SOL    HW112017   2.781   0.897   2.755
 3758SOL    HW212018   2.694   1.016   2.792
 3759SOL     OW12019   2.941   0.989   1.951
 3759SOL    HW112020   2.918   1.040   1.874
 3759SOL    HW212021   3.015   0.935   1.924
 3760SOL     OW12022   3.714   1.556   2.703
 3760SOL    HW112023   3.635   1.540   2.652
 3760SOL    HW212024   3.713   1.489   2.771
 3761SOL     OW12025   2.089   1.299   3.714
 3761SOL    HW112026   2.020   1.236   3.691
 3761SOL    HW212027   2.072   1.320   3.806
 3762SOL     OW12028   1.942   1.217   2.524
 3762SOL    HW112029   1.961   1.177   2.609
 3762SOL    HW212030   2.018   1.195   2.470
 3763SOL     OW12031   2.543   1.404   3.489
 3763SOL    HW112032   2.466   1.361   3.526
 3763SOL    HW212033   2.541   1.492   3.527
 3764SOL     OW12034   3.676   0.181   3.106
 3764SOL    HW112035   3.678   0.086   3.115
 3764SOL    HW212036   3.694   0.198   3.014
 3765SOL     OW12037   2.290   0.434   2.387
 3765SOL    HW112038   2.324   0.363   2.334
 3765SOL    HW212039   2.243   0.391   2.458
 3766SOL     OW12040   3.559   1.491   2.959
 3766SOL    HW112041   3.480   1.468   2.909
 3766SOL    HW212042   3.569   1.419   3.022
 3767SOL     OW12043   2.193   0.556   3.156
 3767SOL    HW112044   2.246   0.498   3.210
 3767SOL    HW212045   2.212   0.530   3.066
 3768SOL     OW12046   2.691   1.577   2.539
 3768SOL    HW112047   2.674   1.634   2.463
 3768SOL    HW212048   2.616   1.518   2.542
 3769SOL     OW12049   3.323   0.253   2.972
 3769SOL    HW112050   3.337   0.165   3.008
 3769SOL    HW212051   3.267   0.296   3.037
 3770SOL     OW12052   2.866   0.028   3.009
 3770SOL    HW112053   2.786   3.989   2.973
 3770SOL    HW212054   2.927   3.954   3.017
 3771SOL     OW12055   2.636   1.333   2.177
 3771SOL    HW112056   2.605   1.242   2.185
 3771SOL    HW212057   2.716   1.335   2.229
 3772SOL     OW12058   2.484   1.554   3.146
 3772SOL    HW112059   2.484   1.636   3.196
 3772SOL    HW212060   2.573   1.549   3.109
 3773SOL     OW12061   3.173   0.071   2.022
 3773SOL    HW112062   3.180   3.990   1.970
 3773SOL    HW212063   3.089   0.064   2.066
 3774SOL     OW12064   3.144   0.457   2.547
 3774SOL    HW112065   3.097   0.540   2.542
 3774SOL    HW212066   3.147   0.437   2.641
 3775SOL     OW12067   3.452   0.210   2.729
 3775SOL    HW112068   3.404   0.234   2.808
 3775SOL    HW212069   3.451   0.290   2.676
 3776SOL     OW12070   1.905   1.069   2.167
 3776SOL    HW112071   1.999   1.063   2.151
 3776SOL    HW212072   1.878   0.981   2.192
 3777SOL     OW12073   2.749   1.654   2.201
 3777SOL    HW112074   2.675   1.638   2.143
 3777SOL    HW212075   2.721   1.728   2.255
 3778SOL     OW12076   2.089   0.619   3.845
 3778SOL    HW112077   2.000   0.628   3.877
 3778SOL    HW212078   2.080   0.600   3.752
 3779SOL     OW12079   2.079   0.300   4.715
 3779SOL    HW112080   2.116   0.257   4.792
 3779SOL    HW212081   1.994   0.257   4.702
 3780SOL     OW12082   1.871   0.397   4.358
 3780SOL    HW112083   1.784   0.412   4.395
 3780SOL    HW212084   1.857   0.328   4.293
 3781SOL     OW12085   2.429   1.290   4.901
 3781SOL    HW112086   2.343   1.295   4.859
 3781SOL    HW212087   2.446   1.380   4.930
 3782SOL     OW12088   3.425   1.513   4.432
 3782SOL    HW112089   3.383   1.491   4.515
 3782SOL    HW212090   3.354   1.517   4.368
 3783SOL     OW12091   2.994   0.698   4.422
 3783SOL    HW112092   3.042   0.780   4.409
 3783SOL    HW212093   2.947   0.711   4.504
 3784SOL     OW12094   3.623   0.623   3.950
 3784SOL    HW112095   3.605   0.611   3.857
 3784SOL    HW212096   3.606   0.537   3.989
 3785SOL     OW12097   2.615   1.140   4.768
 3785SOL    HW112098   2.547   1.176   4.825
 3785SOL    HW212099   2.651   1.217   4.723
 3786SOL     OW12100   2.732   0.770   5.547
 3786SOL    HW112101   2.718   0.841   5.611
 3786SOL    HW212102   2.754   0.815   5.466
 3787SOL     OW12103   2.548   1.000   4.369
 3787SOL    HW112104   2.613   0.991   4.439
 3787SOL    HW212105   2.479   1.053   4.408
 3788SOL     OW12106   2.574   1.149   5.537
 3788SOL    HW112107   2.622   1.226   5.565
 3788SOL    HW212108   2.490   1.183   5.504
 3789SOL     OW12109   2.189   1.424   4.791
 3789SOL    HW112110   2.117   1.386   4.741
 3789SOL    HW212111   2.239   1.475   4.728
 3790SOL     OW12112   3.321   1.501   5.081
 3790SOL    HW112113   3.375   1.580   5.091
 3790SOL    HW212114   3.256   1.507   5.151
 3791SOL     OW12115   2.306   0.393   5.217
 3791SOL    HW112116   2.397   0.362   5.216
 3791SOL    HW212117   2.254   0.314   5.225
 3792SOL     OW12118   3.473   0.450   4.460
 3792SOL    HW112119   3.403   0.483   4.403
 3792SOL    HW212120   3.495   0.524   4.516
 3793SOL     OW12121   2.100   1.694   4.205
 3793SOL    HW112122   2.069   1.782   4.223
 3793SOL    HW212123   2.173   1.706   4.145
 3794SOL     OW12124   2.999   1.342   5.417
 3794SOL    HW112125   3.038   1.338   5.505
 3794SOL    HW212126   2.946   1.262   5.411
 3795SOL     OW12127   2.092   1.431   4.263
 3795SOL    HW112128   2.090   1.526   4.255
 3795SOL    HW212129   2.028   1.411   4.332
 3796SOL     OW12130   2.123   1.091   4.615
 3796SOL    HW112131   2.119   1.002   4.652
 3796SOL    HW212132   2.065   1.142   4.672
 3797SOL     OW12133   2.474   1.784   5.157
 3797SOL    HW112134   2.395   1.770   5.209
 3797SOL    HW212135   2.496   1.876   5.172
 3798SOL     OW12136   2.445   0.983   3.860
 3798SOL    HW112137   2.493   1.030   3.791
 3798SOL    HW212138   2.484   1.015   3.942
 3799SOL     OW12139   3.443   0.140   5.181
 3799SOL    HW112140   3.469   0.213   5.124
 3799SOL    HW212141   3.408   0.182   5.259
 3800SOL     OW12142   1.979   0.656   4.284
 3800SOL    HW112143   1.952   0.567   4.308
 3800SOL    HW212144   1.971   0.706   4.365
 3801SOL     OW12145   3.702   1.757   4.059
 3801SOL    HW112146   3.771   1.733   4.121
 3801SOL    HW212147   3.721   1.849   4.038
 3802SOL     OW12148   1.939   1.575   3.830
 3802SOL    HW112149   1.903   1.493   3.866
 3802SOL    HW212150   1.868   1.639   3.842
 3803SOL     OW12151   3.549   0.918   4.369
 3803SOL    HW112152   3.634   0.875   4.353
 3803SOL    HW212153   3.532   0.968   4.290
 3804SOL     OW12154   3.504   1.104   4.155
 3804SOL    HW112155   3.589   1.111   4.111
 3804SOL    HW212156   3.510   1.167   4.227
 3805SOL     OW12157   1.985   0.749   5.305
 3805SOL    HW112158   2.076   0.780   5.310
 3805SOL    HW212159   1.933   0.829   5.311
 3806SOL     OW12160   2.477   1.388   4.458
 3806SOL    HW112161   2.431   1.305   4.467
 3806SOL    HW212162   2.459   1.416   4.368
 3807SOL     OW12163   3.150   1.238   5.146
 3807SOL    HW112164   3.182   1.170   5.086
 3807SOL    HW212165   3.208   1.232   5.222
 3808SOL     OW12166   2.681   0.004   4.241
 3808SOL    HW112167   2.727   0.084   4.216
 3808SOL    HW212168   2.589   0.028   4.241
 3809SOL     OW12169   2.051   0.963   4.997
 3809SOL    HW112170   2.136   0.922   4.982
 3809SOL    HW212171   1.991   0.913   4.941
 3810SOL     OW12172   3.391   0.995   3.924
 3810SOL    HW112173   3.321   0.939   3.958
 3810SOL    HW212174   3.433   1.031   4.003
 3811SOL     OW12175   3.049   1.810   5.347
 3811SOL    HW112176   3.057   1.868   5.272
 3811SOL    HW212177   3.064   1.722   5.313
 3812SOL     OW12178   2.219   0.253   5.560
 3812SOL    HW112179   2.263   0.338   5.561
 3812SOL    HW212180   2.126   0.275   5.566
 3813SOL     OW12181   3.329   1.420   4.674
 3813SOL    HW112182   3.261   1.435   4.740
 3813SOL    HW212183   3.317   1.328   4.648
 3814SOL     OW12184   3.516   1.745   4.303
 3814SOL    HW112185   3.500   1.713   4.214
 3814SOL    HW212186   3.495   1.671   4.360
 3815SOL     OW12187   2.457   0.720   3.991
 3815SOL    HW112188   2.462   0.803   3.944
 3815SOL    HW212189   2.393   0.736   4.061
 3816SOL     OW12190   3.137   0.368   4.665
 3816SOL    HW112191   3.050   0.329   4.672
 3816SOL    HW212192   3.194   0.306   4.710
 3817SOL     OW12193   3.440   1.671   4.034
 3817SOL    HW112194   3.530   1.701   4.027
 3817SOL    HW212195   3.413   1.655   3.943
 3818SOL     OW12196   2.658   0.616   5.176
 3818SOL    HW112197   2.629   0.591   5.264
 3818SOL    HW212198   2.619   0.550   5.118
 3819SOL     OW12199   3.254   0.476   5.401
 3819SOL    HW112200   3.259   0.521   5.485
 3819SOL    HW212201   3.312   0.400   5.411
 3820SOL     OW12202   2.814   0.887   5.308
 3820SOL    HW112203   2.869   0.818   5.271
 3820SOL    HW212204   2.766   0.923   5.233
 3821SOL     OW12205   2.854   0.402   4.963
 3821SOL    HW112206   2.770   0.424   5.002
 3821SOL    HW212207   2.833   0.375   4.874
 3822SOL     OW12208   2.914   0.699   4.149
 3822SOL    HW112209   2.930   0.692   4.243
 3822SOL    HW212210   2.831   0.653   4.136
 3823SOL     OW12211   1.949   0.822   4.500
 3823SOL    HW112212   2.029   0.815   4.552
 3823SOL    HW212213   1.905   0.900   4.536
 3824SOL     OW12214   2.757   0.352   3.923
 3824SOL    HW112215   2.799   0.411   3.861
 3824SOL    HW212216   2.751   0.268   3.877
 3825SOL     OW12217   3.570   0.574   5.553
 3825SOL    HW112218   3.533   0.648   5.506
 3825SOL    HW212219   3.595   0.512   5.485
 3826SOL     OW12220   3.239   1.141   4.264
 3826SOL    HW112221   3.319   1.130   4.213
 3826SOL    HW212222   3.187   1.204   4.214
 3827SOL     OW12223   2.419   0.198   4.605
 3827SOL    HW112224   2.423   0.217   4.699
 3827SOL    HW212225   2.416   0.285   4.563
 3828SOL     OW12226   2.865   1.443   4.195
 3828SOL    HW112227   2.831   1.517   4.145
 3828SOL    HW212228   2.844   1.464   4.286
 3829SOL     OW12229   2.244   1.814   4.548
 3829SOL    HW112230   2.251   1.719   4.563
 3829SOL    HW212231   2.316   1.851   4.600
 3830SOL     OW12232   3.667   1.062   4.591
 3830SOL    HW112233   3.613   1.037   4.516
 3830SOL    HW212234   3.605   1.065   4.665
 3831SOL     OW12235   3.090   1.539   5.237
 3831SOL    HW112236   3.076   1.467   5.299
 3831SOL    HW212237   3.023   1.526   5.170
 3832SOL     OW12238   2.181   0.959   3.976
 3832SOL    HW112239   2.263   0.979   3.931
 3832SOL    HW212240   2.152   0.877   3.938
 3833SOL     OW12241   3.342   0.745   4.452
 3833SOL    HW112242   3.336   0.705   4.539
 3833SOL    HW212243   3.419   0.802   4.458
 3834SOL     OW12244   2.329   1.263   5.469
 3834SOL    HW112245   2.301   1.268   5.377
 3834SOL    HW212246   2.247   1.259   5.518
 3835SOL     OW12247   2.986   1.777   3.955
 3835SOL    HW112248   2.911   1.737   3.999
 3835SOL    HW212249   3.009   1.715   3.886
 3836SOL     OW12250   2.032   0.274   5.223
 3836SOL    HW112251   1.976   0.351   5.213
 3836SOL    HW212252   2.039   0.262   5.318
 3837SOL     OW12253   3.487   1.383   3.811
 3837SOL    HW112254   3.444   1.467   3.796
 3837SOL    HW212255   3.420   1.318   3.792
 3838SOL     OW12256   2.334   1.723   4.060
 3838SOL    HW112257   2.379   1.791   4.109
 3838SOL    HW212258   2.392   1.703   3.986
 3839SOL     OW12259   3.297   0.169   4.126
 3839SOL    HW112260   3.253   0.096   4.084
 3839SOL    HW212261   3.372   0.130   4.170
 3840SOL     OW12262   2.122   1.737   4.970
 3840SOL    HW112263   2.159   1.657   5.007
 3840SOL    HW212264   2.129   1.726   4.876
 3841SOL     OW12265   2.799   1.698   4.622
 3841SOL    HW112266   2.878   1.648   4.644
 3841SOL    HW212267   2.757   1.649   4.552
 3842SOL     OW12268   2.257   0.695   4.198
 3842SOL    HW112269   2.275   0.602   4.211
 3842SOL    HW212270   2.163   0.704   4.216
 3843SOL     OW12271   3.392   0.230   5.451
 3843SOL    HW112272   3.386   0.255   5.543
 3843SOL    HW212273   3.372   0.136   5.450
 3844SOL     OW12274   2.505   0.131   3.832
 3844SOL    HW112275   2.530   0.047   3.872
 3844SOL    HW212276   2.443   0.107   3.763
 3845SOL     OW12277   2.637   0.282   5.491
 3845SOL    HW112278   2.709   0.218   5.495
 3845SOL    HW212279   2.579   0.257   5.564
 3846SOL     OW12280   2.739   1.522   4.917
 3846SOL    HW112281   2.723   1.485   4.830
 3846SOL    HW212282   2.809   1.468   4.954
 3847SOL     OW12283   3.203   0.587   5.154
 3847SOL    HW112284   3.233   0.559   5.241
 3847SOL    HW212285   3.236   0.676   5.145
 3848SOL     OW12286   2.678   1.392   4.666
 3848SOL    HW112287   2.763   1.381   4.622
 3848SOL    HW212288   2.615   1.396   4.595
 3849SOL     OW12289   2.792   0.511   4.625
 3849SOL    HW112290   2.767   0.503   4.532
 3849SOL    HW212291   2.818   0.423   4.650
 3850SOL     OW12292   2.407   0.057   4.215
 3850SOL    HW112293   2.333   0.062   4.275
 3850SOL    HW212294   2.402   0.138   4.164
 3851SOL     OW12295   3.289   1.199   3.764
 3851SOL    HW112296   3.319   1.124   3.815
 3851SOL    HW212297   3.204   1.221   3.802
 3852SOL     OW12298   2.191   0.043   3.935
 3852SOL    HW112299   2.200   0.110   3.867
 3852SOL    HW212300   2.274   0.047   3.983
 3853SOL     OW12301   2.804   0.249   4.184
 3853SOL    HW112302   2.779   0.290   4.101
 3853SOL    HW212303   2.899   0.254   4.185
 3854SOL     OW12304   2.942   0.684   5.183
 3854SOL    HW112305   2.871   0.619   5.189
 3854SOL    HW212306   3.022   0.631   5.178
 3855SOL     OW12307   3.084   1.571   4.518
 3855SOL    HW112308   3.099   1.637   4.451
 3855SOL    HW212309   3.153   1.586   4.583
 3856SOL     OW12310   2.333   1.151   4.455
 3856SOL    HW112311   2.264   1.131   4.519
 3856SOL    HW212312   2.292   1.136   4.370
 3857SOL     OW12313   3.130   1.793   4.334
 3857SOL    HW112314   3.177   1.854   4.277
 3857SOL    HW212315   3.062   1.847   4.376
 3858SOL     OW12316   2.884   0.543   3.752
 3858SOL    HW112317   2.840   0.626   3.732
 3858SOL    HW212318   2.947   0.565   3.820
 3859SOL     OW12319   1.943   0.550   5.120
 3859SOL    HW112320   2.034   0.552   5.091
 3859SOL    HW212321   1.937   0.623   5.182
 3860SOL     OW12322   2.426   0.231   4.884
 3860SOL    HW112323   2.450   0.139   4.895
 3860SOL    HW212324   2.336   0.236   4.917
 3861SOL     OW12325   2.732   0.460   4.362
 3861SOL    HW112326   2.684   0.515   4.300
 3861SOL    HW212327   2.753   0.381   4.314
 3862SOL     OW12328   2.858   0.040   4.504
 3862SOL    HW112329   2.822   0.068   4.420
 3862SOL    HW212330   2.869   3.945   4.495
 3863SOL     OW12331   3.302   1.161   4.582
 3863SOL    HW112332   3.229   1.098   4.580
 3863SOL    HW212333   3.326   1.172   4.490
 3864SOL     OW12334   3.326   0.607   4.698
 3864SOL    HW112335   3.273   0.528   4.704
 3864SOL    HW212336   3.386   0.601   4.773
 3865SOL     OW12337   3.722   0.824   4.099
 3865SOL    HW112338   3.764   0.767   4.163
 3865SOL    HW212339   3.684   0.764   4.035
 3866SOL     OW12340   2.354   1.420   3.879
 3866SOL    HW112341   2.278   1.394   3.932
 3866SOL    HW212342   2.341   1.375   3.796
 3867SOL     OW12343   3.529   1.265   4.368
 3867SOL    HW112344   3.624   1.269   4.378
 3867SOL    HW212345   3.500   1.354   4.389
 3868SOL     OW12346   3.257   0.575   3.793
 3868SOL    HW112347   3.193   0.556   3.862
 3868SOL    HW212348   3.342   0.559   3.834
 3869SOL     OW12349   2.388   0.266   4.040
 3869SOL    HW112350   2.443   0.227   3.972
 3869SOL    HW212351   2.360   0.350   4.004
 3870SOL     OW12352   3.613   1.234   5.290
 3870SOL    HW112353   3.701   1.199   5.273
 3870SOL    HW212354   3.629   1.323   5.321
 3871SOL     OW12355   2.919   1.353   5.056
 3871SOL    HW112356   2.844   1.322   5.107
 3871SOL    HW212357   2.995   1.312   5.098
 3872SOL     OW12358   3.468   1.628   5.380
 3872SOL    HW112359   3.460   1.662   5.291
 3872SOL    HW212360   3.549   1.577   5.379
 3873SOL     OW12361   2.993   1.205   4.828
 3873SOL    HW112362   2.934   1.243   4.893
 3873SOL    HW212363   2.961   1.239   4.744
 3874SOL     OW12364   3.491   1.096   4.799
 3874SOL    HW112365   3.482   1.158   4.872
 3874SOL    HW212366   3.414   1.113   4.745
 3875SOL     OW12367   2.774   0.115   5.125
 3875SOL    HW112368   2.794   0.089   5.036
 3875SOL    HW212369   2.855   0.157   5.156
 3876SOL     OW12370   2.847   1.115   5.448
 3876SOL    HW112371   2.756   1.133   5.470
 3876SOL    HW212372   2.843   1.036   5.393
 3877SOL     OW12373   2.571   1.062   4.094
 3877SOL    HW112374   2.556   1.044   4.187
 3877SOL    HW212375   2.646   1.008   4.071
 3878SOL     OW12376   2.282   0.816   4.976
 3878SOL    HW112377   2.351   0.824   5.042
 3878SOL    HW212378   2.247   0.728   4.988
 3879SOL     OW12379   3.129   0.375   5.000
 3879SOL    HW112380   3.162   0.453   5.044
 3879SOL    HW212381   3.041   0.400   4.970
 3880SOL     OW12382   2.210   1.111   4.214
 3880SOL    HW112383   2.210   1.187   4.156
 3880SOL    HW212384   2.206   1.036   4.155
 3881SOL     OW12385   2.416   0.533   4.581
 3881SOL    HW112386   2.430   0.593   4.507
 3881SOL    HW212387   2.481   0.560   4.646
 3882SOL     OW12388   3.110   1.349   4.114
 3882SOL    HW112389   3.166   1.420   4.144
 3882SOL    HW212390   3.023   1.370   4.147
 3883SOL     OW12391   3.146   1.459   4.872
 3883SOL    HW112392   3.202   1.463   4.949
 3883SOL    HW212393   3.090   1.383   4.886
 3884SOL     OW12394   3.434   0.632   4.209
 3884SOL    HW112395   3.393   0.688   4.275
 3884SOL    HW212396   3.482   0.693   4.153
 3885SOL     OW12397   2.221   1.497   5.044
 3885SOL    HW112398   2.206   1.467   4.955
 3885SOL    HW212399   2.314   1.519   5.047
 3886SOL     OW12400   2.279   0.744   5.325
 3886SOL    HW112401   2.340   0.789   5.267
 3886SOL    HW212402   2.321   0.660   5.344
 3887SOL     OW12403   3.466   0.778   5.407
 3887SOL    HW112404   3.380   0.821   5.401
 3887SOL    HW212405   3.518   0.821   5.339
 3888SOL     OW12406   2.877   0.130   5.504
 3888SOL    HW112407   2.925   0.204   5.466
 3888SOL    HW212408   2.860   0.072   5.430
 3889SOL     OW12409   2.350   0.034   5.486
 3889SOL    HW112410   2.353   0.046   5.391
 3889SOL    HW212411   2.291   0.103   5.517
 3890SOL     OW12412   2.446   0.873   4.756
 3890SOL    HW112413   2.476   0.964   4.756
 3890SOL    HW212414   2.389   0.867   4.832
 3891SOL     OW12415   3.216   0.859   4.750
 3891SOL    HW112416   3.131   0.847   4.707
 3891SOL    HW212417   3.258   0.773   4.743
 3892SOL     OW12418   3.063   0.536   3.982
 3892SOL    HW112419   3.071   0.457   4.036
 3892SOL    HW212420   3.020   0.600   4.040
 3893SOL     OW12421   2.162   0.210   4.967
 3893SOL    HW112422   2.120   0.239   5.048
 3893SOL    HW212423   2.150   0.115   4.967
 3894SOL     OW12424   1.906   1.333   5.016
 3894SOL    HW112425   1.935   1.264   5.076
 3894SOL    HW212426   1.977   1.397   5.017
 3895SOL     OW12427   2.584   0.632   4.777
 3895SOL    HW112428   2.660   0.619   4.720
 3895SOL    HW212429   2.555   0.721   4.758
 3896SOL     OW12430   3.595   0.956   5.586
 3896SOL    HW112431   3.551   0.896   5.526
 3896SOL    HW212432   3.530   0.972   5.655
 3897SOL     OW12433   2.184   0.056   4.375
 3897SOL    HW112434   2.164   0.149   4.386
 3897SOL    HW212435   2.149   0.014   4.453
 3898SOL     OW12436   3.474   0.392   4.103
 3898SOL    HW112437   3.437   0.323   4.159
 3898SOL    HW212438   3.452   0.473   4.149
 3899SOL     OW12439   2.892   0.759   4.683
 3899SOL    HW112440   2.885   0.776   4.777
 3899SOL    HW212441   2.864   0.668   4.673
 3900SOL     OW12442   2.848   1.571   5.442
 3900SOL    HW112443   2.831   1.612   5.358
 3900SOL    HW212444   2.886   1.486   5.420
 3901SOL     OW12445   3.706   1.499   5.323
 3901SOL    HW112446   3.728   1.528   5.234
 3901SOL    HW212447   3.786   1.510   5.373
 3902SOL     OW12448   2.214   0.916   5.531
 3902SOL    HW112449   2.294   0.936   5.579
 3902SOL    HW212450   2.241   0.853   5.464
 3903SOL     OW12451   3.364   0.274   3.858
 3903SOL    HW112452   3.290   0.214   3.869
 3903SOL    HW212453   3.377   0.313   3.945
 3904SOL     OW12454   3.151   0.826   3.753
 3904SOL    HW112455   3.193   0.741   3.756
 3904SOL    HW212456   3.183   0.866   3.672
 3905SOL     OW12457   2.929   1.337   4.579
 3905SOL    HW112458   2.933   1.265   4.516
 3905SOL    HW212459   2.989   1.403   4.544
 3906SOL     OW12460   2.170   0.810   4.670
 3906SOL    HW112461   2.263   0.831   4.663
 3906SOL    HW212462   2.168   0.719   4.702
 3907SOL     OW12463   2.198   0.536   4.738
 3907SOL    HW112464   2.157   0.451   4.722
 3907SOL    HW212465   2.274   0.537   4.679
 3908SOL     OW12466   2.995   0.381   5.420
 3908SOL    HW112467   2.946   0.436   5.482
 3908SOL    HW212468   3.081   0.421   5.416
 3909SOL     OW12469   3.013   0.226   5.205
 3909SOL    HW112470   3.004   0.280   5.284
 3909SOL    HW212471   3.037   0.288   5.136
 3910SOL     OW12472   1.866   1.319   3.918
 3910SOL    HW112473   1.778   1.332   3.881
 3910SOL    HW212474   1.863   1.230   3.953
 3911SOL     OW12475   2.359   1.570   4.634
 3911SOL    HW112476   2.424   1.637   4.653
 3911SOL    HW212477   2.402   1.510   4.574
 3912SOL     OW12478   2.842   0.788   4.948
 3912SOL    HW112479   2.898   0.769   5.023
 3912SOL    HW212480   2.756   0.754   4.973
 3913SOL     OW12481   1.895   0.547   4.841
 3913SOL    HW112482   1.970   0.522   4.787
 3913SOL    HW212483   1.929   0.547   4.930
 3914SOL     OW12484   2.065   0.526   5.436
 3914SOL    HW112485   2.136   0.506   5.375
 3914SOL    HW212486   2.021   0.602   5.398
 3915SOL     OW12487   3.242   0.936   5.382
 3915SOL    HW112488   3.262   1.030   5.379
 3915SOL    HW212489   3.237   0.911   5.289
 3916SOL     OW12490   2.679   0.572   4.088
 3916SOL    HW112491   2.684   0.497   4.028
 3916SOL    HW212492   2.604   0.623   4.055
 3917SOL     OW12493   3.502   0.602   4.907
 3917SOL    HW112494   3.491   0.542   4.981
 3917SOL    HW212495   3.588   0.581   4.871
 3918SOL     OW12496   2.086   1.560   5.468
 3918SOL    HW112497   2.047   1.596   5.548
 3918SOL    HW212498   2.113   1.471   5.491
 3919SOL     OW12499   2.568   0.453   4.981
 3919SOL    HW112500   2.518   0.376   4.955
 3919SOL    HW212501   2.560   0.513   4.906
 3920SOL     OW12502   2.790   1.678   5.191
 3920SOL    HW112503   2.761   1.642   5.107
 3920SOL    HW212504   2.784   1.773   5.180
 3921SOL     OW12505   2.325   0.494   3.907
 3921SOL    HW112506   2.383   0.566   3.931
 3921SOL    HW212507   2.240   0.534   3.895
 3922SOL     OW12508   2.003   1.140   5.192
 3922SOL    HW112509   2.007   1.092   5.275
 3922SOL    HW212510   2.021   1.075   5.125
 3923SOL     OW12511   3.185   1.045   4.946
 3923SOL    HW112512   3.208   0.982   4.877
 3923SOL    HW212513   3.117   1.099   4.907
 3924SOL     OW12514   3.176   0.854   4.029
 3924SOL    HW112515   3.100   0.828   4.081
 3924SOL    HW212516   3.148   0.843   3.938
 3925SOL     OW12517   3.642   1.742   4.881
 3925SOL    HW112518   3.697   1.769   4.807
 3925SOL    HW212519   3.612   1.654   4.857
 3926SOL     OW12520   3.103   1.734   4.834
 3926SOL    HW112521   3.185   1.755   4.790
 3926SOL    HW212522   3.110   1.640   4.854
 3927SOL     OW12523   1.951   1.253   4.751
 3927SOL    HW112524   1.922   1.274   4.839
 3927SOL    HW212525   1.874   1.217   4.708
 3928SOL     OW12526   2.541   1.666   5.453
 3928SOL    HW112527   2.488   1.746   5.456
 3928SOL    HW212528   2.605   1.682   5.383
 3929SOL     OW12529   3.551   0.120   4.211
 3929SOL    HW112530   3.633   0.135   4.163
 3929SOL    HW212531   3.553   0.027   4.233
 3930SOL     OW12532   3.253   1.567   4.211
 3930SOL    HW112533   3.312   1.600   4.144
 3930SOL    HW212534   3.203   1.644   4.239
 3931SOL     OW12535   3.139   0.926   4.394
 3931SOL    HW112536   3.214   0.867   4.404
 3931SOL    HW212537   3.173   0.999   4.342
 3932SOL     OW12538   2.673   1.274   5.152
 3932SOL    HW112539   2.644   1.313   5.234
 3932SOL    HW212540   2.604   1.296   5.089
 3933SOL     OW12541   2.535   1.622   3.877
 3933SOL    HW112542   2.545   1.633   3.782
 3933SOL    HW212543   2.479   1.545   3.886
 3934SOL     OW12544   3.483   1.727   5.115
 3934SOL    HW112545   3.537   1.732   5.037
 3934SOL    HW212546   3.470   1.818   5.141
 3935SOL     OW12547   3.703   0.181   4.695
 3935SOL    HW112548   3.727   0.097   4.657
 3935SOL    HW212549   3.617   0.201   4.658
 3936SOL     OW12550   2.126   0.316   4.439
 3936SOL    HW112551   2.040   0.351   4.417
 3936SOL    HW212552   2.125   0.308   4.534
 3937SOL     OW12553   3.070   1.604   3.756
 3937SOL    HW112554   3.059   1.513   3.783
 3937SOL    HW212555   3.004   1.617   3.688
 3938SOL     OW12556   2.686   1.006   5.096
 3938SOL    HW112557   2.728   1.003   5.010
 3938SOL    HW212558   2.684   1.099   5.119
 3939SOL     OW12559   2.778   0.910   4.014
 3939SOL    HW112560   2.839   0.943   3.948
 3939SOL    HW212561   2.827   0.842   4.060
 3940SOL     OW12562   3.351   1.628   3.767
 3940SOL    HW112563   3.257   1.619   3.753
 3940SOL    HW212564   3.389   1.634   3.679
 3941SOL     OW12565   2.226   1.297   5.228
 3941SOL    HW112566   2.226   1.369   5.164
 3941SOL    HW212567   2.151   1.243   5.203
 3942SOL     OW12568   3.464   1.280   5.002
 3942SOL    HW112569   3.531   1.272   5.069
 3942SOL    HW212570   3.406   1.350   5.034
 3943SOL     OW12571   2.918   1.109   4.432
 3943SOL    HW112572   2.846   1.058   4.470
 3943SOL    HW212573   2.980   1.043   4.402
 3944SOL     OW12574   2.877   0.249   4.693
 3944SOL    HW112575   2.867   0.198   4.612
 3944SOL    HW212576   2.872   0.183   4.763
 3945SOL     OW12577   2.466   1.491   4.205
 3945SOL    HW112578   2.508   1.441   4.135
 3945SOL    HW212579   2.398   1.542   4.160
 3946SOL     OW12580   3.582   0.394   5.096
 3946SOL    HW112581   3.654   0.457   5.096
 3946SOL    HW212582   3.614   0.321   5.042
 3947SOL     OW12583   2.122   1.342   4.013
 3947SOL    HW112584   2.029   1.340   3.990
 3947SOL    HW212585   2.124   1.378   4.101
 3948SOL     OW12586   1.977   1.032   5.445
 3948SOL    HW112587   1.900   1.005   5.496
 3948SOL    HW212588   2.050   0.988   5.489
 3949SOL     OW12589   2.555   0.253   5.225
 3949SOL    HW112590   2.622   0.199   5.184
 3949SOL    HW212591   2.582   0.260   5.316
 3950SOL     OW12592   1.961   0.317   3.715
 3950SOL    HW112593   1.893   0.337   3.779
 3950SOL    HW212594   1.970   0.398   3.665
 3951SOL     OW12595   3.288   0.856   5.122
 3951SOL    HW112596   3.238   0.919   5.069
 3951SOL    HW212597   3.376   0.859   5.086
 3952SOL     OW12598   1.943   0.152   4.064
 3952SOL    HW112599   1.912   0.212   3.996
 3952SOL    HW212600   2.029   0.124   4.034
 3953SOL     OW12601   3.040   1.338   3.841
 3953SOL    HW112602   2.949   1.308   3.844
 3953SOL    HW212603   3.068   1.339   3.933
 3954SOL     OW12604   2.483   0.829   5.158
 3954SOL    HW112605   2.539   0.905   5.143
 3954SOL    HW212606   2.544   0.755   5.167
 3955SOL     OW12607   3.344   1.781   4.704
 3955SOL    HW112608   3.367   1.842   4.634
 3955SOL    HW212609   3.428   1.754   4.741
 3956SOL     OW12610   2.580   0.561   5.428
 3956SOL    HW112611   2.621   0.625   5.487
 3956SOL    HW212612   2.606   0.476   5.462
 3957SOL     OW12613   3.334   1.197   5.355
 3957SOL    HW112614   3.322   1.213   5.448
 3957SOL    HW212615   3.427   1.214   5.339
 3958SOL     OW12616   2.240   1.736   5.301
 3958SOL    HW112617   2.174   1.748   5.232
 3958SOL    HW212618   2.208   1.662   5.352
 3959SOL     OW12619   3.527   0.881   4.983
 3959SOL    HW112620   3.526   0.796   4.939
 3959SOL    HW212621   3.520   0.945   4.912
 3960SOL     OW12622   3.083   0.337   4.167
 3960SOL    HW112623   3.151   0.270   4.158
 3960SOL    HW212624   3.103   0.381   4.250
 3961SOL     OW12625   2.452   0.736   4.394
 3961SOL    HW112626   2.490   0.823   4.380
 3961SOL    HW212627   2.385   0.728   4.326
 3962SOL     OW12628   3.617   0.381   5.366
 3962SOL    HW112629   3.596   0.389   5.273
 3962SOL    HW212630   3.556   0.314   5.398
 3963SOL     OW12631   3.616   0.930   5.237
 3963SOL    HW112632   3.606   1.024   5.255
 3963SOL    HW212633   3.592   0.920   5.145
 3964SOL     OW12634   2.724   1.366   3.761
 3964SOL    HW112635   2.687   1.393   3.845
 3964SOL    HW212636   2.741   1.449   3.715
 3965SOL     OW12637   2.525   1.792   4.660
 3965SOL    HW112638   2.516   1.887   4.654
 3965SOL    HW212639   2.619   1.776   4.660
 3966SOL     OW12640   2.730   0.969   4.579
 3966SOL    HW112641   2.781   0.897   4.617
 3966SOL    HW212642   2.694   1.016   4.654
 3967SOL     OW12643   2.940   0.989   3.813
 3967SOL    HW112644   2.918   1.040   3.736
 3967SOL    HW212645   3.015   0.935   3.786
 3968SOL     OW12646   3.714   1.556   4.565
 3968SOL    HW112647   3.635   1.540   4.514
 3968SOL    HW212648   3.713   1.489   4.634
 3969SOL     OW12649   2.083   1.295   5.581
 3969SOL    HW112650   2.036   1.224   5.537
 3969SOL    HW212651   2.027   1.319   5.655
 3970SOL     OW12652   1.942   1.216   4.386
 3970SOL    HW112653   1.962   1.177   4.471
 3970SOL    HW212654   2.019   1.195   4.332
 3971SOL     OW12655   2.539   1.405   5.349
 3971SOL    HW112656   2.465   1.360   5.389
 3971SOL    HW212657   2.540   1.492   5.389
 3972SOL     OW12658   3.676   0.182   4.968
 3972SOL    HW112659   3.678   0.086   4.977
 3972SOL    HW212660   3.694   0.198   4.876
 3973SOL     OW12661   2.290   0.434   4.249
 3973SOL    HW112662   2.324   0.363   4.196
 3973SOL    HW212663   2.243   0.391   4.320
 3974SOL     OW12664   3.559   1.491   4.821
 3974SOL    HW112665   3.480   1.468   4.771
 3974SOL    HW212666   3.569   1.419   4.884
 3975SOL     OW12667   2.193   0.556   5.018
 3975SOL    HW112668   2.246   0.498   5.072
 3975SOL    HW212669   2.212   0.530   4.928
 3976SOL     OW12670   2.691   1.577   4.401
 3976SOL    HW112671   2.674   1.634   4.325
 3976SOL    HW212672   2.616   1.518   4.404
 3977SOL     OW12673   3.323   0.253   4.834
 3977SOL    HW112674   3.337   0.165   4.870
 3977SOL    HW212675   3.267   0.296   4.899
 3978SOL     OW12676   2.866   0.028   4.870
 3978SOL    HW112677   2.786   3.989   4.835
 3978SOL    HW212678   2.927   3.954   4.879
 3979SOL     OW12679   2.636   1.333   4.039
 3979SOL    HW112680   2.605   1.243   4.047
 3979SOL    HW212681   2.716   1.335   4.091
 3980SOL     OW12682   2.484   1.555   5.008
 3980SOL    HW112683   2.484   1.636   5.058
 3980SOL    HW212684   2.572   1.549   4.971
 3981SOL     OW12685   3.173   0.071   3.884
 3981SOL    HW112686   3.180   3.990   3.833
 3981SOL    HW212687   3.089   0.065   3.928
 3982SOL     OW12688   3.144   0.457   4.409
 3982SOL    HW112689   3.097   0.540   4.404
 3982SOL    HW212690   3.147   0.437   4.503
 3983SOL     OW12691   3.452   0.210   4.591
 3983SOL    HW112692   3.404   0.234   4.670
 3983SOL    HW212693   3.451   0.290   4.538
 3984SOL     OW12694   1.905   1.069   4.029
 3984SOL    HW112695   1.999   1.063   4.014
 3984SOL    HW212696   1.878   0.981   4.054
 3985SOL     OW12697   2.749   1.655   4.064
 3985SOL    HW112698   2.675   1.638   4.005
 3985SOL    HW212699   2.721   1.729   4.117
 3986SOL     OW12700   2.089   0.619   5.707
 3986SOL    HW112701   1.999   0.627   5.738
 3986SOL    HW212702   2.080   0.599   5.614
 3987SOL     OW12703   2.079   0.299   6.577
 3987SOL    HW112704   2.116   0.256   6.654
 3987SOL    HW212705   1.994   0.257   6.564
 3988SOL     OW12706   1.871   0.397   6.220
 3988SOL    HW112707   1.785   0.413   6.257
 3988SOL    HW212708   1.857   0.327   6.156
 3989SOL     OW12709   2.445   1.246   6.784
 3989SOL    HW112710   2.354   1.237   6.757
 3989SOL    HW212711   2.460   1.340   6.789
 3990SOL     OW12712   3.425   1.512   6.294
 3990SOL    HW112713   3.382   1.491   6.377
 3990SOL    HW212714   3.354   1.516   6.230
 3991SOL     OW12715   2.995   0.698   6.284
 3991SOL    HW112716   3.042   0.780   6.271
 3991SOL    HW212717   2.947   0.710   6.366
 3992SOL     OW12718   3.624   0.623   5.812
 3992SOL    HW112719   3.605   0.611   5.719
 3992SOL    HW212720   3.605   0.537   5.851
 3993SOL     OW12721   2.631   1.133   6.624
 3993SOL    HW112722   2.568   1.167   6.686
 3993SOL    HW212723   2.658   1.208   6.572
 3994SOL     OW12724   2.734   0.770   7.410
 3994SOL    HW112725   2.718   0.841   7.471
 3994SOL    HW212726   2.755   0.813   7.327
 3995SOL     OW12727   2.559   0.997   6.227
 3995SOL    HW112728   2.623   0.985   6.297
 3995SOL    HW212729   2.483   1.036   6.270
 3996SOL     OW12730   2.578   1.148   7.389
 3996SOL    HW112731   2.629   1.223   7.420
 3996SOL    HW212732   2.494   1.186   7.364
 3997SOL     OW12733   3.328   1.501   6.938
 3997SOL    HW112734   3.381   1.580   6.949
 3997SOL    HW212735   3.259   1.509   7.005
 3998SOL     OW12736   2.307   0.394   7.080
 3998SOL    HW112737   2.396   0.360   7.078
 3998SOL    HW212738   2.252   0.315   7.087
 3999SOL     OW12739   3.473   0.450   6.322
 3999SOL    HW112740   3.403   0.483   6.265
 3999SOL    HW212741   3.495   0.524   6.378
 4000SOL     OW12742   3.014   1.321   7.272
 4000SOL    HW112743   3.054   1.321   7.359
 4000SOL    HW212744   2.958   1.243   7.271
 4001SOL     OW12745   2.111   1.066   6.514
 4001SOL    HW112746   2.115   0.973   6.533
 4001SOL    HW212747   2.019   1.089   6.523
 4002SOL     OW12748   2.467   1.800   7.009
 4002SOL    HW112749   2.388   1.800   7.064
 4002SOL    HW212750   2.531   1.851   7.059
 4003SOL     OW12751   2.444   0.984   5.722
 4003SOL    HW112752   2.492   1.030   5.653
 4003SOL    HW212753   2.483   1.015   5.803
 4004SOL     OW12754   3.444   0.140   7.043
 4004SOL    HW112755   3.469   0.213   6.986
 4004SOL    HW212756   3.408   0.183   7.121
 4005SOL     OW12757   1.978   0.654   6.142
 4005SOL    HW112758   1.952   0.565   6.167
 4005SOL    HW212759   1.972   0.704   6.224
 4006SOL     OW12760   3.702   1.757   5.922
 4006SOL    HW112761   3.771   1.733   5.983
 4006SOL    HW212762   3.721   1.849   5.900
 4007SOL     OW12763   1.938   1.576   5.700
 4007SOL    HW112764   1.918   1.489   5.732
 4007SOL    HW212765   1.858   1.627   5.715
 4008SOL     OW12766   3.550   0.918   6.231
 4008SOL    HW112767   3.634   0.875   6.215
 4008SOL    HW212768   3.532   0.968   6.152
 4009SOL     OW12769   3.504   1.104   6.018
 4009SOL    HW112770   3.589   1.111   5.973
 4009SOL    HW212771   3.510   1.167   6.089
 4010SOL     OW12772   1.989   0.746   7.164
 4010SOL    HW112773   2.081   0.772   7.167
 4010SOL    HW212774   1.941   0.827   7.183
 4011SOL     OW12775   3.157   1.234   7.009
 4011SOL    HW112776   3.189   1.167   6.948
 4011SOL    HW212777   3.216   1.227   7.084
 4012SOL     OW12778   2.681   0.004   6.103
 4012SOL    HW112779   2.727   0.084   6.078
 4012SOL    HW212780   2.589   0.028   6.103
 4013SOL     OW12781   2.050   0.961   6.855
 4013SOL    HW112782   2.134   0.917   6.839
 4013SOL    HW212783   1.987   0.911   6.805
 4014SOL     OW12784   3.391   0.995   5.786
 4014SOL    HW112785   3.321   0.938   5.820
 4014SOL    HW212786   3.432   1.031   5.865
 4015SOL     OW12787   3.069   1.798   7.188
 4015SOL    HW112788   3.071   1.854   7.110
 4015SOL    HW212789   3.083   1.710   7.154
 4016SOL     OW12790   2.219   0.253   7.425
 4016SOL    HW112791   2.263   0.337   7.421
 4016SOL    HW212792   2.125   0.274   7.429
 4017SOL     OW12793   3.329   1.419   6.536
 4017SOL    HW112794   3.261   1.433   6.603
 4017SOL    HW212795   3.317   1.328   6.509
 4018SOL     OW12796   3.515   1.745   6.165
 4018SOL    HW112797   3.499   1.713   6.076
 4018SOL    HW212798   3.495   1.671   6.221
 4019SOL     OW12799   2.457   0.720   5.853
 4019SOL    HW112800   2.463   0.803   5.807
 4019SOL    HW212801   2.394   0.736   5.923
 4020SOL     OW12802   3.137   0.368   6.527
 4020SOL    HW112803   3.050   0.329   6.534
 4020SOL    HW212804   3.194   0.306   6.572
 4021SOL     OW12805   3.440   1.671   5.896
 4021SOL    HW112806   3.531   1.701   5.889
 4021SOL    HW212807   3.413   1.655   5.805
 4022SOL     OW12808   2.657   0.616   7.038
 4022SOL    HW112809   2.629   0.590   7.126
 4022SOL    HW212810   2.619   0.550   6.980
 4023SOL     OW12811   3.254   0.476   7.263
 4023SOL    HW112812   3.260   0.522   7.348
 4023SOL    HW212813   3.312   0.400   7.273
 4024SOL     OW12814   2.814   0.885   7.169
 4024SOL    HW112815   2.869   0.815   7.132
 4024SOL    HW212816   2.766   0.919   7.093
 4025SOL     OW12817   2.854   0.403   6.825
 4025SOL    HW112818   2.769   0.423   6.863
 4025SOL    HW212819   2.834   0.375   6.735
 4026SOL     OW12820   2.914   0.699   6.011
 4026SOL    HW112821   2.930   0.692   6.105
 4026SOL    HW212822   2.831   0.653   5.998
 4027SOL     OW12823   1.953   0.813   6.359
 4027SOL    HW112824   2.033   0.805   6.411
 4027SOL    HW212825   1.903   0.883   6.403
 4028SOL     OW12826   2.757   0.352   5.785
 4028SOL    HW112827   2.798   0.411   5.723
 4028SOL    HW212828   2.751   0.268   5.739
 4029SOL     OW12829   3.569   0.574   7.415
 4029SOL    HW112830   3.532   0.648   7.368
 4029SOL    HW212831   3.595   0.512   7.347
 4030SOL     OW12832   3.239   1.141   6.126
 4030SOL    HW112833   3.318   1.130   6.074
 4030SOL    HW212834   3.186   1.204   6.076
 4031SOL     OW12835   2.420   0.198   6.467
 4031SOL    HW112836   2.423   0.218   6.561
 4031SOL    HW212837   2.416   0.284   6.425
 4032SOL     OW12838   2.867   1.439   6.061
 4032SOL    HW112839   2.832   1.509   6.005
 4032SOL    HW212840   2.861   1.474   6.149
 4033SOL     OW12841   2.225   1.802   6.445
 4033SOL    HW112842   2.304   1.749   6.438
 4033SOL    HW212843   2.256   1.893   6.440
 4034SOL     OW12844   3.667   1.062   6.453
 4034SOL    HW112845   3.613   1.037   6.378
 4034SOL    HW212846   3.605   1.065   6.526
 4035SOL     OW12847   3.103   1.532   7.089
 4035SOL    HW112848   3.096   1.453   7.142
 4035SOL    HW212849   3.028   1.526   7.030
 4036SOL     OW12850   2.182   0.964   5.838
 4036SOL    HW112851   2.265   0.980   5.795
 4036SOL    HW212852   2.152   0.881   5.802
 4037SOL     OW12853   3.342   0.745   6.314
 4037SOL    HW112854   3.336   0.705   6.401
 4037SOL    HW212855   3.419   0.802   6.320
 4038SOL     OW12856   2.987   1.775   5.816
 4038SOL    HW112857   2.910   1.735   5.857
 4038SOL    HW212858   3.011   1.714   5.746
 4039SOL     OW12859   2.033   0.276   7.085
 4039SOL    HW112860   1.977   0.352   7.072
 4039SOL    HW212861   2.035   0.263   7.179
 4040SOL     OW12862   3.487   1.383   5.673
 4040SOL    HW112863   3.444   1.467   5.658
 4040SOL    HW212864   3.420   1.318   5.654
 4041SOL     OW12865   2.339   1.725   5.903
 4041SOL    HW112866   2.365   1.801   5.955
 4041SOL    HW212867   2.408   1.718   5.836
 4042SOL     OW12868   3.297   0.169   5.988
 4042SOL    HW112869   3.253   0.096   5.946
 4042SOL    HW212870   3.372   0.130   6.032
 4043SOL     OW12871   2.124   1.743   6.820
 4043SOL    HW112872   2.150   1.660   6.859
 4043SOL    HW212873   2.121   1.726   6.726
 4044SOL     OW12874   2.257   0.695   6.059
 4044SOL    HW112875   2.275   0.602   6.072
 4044SOL    HW212876   2.163   0.704   6.078
 4045SOL     OW12877   3.392   0.230   7.313
 4045SOL    HW112878   3.385   0.255   7.405
 4045SOL    HW212879   3.372   0.136   7.312
 4046SOL     OW12880   2.505   0.130   5.694
 4046SOL    HW112881   2.530   0.047   5.734
 4046SOL    HW212882   2.443   0.107   5.625
 4047SOL     OW12883   2.638   0.282   7.354
 4047SOL    HW112884   2.708   0.217   7.357
 4047SOL    HW212885   2.579   0.257   7.426
 4048SOL     OW12886   2.730   1.470   6.799
 4048SOL    HW112887   2.763   1.483   6.710
 4048SOL    HW212888   2.804   1.432   6.846
 4049SOL     OW12889   3.202   0.587   7.016
 4049SOL    HW112890   3.233   0.559   7.103
 4049SOL    HW212891   3.237   0.676   7.007
 4050SOL     OW12892   2.792   0.511   6.486
 4050SOL    HW112893   2.767   0.503   6.394
 4050SOL    HW212894   2.818   0.422   6.512
 4051SOL     OW12895   2.407   0.057   6.077
 4051SOL    HW112896   2.333   0.062   6.137
 4051SOL    HW212897   2.402   0.138   6.026
 4052SOL     OW12898   3.289   1.199   5.627
 4052SOL    HW112899   3.319   1.124   5.678
 4052SOL    HW212900   3.204   1.221   5.664
 4053SOL     OW12901   2.192   0.043   5.797
 4053SOL    HW112902   2.201   0.110   5.729
 4053SOL    HW212903   2.274   0.047   5.846
 4054SOL     OW12904   2.804   0.250   6.046
 4054SOL    HW112905   2.778   0.290   5.963
 4054SOL    HW212906   2.899   0.254   6.047
 4055SOL     OW12907   2.942   0.682   7.044
 4055SOL    HW112908   2.872   0.617   7.050
 4055SOL    HW212909   3.022   0.631   7.039
 4056SOL     OW12910   3.085   1.563   6.373
 4056SOL    HW112911   3.104   1.630   6.307
 4056SOL    HW212912   3.149   1.580   6.443
 4057SOL     OW12913   2.332   1.087   6.341
 4057SOL    HW112914   2.256   1.078   6.398
 4057SOL    HW212915   2.295   1.096   6.253
 4058SOL     OW12916   3.139   1.790   6.190
 4058SOL    HW112917   3.189   1.847   6.132
 4058SOL    HW212918   3.072   1.846   6.228
 4059SOL     OW12919   2.884   0.543   5.614
 4059SOL    HW112920   2.840   0.626   5.594
 4059SOL    HW212921   2.947   0.565   5.682
 4060SOL     OW12922   1.943   0.549   6.981
 4060SOL    HW112923   2.034   0.552   6.952
 4060SOL    HW212924   1.935   0.623   7.042
 4061SOL     OW12925   2.426   0.231   6.747
 4061SOL    HW112926   2.450   0.139   6.756
 4061SOL    HW212927   2.336   0.236   6.779
 4062SOL     OW12928   2.732   0.460   6.224
 4062SOL    HW112929   2.684   0.515   6.162
 4062SOL    HW212930   2.752   0.381   6.176
 4063SOL     OW12931   2.858   0.040   6.366
 4063SOL    HW112932   2.822   0.068   6.283
 4063SOL    HW212933   2.869   3.945   6.357
 4064SOL     OW12934   3.301   1.161   6.443
 4064SOL    HW112935   3.229   1.099   6.441
 4064SOL    HW212936   3.326   1.172   6.352
 4065SOL     OW12937   3.326   0.607   6.561
 4065SOL    HW112938   3.273   0.528   6.565
 4065SOL    HW212939   3.386   0.600   6.635
 4066SOL     OW12940   3.722   0.824   5.961
 4066SOL    HW112941   3.764   0.767   6.025
 4066SOL    HW212942   3.684   0.764   5.897
 4067SOL     OW12943   2.354   1.424   5.734
 4067SOL    HW112944   2.298   1.397   5.808
 4067SOL    HW212945   2.320   1.374   5.660
 4068SOL     OW12946   3.529   1.265   6.231
 4068SOL    HW112947   3.624   1.269   6.240
 4068SOL    HW212948   3.500   1.354   6.251
 4069SOL     OW12949   3.257   0.575   5.655
 4069SOL    HW112950   3.193   0.556   5.724
 4069SOL    HW212951   3.342   0.559   5.696
 4070SOL     OW12952   2.388   0.266   5.902
 4070SOL    HW112953   2.443   0.228   5.834
 4070SOL    HW212954   2.360   0.350   5.866
 4071SOL     OW12955   3.614   1.234   7.154
 4071SOL    HW112956   3.701   1.199   7.136
 4071SOL    HW212957   3.630   1.324   7.183
 4072SOL     OW12958   2.925   1.343   6.930
 4072SOL    HW112959   2.855   1.306   6.984
 4072SOL    HW212960   3.005   1.304   6.965
 4073SOL     OW12961   3.467   1.627   7.241
 4073SOL    HW112962   3.459   1.662   7.153
 4073SOL    HW212963   3.548   1.577   7.240
 4074SOL     OW12964   2.998   1.206   6.692
 4074SOL    HW112965   2.934   1.238   6.756
 4074SOL    HW212966   2.967   1.239   6.608
 4075SOL     OW12967   3.490   1.095   6.661
 4075SOL    HW112968   3.482   1.157   6.734
 4075SOL    HW212969   3.414   1.112   6.606
 4076SOL     OW12970   2.774   0.116   6.988
 4076SOL    HW112971   2.794   0.088   6.898
 4076SOL    HW212972   2.855   0.157   7.018
 4077SOL     OW12973   2.845   1.109   7.309
 4077SOL    HW112974   2.753   1.123   7.330
 4077SOL    HW212975   2.846   1.032   7.252
 4078SOL     OW12976   2.569   1.061   5.954
 4078SOL    HW112977   2.556   1.045   6.048
 4078SOL    HW212978   2.646   1.009   5.931
 4079SOL     OW12979   2.282   0.815   6.837
 4079SOL    HW112980   2.350   0.824   6.904
 4079SOL    HW212981   2.247   0.727   6.850
 4080SOL     OW12982   3.128   0.375   6.862
 4080SOL    HW112983   3.162   0.453   6.906
 4080SOL    HW212984   3.041   0.400   6.832
 4081SOL     OW12985   2.229   1.095   6.087
 4081SOL    HW112986   2.215   1.181   6.045
 4081SOL    HW212987   2.217   1.032   6.015
 4082SOL     OW12988   2.417   0.533   6.443
 4082SOL    HW112989   2.430   0.593   6.369
 4082SOL    HW212990   2.482   0.560   6.508
 4083SOL     OW12991   3.110   1.347   5.975
 4083SOL    HW112992   3.165   1.419   6.006
 4083SOL    HW212993   3.023   1.367   6.009
 4084SOL     OW12994   3.146   1.454   6.735
 4084SOL    HW112995   3.203   1.458   6.812
 4084SOL    HW212996   3.096   1.373   6.746
 4085SOL     OW12997   3.435   0.632   6.071
 4085SOL    HW112998   3.393   0.688   6.137
 4085SOL    HW212999   3.481   0.693   6.014
 4086SOL     OW13000   2.213   1.499   6.902
 4086SOL    HW113001   2.209   1.435   6.830
 4086SOL    HW213002   2.306   1.504   6.923
 4087SOL     OW13003   2.279   0.745   7.189
 4087SOL    HW113004   2.339   0.790   7.131
 4087SOL    HW213005   2.319   0.660   7.205
 4088SOL     OW13006   3.465   0.778   7.269
 4088SOL    HW113007   3.379   0.821   7.263
 4088SOL    HW213008   3.518   0.821   7.202
 4089SOL     OW13009   2.877   0.130   7.366
 4089SOL    HW113010   2.925   0.204   7.327
 4089SOL    HW213011   2.860   0.072   7.292
 4090SOL     OW13012   2.350   0.034   7.348
 4090SOL    HW113013   2.352   0.046   7.253
 4090SOL    HW213014   2.291   0.102   7.380
 4091SOL     OW13015   2.447   0.868   6.619
 4091SOL    HW113016   2.468   0.961   6.609
 4091SOL    HW213017   2.388   0.864   6.694
 4092SOL     OW13018   3.216   0.858   6.612
 4092SOL    HW113019   3.132   0.847   6.568
 4092SOL    HW213020   3.258   0.772   6.605
 4093SOL     OW13021   3.063   0.536   5.844
 4093SOL    HW113022   3.071   0.457   5.898
 4093SOL    HW213023   3.020   0.600   5.901
 4094SOL     OW13024   2.162   0.210   6.829
 4094SOL    HW113025   2.120   0.239   6.910
 4094SOL    HW213026   2.150   0.115   6.828
 4095SOL     OW13027   1.878   1.327   6.895
 4095SOL    HW113028   1.923   1.256   6.942
 4095SOL    HW213029   1.948   1.387   6.869
 4096SOL     OW13030   2.586   0.631   6.640
 4096SOL    HW113031   2.661   0.619   6.581
 4096SOL    HW213032   2.555   0.719   6.622
 4097SOL     OW13033   3.594   0.957   7.448
 4097SOL    HW113034   3.551   0.896   7.388
 4097SOL    HW213035   3.530   0.971   7.517
 4098SOL     OW13036   2.185   0.056   6.236
 4098SOL    HW113037   2.165   0.149   6.248
 4098SOL    HW213038   2.148   0.013   6.314
 4099SOL     OW13039   3.474   0.391   5.965
 4099SOL    HW113040   3.437   0.323   6.021
 4099SOL    HW213041   3.452   0.473   6.011
 4100SOL     OW13042   2.894   0.757   6.546
 4100SOL    HW113043   2.886   0.775   6.640
 4100SOL    HW213044   2.866   0.666   6.536
 4101SOL     OW13045   2.888   1.553   7.283
 4101SOL    HW113046   2.868   1.597   7.200
 4101SOL    HW213047   2.928   1.470   7.258
 4102SOL     OW13048   3.705   1.499   7.184
 4102SOL    HW113049   3.729   1.529   7.096
 4102SOL    HW213050   3.785   1.510   7.235
 4103SOL     OW13051   2.220   0.920   7.397
 4103SOL    HW113052   2.303   0.932   7.442
 4103SOL    HW213053   2.239   0.857   7.327
 4104SOL     OW13054   3.364   0.274   5.720
 4104SOL    HW113055   3.290   0.214   5.731
 4104SOL    HW213056   3.377   0.313   5.807
 4105SOL     OW13057   3.151   0.826   5.615
 4105SOL    HW113058   3.194   0.741   5.618
 4105SOL    HW213059   3.184   0.866   5.534
 4106SOL     OW13060   2.922   1.334   6.458
 4106SOL    HW113061   2.921   1.264   6.392
 4106SOL    HW213062   2.977   1.402   6.420
 4107SOL     OW13063   2.170   0.799   6.532
 4107SOL    HW113064   2.263   0.821   6.522
 4107SOL    HW213065   2.170   0.710   6.565
 4108SOL     OW13066   2.201   0.532   6.601
 4108SOL    HW113067   2.158   0.448   6.585
 4108SOL    HW213068   2.276   0.533   6.543
 4109SOL     OW13069   2.995   0.381   7.282
 4109SOL    HW113070   2.946   0.435   7.344
 4109SOL    HW213071   3.081   0.421   7.277
 4110SOL     OW13072   3.013   0.226   7.067
 4110SOL    HW113073   3.004   0.280   7.145
 4110SOL    HW213074   3.038   0.287   6.998
 4111SOL     OW13075   1.878   1.317   5.763
 4111SOL    HW113076   1.787   1.329   5.736
 4111SOL    HW213077   1.877   1.238   5.816
 4112SOL     OW13078   2.841   0.789   6.811
 4112SOL    HW113079   2.897   0.768   6.886
 4112SOL    HW213080   2.756   0.751   6.833
 4113SOL     OW13081   1.895   0.545   6.703
 4113SOL    HW113082   1.971   0.521   6.650
 4113SOL    HW213083   1.927   0.547   6.793
 4114SOL     OW13084   2.066   0.525   7.299
 4114SOL    HW113085   2.135   0.504   7.236
 4114SOL    HW213086   2.020   0.600   7.260
 4115SOL     OW13087   3.240   0.937   7.244
 4115SOL    HW113088   3.263   1.030   7.241
 4115SOL    HW213089   3.237   0.910   7.152
 4116SOL     OW13090   2.679   0.572   5.950
 4116SOL    HW113091   2.684   0.497   5.890
 4116SOL    HW213092   2.605   0.623   5.917
 4117SOL     OW13093   3.502   0.602   6.770
 4117SOL    HW113094   3.491   0.541   6.843
 4117SOL    HW213095   3.588   0.581   6.733
 4118SOL     OW13096   2.569   0.453   6.843
 4118SOL    HW113097   2.518   0.376   6.818
 4118SOL    HW213098   2.561   0.512   6.769
 4119SOL     OW13099   2.824   1.659   7.028
 4119SOL    HW113100   2.769   1.640   6.952
 4119SOL    HW213101   2.795   1.746   7.057
 4120SOL     OW13102   2.325   0.494   5.769
 4120SOL    HW113103   2.383   0.566   5.793
 4120SOL    HW213104   2.239   0.535   5.757
 4121SOL     OW13105   2.021   1.142   7.048
 4121SOL    HW113106   2.002   1.097   7.130
 4121SOL    HW213107   2.031   1.073   6.984
 4122SOL     OW13108   3.186   1.043   6.808
 4122SOL    HW113109   3.209   0.980   6.740
 4122SOL    HW213110   3.119   1.098   6.769
 4123SOL     OW13111   3.176   0.854   5.891
 4123SOL    HW113112   3.100   0.828   5.943
 4123SOL    HW213113   3.148   0.844   5.800
 4124SOL     OW13114   3.641   1.742   6.742
 4124SOL    HW113115   3.697   1.769   6.669
 4124SOL    HW213116   3.613   1.654   6.719
 4125SOL     OW13117   3.118   1.724   6.696
 4125SOL    HW113118   3.199   1.747   6.650
 4125SOL    HW213119   3.125   1.630   6.712
 4126SOL     OW13120   3.551   0.120   6.073
 4126SOL    HW113121   3.633   0.135   6.025
 4126SOL    HW213122   3.553   0.027   6.095
 4127SOL     OW13123   3.254   1.564   6.071
 4127SOL    HW113124   3.314   1.597   6.004
 4127SOL    HW213125   3.206   1.642   6.100
 4128SOL     OW13126   3.140   0.926   6.257
 4128SOL    HW113127   3.214   0.867   6.266
 4128SOL    HW213128   3.173   0.999   6.204
 4129SOL     OW13129   2.679   1.269   7.032
 4129SOL    HW113130   2.657   1.297   7.121
 4129SOL    HW213131   2.605   1.299   6.978
 4130SOL     OW13132   2.541   1.620   5.731
 4130SOL    HW113133   2.547   1.629   5.636
 4130SOL    HW213134   2.484   1.545   5.745
 4131SOL     OW13135   3.483   1.728   6.977
 4131SOL    HW113136   3.538   1.733   6.898
 4131SOL    HW213137   3.470   1.819   7.003
 4132SOL     OW13138   3.703   0.181   6.557
 4132SOL    HW113139   3.727   0.097   6.518
 4132SOL    HW213140   3.617   0.201   6.520
 4133SOL     OW13141   2.126   0.316   6.301
 4133SOL    HW113142   2.040   0.351   6.279
 4133SOL    HW213143   2.124   0.307   6.396
 4134SOL     OW13144   3.071   1.603   5.617
 4134SOL    HW113145   3.059   1.513   5.645
 4134SOL    HW213146   3.004   1.617   5.549
 4135SOL     OW13147   2.687   1.003   6.958
 4135SOL    HW113148   2.727   0.997   6.871
 4135SOL    HW213149   2.686   1.097   6.977
 4136SOL     OW13150   2.777   0.909   5.875
 4136SOL    HW113151   2.838   0.943   5.810
 4136SOL    HW213152   2.827   0.842   5.921
 4137SOL     OW13153   3.351   1.628   5.629
 4137SOL    HW113154   3.257   1.619   5.615
 4137SOL    HW213155   3.389   1.634   5.541
 4138SOL     OW13156   2.239   1.297   7.091
 4138SOL    HW113157   2.219   1.374   7.038
 4138SOL    HW213158   2.170   1.234   7.069
 4139SOL     OW13159   3.463   1.277   6.864
 4139SOL    HW113160   3.534   1.271   6.928
 4139SOL    HW213161   3.408   1.349   6.895
 4140SOL     OW13162   2.917   1.111   6.299
 4140SOL    HW113163   2.845   1.057   6.333
 4140SOL    HW213164   2.979   1.048   6.264
 4141SOL     OW13165   2.877   0.248   6.555
 4141SOL    HW113166   2.867   0.198   6.475
 4141SOL    HW213167   2.872   0.183   6.625
 4142SOL     OW13168   3.582   0.394   6.958
 4142SOL    HW113169   3.654   0.457   6.958
 4142SOL    HW213170   3.614   0.321   6.904
 4143SOL     OW13171   1.970   1.002   7.287
 4143SOL    HW113172   1.895   0.995   7.347
 4143SOL    HW213173   2.046   0.985   7.343
 4144SOL     OW13174   2.555   0.253   7.087
 4144SOL    HW113175   2.622   0.199   7.046
 4144SOL    HW213176   2.582   0.260   7.179
 4145SOL     OW13177   1.961   0.317   5.577
 4145SOL    HW113178   1.893   0.337   5.642
 4145SOL    HW213179   1.970   0.398   5.527
 4146SOL     OW13180   3.288   0.856   6.985
 4146SOL    HW113181   3.239   0.918   6.931
 4146SOL    HW213182   3.377   0.859   6.949
 4147SOL     OW13183   1.943   0.152   5.925
 4147SOL    HW113184   1.912   0.212   5.858
 4147SOL    HW213185   2.029   0.124   5.896
 4148SOL     OW13186   3.040   1.337   5.704
 4148SOL    HW113187   2.949   1.308   5.706
 4148SOL    HW213188   3.067   1.338   5.795
 4149SOL     OW13189   2.482   0.829   7.021
 4149SOL    HW113190   2.539   0.904   7.003
 4149SOL    HW213191   2.543   0.755   7.028
 4150SOL     OW13192   3.350   1.781   6.563
 4150SOL    HW113193   3.373   1.843   6.495
 4150SOL    HW213194   3.433   1.754   6.601
 4151SOL     OW13195   2.581   0.560   7.291
 4151SOL    HW113196   2.623   0.622   7.351
 4151SOL    HW213197   2.606   0.474   7.323
 4152SOL     OW13198   3.337   1.196   7.217
 4152SOL    HW113199   3.326   1.211   7.311
 4152SOL    HW213200   3.430   1.213   7.201
 4153SOL     OW13201   2.232   1.729   7.155
 4153SOL    HW113202   2.151   1.740   7.105
 4153SOL    HW213203   2.234   1.636   7.178
 4154SOL     OW13204   3.527   0.881   6.845
 4154SOL    HW113205   3.526   0.795   6.801
 4154SOL    HW213206   3.520   0.944   6.774
 4155SOL     OW13207   3.083   0.337   6.030
 4155SOL    HW113208   3.151   0.270   6.020
 4155SOL    HW213209   3.103   0.381   6.112
 4156SOL     OW13210   2.452   0.736   6.256
 4156SOL    HW113211   2.493   0.821   6.240
 4156SOL    HW213212   2.384   0.730   6.189
 4157SOL     OW13213   3.616   0.381   7.228
 4157SOL    HW113214   3.596   0.390   7.135
 4157SOL    HW213215   3.556   0.313   7.260
 4158SOL     OW13216   3.615   0.930   7.100
 4158SOL    HW113217   3.608   1.024   7.116
 4158SOL    HW213218   3.592   0.920   7.007
 4159SOL     OW13219   2.724   1.364   5.614
 4159SOL    HW113220   2.695   1.375   5.704
 4159SOL    HW213221   2.739   1.453   5.582
 4160SOL     OW13222   2.734   0.960   6.438
 4160SOL    HW113223   2.786   0.889   6.477
 4160SOL    HW213224   2.698   1.007   6.513
 4161SOL     OW13225   2.941   0.988   5.675
 4161SOL    HW113226   2.918   1.041   5.598
 4161SOL    HW213227   3.015   0.935   5.647
 4162SOL     OW13228   3.714   1.557   6.427
 4162SOL    HW113229   3.635   1.540   6.376
 4162SOL    HW213230   3.714   1.489   6.495
 4163SOL     OW13231   3.676   0.181   6.830
 4163SOL    HW113232   3.678   0.086   6.839
 4163SOL    HW213233   3.694   0.198   6.738
 4164SOL     OW13234   2.290   0.434   6.111
 4164SOL    HW113235   2.324   0.362   6.058
 4164SOL    HW213236   2.243   0.391   6.182
 4165SOL     OW13237   3.559   1.491   6.683
 4165SOL    HW113238   3.481   1.467   6.634
 4165SOL    HW213239   3.570   1.419   6.745
 4166SOL     OW13240   2.193   0.556   6.880
 4166SOL    HW113241   2.247   0.497   6.934
 4166SOL    HW213242   2.212   0.529   6.790
 4167SOL     OW13243   3.324   0.253   6.696
 4167SOL    HW113244   3.337   0.164   6.732
 4167SOL    HW213245   3.267   0.296   6.761
 4168SOL     OW13246   2.866   0.028   6.733
 4168SOL    HW113247   2.786   3.990   6.697
 4168SOL    HW213248   2.926   3.953   6.741
 4169SOL     OW13249   2.659   1.325   5.879
 4169SOL    HW113250   2.610   1.246   5.900
 4169SOL    HW213251   2.721   1.336   5.952
 4170SOL     OW13252   2.486   1.542   6.927
 4170SOL    HW113253   2.484   1.634   6.951
 4170SOL    HW213254   2.570   1.530   6.882
 4171SOL     OW13255   3.173   0.071   5.746
 4171SOL    HW113256   3.180   3.990   5.695
 4171SOL    HW213257   3.089   0.065   5.790
 4172SOL     OW13258   3.144   0.457   6.271
 4172SOL    HW113259   3.097   0.540   6.266
 4172SOL    HW213260   3.147   0.437   6.365
 4173SOL     OW13261   3.452   0.210   6.453
 4173SOL    HW113262   3.404   0.234   6.532
 4173SOL    HW213263   3.451   0.290   6.400
 4174SOL     OW13264   1.902   1.069   5.893
 4174SOL    HW113265   1.996   1.067   5.876
 4174SOL    HW213266   1.879   0.980   5.917
 4175SOL     OW13267   2.758   1.636   5.910
 4175SOL    HW113268   2.687   1.616   5.849
 4175SOL    HW213269   2.721   1.701   5.969
 4176SOL     OW13270   2.090   0.619   7.569
 4176SOL    HW113271   2.000   0.629   7.600
 4176SOL    HW213272   2.081   0.599   7.476
 4177SOL     OW13273   2.079   0.300   8.439
 4177SOL    HW113274   2.116   0.257   8.516
 4177SOL    HW213275   1.994   0.257   8.426
 4178SOL     OW13276   1.870   0.396   8.082
 4178SOL    HW113277   1.784   0.412   8.119
 4178SOL    HW213278   1.856   0.329   8.015
 4179SOL     OW13279   2.429   1.290   8.624
 4179SOL    HW113280   2.342   1.294   8.584
 4179SOL    HW213281   2.446   1.380   8.654
 4180SOL     OW13282   3.425   1.512   8.155
 4180SOL    HW113283   3.383   1.492   8.239
 4180SOL    HW213284   3.353   1.518   8.092
 4181SOL     OW13285   2.994   0.699   8.145
 4181SOL    HW113286   3.042   0.781   8.133
 4181SOL    HW213287   2.947   0.711   8.227
 4182SOL     OW13288   3.622   0.623   7.675
 4182SOL    HW113289   3.604   0.612   7.581
 4182SOL    HW213290   3.607   0.536   7.712
 4183SOL     OW13291   2.615   1.141   8.492
 4183SOL    HW113292   2.547   1.176   8.549
 4183SOL    HW213293   2.651   1.218   8.447
 4184SOL     OW13294   2.732   0.770   9.271
 4184SOL    HW113295   2.718   0.841   9.334
 4184SOL    HW213296   2.755   0.815   9.190
 4185SOL     OW13297   2.550   0.999   8.093
 4185SOL    HW113298   2.615   0.989   8.163
 4185SOL    HW213299   2.479   1.050   8.133
 4186SOL     OW13300   2.575   1.150   9.262
 4186SOL    HW113301   2.622   1.228   9.292
 4186SOL    HW213302   2.493   1.183   9.227
 4187SOL     OW13303   2.190   1.424   8.516
 4187SOL    HW113304   2.118   1.385   8.468
 4187SOL    HW213305   2.239   1.475   8.451
 4188SOL     OW13306   3.321   1.501   8.805
 4188SOL    HW113307   3.375   1.580   8.814
 4188SOL    HW213308   3.257   1.508   8.875
 4189SOL     OW13309   2.307   0.393   8.941
 4189SOL    HW113310   2.397   0.361   8.940
 4189SOL    HW213311   2.253   0.315   8.949
 4190SOL     OW13312   3.473   0.450   8.183
 4190SOL    HW113313   3.403   0.484   8.127
 4190SOL    HW213314   3.496   0.524   8.240
 4191SOL     OW13315   2.173   1.768   7.948
 4191SOL    HW113316   2.102   1.808   7.996
 4191SOL    HW213317   2.133   1.737   7.866
 4192SOL     OW13318   2.999   1.342   9.141
 4192SOL    HW113319   3.040   1.337   9.228
 4192SOL    HW213320   2.947   1.262   9.135
 4193SOL     OW13321   2.151   1.432   8.050
 4193SOL    HW113322   2.129   1.525   8.041
 4193SOL    HW213323   2.066   1.388   8.060
 4194SOL     OW13324   2.125   1.091   8.340
 4194SOL    HW113325   2.118   1.003   8.377
 4194SOL    HW213326   2.067   1.145   8.393
 4195SOL     OW13327   2.470   1.784   8.881
 4195SOL    HW113328   2.392   1.772   8.934
 4195SOL    HW213329   2.496   1.875   8.896
 4196SOL     OW13330   2.446   0.983   7.579
 4196SOL    HW113331   2.496   1.029   7.512
 4196SOL    HW213332   2.486   1.011   7.662
 4197SOL     OW13333   3.443   0.140   8.905
 4197SOL    HW113334   3.469   0.213   8.848
 4197SOL    HW213335   3.408   0.183   8.983
 4198SOL     OW13336   1.981   0.654   8.010
 4198SOL    HW113337   1.952   0.566   8.033
 4198SOL    HW213338   1.972   0.705   8.090
 4199SOL     OW13339   3.702   1.757   7.784
 4199SOL    HW113340   3.772   1.733   7.845
 4199SOL    HW213341   3.721   1.848   7.762
 4200SOL     OW13342   3.549   0.917   8.093
 4200SOL    HW113343   3.634   0.875   8.078
 4200SOL    HW213344   3.533   0.967   8.013
 4201SOL     OW13345   3.504   1.105   7.879
 4201SOL    HW113346   3.589   1.110   7.835
 4201SOL    HW213347   3.510   1.167   7.951
 4202SOL     OW13348   1.985   0.749   9.029
 4202SOL    HW113349   2.075   0.780   9.034
 4202SOL    HW213350   1.932   0.829   9.036
 4203SOL     OW13351   2.464   1.394   8.169
 4203SOL    HW113352   2.440   1.304   8.190
 4203SOL    HW213353   2.398   1.422   8.105
 4204SOL     OW13354   3.149   1.237   8.871
 4204SOL    HW113355   3.182   1.171   8.810
 4204SOL    HW213356   3.208   1.232   8.946
 4205SOL     OW13357   2.681   0.004   7.965
 4205SOL    HW113358   2.727   0.084   7.940
 4205SOL    HW213359   2.589   0.028   7.965
 4206SOL     OW13360   2.051   0.962   8.723
 4206SOL    HW113361   2.137   0.921   8.707
 4206SOL    HW213362   1.991   0.914   8.667
 4207SOL     OW13363   3.390   0.996   7.648
 4207SOL    HW113364   3.321   0.939   7.683
 4207SOL    HW213365   3.433   1.031   7.726
 4208SOL     OW13366   3.048   1.808   9.071
 4208SOL    HW113367   3.057   1.868   8.997
 4208SOL    HW213368   3.065   1.721   9.035
 4209SOL     OW13369   2.219   0.253   9.285
 4209SOL    HW113370   2.263   0.338   9.284
 4209SOL    HW213371   2.125   0.274   9.290
 4210SOL     OW13372   3.328   1.420   8.398
 4210SOL    HW113373   3.261   1.435   8.464
 4210SOL    HW213374   3.317   1.329   8.372
 4211SOL     OW13375   3.515   1.745   8.027
 4211SOL    HW113376   3.501   1.713   7.938
 4211SOL    HW213377   3.495   1.670   8.083
 4212SOL     OW13378   2.457   0.721   7.717
 4212SOL    HW113379   2.458   0.803   7.668
 4212SOL    HW213380   2.391   0.735   7.785
 4213SOL     OW13381   3.137   0.368   8.389
 4213SOL    HW113382   3.050   0.329   8.396
 4213SOL    HW213383   3.194   0.306   8.434
 4214SOL     OW13384   3.440   1.669   7.758
 4214SOL    HW113385   3.531   1.700   7.752
 4214SOL    HW213386   3.414   1.654   7.667
 4215SOL     OW13387   2.658   0.616   8.900
 4215SOL    HW113388   2.629   0.591   8.988
 4215SOL    HW213389   2.619   0.550   8.842
 4216SOL     OW13390   3.254   0.476   9.125
 4216SOL    HW113391   3.260   0.521   9.209
 4216SOL    HW213392   3.312   0.400   9.135
 4217SOL     OW13393   2.814   0.887   9.032
 4217SOL    HW113394   2.870   0.818   8.995
 4217SOL    HW213395   2.766   0.922   8.957
 4218SOL     OW13396   2.854   0.402   8.687
 4218SOL    HW113397   2.770   0.424   8.726
 4218SOL    HW213398   2.833   0.374   8.598
 4219SOL     OW13399   2.914   0.700   7.873
 4219SOL    HW113400   2.930   0.693   7.967
 4219SOL    HW213401   2.831   0.653   7.860
 4220SOL     OW13402   1.949   0.822   8.225
 4220SOL    HW113403   2.029   0.814   8.276
 4220SOL    HW213404   1.905   0.899   8.260
 4221SOL     OW13405   2.757   0.352   7.648
 4221SOL    HW113406   2.799   0.410   7.585
 4221SOL    HW213407   2.749   0.269   7.601
 4222SOL     OW13408   3.570   0.574   9.277
 4222SOL    HW113409   3.533   0.648   9.230
 4222SOL    HW213410   3.595   0.512   9.209
 4223SOL     OW13411   3.238   1.141   7.987
 4223SOL    HW113412   3.319   1.130   7.937
 4223SOL    HW213413   3.187   1.205   7.937
 4224SOL     OW13414   2.420   0.198   8.329
 4224SOL    HW113415   2.423   0.217   8.423
 4224SOL    HW213416   2.415   0.284   8.287
 4225SOL     OW13417   2.860   1.455   7.914
 4225SOL    HW113418   2.793   1.513   7.878
 4225SOL    HW213419   2.855   1.467   8.008
 4226SOL     OW13420   2.230   1.808   8.282
 4226SOL    HW113421   2.255   1.717   8.297
 4226SOL    HW213422   2.304   1.858   8.316
 4227SOL     OW13423   3.667   1.062   8.316
 4227SOL    HW113424   3.613   1.037   8.240
 4227SOL    HW213425   3.605   1.065   8.389
 4228SOL     OW13426   3.090   1.539   8.961
 4228SOL    HW113427   3.076   1.467   9.023
 4228SOL    HW213428   3.024   1.525   8.893
 4229SOL     OW13429   2.185   0.965   7.700
 4229SOL    HW113430   2.266   0.976   7.651
 4229SOL    HW213431   2.147   0.884   7.666
 4230SOL     OW13432   3.341   0.746   8.177
 4230SOL    HW113433   3.336   0.705   8.263
 4230SOL    HW213434   3.419   0.802   8.182
 4231SOL     OW13435   2.332   1.265   9.188
 4231SOL    HW113436   2.305   1.268   9.097
 4231SOL    HW213437   2.250   1.262   9.237
 4232SOL     OW13438   2.986   1.783   7.676
 4232SOL    HW113439   2.920   1.736   7.727
 4232SOL    HW213440   3.011   1.721   7.607
 4233SOL     OW13441   2.032   0.275   8.947
 4233SOL    HW113442   1.976   0.352   8.937
 4233SOL    HW213443   2.038   0.262   9.042
 4234SOL     OW13444   3.488   1.382   7.536
 4234SOL    HW113445   3.446   1.467   7.521
 4234SOL    HW213446   3.420   1.318   7.515
 4235SOL     OW13447   3.297   0.169   7.850
 4235SOL    HW113448   3.253   0.096   7.806
 4235SOL    HW213449   3.372   0.129   7.894
 4236SOL     OW13450   2.122   1.743   8.667
 4236SOL    HW113451   2.182   1.681   8.708
 4236SOL    HW213452   2.142   1.738   8.574
 4237SOL     OW13453   2.800   1.696   8.350
 4237SOL    HW113454   2.880   1.647   8.369
 4237SOL    HW213455   2.759   1.648   8.278
 4238SOL     OW13456   2.257   0.695   7.922
 4238SOL    HW113457   2.276   0.602   7.935
 4238SOL    HW213458   2.164   0.704   7.941
 4239SOL     OW13459   3.392   0.230   9.175
 4239SOL    HW113460   3.386   0.255   9.267
 4239SOL    HW213461   3.372   0.136   9.174
 4240SOL     OW13462   2.506   0.130   7.556
 4240SOL    HW113463   2.530   0.046   7.596
 4240SOL    HW213464   2.443   0.108   7.488
 4241SOL     OW13465   2.637   0.282   9.216
 4241SOL    HW113466   2.708   0.218   9.219
 4241SOL    HW213467   2.579   0.257   9.288
 4242SOL     OW13468   2.739   1.521   8.642
 4242SOL    HW113469   2.723   1.485   8.554
 4242SOL    HW213470   2.809   1.467   8.678
 4243SOL     OW13471   3.203   0.587   8.878
 4243SOL    HW113472   3.233   0.559   8.965
 4243SOL    HW213473   3.236   0.676   8.869
 4244SOL     OW13474   2.678   1.390   8.387
 4244SOL    HW113475   2.764   1.380   8.347
 4244SOL    HW213476   2.618   1.400   8.313
 4245SOL     OW13477   2.792   0.511   8.348
 4245SOL    HW113478   2.767   0.503   8.256
 4245SOL    HW213479   2.818   0.423   8.374
 4246SOL     OW13480   2.407   0.057   7.939
 4246SOL    HW113481   2.333   0.062   7.999
 4246SOL    HW213482   2.402   0.137   7.888
 4247SOL     OW13483   3.289   1.198   7.488
 4247SOL    HW113484   3.322   1.123   7.538
 4247SOL    HW213485   3.205   1.219   7.529
 4248SOL     OW13486   2.192   0.042   7.658
 4248SOL    HW113487   2.199   0.109   7.590
 4248SOL    HW213488   2.275   0.048   7.706
 4249SOL     OW13489   2.804   0.250   7.908
 4249SOL    HW113490   2.779   0.289   7.825
 4249SOL    HW213491   2.899   0.253   7.909
 4250SOL     OW13492   2.942   0.683   8.906
 4250SOL    HW113493   2.871   0.619   8.913
 4250SOL    HW213494   3.022   0.631   8.901
 4251SOL     OW13495   3.084   1.570   8.241
 4251SOL    HW113496   3.098   1.637   8.175
 4251SOL    HW213497   3.153   1.585   8.306
 4252SOL     OW13498   2.338   1.147   8.183
 4252SOL    HW113499   2.268   1.131   8.247
 4252SOL    HW213500   2.296   1.134   8.098
 4253SOL     OW13501   3.127   1.792   8.057
 4253SOL    HW113502   3.176   1.854   8.002
 4253SOL    HW213503   3.059   1.845   8.099
 4254SOL     OW13504   2.884   0.542   7.476
 4254SOL    HW113505   2.840   0.625   7.456
 4254SOL    HW213506   2.948   0.564   7.544
 4255SOL     OW13507   1.943   0.550   8.844
 4255SOL    HW113508   2.034   0.552   8.815
 4255SOL    HW213509   1.936   0.623   8.906
 4256SOL     OW13510   2.426   0.231   8.609
 4256SOL    HW113511   2.450   0.139   8.619
 4256SOL    HW213512   2.336   0.236   8.641
 4257SOL     OW13513   2.732   0.461   8.086
 4257SOL    HW113514   2.684   0.515   8.024
 4257SOL    HW213515   2.753   0.381   8.038
 4258SOL     OW13516   2.858   0.040   8.228
 4258SOL    HW113517   2.822   0.068   8.144
 4258SOL    HW213518   2.869   3.945   8.219
 4259SOL     OW13519   3.301   1.161   8.306
 4259SOL    HW113520   3.231   1.097   8.303
 4259SOL    HW213521   3.328   1.172   8.214
 4260SOL     OW13522   3.326   0.608   8.423
 4260SOL    HW113523   3.273   0.528   8.428
 4260SOL    HW213524   3.386   0.601   8.497
 4261SOL     OW13525   3.721   0.824   7.823
 4261SOL    HW113526   3.763   0.767   7.887
 4261SOL    HW213527   3.683   0.764   7.759
 4262SOL     OW13528   3.528   1.265   8.093
 4262SOL    HW113529   3.624   1.268   8.102
 4262SOL    HW213530   3.500   1.354   8.113
 4263SOL     OW13531   3.257   0.576   7.517
 4263SOL    HW113532   3.194   0.556   7.587
 4263SOL    HW213533   3.342   0.559   7.557
 4264SOL     OW13534   2.388   0.266   7.764
 4264SOL    HW113535   2.443   0.227   7.696
 4264SOL    HW213536   2.360   0.350   7.727
 4265SOL     OW13537   3.614   1.234   9.015
 4265SOL    HW113538   3.701   1.199   8.997
 4265SOL    HW213539   3.629   1.323   9.045
 4266SOL     OW13540   2.919   1.353   8.780
 4266SOL    HW113541   2.844   1.322   8.831
 4266SOL    HW213542   2.995   1.312   8.822
 4267SOL     OW13543   3.468   1.628   9.104
 4267SOL    HW113544   3.460   1.662   9.015
 4267SOL    HW213545   3.548   1.577   9.102
 4268SOL     OW13546   2.993   1.205   8.552
 4268SOL    HW113547   2.934   1.243   8.617
 4268SOL    HW213548   2.961   1.239   8.468
 4269SOL     OW13549   3.490   1.096   8.523
 4269SOL    HW113550   3.482   1.158   8.596
 4269SOL    HW213551   3.413   1.113   8.469
 4270SOL     OW13552   2.774   0.115   8.849
 4270SOL    HW113553   2.794   0.088   8.760
 4270SOL    HW213554   2.855   0.157   8.880
 4271SOL     OW13555   2.846   1.115   9.172
 4271SOL    HW113556   2.755   1.132   9.194
 4271SOL    HW213557   2.844   1.037   9.116
 4272SOL     OW13558   2.568   1.052   7.818
 4272SOL    HW113559   2.552   1.037   7.911
 4272SOL    HW213560   2.644   0.998   7.797
 4273SOL     OW13561   2.283   0.816   8.699
 4273SOL    HW113562   2.351   0.824   8.766
 4273SOL    HW213563   2.247   0.728   8.712
 4274SOL     OW13564   3.128   0.375   8.724
 4274SOL    HW113565   3.162   0.453   8.768
 4274SOL    HW213566   3.041   0.400   8.694
 4275SOL     OW13567   1.948   1.556   8.813
 4275SOL    HW113568   1.921   1.621   8.747
 4275SOL    HW213569   2.043   1.553   8.806
 4276SOL     OW13570   2.215   1.109   7.941
 4276SOL    HW113571   2.203   1.190   7.892
 4276SOL    HW213572   2.210   1.040   7.875
 4277SOL     OW13573   2.417   0.532   8.305
 4277SOL    HW113574   2.430   0.592   8.231
 4277SOL    HW213575   2.481   0.560   8.370
 4278SOL     OW13576   3.106   1.352   7.837
 4278SOL    HW113577   3.165   1.421   7.868
 4278SOL    HW213578   3.020   1.377   7.870
 4279SOL     OW13579   3.146   1.459   8.596
 4279SOL    HW113580   3.202   1.463   8.673
 4279SOL    HW213581   3.091   1.382   8.610
 4280SOL     OW13582   3.434   0.632   7.933
 4280SOL    HW113583   3.393   0.689   7.998
 4280SOL    HW213584   3.484   0.692   7.877
 4281SOL     OW13585   2.220   1.508   8.768
 4281SOL    HW113586   2.204   1.472   8.681
 4281SOL    HW213587   2.314   1.523   8.771
 4282SOL     OW13588   2.279   0.744   9.050
 4282SOL    HW113589   2.340   0.789   8.992
 4282SOL    HW213590   2.320   0.660   9.067
 4283SOL     OW13591   3.465   0.778   9.131
 4283SOL    HW113592   3.380   0.821   9.125
 4283SOL    HW213593   3.518   0.821   9.063
 4284SOL     OW13594   2.877   0.130   9.228
 4284SOL    HW113595   2.925   0.204   9.190
 4284SOL    HW213596   2.860   0.072   9.154
 4285SOL     OW13597   2.350   0.034   9.210
 4285SOL    HW113598   2.353   0.046   9.115
 4285SOL    HW213599   2.291   0.102   9.241
 4286SOL     OW13600   2.447   0.873   8.480
 4286SOL    HW113601   2.474   0.965   8.480
 4286SOL    HW213602   2.389   0.865   8.556
 4287SOL     OW13603   3.216   0.859   8.474
 4287SOL    HW113604   3.131   0.847   8.431
 4287SOL    HW213605   3.259   0.774   8.467
 4288SOL     OW13606   3.063   0.537   7.707
 4288SOL    HW113607   3.071   0.458   7.760
 4288SOL    HW213608   3.019   0.600   7.765
 4289SOL     OW13609   2.162   0.210   8.691
 4289SOL    HW113610   2.120   0.239   8.772
 4289SOL    HW213611   2.150   0.115   8.691
 4290SOL     OW13612   1.902   1.304   8.727
 4290SOL    HW113613   1.937   1.246   8.794
 4290SOL    HW213614   1.916   1.392   8.761
 4291SOL     OW13615   2.585   0.632   8.501
 4291SOL    HW113616   2.660   0.619   8.444
 4291SOL    HW213617   2.555   0.721   8.482
 4292SOL     OW13618   3.594   0.957   9.310
 4292SOL    HW113619   3.551   0.896   9.250
 4292SOL    HW213620   3.530   0.971   9.379
 4293SOL     OW13621   2.184   0.056   8.099
 4293SOL    HW113622   2.164   0.149   8.110
 4293SOL    HW213623   2.148   0.014   8.177
 4294SOL     OW13624   3.473   0.391   7.828
 4294SOL    HW113625   3.437   0.322   7.884
 4294SOL    HW213626   3.451   0.473   7.873
 4295SOL     OW13627   2.891   0.759   8.407
 4295SOL    HW113628   2.885   0.776   8.501
 4295SOL    HW213629   2.864   0.668   8.397
 4296SOL     OW13630   2.844   1.566   9.167
 4296SOL    HW113631   2.829   1.610   9.083
 4296SOL    HW213632   2.887   1.484   9.143
 4297SOL     OW13633   3.705   1.499   9.046
 4297SOL    HW113634   3.729   1.529   8.958
 4297SOL    HW213635   3.786   1.510   9.097
 4298SOL     OW13636   2.215   0.915   9.257
 4298SOL    HW113637   2.296   0.935   9.303
 4298SOL    HW213638   2.240   0.853   9.189
 4299SOL     OW13639   3.364   0.275   7.582
 4299SOL    HW113640   3.290   0.215   7.593
 4299SOL    HW213641   3.377   0.313   7.669
 4300SOL     OW13642   3.149   0.826   7.477
 4300SOL    HW113643   3.192   0.741   7.481
 4300SOL    HW213644   3.182   0.866   7.396
 4301SOL     OW13645   2.929   1.337   8.303
 4301SOL    HW113646   2.933   1.265   8.240
 4301SOL    HW213647   2.990   1.402   8.269
 4302SOL     OW13648   2.169   0.809   8.395
 4302SOL    HW113649   2.262   0.830   8.387
 4302SOL    HW213650   2.168   0.719   8.427
 4303SOL     OW13651   2.199   0.535   8.462
 4303SOL    HW113652   2.157   0.451   8.446
 4303SOL    HW213653   2.275   0.536   8.404
 4304SOL     OW13654   2.995   0.381   9.144
 4304SOL    HW113655   2.946   0.436   9.206
 4304SOL    HW213656   3.081   0.421   9.140
 4305SOL     OW13657   3.013   0.226   8.929
 4305SOL    HW113658   3.004   0.280   9.008
 4305SOL    HW213659   3.037   0.287   8.860
 4306SOL     OW13660   2.361   1.573   8.360
 4306SOL    HW113661   2.426   1.641   8.378
 4306SOL    HW213662   2.404   1.513   8.300
 4307SOL     OW13663   2.841   0.788   8.672
 4307SOL    HW113664   2.898   0.769   8.747
 4307SOL    HW213665   2.756   0.753   8.697
 4308SOL     OW13666   1.895   0.547   8.565
 4308SOL    HW113667   1.970   0.522   8.511
 4308SOL    HW213668   1.929   0.547   8.655
 4309SOL     OW13669   2.065   0.526   9.160
 4309SOL    HW113670   2.135   0.506   9.099
 4309SOL    HW213671   2.020   0.602   9.122
 4310SOL     OW13672   3.242   0.937   9.106
 4310SOL    HW113673   3.262   1.030   9.103
 4310SOL    HW213674   3.237   0.911   9.014
 4311SOL     OW13675   2.679   0.573   7.811
 4311SOL    HW113676   2.685   0.497   7.752
 4311SOL    HW213677   2.604   0.622   7.779
 4312SOL     OW13678   3.502   0.602   8.631
 4312SOL    HW113679   3.491   0.541   8.705
 4312SOL    HW213680   3.588   0.581   8.595
 4313SOL     OW13681   2.089   1.563   9.191
 4313SOL    HW113682   2.045   1.596   9.269
 4313SOL    HW213683   2.111   1.472   9.212
 4314SOL     OW13684   2.569   0.453   8.705
 4314SOL    HW113685   2.518   0.376   8.679
 4314SOL    HW213686   2.560   0.513   8.630
 4315SOL     OW13687   2.788   1.678   8.917
 4315SOL    HW113688   2.762   1.642   8.832
 4315SOL    HW213689   2.784   1.773   8.905
 4316SOL     OW13690   2.326   0.494   7.632
 4316SOL    HW113691   2.383   0.567   7.656
 4316SOL    HW213692   2.240   0.534   7.619
 4317SOL     OW13693   2.005   1.139   8.921
 4317SOL    HW113694   2.007   1.090   9.003
 4317SOL    HW213695   2.023   1.073   8.854
 4318SOL     OW13696   3.184   1.045   8.670
 4318SOL    HW113697   3.208   0.982   8.602
 4318SOL    HW213698   3.116   1.099   8.631
 4319SOL     OW13699   3.174   0.856   7.753
 4319SOL    HW113700   3.100   0.825   7.805
 4319SOL    HW213701   3.148   0.842   7.662
 4320SOL     OW13702   3.642   1.742   8.605
 4320SOL    HW113703   3.697   1.770   8.531
 4320SOL    HW213704   3.613   1.654   8.581
 4321SOL     OW13705   3.102   1.733   8.558
 4321SOL    HW113706   3.185   1.755   8.514
 4321SOL    HW213707   3.111   1.640   8.577
 4322SOL     OW13708   1.952   1.259   8.465
 4322SOL    HW113709   1.931   1.272   8.558
 4322SOL    HW213710   1.876   1.213   8.430
 4323SOL     OW13711   2.539   1.667   9.179
 4323SOL    HW113712   2.487   1.748   9.179
 4323SOL    HW213713   2.606   1.682   9.111
 4324SOL     OW13714   3.551   0.120   7.935
 4324SOL    HW113715   3.633   0.135   7.887
 4324SOL    HW213716   3.553   0.027   7.957
 4325SOL     OW13717   3.251   1.567   7.934
 4325SOL    HW113718   3.313   1.600   7.868
 4325SOL    HW213719   3.204   1.645   7.964
 4326SOL     OW13720   3.139   0.927   8.119
 4326SOL    HW113721   3.213   0.868   8.130
 4326SOL    HW213722   3.173   0.999   8.066
 4327SOL     OW13723   2.673   1.274   8.876
 4327SOL    HW113724   2.645   1.314   8.958
 4327SOL    HW213725   2.604   1.296   8.813
 4328SOL     OW13726   3.482   1.727   8.839
 4328SOL    HW113727   3.537   1.732   8.761
 4328SOL    HW213728   3.469   1.818   8.865
 4329SOL     OW13729   3.703   0.181   8.419
 4329SOL    HW113730   3.728   0.098   8.380
 4329SOL    HW213731   3.617   0.201   8.382
 4330SOL     OW13732   2.126   0.316   8.163
 4330SOL    HW113733   2.039   0.350   8.141
 4330SOL    HW213734   2.125   0.308   8.258
 4331SOL     OW13735   3.072   1.604   7.484
 4331SOL    HW113736   3.064   1.512   7.508
 4331SOL    HW213737   3.017   1.614   7.406
 4332SOL     OW13738   2.686   1.006   8.821
 4332SOL    HW113739   2.728   1.002   8.735
 4332SOL    HW213740   2.684   1.099   8.842
 4333SOL     OW13741   2.780   0.910   7.737
 4333SOL    HW113742   2.843   0.943   7.672
 4333SOL    HW213743   2.827   0.841   7.783
 4334SOL     OW13744   3.354   1.625   7.491
 4334SOL    HW113745   3.259   1.622   7.478
 4334SOL    HW213746   3.390   1.633   7.403
 4335SOL     OW13747   2.229   1.298   8.946
 4335SOL    HW113748   2.223   1.371   8.885
 4335SOL    HW213749   2.152   1.244   8.927
 4336SOL     OW13750   3.463   1.280   8.726
 4336SOL    HW113751   3.532   1.272   8.792
 4336SOL    HW213752   3.406   1.350   8.758
 4337SOL     OW13753   2.916   1.109   8.153
 4337SOL    HW113754   2.846   1.059   8.194
 4337SOL    HW213755   2.981   1.043   8.127
 4338SOL     OW13756   2.876   0.249   8.417
 4338SOL    HW113757   2.866   0.198   8.337
 4338SOL    HW213758   2.872   0.183   8.487
 4339SOL     OW13759   3.582   0.394   8.820
 4339SOL    HW113760   3.654   0.457   8.820
 4339SOL    HW213761   3.614   0.321   8.766
 4340SOL     OW13762   1.975   1.025   9.169
 4340SOL    HW113763   1.899   1.001   9.221
 4340SOL    HW213764   2.049   0.986   9.215
 4341SOL     OW13765   2.555   0.253   8.949
 4341SOL    HW113766   2.622   0.199   8.908
 4341SOL    HW213767   2.582   0.260   9.040
 4342SOL     OW13768   1.961   0.317   7.439
 4342SOL    HW113769   1.892   0.337   7.502
 4342SOL    HW213770   1.971   0.398   7.388
 4343SOL     OW13771   3.288   0.857   8.846
 4343SOL    HW113772   3.238   0.919   8.793
 4343SOL    HW213773   3.376   0.859   8.810
 4344SOL     OW13774   1.943   0.152   7.788
 4344SOL    HW113775   1.912   0.212   7.720
 4344SOL    HW213776   2.029   0.124   7.757
 4345SOL     OW13777   3.042   1.336   7.567
 4345SOL    HW113778   2.962   1.283   7.571
 4345SOL    HW213779   3.072   1.342   7.657
 4346SOL     OW13780   2.483   0.829   8.882
 4346SOL    HW113781   2.539   0.905   8.867
 4346SOL    HW213782   2.544   0.755   8.891
 4347SOL     OW13783   3.344   1.780   8.428
 4347SOL    HW113784   3.367   1.842   8.358
 4347SOL    HW213785   3.429   1.754   8.465
 4348SOL     OW13786   2.580   0.561   9.152
 4348SOL    HW113787   2.622   0.624   9.211
 4348SOL    HW213788   2.606   0.475   9.186
 4349SOL     OW13789   3.334   1.198   9.079
 4349SOL    HW113790   3.323   1.212   9.172
 4349SOL    HW213791   3.427   1.214   9.063
 4350SOL     OW13792   2.235   1.741   9.024
 4350SOL    HW113793   2.163   1.753   8.962
 4350SOL    HW213794   2.208   1.667   9.078
 4351SOL     OW13795   3.527   0.881   8.707
 4351SOL    HW113796   3.526   0.796   8.663
 4351SOL    HW213797   3.520   0.944   8.636
 4352SOL     OW13798   3.083   0.337   7.891
 4352SOL    HW113799   3.151   0.270   7.882
 4352SOL    HW213800   3.104   0.381   7.974
 4353SOL     OW13801   2.452   0.736   8.118
 4353SOL    HW113802   2.490   0.823   8.104
 4353SOL    HW213803   2.385   0.728   8.051
 4354SOL     OW13804   3.617   0.381   9.090
 4354SOL    HW113805   3.596   0.389   8.997
 4354SOL    HW213806   3.556   0.314   9.122
 4355SOL     OW13807   3.616   0.930   8.962
 4355SOL    HW113808   3.607   1.024   8.979
 4355SOL    HW213809   3.592   0.920   8.869
 4356SOL     OW13810   2.727   1.359   7.466
 4356SOL    HW113811   2.715   1.368   7.560
 4356SOL    HW213812   2.777   1.437   7.440
 4357SOL     OW13813   2.525   1.793   8.383
 4357SOL    HW113814   2.515   1.888   8.377
 4357SOL    HW213815   2.620   1.779   8.382
 4358SOL     OW13816   2.731   0.969   8.303
 4358SOL    HW113817   2.781   0.897   8.341
 4358SOL    HW213818   2.694   1.016   8.378
 4359SOL     OW13819   2.944   0.995   7.538
 4359SOL    HW113820   2.919   1.038   7.456
 4359SOL    HW213821   3.016   0.937   7.513
 4360SOL     OW13822   3.715   1.556   8.290
 4360SOL    HW113823   3.636   1.540   8.238
 4360SOL    HW213824   3.714   1.489   8.357
 4361SOL     OW13825   2.089   1.300   9.300
 4361SOL    HW113826   2.021   1.238   9.275
 4361SOL    HW213827   2.074   1.317   9.393
 4362SOL     OW13828   1.945   1.222   8.109
 4362SOL    HW113829   1.966   1.184   8.195
 4362SOL    HW213830   2.011   1.185   8.050
 4363SOL     OW13831   2.543   1.405   9.075
 4363SOL    HW113832   2.466   1.361   9.111
 4363SOL    HW213833   2.540   1.493   9.113
 4364SOL     OW13834   3.676   0.181   8.692
 4364SOL    HW113835   3.678   0.086   8.701
 4364SOL    HW213836   3.694   0.198   8.600
 4365SOL     OW13837   2.291   0.434   7.974
 4365SOL    HW113838   2.324   0.362   7.920
 4365SOL    HW213839   2.243   0.391   8.044
 4366SOL     OW13840   3.559   1.491   8.545
 4366SOL    HW113841   3.480   1.468   8.495
 4366SOL    HW213842   3.569   1.419   8.608
 4367SOL     OW13843   2.193   0.556   8.742
 4367SOL    HW113844   2.246   0.497   8.796
 4367SOL    HW213845   2.212   0.530   8.652
 4368SOL     OW13846   2.689   1.576   8.128
 4368SOL    HW113847   2.673   1.646   8.065
 4368SOL    HW213848   2.612   1.520   8.123
 4369SOL     OW13849   3.323   0.253   8.558
 4369SOL    HW113850   3.337   0.165   8.594
 4369SOL    HW213851   3.267   0.296   8.623
 4370SOL     OW13852   2.866   0.028   8.595
 4370SOL    HW113853   2.786   3.989   8.559
 4370SOL    HW213854   2.927   3.954   8.603
 4371SOL     OW13855   2.651   1.303   7.739
 4371SOL    HW113856   2.611   1.218   7.758
 4371SOL    HW213857   2.727   1.306   7.797
 4372SOL     OW13858   2.484   1.555   8.732
 4372SOL    HW113859   2.485   1.636   8.783
 4372SOL    HW213860   2.573   1.549   8.696
 4373SOL     OW13861   3.174   0.071   7.608
 4373SOL    HW113862   3.181   3.991   7.556
 4373SOL    HW213863   3.088   0.064   7.651
 4374SOL     OW13864   3.143   0.457   8.133
 4374SOL    HW113865   3.097   0.540   8.128
 4374SOL    HW213866   3.147   0.437   8.227
 4375SOL     OW13867   3.452   0.210   8.315
 4375SOL    HW113868   3.404   0.234   8.394
 4375SOL    HW213869   3.451   0.290   8.262
 4376SOL     OW13870   1.896   1.069   7.757
 4376SOL    HW113871   1.989   1.069   7.734
 4376SOL    HW213872   1.877   0.978   7.781
 4377SOL     OW13873   2.089   0.619   9.431
 4377SOL    HW113874   2.000   0.628   9.463
 4377SOL    HW213875   2.080   0.600   9.338
 4378SOL     OW13876   2.079   0.300  10.301
 4378SOL    HW113877   2.116   0.257  10.378
 4378SOL    HW213878   1.994   0.257  10.288
 4379SOL     OW13879   1.871   0.396   9.944
 4379SOL    HW113880   1.784   0.412   9.981
 4379SOL    HW213881   1.857   0.328   9.878
 4380SOL     OW13882   2.429   1.290  10.487
 4380SOL    HW113883   2.343   1.293  10.446
 4380SOL    HW213884   2.446   1.380  10.515
 4381SOL     OW13885   3.425   1.512  10.018
 4381SOL    HW113886   3.383   1.491  10.101
 4381SOL    HW213887   3.354   1.517   9.954
 4382SOL     OW13888   2.994   0.698  10.008
 4382SOL    HW113889   3.042   0.780   9.995
 4382SOL    HW213890   2.947   0.711  10.090
 4383SOL     OW13891   3.623   0.623   9.536
 4383SOL    HW113892   3.605   0.612   9.443
 4383SOL    HW213893   3.606   0.537   9.575
 4384SOL     OW13894   2.616   1.141  10.354
 4384SOL    HW113895   2.547   1.176  10.411
 4384SOL    HW213896   2.651   1.217  10.309
 4385SOL     OW13897   2.732   0.770  11.133
 4385SOL    HW113898   2.718   0.841  11.196
 4385SOL    HW213899   2.755   0.815  11.052
 4386SOL     OW13900   2.548   1.000   9.955
 4386SOL    HW113901   2.613   0.991  10.025
 4386SOL    HW213902   2.479   1.053   9.994
 4387SOL     OW13903   2.575   1.150  11.124
 4387SOL    HW113904   2.622   1.228  11.153
 4387SOL    HW213905   2.492   1.183  11.089
 4388SOL     OW13906   2.190   1.425  10.379
 4388SOL    HW113907   2.118   1.385  10.331
 4388SOL    HW213908   2.239   1.474  10.313
 4389SOL     OW13909   3.321   1.501  10.667
 4389SOL    HW113910   3.375   1.580  10.676
 4389SOL    HW213911   3.257   1.507  10.738
 4390SOL     OW13912   2.307   0.393  10.803
 4390SOL    HW113913   2.397   0.361  10.802
 4390SOL    HW213914   2.253   0.314  10.811
 4391SOL     OW13915   3.473   0.450  10.046
 4391SOL    HW113916   3.403   0.483   9.989
 4391SOL    HW213917   3.495   0.524  10.102
 4392SOL     OW13918   2.105   1.692   9.791
 4392SOL    HW113919   2.080   1.783   9.808
 4392SOL    HW213920   2.177   1.699   9.728
 4393SOL     OW13921   2.999   1.342  11.004
 4393SOL    HW113922   3.040   1.336  11.090
 4393SOL    HW213923   2.947   1.262  10.997
 4394SOL     OW13924   2.092   1.429   9.849
 4394SOL    HW113925   2.091   1.525   9.844
 4394SOL    HW213926   2.028   1.409   9.918
 4395SOL     OW13927   2.125   1.090  10.201
 4395SOL    HW113928   2.118   1.002  10.239
 4395SOL    HW213929   2.067   1.143  10.255
 4396SOL     OW13930   2.471   1.785  10.742
 4396SOL    HW113931   2.392   1.773  10.794
 4396SOL    HW213932   2.497   1.876  10.758
 4397SOL     OW13933   2.445   0.983   9.446
 4397SOL    HW113934   2.493   1.030   9.377
 4397SOL    HW213935   2.484   1.015   9.528
 4398SOL     OW13936   3.444   0.140  10.767
 4398SOL    HW113937   3.469   0.213  10.710
 4398SOL    HW213938   3.408   0.182  10.845
 4399SOL     OW13939   1.979   0.656   9.870
 4399SOL    HW113940   1.952   0.567   9.894
 4399SOL    HW213941   1.971   0.706   9.951
 4400SOL     OW13942   3.702   1.757   9.646
 4400SOL    HW113943   3.771   1.733   9.707
 4400SOL    HW213944   3.721   1.849   9.624
 4401SOL     OW13945   1.933   1.568   9.415
 4401SOL    HW113946   1.907   1.479   9.438
 4401SOL    HW213947   1.882   1.623   9.474
 4402SOL     OW13948   3.549   0.918   9.955
 4402SOL    HW113949   3.634   0.875   9.939
 4402SOL    HW213950   3.532   0.968   9.876
 4403SOL     OW13951   3.504   1.104   9.742
 4403SOL    HW113952   3.589   1.111   9.697
 4403SOL    HW213953   3.510   1.167   9.813
 4404SOL     OW13954   1.985   0.749  10.891
 4404SOL    HW113955   2.075   0.780  10.895
 4404SOL    HW213956   1.932   0.829  10.898
 4405SOL     OW13957   2.476   1.389  10.045
 4405SOL    HW113958   2.430   1.305  10.054
 4405SOL    HW213959   2.459   1.416   9.955
 4406SOL     OW13960   3.149   1.237  10.733
 4406SOL    HW113961   3.181   1.171  10.672
 4406SOL    HW213962   3.208   1.232  10.808
 4407SOL     OW13963   2.681   0.004   9.827
 4407SOL    HW113964   2.727   0.084   9.802
 4407SOL    HW213965   2.589   0.028   9.827
 4408SOL     OW13966   2.051   0.962  10.586
 4408SOL    HW113967   2.136   0.921  10.569
 4408SOL    HW213968   1.991   0.915  10.528
 4409SOL     OW13969   3.390   0.995   9.510
 4409SOL    HW113970   3.321   0.939   9.544
 4409SOL    HW213971   3.433   1.031   9.589
 4410SOL     OW13972   3.047   1.808  10.933
 4410SOL    HW113973   3.057   1.867  10.859
 4410SOL    HW213974   3.064   1.721  10.897
 4411SOL     OW13975   2.219   0.253  11.147
 4411SOL    HW113976   2.263   0.338  11.146
 4411SOL    HW213977   2.125   0.274  11.152
 4412SOL     OW13978   3.328   1.420  10.260
 4412SOL    HW113979   3.261   1.435  10.326
 4412SOL    HW213980   3.317   1.328  10.234
 4413SOL     OW13981   3.516   1.745   9.889
 4413SOL    HW113982   3.500   1.713   9.800
 4413SOL    HW213983   3.495   1.671   9.945
 4414SOL     OW13984   2.457   0.720   9.578
 4414SOL    HW113985   2.461   0.803   9.530
 4414SOL    HW213986   2.393   0.736   9.647
 4415SOL     OW13987   3.137   0.368  10.251
 4415SOL    HW113988   3.050   0.329  10.258
 4415SOL    HW213989   3.194   0.306  10.296
 4416SOL     OW13990   3.440   1.671   9.620
 4416SOL    HW113991   3.530   1.701   9.613
 4416SOL    HW213992   3.413   1.655   9.529
 4417SOL     OW13993   2.658   0.616  10.762
 4417SOL    HW113994   2.629   0.591  10.850
 4417SOL    HW213995   2.619   0.550  10.704
 4418SOL     OW13996   3.254   0.476  10.987
 4418SOL    HW113997   3.260   0.521  11.071
 4418SOL    HW213998   3.312   0.400  10.997
 4419SOL     OW13999   2.814   0.887  10.894
 4419SOL    HW114000   2.870   0.818  10.857
 4419SOL    HW214001   2.767   0.922  10.819
 4420SOL     OW14002   2.854   0.402  10.549
 4420SOL    HW114003   2.770   0.424  10.588
 4420SOL    HW214004   2.833   0.375  10.460
 4421SOL     OW14005   2.914   0.699   9.735
 4421SOL    HW114006   2.930   0.692   9.829
 4421SOL    HW214007   2.831   0.653   9.722
 4422SOL     OW14008   1.949   0.822  10.086
 4422SOL    HW114009   2.029   0.815  10.138
 4422SOL    HW214010   1.904   0.899  10.122
 4423SOL     OW14011   2.757   0.352   9.509
 4423SOL    HW114012   2.799   0.411   9.447
 4423SOL    HW214013   2.751   0.269   9.463
 4424SOL     OW14014   3.570   0.574  11.139
 4424SOL    HW114015   3.533   0.648  11.092
 4424SOL    HW214016   3.595   0.512  11.071
 4425SOL     OW14017   3.239   1.141   9.850
 4425SOL    HW114018   3.319   1.130   9.799
 4425SOL    HW214019   3.187   1.204   9.800
 4426SOL     OW14020   2.420   0.198  10.191
 4426SOL    HW114021   2.423   0.218  10.285
 4426SOL    HW214022   2.416   0.284  10.149
 4427SOL     OW14023   2.866   1.443   9.781
 4427SOL    HW114024   2.831   1.517   9.730
 4427SOL    HW214025   2.845   1.464   9.872
 4428SOL     OW14026   2.240   1.810  10.124
 4428SOL    HW114027   2.255   1.719  10.146
 4428SOL    HW214028   2.300   1.859  10.180
 4429SOL     OW14029   3.667   1.062  10.177
 4429SOL    HW114030   3.613   1.037  10.102
 4429SOL    HW214031   3.605   1.065  10.251
 4430SOL     OW14032   3.089   1.539  10.824
 4430SOL    HW114033   3.076   1.467  10.885
 4430SOL    HW214034   3.025   1.524  10.754
 4431SOL     OW14035   2.181   0.960   9.562
 4431SOL    HW114036   2.263   0.979   9.517
 4431SOL    HW214037   2.151   0.877   9.524
 4432SOL     OW14038   3.342   0.746  10.039
 4432SOL    HW114039   3.336   0.705  10.125
 4432SOL    HW214040   3.419   0.802  10.044
 4433SOL     OW14041   2.330   1.266  11.053
 4433SOL    HW114042   2.304   1.269  10.961
 4433SOL    HW214043   2.248   1.263  11.102
 4434SOL     OW14044   2.986   1.777   9.541
 4434SOL    HW114045   2.911   1.737   9.585
 4434SOL    HW214046   3.009   1.715   9.472
 4435SOL     OW14047   2.032   0.274  10.809
 4435SOL    HW114048   1.976   0.352  10.799
 4435SOL    HW214049   2.038   0.262  10.904
 4436SOL     OW14050   3.487   1.383   9.397
 4436SOL    HW114051   3.444   1.467   9.382
 4436SOL    HW214052   3.420   1.318   9.378
 4437SOL     OW14053   2.334   1.719   9.640
 4437SOL    HW114054   2.378   1.789   9.689
 4437SOL    HW214055   2.393   1.699   9.568
 4438SOL     OW14056   3.297   0.169   9.712
 4438SOL    HW114057   3.253   0.096   9.669
 4438SOL    HW214058   3.372   0.129   9.756
 4439SOL     OW14059   2.128   1.745  10.528
 4439SOL    HW114060   2.185   1.681  10.571
 4439SOL    HW214061   2.144   1.733  10.435
 4440SOL     OW14062   2.799   1.698  10.209
 4440SOL    HW114063   2.878   1.648  10.229
 4440SOL    HW214064   2.757   1.649  10.138
 4441SOL     OW14065   2.257   0.695   9.784
 4441SOL    HW114066   2.275   0.602   9.797
 4441SOL    HW214067   2.163   0.704   9.802
 4442SOL     OW14068   3.392   0.230  11.037
 4442SOL    HW114069   3.386   0.255  11.129
 4442SOL    HW214070   3.372   0.136  11.036
 4443SOL     OW14071   2.505   0.131   9.418
 4443SOL    HW114072   2.530   0.047   9.458
 4443SOL    HW214073   2.443   0.107   9.350
 4444SOL     OW14074   2.638   0.282  11.078
 4444SOL    HW114075   2.708   0.217  11.081
 4444SOL    HW214076   2.579   0.257  11.150
 4445SOL     OW14077   2.739   1.522  10.503
 4445SOL    HW114078   2.723   1.485  10.416
 4445SOL    HW214079   2.809   1.468  10.540
 4446SOL     OW14080   3.203   0.587  10.740
 4446SOL    HW114081   3.233   0.559  10.827
 4446SOL    HW214082   3.236   0.676  10.731
 4447SOL     OW14083   2.678   1.393  10.252
 4447SOL    HW114084   2.762   1.381  10.208
 4447SOL    HW214085   2.614   1.396  10.181
 4448SOL     OW14086   2.792   0.511  10.211
 4448SOL    HW114087   2.767   0.503  10.118
 4448SOL    HW214088   2.818   0.423  10.236
 4449SOL     OW14089   2.407   0.057   9.801
 4449SOL    HW114090   2.333   0.062   9.861
 4449SOL    HW214091   2.402   0.138   9.750
 4450SOL     OW14092   3.289   1.199   9.350
 4450SOL    HW114093   3.319   1.124   9.401
 4450SOL    HW214094   3.204   1.221   9.388
 4451SOL     OW14095   2.191   0.043   9.520
 4451SOL    HW114096   2.200   0.110   9.453
 4451SOL    HW214097   2.274   0.047   9.569
 4452SOL     OW14098   2.804   0.250   9.770
 4452SOL    HW114099   2.779   0.290   9.687
 4452SOL    HW214100   2.899   0.254   9.771
 4453SOL     OW14101   2.942   0.683  10.769
 4453SOL    HW114102   2.871   0.619  10.775
 4453SOL    HW214103   3.022   0.631  10.763
 4454SOL     OW14104   3.083   1.571  10.105
 4454SOL    HW114105   3.099   1.637  10.037
 4454SOL    HW214106   3.153   1.586  10.169
 4455SOL     OW14107   2.334   1.151  10.041
 4455SOL    HW114108   2.265   1.131  10.105
 4455SOL    HW214109   2.292   1.136   9.956
 4456SOL     OW14110   3.129   1.793   9.920
 4456SOL    HW114111   3.177   1.854   9.863
 4456SOL    HW214112   3.062   1.847   9.962
 4457SOL     OW14113   2.884   0.543   9.338
 4457SOL    HW114114   2.840   0.626   9.318
 4457SOL    HW214115   2.947   0.565   9.406
 4458SOL     OW14116   1.943   0.550  10.706
 4458SOL    HW114117   2.034   0.552  10.677
 4458SOL    HW214118   1.936   0.623  10.768
 4459SOL     OW14119   2.426   0.231  10.471
 4459SOL    HW114120   2.450   0.139  10.481
 4459SOL    HW214121   2.336   0.236  10.503
 4460SOL     OW14122   2.732   0.461   9.948
 4460SOL    HW114123   2.684   0.515   9.886
 4460SOL    HW214124   2.753   0.381   9.900
 4461SOL     OW14125   2.858   0.040  10.090
 4461SOL    HW114126   2.822   0.068  10.006
 4461SOL    HW214127   2.869   3.945  10.081
 4462SOL     OW14128   3.301   1.161  10.168
 4462SOL    HW114129   3.230   1.098  10.166
 4462SOL    HW214130   3.327   1.172  10.076
 4463SOL     OW14131   3.326   0.608  10.285
 4463SOL    HW114132   3.273   0.528  10.290
 4463SOL    HW214133   3.386   0.601  10.359
 4464SOL     OW14134   3.722   0.824   9.685
 4464SOL    HW114135   3.763   0.767   9.749
 4464SOL    HW214136   3.683   0.764   9.621
 4465SOL     OW14137   2.354   1.419   9.465
 4465SOL    HW114138   2.278   1.394   9.518
 4465SOL    HW214139   2.341   1.375   9.381
 4466SOL     OW14140   3.529   1.265   9.955
 4466SOL    HW114141   3.624   1.268   9.964
 4466SOL    HW214142   3.500   1.354   9.975
 4467SOL     OW14143   3.257   0.575   9.379
 4467SOL    HW114144   3.193   0.556   9.448
 4467SOL    HW214145   3.342   0.559   9.420
 4468SOL     OW14146   2.388   0.266   9.626
 4468SOL    HW114147   2.443   0.227   9.558
 4468SOL    HW214148   2.360   0.350   9.590
 4469SOL     OW14149   3.614   1.234  10.877
 4469SOL    HW114150   3.701   1.199  10.859
 4469SOL    HW214151   3.629   1.323  10.907
 4470SOL     OW14152   2.919   1.354  10.643
 4470SOL    HW114153   2.844   1.322  10.694
 4470SOL    HW214154   2.995   1.312  10.684
 4471SOL     OW14155   3.468   1.628  10.966
 4471SOL    HW114156   3.460   1.662  10.877
 4471SOL    HW214157   3.548   1.577  10.965
 4472SOL     OW14158   2.993   1.206  10.414
 4472SOL    HW114159   2.933   1.243  10.478
 4472SOL    HW214160   2.962   1.239  10.330
 4473SOL     OW14161   3.490   1.096  10.385
 4473SOL    HW114162   3.482   1.158  10.458
 4473SOL    HW214163   3.414   1.112  10.330
 4474SOL     OW14164   2.774   0.115  10.711
 4474SOL    HW114165   2.794   0.089  10.622
 4474SOL    HW214166   2.855   0.157  10.742
 4475SOL     OW14167   2.846   1.115  11.034
 4475SOL    HW114168   2.755   1.131  11.056
 4475SOL    HW214169   2.844   1.037  10.978
 4476SOL     OW14170   2.571   1.062   9.680
 4476SOL    HW114171   2.556   1.044   9.773
 4476SOL    HW214172   2.647   1.008   9.657
 4477SOL     OW14173   2.283   0.816  10.561
 4477SOL    HW114174   2.351   0.824  10.628
 4477SOL    HW214175   2.247   0.728  10.574
 4478SOL     OW14176   3.128   0.375  10.586
 4478SOL    HW114177   3.162   0.453  10.630
 4478SOL    HW214178   3.041   0.400  10.556
 4479SOL     OW14179   1.948   1.556  10.670
 4479SOL    HW114180   1.921   1.621  10.606
 4479SOL    HW214181   2.044   1.553  10.663
 4480SOL     OW14182   2.210   1.111   9.800
 4480SOL    HW114183   2.210   1.187   9.742
 4480SOL    HW214184   2.206   1.036   9.741
 4481SOL     OW14185   2.416   0.533  10.167
 4481SOL    HW114186   2.430   0.593  10.093
 4481SOL    HW214187   2.481   0.560  10.232
 4482SOL     OW14188   3.110   1.349   9.699
 4482SOL    HW114189   3.166   1.420   9.730
 4482SOL    HW214190   3.023   1.370   9.733
 4483SOL     OW14191   3.146   1.459  10.458
 4483SOL    HW114192   3.202   1.462  10.535
 4483SOL    HW214193   3.091   1.382  10.471
 4484SOL     OW14194   3.434   0.632   9.795
 4484SOL    HW114195   3.393   0.688   9.861
 4484SOL    HW214196   3.482   0.693   9.738
 4485SOL     OW14197   2.221   1.508  10.631
 4485SOL    HW114198   2.204   1.471  10.544
 4485SOL    HW214199   2.315   1.523  10.633
 4486SOL     OW14200   2.279   0.745  10.912
 4486SOL    HW114201   2.340   0.789  10.854
 4486SOL    HW214202   2.320   0.660  10.929
 4487SOL     OW14203   3.465   0.778  10.993
 4487SOL    HW114204   3.380   0.821  10.987
 4487SOL    HW214205   3.518   0.821  10.925
 4488SOL     OW14206   2.877   0.130  11.090
 4488SOL    HW114207   2.925   0.204  11.052
 4488SOL    HW214208   2.860   0.072  11.016
 4489SOL     OW14209   2.350   0.034  11.072
 4489SOL    HW114210   2.353   0.046  10.977
 4489SOL    HW214211   2.291   0.102  11.103
 4490SOL     OW14212   2.447   0.873  10.342
 4490SOL    HW114213   2.475   0.964  10.341
 4490SOL    HW214214   2.389   0.866  10.418
 4491SOL     OW14215   3.216   0.859  10.337
 4491SOL    HW114216   3.132   0.847  10.293
 4491SOL    HW214217   3.259   0.773  10.329
 4492SOL     OW14218   3.063   0.536   9.568
 4492SOL    HW114219   3.071   0.457   9.622
 4492SOL    HW214220   3.020   0.600   9.626
 4493SOL     OW14221   2.162   0.210  10.553
 4493SOL    HW114222   2.120   0.239  10.634
 4493SOL    HW214223   2.150   0.115  10.553
 4494SOL     OW14224   1.902   1.303  10.589
 4494SOL    HW114225   1.938   1.246  10.657
 4494SOL    HW214226   1.916   1.392  10.622
 4495SOL     OW14227   2.585   0.632  10.363
 4495SOL    HW114228   2.660   0.619  10.306
 4495SOL    HW214229   2.555   0.721  10.344
 4496SOL     OW14230   3.594   0.957  11.172
 4496SOL    HW114231   3.551   0.896  11.112
 4496SOL    HW214232   3.530   0.971  11.241
 4497SOL     OW14233   2.184   0.056   9.961
 4497SOL    HW114234   2.164   0.149   9.972
 4497SOL    HW214235   2.148   0.014  10.039
 4498SOL     OW14236   3.473   0.391   9.690
 4498SOL    HW114237   3.436   0.323   9.745
 4498SOL    HW214238   3.452   0.473   9.735
 4499SOL     OW14239   2.892   0.759  10.269
 4499SOL    HW114240   2.885   0.776  10.363
 4499SOL    HW214241   2.864   0.668  10.259
 4500SOL     OW14242   2.843   1.566  11.029
 4500SOL    HW114243   2.828   1.610  10.945
 4500SOL    HW214244   2.887   1.484  11.006
 4501SOL     OW14245   3.705   1.499  10.909
 4501SOL    HW114246   3.729   1.528  10.820
 4501SOL    HW214247   3.786   1.510  10.959
 4502SOL     OW14248   2.215   0.915  11.119
 4502SOL    HW114249   2.296   0.935  11.166
 4502SOL    HW214250   2.240   0.853  11.051
 4503SOL     OW14251   3.364   0.274   9.444
 4503SOL    HW114252   3.290   0.214   9.455
 4503SOL    HW214253   3.377   0.313   9.531
 4504SOL     OW14254   3.151   0.826   9.339
 4504SOL    HW114255   3.193   0.741   9.342
 4504SOL    HW214256   3.183   0.866   9.258
 4505SOL     OW14257   2.929   1.337  10.165
 4505SOL    HW114258   2.932   1.265  10.103
 4505SOL    HW214259   2.989   1.403  10.130
 4506SOL     OW14260   2.169   0.809  10.257
 4506SOL    HW114261   2.262   0.830  10.249
 4506SOL    HW214262   2.168   0.719  10.288
 4507SOL     OW14263   2.199   0.536  10.324
 4507SOL    HW114264   2.157   0.451  10.308
 4507SOL    HW214265   2.275   0.536  10.266
 4508SOL     OW14266   2.995   0.381  11.006
 4508SOL    HW114267   2.946   0.436  11.068
 4508SOL    HW214268   3.081   0.421  11.002
 4509SOL     OW14269   3.013   0.226  10.791
 4509SOL    HW114270   3.004   0.280  10.870
 4509SOL    HW214271   3.037   0.287  10.722
 4510SOL     OW14272   1.867   1.316   9.501
 4510SOL    HW114273   1.778   1.330   9.467
 4510SOL    HW214274   1.864   1.227   9.537
 4511SOL     OW14275   2.359   1.573  10.220
 4511SOL    HW114276   2.425   1.639  10.238
 4511SOL    HW214277   2.401   1.511  10.160
 4512SOL     OW14278   2.841   0.788  10.534
 4512SOL    HW114279   2.898   0.769  10.609
 4512SOL    HW214280   2.756   0.753  10.559
 4513SOL     OW14281   1.895   0.546  10.427
 4513SOL    HW114282   1.970   0.522  10.373
 4513SOL    HW214283   1.929   0.547  10.517
 4514SOL     OW14284   2.065   0.526  11.022
 4514SOL    HW114285   2.136   0.506  10.961
 4514SOL    HW214286   2.021   0.601  10.984
 4515SOL     OW14287   3.242   0.937  10.968
 4515SOL    HW114288   3.262   1.030  10.965
 4515SOL    HW214289   3.237   0.911  10.876
 4516SOL     OW14290   2.679   0.572   9.673
 4516SOL    HW114291   2.684   0.497   9.614
 4516SOL    HW214292   2.604   0.623   9.641
 4517SOL     OW14293   3.502   0.602  10.493
 4517SOL    HW114294   3.491   0.541  10.567
 4517SOL    HW214295   3.588   0.581  10.457
 4518SOL     OW14296   2.092   1.559  11.047
 4518SOL    HW114297   2.084   1.610  11.128
 4518SOL    HW214298   2.104   1.469  11.077
 4519SOL     OW14299   2.569   0.453  10.567
 4519SOL    HW114300   2.518   0.376  10.541
 4519SOL    HW214301   2.560   0.513  10.492
 4520SOL     OW14302   2.787   1.678  10.779
 4520SOL    HW114303   2.763   1.642  10.694
 4520SOL    HW214304   2.784   1.773  10.767
 4521SOL     OW14305   2.325   0.494   9.494
 4521SOL    HW114306   2.383   0.566   9.518
 4521SOL    HW214307   2.240   0.534   9.481
 4522SOL     OW14308   2.006   1.139  10.783
 4522SOL    HW114309   2.007   1.090  10.866
 4522SOL    HW214310   2.023   1.073  10.716
 4523SOL     OW14311   3.184   1.045  10.532
 4523SOL    HW114312   3.208   0.982  10.464
 4523SOL    HW214313   3.116   1.099  10.493
 4524SOL     OW14314   3.176   0.854   9.615
 4524SOL    HW114315   3.100   0.827   9.667
 4524SOL    HW214316   3.148   0.843   9.524
 4525SOL     OW14317   3.642   1.742  10.467
 4525SOL    HW114318   3.697   1.769  10.393
 4525SOL    HW214319   3.613   1.654  10.443
 4526SOL     OW14320   3.103   1.733  10.421
 4526SOL    HW114321   3.185   1.756  10.377
 4526SOL    HW214322   3.110   1.640  10.439
 4527SOL     OW14323   1.954   1.258  10.328
 4527SOL    HW114324   1.932   1.271  10.421
 4527SOL    HW214325   1.876   1.217  10.291
 4528SOL     OW14326   2.539   1.668  11.040
 4528SOL    HW114327   2.488   1.749  11.039
 4528SOL    HW214328   2.606   1.680  10.974
 4529SOL     OW14329   3.551   0.120   9.797
 4529SOL    HW114330   3.633   0.135   9.749
 4529SOL    HW214331   3.553   0.027   9.819
 4530SOL     OW14332   3.253   1.567   9.797
 4530SOL    HW114333   3.312   1.600   9.730
 4530SOL    HW214334   3.203   1.644   9.825
 4531SOL     OW14335   3.139   0.926   9.981
 4531SOL    HW114336   3.214   0.867   9.990
 4531SOL    HW214337   3.173   0.999   9.928
 4532SOL     OW14338   2.673   1.274  10.738
 4532SOL    HW114339   2.644   1.314  10.820
 4532SOL    HW214340   2.604   1.296  10.675
 4533SOL     OW14341   2.535   1.621   9.462
 4533SOL    HW114342   2.545   1.633   9.367
 4533SOL    HW214343   2.479   1.544   9.471
 4534SOL     OW14344   3.482   1.727  10.701
 4534SOL    HW114345   3.537   1.732  10.623
 4534SOL    HW214346   3.469   1.818  10.727
 4535SOL     OW14347   3.703   0.181  10.281
 4535SOL    HW114348   3.728   0.097  10.242
 4535SOL    HW214349   3.617   0.201  10.244
 4536SOL     OW14350   2.126   0.316  10.025
 4536SOL    HW114351   2.039   0.351  10.003
 4536SOL    HW214352   2.125   0.308  10.120
 4537SOL     OW14353   3.070   1.604   9.342
 4537SOL    HW114354   3.059   1.513   9.369
 4537SOL    HW214355   3.004   1.617   9.274
 4538SOL     OW14356   2.686   1.006  10.683
 4538SOL    HW114357   2.728   1.002  10.596
 4538SOL    HW214358   2.684   1.099  10.704
 4539SOL     OW14359   2.778   0.910   9.600
 4539SOL    HW114360   2.839   0.943   9.534
 4539SOL    HW214361   2.827   0.842   9.646
 4540SOL     OW14362   3.351   1.628   9.353
 4540SOL    HW114363   3.257   1.619   9.338
 4540SOL    HW214364   3.389   1.634   9.265
 4541SOL     OW14365   2.229   1.299  10.810
 4541SOL    HW114366   2.223   1.371  10.747
 4541SOL    HW214367   2.153   1.244  10.790
 4542SOL     OW14368   3.463   1.280  10.588
 4542SOL    HW114369   3.532   1.272  10.654
 4542SOL    HW214370   3.406   1.350  10.620
 4543SOL     OW14371   2.918   1.109  10.018
 4543SOL    HW114372   2.846   1.058  10.056
 4543SOL    HW214373   2.980   1.043   9.988
 4544SOL     OW14374   2.876   0.249  10.279
 4544SOL    HW114375   2.867   0.198  10.199
 4544SOL    HW214376   2.872   0.183  10.349
 4545SOL     OW14377   2.466   1.491   9.791
 4545SOL    HW114378   2.509   1.441   9.721
 4545SOL    HW214379   2.398   1.541   9.745
 4546SOL     OW14380   3.582   0.394  10.682
 4546SOL    HW114381   3.654   0.457  10.682
 4546SOL    HW214382   3.614   0.321  10.628
 4547SOL     OW14383   2.122   1.342   9.598
 4547SOL    HW114384   2.029   1.339   9.576
 4547SOL    HW214385   2.124   1.378   9.687
 4548SOL     OW14386   1.976   1.027  11.032
 4548SOL    HW114387   1.899   1.002  11.083
 4548SOL    HW214388   2.049   0.986  11.077
 4549SOL     OW14389   2.555   0.253  10.811
 4549SOL    HW114390   2.622   0.199  10.770
 4549SOL    HW214391   2.582   0.260  10.902
 4550SOL     OW14392   1.961   0.317   9.301
 4550SOL    HW114393   1.893   0.337   9.365
 4550SOL    HW214394   1.970   0.398   9.250
 4551SOL     OW14395   3.288   0.857  10.708
 4551SOL    HW114396   3.238   0.919  10.655
 4551SOL    HW214397   3.376   0.859  10.672
 4552SOL     OW14398   1.943   0.152   9.650
 4552SOL    HW114399   1.912   0.212   9.582
 4552SOL    HW214400   2.029   0.124   9.620
 4553SOL     OW14401   3.040   1.338   9.427
 4553SOL    HW114402   2.950   1.307   9.430
 4553SOL    HW214403   3.068   1.339   9.519
 4554SOL     OW14404   2.483   0.829  10.744
 4554SOL    HW114405   2.539   0.905  10.729
 4554SOL    HW214406   2.544   0.755  10.753
 4555SOL     OW14407   3.344   1.781  10.290
 4555SOL    HW114408   3.367   1.842  10.220
 4555SOL    HW214409   3.428   1.754  10.327
 4556SOL     OW14410   2.580   0.561  11.015
 4556SOL    HW114411   2.622   0.624  11.073
 4556SOL    HW214412   2.606   0.475  11.048
 4557SOL     OW14413   3.335   1.198  10.941
 4557SOL    HW114414   3.323   1.212  11.035
 4557SOL    HW214415   3.428   1.214  10.925
 4558SOL     OW14416   2.235   1.744  10.883
 4558SOL    HW114417   2.164   1.756  10.820
 4558SOL    HW214418   2.212   1.663  10.929
 4559SOL     OW14419   3.527   0.881  10.569
 4559SOL    HW114420   3.526   0.796  10.525
 4559SOL    HW214421   3.520   0.944  10.498
 4560SOL     OW14422   3.083   0.337   9.753
 4560SOL    HW114423   3.151   0.270   9.744
 4560SOL    HW214424   3.103   0.381   9.836
 4561SOL     OW14425   2.452   0.736   9.980
 4561SOL    HW114426   2.490   0.823   9.966
 4561SOL    HW214427   2.385   0.728   9.913
 4562SOL     OW14428   3.617   0.381  10.952
 4562SOL    HW114429   3.596   0.389  10.859
 4562SOL    HW214430   3.556   0.314  10.984
 4563SOL     OW14431   3.616   0.930  10.824
 4563SOL    HW114432   3.607   1.024  10.841
 4563SOL    HW214433   3.592   0.920  10.731
 4564SOL     OW14434   2.724   1.366   9.347
 4564SOL    HW114435   2.687   1.393   9.431
 4564SOL    HW214436   2.741   1.449   9.301
 4565SOL     OW14437   2.525   1.793  10.247
 4565SOL    HW114438   2.517   1.888  10.240
 4565SOL    HW214439   2.620   1.776  10.246
 4566SOL     OW14440   2.730   0.969  10.165
 4566SOL    HW114441   2.780   0.897  10.203
 4566SOL    HW214442   2.694   1.016  10.240
 4567SOL     OW14443   2.941   0.989   9.399
 4567SOL    HW114444   2.918   1.040   9.322
 4567SOL    HW214445   3.015   0.935   9.372
 4568SOL     OW14446   3.714   1.557  10.151
 4568SOL    HW114447   3.635   1.540  10.100
 4568SOL    HW214448   3.714   1.489  10.219
 4569SOL     OW14449   2.084   1.304  11.161
 4569SOL    HW114450   2.023   1.238  11.129
 4569SOL    HW214451   2.057   1.319  11.252
 4570SOL     OW14452   1.943   1.215   9.971
 4570SOL    HW114453   1.962   1.178  10.058
 4570SOL    HW214454   2.020   1.193   9.919
 4571SOL     OW14455   2.542   1.405  10.937
 4571SOL    HW114456   2.465   1.361  10.973
 4571SOL    HW214457   2.540   1.493  10.975
 4572SOL     OW14458   3.676   0.181  10.554
 4572SOL    HW114459   3.678   0.086  10.563
 4572SOL    HW214460   3.694   0.198  10.462
 4573SOL     OW14461   2.290   0.434   9.835
 4573SOL    HW114462   2.324   0.363   9.782
 4573SOL    HW214463   2.243   0.391   9.906
 4574SOL     OW14464   3.559   1.491  10.407
 4574SOL    HW114465   3.480   1.468  10.357
 4574SOL    HW214466   3.569   1.419  10.470
 4575SOL     OW14467   2.193   0.556  10.604
 4575SOL    HW114468   2.246   0.497  10.658
 4575SOL    HW214469   2.212   0.530  10.514
 4576SOL     OW14470   2.691   1.577   9.987
 4576SOL    HW114471   2.675   1.634   9.912
 4576SOL    HW214472   2.615   1.519   9.989
 4577SOL     OW14473   3.323   0.253  10.420
 4577SOL    HW114474   3.337   0.165  10.456
 4577SOL    HW214475   3.267   0.296  10.485
 4578SOL     OW14476   2.866   0.028  10.457
 4578SOL    HW114477   2.786   3.989  10.421
 4578SOL    HW214478   2.927   3.954  10.465
 4579SOL     OW14479   2.636   1.333   9.625
 4579SOL    HW114480   2.605   1.243   9.633
 4579SOL    HW214481   2.716   1.335   9.677
 4580SOL     OW14482   2.485   1.555  10.594
 4580SOL    HW114483   2.486   1.637  10.645
 4580SOL    HW214484   2.573   1.549  10.557
 4581SOL     OW14485   3.174   0.071   9.470
 4581SOL    HW114486   3.180   3.990   9.418
 4581SOL    HW214487   3.089   0.064   9.514
 4582SOL     OW14488   3.143   0.457   9.995
 4582SOL    HW114489   3.097   0.540   9.990
 4582SOL    HW214490   3.147   0.437  10.089
 4583SOL     OW14491   3.452   0.210  10.177
 4583SOL    HW114492   3.404   0.234  10.256
 4583SOL    HW214493   3.451   0.290  10.124
 4584SOL     OW14494   1.905   1.069   9.615
 4584SOL    HW114495   2.000   1.062   9.600
 4584SOL    HW214496   1.878   0.981   9.640
 4585SOL     OW14497   2.749   1.654   9.649
 4585SOL    HW114498   2.675   1.638   9.591
 4585SOL    HW214499   2.722   1.728   9.703
 4586SOL     OW14500   2.090   0.619  11.293
 4586SOL    HW114501   2.000   0.628  11.325
 4586SOL    HW214502   2.080   0.599  11.200
 4587SOL     OW14503   2.079   0.300  12.163
 4587SOL    HW114504   2.116   0.257  12.240
 4587SOL    HW214505   1.994   0.257  12.150
 4588SOL     OW14506   1.871   0.396  11.806
 4588SOL    HW114507   1.784   0.412  11.843
 4588SOL    HW214508   1.857   0.328  11.740
 4589SOL     OW14509   2.429   1.290  12.349
 4589SOL    HW114510   2.343   1.293  12.308
 4589SOL    HW214511   2.446   1.380  12.377
 4590SOL     OW14512   3.425   1.512  11.880
 4590SOL    HW114513   3.383   1.491  11.963
 4590SOL    HW214514   3.354   1.517  11.816
 4591SOL     OW14515   2.994   0.698  11.870
 4591SOL    HW114516   3.042   0.780  11.857
 4591SOL    HW214517   2.947   0.711  11.952
 4592SOL     OW14518   3.623   0.623  11.398
 4592SOL    HW114519   3.605   0.612  11.305
 4592SOL    HW214520   3.606   0.537  11.437
 4593SOL     OW14521   2.616   1.141  12.216
 4593SOL    HW114522   2.547   1.176  12.273
 4593SOL    HW214523   2.652   1.217  12.171
 4594SOL     OW14524   2.732   0.770  12.995
 4594SOL    HW114525   2.718   0.842  13.057
 4594SOL    HW214526   2.755   0.814  12.913
 4595SOL     OW14527   2.548   1.000  11.817
 4595SOL    HW114528   2.613   0.991  11.887
 4595SOL    HW214529   2.479   1.053  11.856
 4596SOL     OW14530   2.574   1.150  12.986
 4596SOL    HW114531   2.622   1.228  13.015
 4596SOL    HW214532   2.492   1.184  12.951
 4597SOL     OW14533   2.190   1.425  12.241
 4597SOL    HW114534   2.117   1.385  12.193
 4597SOL    HW214535   2.238   1.474  12.174
 4598SOL     OW14536   3.321   1.501  12.529
 4598SOL    HW114537   3.375   1.580  12.538
 4598SOL    HW214538   3.257   1.507  12.599
 4599SOL     OW14539   2.307   0.394  12.665
 4599SOL    HW114540   2.397   0.361  12.664
 4599SOL    HW214541   2.253   0.315  12.673
 4600SOL     OW14542   3.473   0.450  11.908
 4600SOL    HW114543   3.403   0.483  11.851
 4600SOL    HW214544   3.495   0.524  11.964
 4601SOL     OW14545   2.113   1.692  11.658
 4601SOL    HW114546   2.086   1.782  11.676
 4601SOL    HW214547   2.180   1.700  11.590
 4602SOL     OW14548   2.999   1.342  12.865
 4602SOL    HW114549   3.040   1.337  12.952
 4602SOL    HW214550   2.947   1.262  12.859
 4603SOL     OW14551   2.093   1.428  11.714
 4603SOL    HW114552   2.094   1.524  11.709
 4603SOL    HW214553   2.028   1.408  11.781
 4604SOL     OW14554   2.126   1.090  12.064
 4604SOL    HW114555   2.118   1.002  12.100
 4604SOL    HW214556   2.067   1.143  12.117
 4605SOL     OW14557   2.472   1.785  12.604
 4605SOL    HW114558   2.392   1.774  12.656
 4605SOL    HW214559   2.497   1.876  12.620
 4606SOL     OW14560   2.445   0.983  11.308
 4606SOL    HW114561   2.493   1.030  11.239
 4606SOL    HW214562   2.484   1.014  11.390
 4607SOL     OW14563   3.443   0.140  12.628
 4607SOL    HW114564   3.469   0.213  12.572
 4607SOL    HW214565   3.408   0.182  12.707
 4608SOL     OW14566   1.979   0.655  11.733
 4608SOL    HW114567   1.952   0.567  11.757
 4608SOL    HW214568   1.971   0.706  11.813
 4609SOL     OW14569   3.702   1.757  11.508
 4609SOL    HW114570   3.771   1.733  11.569
 4609SOL    HW214571   3.721   1.849  11.486
 4610SOL     OW14572   3.549   0.918  11.817
 4610SOL    HW114573   3.634   0.875  11.801
 4610SOL    HW214574   3.532   0.968  11.738
 4611SOL     OW14575   3.504   1.104  11.604
 4611SOL    HW114576   3.589   1.111  11.559
 4611SOL    HW214577   3.510   1.167  11.675
 4612SOL     OW14578   1.985   0.749  12.753
 4612SOL    HW114579   2.075   0.780  12.757
 4612SOL    HW214580   1.932   0.829  12.759
 4613SOL     OW14581   2.476   1.389  11.907
 4613SOL    HW114582   2.430   1.305  11.916
 4613SOL    HW214583   2.459   1.416  11.817
 4614SOL     OW14584   3.149   1.237  12.595
 4614SOL    HW114585   3.181   1.171  12.534
 4614SOL    HW214586   3.208   1.232  12.670
 4615SOL     OW14587   2.681   0.004  11.689
 4615SOL    HW114588   2.727   0.084  11.664
 4615SOL    HW214589   2.589   0.028  11.689
 4616SOL     OW14590   2.051   0.962  12.448
 4616SOL    HW114591   2.136   0.921  12.432
 4616SOL    HW214592   1.991   0.915  12.390
 4617SOL     OW14593   3.390   0.995  11.372
 4617SOL    HW114594   3.321   0.939  11.406
 4617SOL    HW214595   3.433   1.031  11.451
 4618SOL     OW14596   3.047   1.808  12.795
 4618SOL    HW114597   3.057   1.867  12.721
 4618SOL    HW214598   3.065   1.721  12.759
 4619SOL     OW14599   2.218   0.253  13.010
 4619SOL    HW114600   2.262   0.338  13.008
 4619SOL    HW214601   2.125   0.274  13.015
 4620SOL     OW14602   3.328   1.420  12.122
 4620SOL    HW114603   3.261   1.435  12.188
 4620SOL    HW214604   3.317   1.328  12.096
 4621SOL     OW14605   3.516   1.745  11.751
 4621SOL    HW114606   3.500   1.713  11.662
 4621SOL    HW214607   3.495   1.671  11.807
 4622SOL     OW14608   2.457   0.720  11.440
 4622SOL    HW114609   2.461   0.803  11.392
 4622SOL    HW214610   2.392   0.736  11.509
 4623SOL     OW14611   3.137   0.368  12.113
 4623SOL    HW114612   3.050   0.329  12.120
 4623SOL    HW214613   3.194   0.306  12.158
 4624SOL     OW14614   3.440   1.671  11.482
 4624SOL    HW114615   3.530   1.701  11.475
 4624SOL    HW214616   3.413   1.655  11.391
 4625SOL     OW14617   2.658   0.616  12.624
 4625SOL    HW114618   2.629   0.590  12.712
 4625SOL    HW214619   2.619   0.550  12.566
 4626SOL     OW14620   3.254   0.476  12.849
 4626SOL    HW114621   3.260   0.521  12.933
 4626SOL    HW214622   3.311   0.400  12.859
 4627SOL     OW14623   2.814   0.887  12.756
 4627SOL    HW114624   2.870   0.818  12.719
 4627SOL    HW214625   2.767   0.922  12.681
 4628SOL     OW14626   2.854   0.402  12.411
 4628SOL    HW114627   2.770   0.424  12.450
 4628SOL    HW214628   2.833   0.375  12.322
 4629SOL     OW14629   2.914   0.699  11.597
 4629SOL    HW114630   2.930   0.692  11.691
 4629SOL    HW214631   2.831   0.653  11.584
 4630SOL     OW14632   1.949   0.822  11.948
 4630SOL    HW114633   2.029   0.815  12.000
 4630SOL    HW214634   1.904   0.899  11.984
 4631SOL     OW14635   2.757   0.352  11.371
 4631SOL    HW114636   2.799   0.411  11.309
 4631SOL    HW214637   2.750   0.269  11.325
 4632SOL     OW14638   3.570   0.575  13.002
 4632SOL    HW114639   3.533   0.649  12.954
 4632SOL    HW214640   3.595   0.513  12.933
 4633SOL     OW14641   3.239   1.141  11.712
 4633SOL    HW114642   3.319   1.130  11.661
 4633SOL    HW214643   3.187   1.204  11.662
 4634SOL     OW14644   2.420   0.198  12.053
 4634SOL    HW114645   2.423   0.218  12.147
 4634SOL    HW214646   2.416   0.284  12.011
 4635SOL     OW14647   2.865   1.443  11.643
 4635SOL    HW114648   2.831   1.517  11.593
 4635SOL    HW214649   2.845   1.464  11.734
 4636SOL     OW14650   2.237   1.809  11.988
 4636SOL    HW114651   2.255   1.718  12.010
 4636SOL    HW214652   2.300   1.859  12.040
 4637SOL     OW14653   3.667   1.062  12.039
 4637SOL    HW114654   3.613   1.037  11.964
 4637SOL    HW214655   3.605   1.065  12.113
 4638SOL     OW14656   3.089   1.539  12.685
 4638SOL    HW114657   3.076   1.467  12.746
 4638SOL    HW214658   3.025   1.524  12.616
 4639SOL     OW14659   2.181   0.959  11.425
 4639SOL    HW114660   2.264   0.978  11.379
 4639SOL    HW214661   2.151   0.877  11.386
 4640SOL     OW14662   3.342   0.746  11.901
 4640SOL    HW114663   3.336   0.705  11.987
 4640SOL    HW214664   3.419   0.802  11.906
 4641SOL     OW14665   2.330   1.266  12.915
 4641SOL    HW114666   2.304   1.269  12.823
 4641SOL    HW214667   2.248   1.263  12.963
 4642SOL     OW14668   2.986   1.777  11.403
 4642SOL    HW114669   2.911   1.737  11.446
 4642SOL    HW214670   3.009   1.715  11.334
 4643SOL     OW14671   2.032   0.275  12.671
 4643SOL    HW114672   1.976   0.352  12.661
 4643SOL    HW214673   2.038   0.262  12.766
 4644SOL     OW14674   3.487   1.383  11.259
 4644SOL    HW114675   3.444   1.467  11.244
 4644SOL    HW214676   3.420   1.318  11.240
 4645SOL     OW14677   2.332   1.724  11.496
 4645SOL    HW114678   2.376   1.790  11.549
 4645SOL    HW214679   2.395   1.701  11.428
 4646SOL     OW14680   3.297   0.169  11.574
 4646SOL    HW114681   3.253   0.096  11.531
 4646SOL    HW214682   3.372   0.129  11.618
 4647SOL     OW14683   2.131   1.746  12.389
 4647SOL    HW114684   2.188   1.682  12.433
 4647SOL    HW214685   2.148   1.733  12.296
 4648SOL     OW14686   2.799   1.698  12.071
 4648SOL    HW114687   2.878   1.648  12.091
 4648SOL    HW214688   2.757   1.648  12.000
 4649SOL     OW14689   2.257   0.695  11.646
 4649SOL    HW114690   2.275   0.602  11.659
 4649SOL    HW214691   2.163   0.704  11.665
 4650SOL     OW14692   3.392   0.230  12.898
 4650SOL    HW114693   3.386   0.255  12.990
 4650SOL    HW214694   3.373   0.136  12.898
 4651SOL     OW14695   2.505   0.131  11.280
 4651SOL    HW114696   2.530   0.047  11.320
 4651SOL    HW214697   2.443   0.107  11.212
 4652SOL     OW14698   2.637   0.282  12.940
 4652SOL    HW114699   2.708   0.218  12.943
 4652SOL    HW214700   2.579   0.257  13.012
 4653SOL     OW14701   2.739   1.522  12.365
 4653SOL    HW114702   2.723   1.485  12.278
 4653SOL    HW214703   2.809   1.468  12.402
 4654SOL     OW14704   3.202   0.587  12.602
 4654SOL    HW114705   3.233   0.559  12.689
 4654SOL    HW214706   3.236   0.676  12.593
 4655SOL     OW14707   2.678   1.393  12.114
 4655SOL    HW114708   2.762   1.381  12.070
 4655SOL    HW214709   2.614   1.396  12.043
 4656SOL     OW14710   2.792   0.511  12.073
 4656SOL    HW114711   2.767   0.503  11.980
 4656SOL    HW214712   2.818   0.423  12.098
 4657SOL     OW14713   2.407   0.057  11.663
 4657SOL    HW114714   2.333   0.062  11.723
 4657SOL    HW214715   2.402   0.138  11.612
 4658SOL     OW14716   3.289   1.199  11.212
 4658SOL    HW114717   3.319   1.124  11.263
 4658SOL    HW214718   3.204   1.221  11.250
 4659SOL     OW14719   2.191   0.043  11.382
 4659SOL    HW114720   2.200   0.110  11.315
 4659SOL    HW214721   2.274   0.047  11.431
 4660SOL     OW14722   2.804   0.250  11.632
 4660SOL    HW114723   2.779   0.290  11.549
 4660SOL    HW214724   2.899   0.254  11.633
 4661SOL     OW14725   2.942   0.683  12.631
 4661SOL    HW114726   2.871   0.619  12.637
 4661SOL    HW214727   3.022   0.631  12.625
 4662SOL     OW14728   3.083   1.571  11.967
 4662SOL    HW114729   3.099   1.637  11.899
 4662SOL    HW214730   3.153   1.586  12.031
 4663SOL     OW14731   2.334   1.151  11.903
 4663SOL    HW114732   2.265   1.131  11.967
 4663SOL    HW214733   2.293   1.136  11.818
 4664SOL     OW14734   3.129   1.793  11.782
 4664SOL    HW114735   3.177   1.854  11.725
 4664SOL    HW214736   3.062   1.847  11.824
 4665SOL     OW14737   2.884   0.543  11.200
 4665SOL    HW114738   2.840   0.626  11.180
 4665SOL    HW214739   2.947   0.565  11.268
 4666SOL     OW14740   1.943   0.550  12.568
 4666SOL    HW114741   2.034   0.552  12.539
 4666SOL    HW214742   1.936   0.623  12.630
 4667SOL     OW14743   2.426   0.231  12.333
 4667SOL    HW114744   2.450   0.139  12.343
 4667SOL    HW214745   2.336   0.236  12.365
 4668SOL     OW14746   2.732   0.461  11.810
 4668SOL    HW114747   2.684   0.515  11.748
 4668SOL    HW214748   2.753   0.381  11.762
 4669SOL     OW14749   2.858   0.040  11.952
 4669SOL    HW114750   2.822   0.068  11.868
 4669SOL    HW214751   2.869   3.945  11.943
 4670SOL     OW14752   3.301   1.161  12.030
 4670SOL    HW114753   3.230   1.098  12.028
 4670SOL    HW214754   3.327   1.172  11.938
 4671SOL     OW14755   3.326   0.608  12.147
 4671SOL    HW114756   3.273   0.528  12.151
 4671SOL    HW214757   3.386   0.601  12.221
 4672SOL     OW14758   3.722   0.824  11.547
 4672SOL    HW114759   3.763   0.767  11.611
 4672SOL    HW214760   3.683   0.764  11.483
 4673SOL     OW14761   2.353   1.421  11.324
 4673SOL    HW114762   2.278   1.394  11.378
 4673SOL    HW214763   2.344   1.369  11.244
 4674SOL     OW14764   3.529   1.265  11.817
 4674SOL    HW114765   3.624   1.268  11.826
 4674SOL    HW214766   3.500   1.354  11.837
 4675SOL     OW14767   3.257   0.575  11.241
 4675SOL    HW114768   3.193   0.556  11.310
 4675SOL    HW214769   3.342   0.559  11.282
 4676SOL     OW14770   2.388   0.266  11.488
 4676SOL    HW114771   2.443   0.227  11.420
 4676SOL    HW214772   2.360   0.350  11.452
 4677SOL     OW14773   3.614   1.234  12.739
 4677SOL    HW114774   3.701   1.199  12.721
 4677SOL    HW214775   3.629   1.323  12.769
 4678SOL     OW14776   2.919   1.354  12.505
 4678SOL    HW114777   2.844   1.322  12.556
 4678SOL    HW214778   2.995   1.312  12.546
 4679SOL     OW14779   3.468   1.628  12.828
 4679SOL    HW114780   3.460   1.662  12.739
 4679SOL    HW214781   3.548   1.577  12.827
 4680SOL     OW14782   2.993   1.206  12.276
 4680SOL    HW114783   2.933   1.243  12.340
 4680SOL    HW214784   2.962   1.239  12.192
 4681SOL     OW14785   3.490   1.096  12.247
 4681SOL    HW114786   3.482   1.158  12.320
 4681SOL    HW214787   3.414   1.112  12.192
 4682SOL     OW14788   2.774   0.115  12.573
 4682SOL    HW114789   2.794   0.088  12.484
 4682SOL    HW214790   2.855   0.157  12.604
 4683SOL     OW14791   2.846   1.115  12.896
 4683SOL    HW114792   2.755   1.132  12.918
 4683SOL    HW214793   2.844   1.037  12.840
 4684SOL     OW14794   2.571   1.063  11.542
 4684SOL    HW114795   2.556   1.044  11.635
 4684SOL    HW214796   2.647   1.008  11.519
 4685SOL     OW14797   2.283   0.816  12.423
 4685SOL    HW114798   2.351   0.824  12.490
 4685SOL    HW214799   2.247   0.728  12.436
 4686SOL     OW14800   3.128   0.375  12.448
 4686SOL    HW114801   3.162   0.453  12.492
 4686SOL    HW214802   3.041   0.400  12.418
 4687SOL     OW14803   1.949   1.556  12.530
 4687SOL    HW114804   1.924   1.623  12.466
 4687SOL    HW214805   2.045   1.552  12.523
 4688SOL     OW14806   2.211   1.111  11.662
 4688SOL    HW114807   2.210   1.188  11.604
 4688SOL    HW214808   2.206   1.036  11.603
 4689SOL     OW14809   2.416   0.533  12.029
 4689SOL    HW114810   2.430   0.593  11.955
 4689SOL    HW214811   2.481   0.560  12.094
 4690SOL     OW14812   3.110   1.349  11.561
 4690SOL    HW114813   3.166   1.420  11.592
 4690SOL    HW214814   3.023   1.370  11.595
 4691SOL     OW14815   3.146   1.459  12.320
 4691SOL    HW114816   3.202   1.462  12.397
 4691SOL    HW214817   3.091   1.382  12.333
 4692SOL     OW14818   3.434   0.632  11.657
 4692SOL    HW114819   3.393   0.688  11.723
 4692SOL    HW214820   3.482   0.693  11.600
 4693SOL     OW14821   2.221   1.508  12.492
 4693SOL    HW114822   2.205   1.471  12.405
 4693SOL    HW214823   2.316   1.523  12.495
 4694SOL     OW14824   2.279   0.745  12.774
 4694SOL    HW114825   2.340   0.790  12.716
 4694SOL    HW214826   2.319   0.660  12.791
 4695SOL     OW14827   3.465   0.778  12.855
 4695SOL    HW114828   3.380   0.821  12.848
 4695SOL    HW214829   3.518   0.821  12.787
 4696SOL     OW14830   2.877   0.131  12.952
 4696SOL    HW114831   2.925   0.204  12.914
 4696SOL    HW214832   2.860   0.072  12.879
 4697SOL     OW14833   2.350   0.034  12.934
 4697SOL    HW114834   2.353   0.046  12.839
 4697SOL    HW214835   2.290   0.102  12.965
 4698SOL     OW14836   2.447   0.873  12.204
 4698SOL    HW114837   2.475   0.964  12.203
 4698SOL    HW214838   2.389   0.866  12.280
 4699SOL     OW14839   3.216   0.859  12.199
 4699SOL    HW114840   3.132   0.847  12.155
 4699SOL    HW214841   3.259   0.773  12.191
 4700SOL     OW14842   3.063   0.536  11.431
 4700SOL    HW114843   3.071   0.457  11.484
 4700SOL    HW214844   3.020   0.600  11.488
 4701SOL     OW14845   2.162   0.210  12.415
 4701SOL    HW114846   2.120   0.239  12.496
 4701SOL    HW214847   2.150   0.115  12.415
 4702SOL     OW14848   1.901   1.302  12.451
 4702SOL    HW114849   1.937   1.246  12.519
 4702SOL    HW214850   1.916   1.391  12.483
 4703SOL     OW14851   2.585   0.632  12.225
 4703SOL    HW114852   2.660   0.619  12.168
 4703SOL    HW214853   2.555   0.721  12.206
 4704SOL     OW14854   3.595   0.955  13.035
 4704SOL    HW114855   3.551   0.896  12.974
 4704SOL    HW214856   3.530   0.971  13.104
 4705SOL     OW14857   2.184   0.056  11.823
 4705SOL    HW114858   2.164   0.149  11.834
 4705SOL    HW214859   2.148   0.014  11.901
 4706SOL     OW14860   3.473   0.391  11.552
 4706SOL    HW114861   3.436   0.323  11.607
 4706SOL    HW214862   3.452   0.473  11.597
 4707SOL     OW14863   2.892   0.759  12.131
 4707SOL    HW114864   2.885   0.776  12.225
 4707SOL    HW214865   2.864   0.668  12.121
 4708SOL     OW14866   2.843   1.566  12.891
 4708SOL    HW114867   2.828   1.610  12.807
 4708SOL    HW214868   2.887   1.484  12.867
 4709SOL     OW14869   3.706   1.499  12.770
 4709SOL    HW114870   3.729   1.528  12.682
 4709SOL    HW214871   3.786   1.511  12.821
 4710SOL     OW14872   2.215   0.915  12.982
 4710SOL    HW114873   2.297   0.935  13.027
 4710SOL    HW214874   2.240   0.853  12.913
 4711SOL     OW14875   3.364   0.274  11.306
 4711SOL    HW114876   3.290   0.214  11.317
 4711SOL    HW214877   3.377   0.313  11.393
 4712SOL     OW14878   3.151   0.826  11.201
 4712SOL    HW114879   3.193   0.741  11.204
 4712SOL    HW214880   3.183   0.866  11.120
 4713SOL     OW14881   2.929   1.337  12.027
 4713SOL    HW114882   2.932   1.265  11.965
 4713SOL    HW214883   2.989   1.402  11.992
 4714SOL     OW14884   2.169   0.809  12.119
 4714SOL    HW114885   2.262   0.830  12.111
 4714SOL    HW214886   2.168   0.719  12.150
 4715SOL     OW14887   2.199   0.536  12.186
 4715SOL    HW114888   2.157   0.451  12.170
 4715SOL    HW214889   2.275   0.536  12.128
 4716SOL     OW14890   2.995   0.381  12.868
 4716SOL    HW114891   2.946   0.436  12.930
 4716SOL    HW214892   3.081   0.421  12.863
 4717SOL     OW14893   3.013   0.226  12.653
 4717SOL    HW114894   3.004   0.280  12.731
 4717SOL    HW214895   3.037   0.287  12.584
 4718SOL     OW14896   1.876   1.319  11.361
 4718SOL    HW114897   1.791   1.343  11.326
 4718SOL    HW214898   1.863   1.231  11.397
 4719SOL     OW14899   2.359   1.573  12.082
 4719SOL    HW114900   2.426   1.639  12.100
 4719SOL    HW214901   2.401   1.511  12.022
 4720SOL     OW14902   2.841   0.788  12.396
 4720SOL    HW114903   2.898   0.769  12.471
 4720SOL    HW214904   2.756   0.753  12.421
 4721SOL     OW14905   1.895   0.546  12.289
 4721SOL    HW114906   1.970   0.522  12.235
 4721SOL    HW214907   1.929   0.547  12.378
 4722SOL     OW14908   2.066   0.526  12.885
 4722SOL    HW114909   2.135   0.505  12.823
 4722SOL    HW214910   2.021   0.602  12.846
 4723SOL     OW14911   3.242   0.937  12.829
 4723SOL    HW114912   3.262   1.030  12.827
 4723SOL    HW214913   3.237   0.911  12.737
 4724SOL     OW14914   2.679   0.572  11.535
 4724SOL    HW114915   2.684   0.497  11.476
 4724SOL    HW214916   2.604   0.622  11.503
 4725SOL     OW14917   3.502   0.602  12.355
 4725SOL    HW114918   3.491   0.541  12.429
 4725SOL    HW214919   3.588   0.581  12.319
 4726SOL     OW14920   2.092   1.559  12.908
 4726SOL    HW114921   2.084   1.610  12.989
 4726SOL    HW214922   2.103   1.469  12.939
 4727SOL     OW14923   2.569   0.453  12.429
 4727SOL    HW114924   2.518   0.376  12.403
 4727SOL    HW214925   2.560   0.513  12.354
 4728SOL     OW14926   2.788   1.678  12.641
 4728SOL    HW114927   2.763   1.642  12.556
 4728SOL    HW214928   2.784   1.773  12.629
 4729SOL     OW14929   2.325   0.494  11.356
 4729SOL    HW114930   2.383   0.566  11.380
 4729SOL    HW214931   2.240   0.534  11.343
 4730SOL     OW14932   2.006   1.139  12.646
 4730SOL    HW114933   2.007   1.090  12.728
 4730SOL    HW214934   2.023   1.073  12.578
 4731SOL     OW14935   3.184   1.045  12.394
 4731SOL    HW114936   3.208   0.982  12.326
 4731SOL    HW214937   3.117   1.099  12.355
 4732SOL     OW14938   3.175   0.854  11.477
 4732SOL    HW114939   3.100   0.827  11.529
 4732SOL    HW214940   3.148   0.843  11.386
 4733SOL     OW14941   3.642   1.742  12.329
 4733SOL    HW114942   3.697   1.769  12.255
 4733SOL    HW214943   3.613   1.654  12.305
 4734SOL     OW14944   3.103   1.733  12.282
 4734SOL    HW114945   3.185   1.756  12.239
 4734SOL    HW214946   3.110   1.640  12.301
 4735SOL     OW14947   1.954   1.257  12.191
 4735SOL    HW114948   1.932   1.270  12.283
 4735SOL    HW214949   1.876   1.217  12.152
 4736SOL     OW14950   2.538   1.668  12.902
 4736SOL    HW114951   2.488   1.749  12.901
 4736SOL    HW214952   2.606   1.680  12.836
 4737SOL     OW14953   3.551   0.120  11.659
 4737SOL    HW114954   3.633   0.135  11.611
 4737SOL    HW214955   3.553   0.027  11.681
 4738SOL     OW14956   3.253   1.567  11.659
 4738SOL    HW114957   3.312   1.600  11.592
 4738SOL    HW214958   3.203   1.644  11.687
 4739SOL     OW14959   3.139   0.926  11.843
 4739SOL    HW114960   3.214   0.867  11.852
 4739SOL    HW214961   3.173   0.999  11.790
 4740SOL     OW14962   2.673   1.274  12.600
 4740SOL    HW114963   2.644   1.314  12.682
 4740SOL    HW214964   2.604   1.296  12.537
 4741SOL     OW14965   2.535   1.622  11.324
 4741SOL    HW114966   2.546   1.634  11.229
 4741SOL    HW214967   2.479   1.545  11.332
 4742SOL     OW14968   3.482   1.727  12.563
 4742SOL    HW114969   3.538   1.732  12.485
 4742SOL    HW214970   3.470   1.818  12.589
 4743SOL     OW14971   3.703   0.181  12.143
 4743SOL    HW114972   3.728   0.097  12.104
 4743SOL    HW214973   3.617   0.201  12.106
 4744SOL     OW14974   2.126   0.316  11.887
 4744SOL    HW114975   2.039   0.351  11.865
 4744SOL    HW214976   2.125   0.308  11.982
 4745SOL     OW14977   3.070   1.604  11.204
 4745SOL    HW114978   3.059   1.513  11.230
 4745SOL    HW214979   3.004   1.617  11.135
 4746SOL     OW14980   2.686   1.006  12.545
 4746SOL    HW114981   2.728   1.002  12.458
 4746SOL    HW214982   2.684   1.099  12.566
 4747SOL     OW14983   2.778   0.910  11.462
 4747SOL    HW114984   2.839   0.943  11.396
 4747SOL    HW214985   2.826   0.842  11.508
 4748SOL     OW14986   3.351   1.628  11.215
 4748SOL    HW114987   3.257   1.619  11.200
 4748SOL    HW214988   3.389   1.634  11.127
 4749SOL     OW14989   2.229   1.299  12.672
 4749SOL    HW114990   2.223   1.371  12.609
 4749SOL    HW214991   2.153   1.245  12.652
 4750SOL     OW14992   3.463   1.280  12.450
 4750SOL    HW114993   3.532   1.272  12.516
 4750SOL    HW214994   3.406   1.350  12.482
 4751SOL     OW14995   2.918   1.109  11.880
 4751SOL    HW114996   2.846   1.058  11.918
 4751SOL    HW214997   2.980   1.043  11.850
 4752SOL     OW14998   2.876   0.249  12.141
 4752SOL    HW114999   2.867   0.198  12.061
 4752SOL    HW215000   2.872   0.183  12.211
 4753SOL     OW15001   2.467   1.491  11.653
 4753SOL    HW115002   2.509   1.441  11.584
 4753SOL    HW215003   2.396   1.537  11.608
 4754SOL     OW15004   3.582   0.394  12.544
 4754SOL    HW115005   3.654   0.457  12.544
 4754SOL    HW215006   3.614   0.321  12.490
 4755SOL     OW15007   2.126   1.348  11.462
 4755SOL    HW115008   2.034   1.344  11.436
 4755SOL    HW215009   2.123   1.380  11.553
 4756SOL     OW15010   1.976   1.027  12.894
 4756SOL    HW115011   1.899   1.002  12.945
 4756SOL    HW215012   2.049   0.986  12.940
 4757SOL     OW15013   2.555   0.253  12.673
 4757SOL    HW115014   2.622   0.199  12.632
 4757SOL    HW215015   2.582   0.260  12.764
 4758SOL     OW15016   1.961   0.317  11.163
 4758SOL    HW115017   1.893   0.337  11.227
 4758SOL    HW215018   1.970   0.398  11.112
 4759SOL     OW15019   3.288   0.857  12.570
 4759SOL    HW115020   3.238   0.919  12.517
 4759SOL    HW215021   3.376   0.859  12.534
 4760SOL     OW15022   1.943   0.152  11.512
 4760SOL    HW115023   1.912   0.212  11.444
 4760SOL    HW215024   2.029   0.124  11.482
 4761SOL     OW15025   3.040   1.338  11.290
 4761SOL    HW115026   2.950   1.306  11.292
 4761SOL    HW215027   3.068   1.339  11.381
 4762SOL     OW15028   2.483   0.829  12.606
 4762SOL    HW115029   2.539   0.905  12.591
 4762SOL    HW215030   2.544   0.755  12.615
 4763SOL     OW15031   3.344   1.781  12.152
 4763SOL    HW115032   3.367   1.842  12.082
 4763SOL    HW215033   3.428   1.754  12.189
 4764SOL     OW15034   2.580   0.561  12.877
 4764SOL    HW115035   2.622   0.624  12.936
 4764SOL    HW215036   2.606   0.475  12.910
 4765SOL     OW15037   3.334   1.198  12.803
 4765SOL    HW115038   3.323   1.212  12.897
 4765SOL    HW215039   3.427   1.214  12.787
 4766SOL     OW15040   2.235   1.744  12.744
 4766SOL    HW115041   2.164   1.756  12.681
 4766SOL    HW215042   2.212   1.663  12.791
 4767SOL     OW15043   3.527   0.881  12.431
 4767SOL    HW115044   3.526   0.796  12.387
 4767SOL    HW215045   3.520   0.944  12.360
 4768SOL     OW15046   3.083   0.337  11.616
 4768SOL    HW115047   3.151   0.270  11.606
 4768SOL    HW215048   3.103   0.381  11.698
 4769SOL     OW15049   2.452   0.736  11.842
 4769SOL    HW115050   2.490   0.823  11.828
 4769SOL    HW215051   2.385   0.728  11.775
 4770SOL     OW15052   3.616   0.381  12.814
 4770SOL    HW115053   3.596   0.390  12.721
 4770SOL    HW215054   3.556   0.314  12.846
 4771SOL     OW15055   3.616   0.930  12.686
 4771SOL    HW115056   3.607   1.024  12.703
 4771SOL    HW215057   3.592   0.920  12.593
 4772SOL     OW15058   2.722   1.366  11.208
 4772SOL    HW115059   2.687   1.393  11.293
 4772SOL    HW215060   2.742   1.449  11.163
 4773SOL     OW15061   2.526   1.792  12.108
 4773SOL    HW115062   2.519   1.888  12.102
 4773SOL    HW215063   2.620   1.775  12.108
 4774SOL     OW15064   2.730   0.969  12.027
 4774SOL    HW115065   2.780   0.897  12.065
 4774SOL    HW215066   2.694   1.016  12.102
 4775SOL     OW15067   2.941   0.989  11.261
 4775SOL    HW115068   2.918   1.040  11.183
 4775SOL    HW215069   3.015   0.935  11.234
 4776SOL     OW15070   3.714   1.557  12.013
 4776SOL    HW115071   3.635   1.540  11.962
 4776SOL    HW215072   3.713   1.489  12.081
 4777SOL     OW15073   2.084   1.304  13.023
 4777SOL    HW115074   2.022   1.238  12.991
 4777SOL    HW215075   2.059   1.318  13.114
 4778SOL     OW15076   1.943   1.215  11.834
 4778SOL    HW115077   1.963   1.178  11.920
 4778SOL    HW215078   2.020   1.193  11.781
 4779SOL     OW15079   2.542   1.405  12.799
 4779SOL    HW115080   2.465   1.361  12.835
 4779SOL    HW215081   2.540   1.493  12.837
 4780SOL     OW15082   3.677   0.182  12.416
 4780SOL    HW115083   3.678   0.086  12.425
 4780SOL    HW215084   3.694   0.198  12.324
 4781SOL     OW15085   2.290   0.434  11.697
 4781SOL    HW115086   2.324   0.363  11.644
 4781SOL    HW215087   2.243   0.391  11.768
 4782SOL     OW15088   3.559   1.491  12.269
 4782SOL    HW115089   3.480   1.468  12.219
 4782SOL    HW215090   3.569   1.419  12.332
 4783SOL     OW15091   2.193   0.556  12.466
 4783SOL    HW115092   2.246   0.497  12.520
 4783SOL    HW215093   2.212   0.530  12.376
 4784SOL     OW15094   2.691   1.577  11.849
 4784SOL    HW115095   2.675   1.634  11.774
 4784SOL    HW215096   2.615   1.518  11.851
 4785SOL     OW15097   3.323   0.253  12.282
 4785SOL    HW115098   3.337   0.165  12.318
 4785SOL    HW215099   3.267   0.296  12.347
 4786SOL     OW15100   2.866   0.028  12.319
 4786SOL    HW115101   2.786   3.989  12.283
 4786SOL    HW215102   2.926   3.954  12.327
 4787SOL     OW15103   2.636   1.333  11.487
 4787SOL    HW115104   2.605   1.243  11.495
 4787SOL    HW215105   2.716   1.336  11.539
 4788SOL     OW15106   2.485   1.555  12.456
 4788SOL    HW115107   2.486   1.637  12.507
 4788SOL    HW215108   2.573   1.549  12.419
 4789SOL     OW15109   3.174   0.071  11.332
 4789SOL    HW115110   3.180   3.991  11.280
 4789SOL    HW215111   3.089   0.064  11.376
 4790SOL     OW15112   3.144   0.457  11.857
 4790SOL    HW115113   3.097   0.540  11.852
 4790SOL    HW215114   3.147   0.437  11.951
 4791SOL     OW15115   3.452   0.210  12.039
 4791SOL    HW115116   3.404   0.234  12.118
 4791SOL    HW215117   3.451   0.290  11.986
 4792SOL     OW15118   1.902   1.069  11.478
 4792SOL    HW115119   1.996   1.064  11.461
 4792SOL    HW215120   1.877   0.980  11.503
 4793SOL     OW15121   2.749   1.654  11.511
 4793SOL    HW115122   2.675   1.638  11.453
 4793SOL    HW215123   2.723   1.728  11.565
 4794SOL     OW15124   2.089   0.620  13.155
 4794SOL    HW115125   1.999   0.626  13.187
 4794SOL    HW215126   2.081   0.600  13.062
 4795SOL     OW15127   2.114   0.263   0.129
 4795SOL    HW115128   2.155   0.327   0.186
 4795SOL    HW215129   2.021   0.285   0.132
 4796SOL     OW15130   1.870   0.389  13.645
 4796SOL    HW115131   1.777   0.400  13.664
 4796SOL    HW215132   1.878   0.300  13.610
 4797SOL     OW15133   3.388   1.498  13.726
 4797SOL    HW115134   3.331   1.434  13.768
 4797SOL    HW215135   3.343   1.520  13.644
 4798SOL     OW15136   2.993   0.699  13.733
 4798SOL    HW115137   3.046   0.775  13.709
 4798SOL    HW215138   2.936   0.731  13.803
 4799SOL     OW15139   3.631   0.620  13.259
 4799SOL    HW115140   3.609   0.612  13.166
 4799SOL    HW215141   3.605   0.537  13.298
 4800SOL     OW15142   2.546   1.011  13.671
 4800SOL    HW115143   2.600   0.991  13.747
 4800SOL    HW215144   2.472   1.060  13.707
 4801SOL     OW15145   3.478   0.460  13.764
 4801SOL    HW115146   3.392   0.470  13.722
 4801SOL    HW215147   3.498   0.548  13.797
 4802SOL     OW15148   2.112   1.689  13.522
 4802SOL    HW115149   2.093   1.780  13.547
 4802SOL    HW215150   2.178   1.696  13.454
 4803SOL     OW15151   2.100   1.426  13.572
 4803SOL    HW115152   2.097   1.521  13.569
 4803SOL    HW215153   2.035   1.402  13.638
 4804SOL     OW15154   2.101   1.107   0.027
 4804SOL    HW115155   2.121   1.044   0.096
 4804SOL    HW215156   2.036   1.166   0.066
 4805SOL     OW15157   2.445   0.983  13.169
 4805SOL    HW115158   2.492   1.030  13.100
 4805SOL    HW215159   2.483   1.015  13.250
 4806SOL     OW15160   1.981   0.657  13.589
 4806SOL    HW115161   1.951   0.567  13.602
 4806SOL    HW215162   1.964   0.701  13.672
 4807SOL     OW15163   3.702   1.758  13.369
 4807SOL    HW115164   3.772   1.732  13.429
 4807SOL    HW215165   3.721   1.849  13.348
 4808SOL     OW15166   3.546   0.914  13.667
 4808SOL    HW115167   3.635   0.883  13.649
 4808SOL    HW215168   3.525   0.972  13.593
 4809SOL     OW15169   3.504   1.104  13.463
 4809SOL    HW115170   3.588   1.109  13.417
 4809SOL    HW215171   3.511   1.168  13.534
 4810SOL     OW15172   2.468   1.383  13.759
 4810SOL    HW115173   2.423   1.299  13.767
 4810SOL    HW215174   2.444   1.415  13.672
 4811SOL     OW15175   2.682   0.004  13.551
 4811SOL    HW115176   2.727   0.084  13.524
 4811SOL    HW215177   2.589   0.026  13.548
 4812SOL     OW15178   3.390   0.994  13.235
 4812SOL    HW115179   3.321   0.937  13.269
 4812SOL    HW215180   3.430   1.032  13.313
 4813SOL     OW15181   3.515   1.744  13.613
 4813SOL    HW115182   3.496   1.713  13.525
 4813SOL    HW215183   3.510   1.665  13.668
 4814SOL     OW15184   2.455   0.721  13.300
 4814SOL    HW115185   2.459   0.804  13.252
 4814SOL    HW215186   2.390   0.736  13.369
 4815SOL     OW15187   3.103   0.340   0.052
 4815SOL    HW115188   3.014   0.328   0.085
 4815SOL    HW215189   3.158   0.296   0.117
 4816SOL     OW15190   3.440   1.674  13.342
 4816SOL    HW115191   3.531   1.702  13.337
 4816SOL    HW215192   3.414   1.657  13.252
 4817SOL     OW15193   2.911   0.696  13.459
 4817SOL    HW115194   2.925   0.684  13.553
 4817SOL    HW215195   2.829   0.651  13.441
 4818SOL     OW15196   1.941   0.817  13.812
 4818SOL    HW115197   2.023   0.818  13.860
 4818SOL    HW215198   1.894   0.894  13.844
 4819SOL     OW15199   2.757   0.351  13.232
 4819SOL    HW115200   2.798   0.411  13.169
 4819SOL    HW215201   2.751   0.268  13.186
 4820SOL     OW15202   3.224   1.134  13.551
 4820SOL    HW115203   3.314   1.135  13.519
 4820SOL    HW215204   3.182   1.207  13.505
 4821SOL     OW15205   2.861   1.439  13.503
 4821SOL    HW115206   2.831   1.515  13.454
 4821SOL    HW215207   2.832   1.454  13.592
 4822SOL     OW15208   2.250   1.824  13.820
 4822SOL    HW115209   2.248   1.738  13.863
 4822SOL    HW215210   2.241   1.887  13.892
 4823SOL     OW15211   3.653   1.053  13.898
 4823SOL    HW115212   3.593   1.048  13.823
 4823SOL    HW215213   3.595   1.049   0.075
 4824SOL     OW15214   2.182   0.959  13.287
 4824SOL    HW115215   2.263   0.978  13.241
 4824SOL    HW215216   2.151   0.877  13.249
 4825SOL     OW15217   3.354   0.731  13.752
 4825SOL    HW115218   3.340   0.695  13.839
 4825SOL    HW215219   3.421   0.798  13.765
 4826SOL     OW15220   2.986   1.778  13.264
 4826SOL    HW115221   2.911   1.738  13.309
 4826SOL    HW215222   3.009   1.715  13.195
 4827SOL     OW15223   3.487   1.383  13.120
 4827SOL    HW115224   3.444   1.467  13.106
 4827SOL    HW215225   3.420   1.318  13.102
 4828SOL     OW15226   2.330   1.720  13.358
 4828SOL    HW115227   2.373   1.785  13.412
 4828SOL    HW215228   2.394   1.700  13.289
 4829SOL     OW15229   3.284   0.166  13.441
 4829SOL    HW115230   3.249   0.106  13.374
 4829SOL    HW215231   3.373   0.134  13.457
 4830SOL     OW15232   2.793   1.687   0.009
 4830SOL    HW115233   2.810   1.621   0.075
 4830SOL    HW215234   2.748   1.640  13.839
 4831SOL     OW15235   2.256   0.698  13.506
 4831SOL    HW115236   2.276   0.605  13.518
 4831SOL    HW215237   2.162   0.705  13.523
 4832SOL     OW15238   2.506   0.131  13.142
 4832SOL    HW115239   2.530   0.047  13.181
 4832SOL    HW215240   2.443   0.107  13.073
 4833SOL     OW15241   2.411   0.056  13.526
 4833SOL    HW115242   2.336   0.059  13.585
 4833SOL    HW215243   2.404   0.136  13.474
 4834SOL     OW15244   3.289   1.199  13.075
 4834SOL    HW115245   3.319   1.124  13.126
 4834SOL    HW215246   3.204   1.221  13.112
 4835SOL     OW15247   2.193   0.044  13.242
 4835SOL    HW115248   2.203   0.111  13.174
 4835SOL    HW215249   2.277   0.045  13.289
 4836SOL     OW15250   2.803   0.248  13.493
 4836SOL    HW115251   2.776   0.289  13.410
 4836SOL    HW215252   2.898   0.256  13.494
 4837SOL     OW15253   2.325   1.143  13.771
 4837SOL    HW115254   2.252   1.130  13.831
 4837SOL    HW215255   2.287   1.131  13.684
 4838SOL     OW15256   3.131   1.796  13.634
 4838SOL    HW115257   3.175   1.863  13.581
 4838SOL    HW215258   3.063   1.843  13.681
 4839SOL     OW15259   2.884   0.543  13.061
 4839SOL    HW115260   2.840   0.626  13.042
 4839SOL    HW215261   2.947   0.566  13.129
 4840SOL     OW15262   2.761   0.474  13.668
 4840SOL    HW115263   2.690   0.519  13.621
 4840SOL    HW215264   2.766   0.388  13.626
 4841SOL     OW15265   2.863   0.039  13.795
 4841SOL    HW115266   2.830   0.064  13.709
 4841SOL    HW215267   2.886   3.946  13.786
 4842SOL     OW15268   3.728   0.822  13.409
 4842SOL    HW115269   3.774   0.765  13.471
 4842SOL    HW215270   3.689   0.762  13.346
 4843SOL     OW15271   2.354   1.420  13.185
 4843SOL    HW115272   2.279   1.394  13.239
 4843SOL    HW215273   2.345   1.369  13.105
 4844SOL     OW15274   3.539   1.268  13.667
 4844SOL    HW115275   3.634   1.273  13.683
 4844SOL    HW215276   3.505   1.352  13.700
 4845SOL     OW15277   3.256   0.575  13.103
 4845SOL    HW115278   3.193   0.556  13.173
 4845SOL    HW215279   3.341   0.556  13.142
 4846SOL     OW15280   2.390   0.266  13.350
 4846SOL    HW115281   2.444   0.226  13.281
 4846SOL    HW215282   2.361   0.349  13.312
 4847SOL     OW15283   2.571   1.064  13.400
 4847SOL    HW115284   2.556   1.048  13.493
 4847SOL    HW215285   2.647   1.010  13.378
 4848SOL     OW15286   2.212   1.110  13.525
 4848SOL    HW115287   2.212   1.188  13.469
 4848SOL    HW215288   2.207   1.036  13.464
 4849SOL     OW15289   2.433   0.539  13.863
 4849SOL    HW115290   2.444   0.608  13.797
 4849SOL    HW215291   2.487   0.568   0.037
 4850SOL     OW15292   3.107   1.352  13.419
 4850SOL    HW115293   3.162   1.425  13.447
 4850SOL    HW215294   3.021   1.372  13.454
 4851SOL     OW15295   3.445   0.633  13.511
 4851SOL    HW115296   3.406   0.680  13.585
 4851SOL    HW215297   3.481   0.702  13.455
 4852SOL     OW15298   3.064   0.533  13.294
 4852SOL    HW115299   3.069   0.454  13.348
 4852SOL    HW215300   3.020   0.597  13.351
 4853SOL     OW15301   2.194   0.052  13.686
 4853SOL    HW115302   2.174   0.145  13.697
 4853SOL    HW215303   2.117   0.006  13.719
 4854SOL     OW15304   3.462   0.391  13.407
 4854SOL    HW115305   3.437   0.323  13.469
 4854SOL    HW215306   3.447   0.474  13.453
 4855SOL     OW15307   3.363   0.278  13.166
 4855SOL    HW115308   3.291   0.216  13.180
 4855SOL    HW215309   3.378   0.317  13.252
 4856SOL     OW15310   3.150   0.827  13.062
 4856SOL    HW115311   3.193   0.741  13.066
 4856SOL    HW215312   3.183   0.866  12.982
 4857SOL     OW15313   1.875   1.320  13.224
 4857SOL    HW115314   1.790   1.344  13.188
 4857SOL    HW215315   1.863   1.231  13.259
 4858SOL     OW15316   2.679   0.575  13.389
 4858SOL    HW115317   2.682   0.497  13.333
 4858SOL    HW215318   2.602   0.623  13.358
 4859SOL     OW15319   2.325   0.493  13.217
 4859SOL    HW115320   2.383   0.566  13.241
 4859SOL    HW215321   2.239   0.533  13.205
 4860SOL     OW15322   3.178   0.848  13.338
 4860SOL    HW115323   3.099   0.829  13.389
 4860SOL    HW215324   3.150   0.840  13.247
 4861SOL     OW15325   3.541   0.112  13.470
 4861SOL    HW115326   3.632   0.127  13.445
 4861SOL    HW215327   3.545   0.046  13.539
 4862SOL     OW15328   3.244   1.573  13.508
 4862SOL    HW115329   3.305   1.610  13.444
 4862SOL    HW215330   3.199   1.649  13.544
 4863SOL     OW15331   3.152   0.912  13.684
 4863SOL    HW115332   3.230   0.858  13.668
 4863SOL    HW215333   3.172   0.996  13.643
 4864SOL     OW15334   2.534   1.622  13.185
 4864SOL    HW115335   2.546   1.634  13.091
 4864SOL    HW215336   2.479   1.545  13.193
 4865SOL     OW15337   3.673   0.163   0.060
 4865SOL    HW115338   3.708   0.074   0.063
 4865SOL    HW215339   3.582   0.153   0.032
 4866SOL     OW15340   2.139   0.311  13.745
 4866SOL    HW115341   2.048   0.331  13.722
 4866SOL    HW215342   2.138   0.306  13.840
 4867SOL     OW15343   3.070   1.604  13.066
 4867SOL    HW115344   3.059   1.513  13.092
 4867SOL    HW215345   3.004   1.617  12.997
 4868SOL     OW15346   2.781   0.913  13.329
 4868SOL    HW115347   2.840   0.943  13.260
 4868SOL    HW215348   2.826   0.839  13.369
 4869SOL     OW15349   3.351   1.628  13.077
 4869SOL    HW115350   3.257   1.619  13.062
 4869SOL    HW215351   3.389   1.634  12.989
 4870SOL     OW15352   2.913   1.090  13.755
 4870SOL    HW115353   2.825   1.054  13.743
 4870SOL    HW215354   2.964   1.054  13.683
 4871SOL     OW15355   2.461   1.492  13.506
 4871SOL    HW115356   2.505   1.442  13.438
 4871SOL    HW215357   2.395   1.543  13.460
 4872SOL     OW15358   2.126   1.346  13.321
 4872SOL    HW115359   2.033   1.343  13.296
 4872SOL    HW215360   2.126   1.379  13.410
 4873SOL     OW15361   1.961   0.318  13.026
 4873SOL    HW115362   1.892   0.337  13.089
 4873SOL    HW215363   1.970   0.398  12.975
 4874SOL     OW15364   1.952   0.153  13.366
 4874SOL    HW115365   1.923   0.214  13.299
 4874SOL    HW215366   2.038   0.123  13.335
 4875SOL     OW15367   3.040   1.337  13.150
 4875SOL    HW115368   2.949   1.307  13.153
 4875SOL    HW215369   3.068   1.340  13.241
 4876SOL     OW15370   3.079   0.333  13.485
 4876SOL    HW115371   3.148   0.269  13.471
 4876SOL    HW215372   3.107   0.383  13.561
 4877SOL     OW15373   2.455   0.749  13.691
 4877SOL    HW115374   2.489   0.837  13.672
 4877SOL    HW215375   2.385   0.736  13.627
 4878SOL     OW15376   2.723   1.366  13.070
 4878SOL    HW115377   2.687   1.393  13.155
 4878SOL    HW215378   2.742   1.449  13.025
 4879SOL     OW15379   2.523   1.836   0.079
 4879SOL    HW115380   2.505   1.929   0.069
 4879SOL    HW215381   2.618   1.829   0.081
 4880SOL     OW15382   2.690   0.965  13.895
 4880SOL    HW115383   2.720   0.885   0.037
 4880SOL    HW215384   2.714   1.035   0.057
 4881SOL     OW15385   2.939   0.987  13.123
 4881SOL    HW115386   2.918   1.040  13.046
 4881SOL    HW215387   3.014   0.934  13.096
 4882SOL     OW15388   1.949   1.228  13.704
 4882SOL    HW115389   1.954   1.170  13.780
 4882SOL    HW215390   2.019   1.198  13.646
 4883SOL     OW15391   2.291   0.437  13.551
 4883SOL    HW115392   2.327   0.366  13.500
 4883SOL    HW215393   2.252   0.395  13.628
 4884SOL     OW15394   3.543   1.457   0.349
 4884SOL    HW115395   3.512   1.436   0.261
 4884SOL    HW215396   3.632   1.420   0.352
 4885SOL     OW15397   2.681   1.549  13.709
 4885SOL    HW115398   2.656   1.604  13.635
 4885SOL    HW215399   2.604   1.495  13.725
 4886SOL     OW15400   2.635   1.334  13.346
 4886SOL    HW115401   2.606   1.243  13.355
 4886SOL    HW215402   2.715   1.338  13.399
 4887SOL     OW15403   3.174   0.073  13.201
 4887SOL    HW115404   3.191   3.995  13.149
 4887SOL    HW215405   3.085   0.061  13.234
 4888SOL     OW15406   3.156   0.461  13.716
 4888SOL    HW115407   3.105   0.542  13.715
 4888SOL    HW215408   3.147   0.427  13.805
 4889SOL     OW15409   1.904   1.070  13.340
 4889SOL    HW115410   1.998   1.064  13.322
 4889SOL    HW215411   1.879   0.980  13.363
 4890SOL     OW15412   2.750   1.653  13.373
 4890SOL    HW115413   2.675   1.640  13.314
 4890SOL    HW215414   2.724   1.726  13.429
 4891SOL     OW15415   2.094   2.514   0.122
 4891SOL    HW115416   2.007   2.486   0.149
 4891SOL    HW215417   2.111   2.466   0.041
 4892SOL     OW15418   1.871   2.269   0.642
 4892SOL    HW115419   1.780   2.263   0.669
 4892SOL    HW215420   1.887   2.189   0.592
 4893SOL     OW15421   2.429   3.153   1.177
 4893SOL    HW115422   2.342   3.159   1.137
 4893SOL    HW215423   2.445   3.241   1.211
 4894SOL     OW15424   3.425   3.374   0.708
 4894SOL    HW115425   3.381   3.351   0.790
 4894SOL    HW215426   3.355   3.377   0.643
 4895SOL     OW15427   2.991   2.561   0.700
 4895SOL    HW115428   3.041   2.641   0.686
 4895SOL    HW215429   2.945   2.575   0.783
 4896SOL     OW15430   3.625   2.463   0.229
 4896SOL    HW115431   3.640   2.422   0.144
 4896SOL    HW215432   3.586   2.394   0.283
 4897SOL     OW15433   2.613   3.002   1.042
 4897SOL    HW115434   2.545   3.038   1.100
 4897SOL    HW215435   2.651   3.078   0.999
 4898SOL     OW15436   2.730   2.632   1.822
 4898SOL    HW115437   2.720   2.702   1.886
 4898SOL    HW215438   2.754   2.676   1.741
 4899SOL     OW15439   2.547   2.860   0.647
 4899SOL    HW115440   2.613   2.851   0.716
 4899SOL    HW215441   2.478   2.915   0.686
 4900SOL     OW15442   2.574   3.013   1.814
 4900SOL    HW115443   2.622   3.091   1.843
 4900SOL    HW215444   2.492   3.047   1.777
 4901SOL     OW15445   2.194   3.283   1.067
 4901SOL    HW115446   2.119   3.248   1.018
 4901SOL    HW215447   2.241   3.336   1.003
 4902SOL     OW15448   3.321   3.363   1.356
 4902SOL    HW115449   3.375   3.442   1.366
 4902SOL    HW215450   3.256   3.369   1.426
 4903SOL     OW15451   3.472   2.308   0.743
 4903SOL    HW115452   3.399   2.330   0.686
 4903SOL    HW215453   3.486   2.386   0.796
 4904SOL     OW15454   2.082   3.573   0.483
 4904SOL    HW115455   2.109   3.643   0.543
 4904SOL    HW215456   2.145   3.578   0.411
 4905SOL     OW15457   2.999   3.204   1.694
 4905SOL    HW115458   3.040   3.198   1.780
 4905SOL    HW215459   2.946   3.124   1.686
 4906SOL     OW15460   2.081   3.303   0.530
 4906SOL    HW115461   2.074   3.398   0.534
 4906SOL    HW215462   2.027   3.272   0.602
 4907SOL     OW15463   2.122   2.955   0.890
 4907SOL    HW115464   2.117   2.868   0.930
 4907SOL    HW215465   2.065   3.010   0.944
 4908SOL     OW15466   2.471   3.648   1.428
 4908SOL    HW115467   2.389   3.633   1.476
 4908SOL    HW215468   2.497   3.737   1.453
 4909SOL     OW15469   2.427   2.848   0.159
 4909SOL    HW115470   2.458   2.892   0.079
 4909SOL    HW215471   2.480   2.886   0.229
 4910SOL     OW15472   3.457   1.987   1.466
 4910SOL    HW115473   3.469   2.069   1.418
 4910SOL    HW215474   3.442   2.015   1.557
 4911SOL     OW15475   1.983   2.513   0.562
 4911SOL    HW115476   1.951   2.425   0.584
 4911SOL    HW215477   1.970   2.564   0.642
 4912SOL     OW15478   3.697   3.614   0.340
 4912SOL    HW115479   3.765   3.580   0.399
 4912SOL    HW215480   3.721   3.706   0.327
 4913SOL     OW15481   1.883   3.465   0.104
 4913SOL    HW115482   1.890   3.374   0.134
 4913SOL    HW215483   1.868   3.515   0.185
 4914SOL     OW15484   3.549   2.780   0.647
 4914SOL    HW115485   3.633   2.738   0.630
 4914SOL    HW215486   3.530   2.830   0.568
 4915SOL     OW15487   3.505   2.966   0.433
 4915SOL    HW115488   3.591   2.972   0.392
 4915SOL    HW215489   3.509   3.029   0.505
 4916SOL     OW15490   1.978   2.629   1.561
 4916SOL    HW115491   2.068   2.657   1.577
 4916SOL    HW215492   1.926   2.708   1.573
 4917SOL     OW15493   2.477   3.250   0.735
 4917SOL    HW115494   2.431   3.167   0.744
 4917SOL    HW215495   2.460   3.277   0.644
 4918SOL     OW15496   3.149   3.099   1.423
 4918SOL    HW115497   3.182   3.032   1.362
 4918SOL    HW215498   3.208   3.094   1.498
 4919SOL     OW15499   2.681   1.863   0.510
 4919SOL    HW115500   2.721   1.947   0.488
 4919SOL    HW215501   2.587   1.881   0.515
 4920SOL     OW15502   2.051   2.829   1.274
 4920SOL    HW115503   2.136   2.790   1.257
 4920SOL    HW215504   1.989   2.775   1.226
 4921SOL     OW15505   3.392   2.859   0.205
 4921SOL    HW115506   3.323   2.801   0.238
 4921SOL    HW215507   3.431   2.896   0.284
 4922SOL     OW15508   3.079   3.666   1.627
 4922SOL    HW115509   3.056   3.726   1.556
 4922SOL    HW215510   3.080   3.580   1.585
 4923SOL     OW15511   3.326   3.282   0.949
 4923SOL    HW115512   3.260   3.296   1.017
 4923SOL    HW215513   3.316   3.191   0.924
 4924SOL     OW15514   3.515   3.605   0.587
 4924SOL    HW115515   3.506   3.577   0.496
 4924SOL    HW215516   3.496   3.527   0.639
 4925SOL     OW15517   2.480   2.598   0.268
 4925SOL    HW115518   2.475   2.674   0.210
 4925SOL    HW215519   2.418   2.617   0.338
 4926SOL     OW15520   3.139   2.219   0.933
 4926SOL    HW115521   3.051   2.184   0.942
 4926SOL    HW215522   3.192   2.166   0.992
 4927SOL     OW15523   3.421   3.595   0.314
 4927SOL    HW115524   3.517   3.596   0.313
 4927SOL    HW215525   3.398   3.559   0.228
 4928SOL     OW15526   2.656   2.479   1.450
 4928SOL    HW115527   2.632   2.456   1.540
 4928SOL    HW215528   2.609   2.415   1.396
 4929SOL     OW15529   3.256   2.336   1.678
 4929SOL    HW115530   3.259   2.380   1.763
 4929SOL    HW215531   3.314   2.261   1.688
 4930SOL     OW15532   2.814   2.749   1.584
 4930SOL    HW115533   2.870   2.680   1.547
 4930SOL    HW215534   2.768   2.784   1.508
 4931SOL     OW15535   2.860   2.277   1.236
 4931SOL    HW115536   2.776   2.296   1.279
 4931SOL    HW215537   2.836   2.228   1.157
 4932SOL     OW15538   2.914   2.564   0.429
 4932SOL    HW115539   2.931   2.556   0.523
 4932SOL    HW215540   2.831   2.517   0.416
 4933SOL     OW15541   1.950   2.684   0.776
 4933SOL    HW115542   2.032   2.682   0.826
 4933SOL    HW215543   1.904   2.760   0.810
 4934SOL     OW15544   1.983   3.706   1.576
 4934SOL    HW115545   1.986   3.686   1.670
 4934SOL    HW215546   1.890   3.706   1.554
 4935SOL     OW15547   2.734   2.222   0.217
 4935SOL    HW115548   2.773   2.281   0.153
 4935SOL    HW215549   2.743   2.135   0.177
 4936SOL     OW15550   3.572   2.436   1.829
 4936SOL    HW115551   3.533   2.509   1.780
 4936SOL    HW215552   3.596   2.372   1.761
 4937SOL     OW15553   3.238   3.003   0.543
 4937SOL    HW115554   3.317   2.991   0.490
 4937SOL    HW215555   3.186   3.067   0.493
 4938SOL     OW15556   2.435   2.057   0.909
 4938SOL    HW115557   2.346   2.070   0.942
 4938SOL    HW215558   2.457   2.140   0.867
 4939SOL     OW15559   2.865   3.304   0.474
 4939SOL    HW115560   2.833   3.379   0.425
 4939SOL    HW215561   2.845   3.325   0.565
 4940SOL     OW15562   2.213   3.674   0.841
 4940SOL    HW115563   2.264   3.594   0.859
 4940SOL    HW215564   2.273   3.745   0.862
 4941SOL     OW15565   3.667   2.921   0.868
 4941SOL    HW115566   3.613   2.898   0.793
 4941SOL    HW215567   3.605   2.926   0.942
 4942SOL     OW15568   3.089   3.399   1.512
 4942SOL    HW115569   3.076   3.327   1.573
 4942SOL    HW215570   3.022   3.386   1.445
 4943SOL     OW15571   2.172   2.800   0.232
 4943SOL    HW115572   2.263   2.813   0.206
 4943SOL    HW215573   2.157   2.706   0.223
 4944SOL     OW15574   3.340   2.607   0.726
 4944SOL    HW115575   3.335   2.565   0.812
 4944SOL    HW215576   3.418   2.662   0.731
 4945SOL     OW15577   2.329   3.127   1.737
 4945SOL    HW115578   2.303   3.132   1.645
 4945SOL    HW215579   2.247   3.125   1.786
 4946SOL     OW15580   2.988   3.640   0.231
 4946SOL    HW115581   2.925   3.594   0.287
 4946SOL    HW215582   3.015   3.574   0.167
 4947SOL     OW15583   3.493   3.239   0.086
 4947SOL    HW115584   3.456   3.322   0.055
 4947SOL    HW215585   3.426   3.174   0.067
 4948SOL     OW15586   2.338   3.596   0.325
 4948SOL    HW115587   2.371   3.659   0.388
 4948SOL    HW215588   2.415   3.570   0.274
 4949SOL     OW15589   3.265   1.972   0.438
 4949SOL    HW115590   3.260   1.939   0.348
 4949SOL    HW215591   3.359   1.969   0.459
 4950SOL     OW15592   2.122   3.653   1.224
 4950SOL    HW115593   2.169   3.584   1.269
 4950SOL    HW215594   2.107   3.619   1.136
 4951SOL     OW15595   2.800   3.563   0.900
 4951SOL    HW115596   2.878   3.511   0.921
 4951SOL    HW215597   2.756   3.513   0.831
 4952SOL     OW15598   2.252   2.556   0.480
 4952SOL    HW115599   2.268   2.477   0.429
 4952SOL    HW215600   2.161   2.549   0.507
 4953SOL     OW15601   3.395   2.087   1.725
 4953SOL    HW115602   3.405   2.107   1.818
 4953SOL    HW215603   3.327   2.019   1.722
 4954SOL     OW15604   2.627   2.144   1.755
 4954SOL    HW115605   2.704   2.088   1.750
 4954SOL    HW215606   2.579   2.112   1.831
 4955SOL     OW15607   2.738   3.382   1.195
 4955SOL    HW115608   2.722   3.347   1.107
 4955SOL    HW215609   2.808   3.328   1.230
 4956SOL     OW15610   3.202   2.451   1.433
 4956SOL    HW115611   3.233   2.420   1.518
 4956SOL    HW215612   3.239   2.539   1.425
 4957SOL     OW15613   2.679   3.254   0.942
 4957SOL    HW115614   2.763   3.243   0.898
 4957SOL    HW215615   2.615   3.258   0.871
 4958SOL     OW15616   2.788   2.369   0.902
 4958SOL    HW115617   2.765   2.361   0.810
 4958SOL    HW215618   2.823   2.283   0.925
 4959SOL     OW15619   2.415   1.927   0.511
 4959SOL    HW115620   2.356   1.906   0.583
 4959SOL    HW215621   2.398   2.019   0.492
 4960SOL     OW15622   3.292   3.068   0.045
 4960SOL    HW115623   3.311   2.987   0.093
 4960SOL    HW215624   3.200   3.086   0.065
 4961SOL     OW15625   2.803   2.109   0.462
 4961SOL    HW115626   2.774   2.149   0.379
 4961SOL    HW215627   2.897   2.125   0.464
 4962SOL     OW15628   2.944   2.545   1.459
 4962SOL    HW115629   2.878   2.476   1.466
 4962SOL    HW215630   3.027   2.498   1.453
 4963SOL     OW15631   3.082   3.433   0.794
 4963SOL    HW115632   3.099   3.499   0.727
 4963SOL    HW215633   3.153   3.445   0.858
 4964SOL     OW15634   2.332   3.013   0.730
 4964SOL    HW115635   2.264   2.994   0.794
 4964SOL    HW215636   2.290   3.000   0.645
 4965SOL     OW15637   3.128   3.658   0.608
 4965SOL    HW115638   3.175   3.722   0.555
 4965SOL    HW215639   3.056   3.707   0.647
 4966SOL     OW15640   2.859   2.407   0.057
 4966SOL    HW115641   2.860   2.395  13.862
 4966SOL    HW215642   2.951   2.401   0.082
 4967SOL     OW15643   1.939   2.429   1.381
 4967SOL    HW115644   2.033   2.418   1.368
 4967SOL    HW215645   1.931   2.501   1.443
 4968SOL     OW15646   2.725   2.319   0.639
 4968SOL    HW115647   2.690   2.376   0.570
 4968SOL    HW215648   2.751   2.240   0.593
 4969SOL     OW15649   2.875   1.916   0.750
 4969SOL    HW115650   2.819   1.907   0.674
 4969SOL    HW215651   2.854   1.841   0.805
 4970SOL     OW15652   3.301   3.024   0.857
 4970SOL    HW115653   3.231   2.959   0.856
 4970SOL    HW215654   3.326   3.034   0.766
 4971SOL     OW15655   3.327   2.470   0.974
 4971SOL    HW115656   3.275   2.389   0.977
 4971SOL    HW215657   3.386   2.463   1.049
 4972SOL     OW15658   3.724   2.677   0.371
 4972SOL    HW115659   3.765   2.622   0.438
 4972SOL    HW215660   3.682   2.614   0.311
 4973SOL     OW15661   2.351   3.267   0.157
 4973SOL    HW115662   2.276   3.235   0.207
 4973SOL    HW215663   2.332   3.241   0.066
 4974SOL     OW15664   3.528   3.126   0.646
 4974SOL    HW115665   3.623   3.129   0.655
 4974SOL    HW215666   3.500   3.216   0.661
 4975SOL     OW15667   3.284   2.447   0.087
 4975SOL    HW115668   3.216   2.438   0.154
 4975SOL    HW215669   3.321   2.359   0.079
 4976SOL     OW15670   3.613   3.097   1.566
 4976SOL    HW115671   3.700   3.061   1.549
 4976SOL    HW215672   3.629   3.186   1.596
 4977SOL     OW15673   2.919   3.213   1.331
 4977SOL    HW115674   2.844   3.183   1.383
 4977SOL    HW215675   2.995   3.173   1.374
 4978SOL     OW15676   3.469   3.491   1.656
 4978SOL    HW115677   3.459   3.524   1.567
 4978SOL    HW215678   3.550   3.440   1.655
 4979SOL     OW15679   2.992   3.066   1.103
 4979SOL    HW115680   2.934   3.106   1.169
 4979SOL    HW215681   2.961   3.101   1.020
 4980SOL     OW15682   3.490   2.958   1.075
 4980SOL    HW115683   3.482   3.020   1.148
 4980SOL    HW215684   3.413   2.975   1.021
 4981SOL     OW15685   2.786   1.956   1.394
 4981SOL    HW115686   2.808   1.937   1.303
 4981SOL    HW215687   2.866   1.995   1.431
 4982SOL     OW15688   2.846   2.977   1.723
 4982SOL    HW115689   2.755   2.993   1.745
 4982SOL    HW215690   2.844   2.899   1.668
 4983SOL     OW15691   2.577   2.921   0.377
 4983SOL    HW115692   2.562   2.902   0.469
 4983SOL    HW215693   2.652   2.866   0.353
 4984SOL     OW15694   2.284   2.685   1.253
 4984SOL    HW115695   2.353   2.697   1.318
 4984SOL    HW215696   2.246   2.599   1.274
 4985SOL     OW15697   3.129   2.239   1.278
 4985SOL    HW115698   3.161   2.316   1.324
 4985SOL    HW215699   3.039   2.261   1.254
 4986SOL     OW15700   1.934   3.435   1.353
 4986SOL    HW115701   1.906   3.510   1.301
 4986SOL    HW215702   2.029   3.437   1.349
 4987SOL     OW15703   2.206   2.976   0.487
 4987SOL    HW115704   2.205   3.048   0.423
 4987SOL    HW215705   2.212   2.897   0.433
 4988SOL     OW15706   2.427   2.392   0.848
 4988SOL    HW115707   2.438   2.455   0.777
 4988SOL    HW215708   2.492   2.418   0.913
 4989SOL     OW15709   3.110   3.209   0.398
 4989SOL    HW115710   3.166   3.282   0.424
 4989SOL    HW215711   3.023   3.232   0.430
 4990SOL     OW15712   3.146   3.322   1.148
 4990SOL    HW115713   3.202   3.326   1.225
 4990SOL    HW215714   3.090   3.245   1.163
 4991SOL     OW15715   3.442   2.485   0.485
 4991SOL    HW115716   3.392   2.534   0.550
 4991SOL    HW215717   3.472   2.551   0.422
 4992SOL     OW15718   2.208   3.391   1.312
 4992SOL    HW115719   2.196   3.347   1.228
 4992SOL    HW215720   2.302   3.402   1.320
 4993SOL     OW15721   2.282   2.608   1.605
 4993SOL    HW115722   2.341   2.651   1.543
 4993SOL    HW215723   2.333   2.534   1.639
 4994SOL     OW15724   3.466   2.640   1.682
 4994SOL    HW115725   3.380   2.683   1.677
 4994SOL    HW215726   3.518   2.684   1.615
 4995SOL     OW15727   2.856   1.989   1.748
 4995SOL    HW115728   2.916   2.061   1.728
 4995SOL    HW215729   2.905   1.910   1.727
 4996SOL     OW15730   2.362   1.887   1.775
 4996SOL    HW115731   2.317   1.842   1.704
 4996SOL    HW215732   2.294   1.940   1.817
 4997SOL     OW15733   2.447   2.734   1.032
 4997SOL    HW115734   2.480   2.824   1.031
 4997SOL    HW215735   2.390   2.731   1.109
 4998SOL     OW15736   3.217   2.721   1.027
 4998SOL    HW115737   3.133   2.709   0.981
 4998SOL    HW215738   3.260   2.636   1.020
 4999SOL     OW15739   3.080   2.405   0.272
 4999SOL    HW115740   3.084   2.324   0.323
 4999SOL    HW215741   3.025   2.463   0.324
 5000SOL     OW15742   1.907   3.173   1.276
 5000SOL    HW115743   1.941   3.119   1.347
 5000SOL    HW215744   1.914   3.263   1.308
 5001SOL     OW15745   2.583   2.487   1.055
 5001SOL    HW115746   2.662   2.474   1.003
 5001SOL    HW215747   2.557   2.577   1.038
 5002SOL     OW15748   3.593   2.822   1.860
 5002SOL    HW115749   3.552   2.757   1.802
 5002SOL    HW215750   3.529   2.834   1.931
 5003SOL     OW15751   3.483   2.239   0.371
 5003SOL    HW115752   3.506   2.172   0.436
 5003SOL    HW215753   3.458   2.315   0.423
 5004SOL     OW15754   2.888   2.620   0.959
 5004SOL    HW115755   2.884   2.637   1.053
 5004SOL    HW215756   2.864   2.528   0.951
 5005SOL     OW15757   2.847   3.430   1.720
 5005SOL    HW115758   2.829   3.471   1.636
 5005SOL    HW215759   2.889   3.347   1.697
 5006SOL     OW15760   3.705   3.361   1.598
 5006SOL    HW115761   3.729   3.391   1.510
 5006SOL    HW215762   3.786   3.372   1.649
 5007SOL     OW15763   2.214   2.779   1.809
 5007SOL    HW115764   2.296   2.799   1.855
 5007SOL    HW215765   2.239   2.717   1.740
 5008SOL     OW15766   3.410   2.123   0.136
 5008SOL    HW115767   3.352   2.051   0.160
 5008SOL    HW215768   3.434   2.163   0.220
 5009SOL     OW15769   3.152   2.690   0.055
 5009SOL    HW115770   3.200   2.608   0.060
 5009SOL    HW215771   3.171   2.724  13.867
 5010SOL     OW15772   2.929   3.198   0.855
 5010SOL    HW115773   2.933   3.126   0.792
 5010SOL    HW215774   2.989   3.264   0.820
 5011SOL     OW15775   2.171   2.680   0.946
 5011SOL    HW115776   2.263   2.706   0.940
 5011SOL    HW215777   2.174   2.589   0.976
 5012SOL     OW15778   2.216   2.416   1.008
 5012SOL    HW115779   2.183   2.327   0.992
 5012SOL    HW215780   2.292   2.423   0.951
 5013SOL     OW15781   2.996   2.238   1.681
 5013SOL    HW115782   2.948   2.291   1.745
 5013SOL    HW215783   3.083   2.277   1.679
 5014SOL     OW15784   3.025   2.064   1.470
 5014SOL    HW115785   3.013   2.126   1.542
 5014SOL    HW215786   3.067   2.115   1.401
 5015SOL     OW15787   1.882   3.173   0.180
 5015SOL    HW115788   1.801   3.187   0.131
 5015SOL    HW215789   1.873   3.086   0.219
 5016SOL     OW15790   1.959   3.641   0.938
 5016SOL    HW115791   1.928   3.562   0.893
 5016SOL    HW215792   2.044   3.660   0.899
 5017SOL     OW15793   2.356   3.437   0.906
 5017SOL    HW115794   2.424   3.501   0.930
 5017SOL    HW215795   2.401   3.375   0.849
 5018SOL     OW15796   2.841   2.651   1.225
 5018SOL    HW115797   2.902   2.631   1.296
 5018SOL    HW215798   2.757   2.618   1.256
 5019SOL     OW15799   1.894   2.399   1.114
 5019SOL    HW115800   1.971   2.426   1.064
 5019SOL    HW215801   1.918   2.415   1.206
 5020SOL     OW15802   2.014   2.428   1.736
 5020SOL    HW115803   2.074   2.385   1.674
 5020SOL    HW215804   1.976   2.500   1.686
 5021SOL     OW15805   3.241   2.799   1.658
 5021SOL    HW115806   3.262   2.892   1.656
 5021SOL    HW215807   3.237   2.773   1.566
 5022SOL     OW15808   2.678   2.437   0.379
 5022SOL    HW115809   2.688   2.363   0.319
 5022SOL    HW215810   2.612   2.493   0.337
 5023SOL     OW15811   3.502   2.464   1.184
 5023SOL    HW115812   3.491   2.403   1.257
 5023SOL    HW215813   3.588   2.442   1.148
 5024SOL     OW15814   2.105   3.411   1.725
 5024SOL    HW115815   2.082   3.478   1.790
 5024SOL    HW215816   2.108   3.330   1.775
 5025SOL     OW15817   2.537   2.322   1.266
 5025SOL    HW115818   2.520   2.235   1.231
 5025SOL    HW215819   2.547   2.377   1.188
 5026SOL     OW15820   2.789   3.534   1.469
 5026SOL    HW115821   2.763   3.496   1.385
 5026SOL    HW215822   2.781   3.628   1.457
 5027SOL     OW15823   2.322   2.383   0.280
 5027SOL    HW115824   2.397   2.438   0.258
 5027SOL    HW215825   2.259   2.399   0.210
 5028SOL     OW15826   2.006   3.005   1.474
 5028SOL    HW115827   2.008   2.954   1.555
 5028SOL    HW215828   2.024   2.940   1.405
 5029SOL     OW15829   3.184   2.907   1.222
 5029SOL    HW115830   3.208   2.844   1.154
 5029SOL    HW215831   3.116   2.961   1.182
 5030SOL     OW15832   3.176   2.720   0.326
 5030SOL    HW115833   3.102   2.686   0.376
 5030SOL    HW215834   3.151   2.705   0.235
 5031SOL     OW15835   3.638   3.603   1.154
 5031SOL    HW115836   3.697   3.629   1.083
 5031SOL    HW215837   3.612   3.514   1.131
 5032SOL     OW15838   3.106   3.595   1.110
 5032SOL    HW115839   3.188   3.617   1.067
 5032SOL    HW215840   3.112   3.502   1.129
 5033SOL     OW15841   1.948   3.127   1.012
 5033SOL    HW115842   1.932   3.142   1.106
 5033SOL    HW215843   1.873   3.075   0.984
 5034SOL     OW15844   2.540   3.526   1.732
 5034SOL    HW115845   2.484   3.603   1.736
 5034SOL    HW215846   2.601   3.545   1.660
 5035SOL     OW15847   2.789   1.969   0.129
 5035SOL    HW115848   2.821   1.959   0.040
 5035SOL    HW215849   2.840   1.906   0.181
 5036SOL     OW15850   3.568   2.010   0.514
 5036SOL    HW115851   3.647   2.002   0.460
 5036SOL    HW215852   3.559   1.924   0.555
 5037SOL     OW15853   3.251   3.434   0.486
 5037SOL    HW115854   3.314   3.468   0.423
 5037SOL    HW215855   3.204   3.511   0.517
 5038SOL     OW15856   1.996   3.652   1.839
 5038SOL    HW115857   1.944   3.588   1.888
 5038SOL    HW215858   2.045   3.700   1.906
 5039SOL     OW15859   3.138   2.788   0.671
 5039SOL    HW115860   3.212   2.728   0.680
 5039SOL    HW215861   3.172   2.860   0.618
 5040SOL     OW15862   2.673   3.136   1.428
 5040SOL    HW115863   2.645   3.176   1.511
 5040SOL    HW215864   2.604   3.160   1.366
 5041SOL     OW15865   2.544   3.452   0.182
 5041SOL    HW115866   2.524   3.500   0.102
 5041SOL    HW215867   2.487   3.375   0.179
 5042SOL     OW15868   3.482   3.588   1.390
 5042SOL    HW115869   3.537   3.592   1.312
 5042SOL    HW215870   3.469   3.680   1.415
 5043SOL     OW15871   3.700   2.043   0.967
 5043SOL    HW115872   3.731   1.956   0.942
 5043SOL    HW215873   3.614   2.050   0.926
 5044SOL     OW15874   3.084   3.461   0.034
 5044SOL    HW115875   3.072   3.370   0.061
 5044SOL    HW215876   3.039   3.467  13.850
 5045SOL     OW15877   2.687   2.869   1.372
 5045SOL    HW115878   2.732   2.866   1.287
 5045SOL    HW215879   2.684   2.962   1.394
 5046SOL     OW15880   2.785   2.774   0.289
 5046SOL    HW115881   2.854   2.813   0.236
 5046SOL    HW215882   2.828   2.703   0.337
 5047SOL     OW15883   3.349   3.507   0.065
 5047SOL    HW115884   3.256   3.486   0.056
 5047SOL    HW215885   3.384   3.501  13.876
 5048SOL     OW15886   2.231   3.165   1.491
 5048SOL    HW115887   2.218   3.243   1.436
 5048SOL    HW215888   2.153   3.112   1.476
 5049SOL     OW15889   3.463   3.142   1.278
 5049SOL    HW115890   3.532   3.134   1.344
 5049SOL    HW215891   3.406   3.212   1.310
 5050SOL     OW15892   2.917   2.970   0.708
 5050SOL    HW115893   2.846   2.918   0.746
 5050SOL    HW215894   2.981   2.905   0.679
 5051SOL     OW15895   2.882   2.102   0.966
 5051SOL    HW115896   2.878   2.055   0.883
 5051SOL    HW215897   2.880   2.034   1.033
 5052SOL     OW15898   2.467   3.351   0.480
 5052SOL    HW115899   2.512   3.300   0.413
 5052SOL    HW215900   2.399   3.399   0.433
 5053SOL     OW15901   3.586   2.252   1.378
 5053SOL    HW115902   3.658   2.315   1.375
 5053SOL    HW215903   3.614   2.180   1.322
 5054SOL     OW15904   2.132   3.184   0.297
 5054SOL    HW115905   2.048   3.193   0.252
 5054SOL    HW215906   2.120   3.231   0.379
 5055SOL     OW15907   1.974   2.886   1.719
 5055SOL    HW115908   1.897   2.863   1.772
 5055SOL    HW215909   2.048   2.848   1.767
 5056SOL     OW15910   2.545   2.046   1.494
 5056SOL    HW115911   2.633   2.023   1.461
 5056SOL    HW215912   2.562   2.088   1.578
 5057SOL     OW15913   1.859   2.286   0.037
 5057SOL    HW115914   1.812   2.204   0.052
 5057SOL    HW215915   1.894   2.278  13.848
 5058SOL     OW15916   3.289   2.720   1.399
 5058SOL    HW115917   3.239   2.782   1.345
 5058SOL    HW215918   3.377   2.722   1.363
 5059SOL     OW15919   3.048   3.207   0.122
 5059SOL    HW115920   2.954   3.196   0.111
 5059SOL    HW215921   3.063   3.195   0.216
 5060SOL     OW15922   2.484   2.693   1.434
 5060SOL    HW115923   2.540   2.770   1.419
 5060SOL    HW215924   2.545   2.620   1.443
 5061SOL     OW15925   3.347   3.643   0.982
 5061SOL    HW115926   3.371   3.695   0.906
 5061SOL    HW215927   3.431   3.613   1.017
 5062SOL     OW15928   2.574   2.425   1.702
 5062SOL    HW115929   2.620   2.484   1.762
 5062SOL    HW215930   2.596   2.337   1.734
 5063SOL     OW15931   3.335   3.060   1.631
 5063SOL    HW115932   3.324   3.074   1.725
 5063SOL    HW215933   3.428   3.075   1.614
 5064SOL     OW15934   2.238   3.602   1.565
 5064SOL    HW115935   2.153   3.644   1.549
 5064SOL    HW215936   2.216   3.518   1.606
 5065SOL     OW15937   3.527   2.742   1.259
 5065SOL    HW115938   3.525   2.657   1.215
 5065SOL    HW215939   3.520   2.806   1.187
 5066SOL     OW15940   3.080   2.182   0.455
 5066SOL    HW115941   3.143   2.111   0.448
 5066SOL    HW215942   3.107   2.231   0.532
 5067SOL     OW15943   2.449   2.597   0.669
 5067SOL    HW115944   2.488   2.683   0.655
 5067SOL    HW215945   2.380   2.590   0.603
 5068SOL     OW15946   3.621   2.228   1.650
 5068SOL    HW115947   3.604   2.241   1.556
 5068SOL    HW215948   3.551   2.169   1.679
 5069SOL     OW15949   3.618   2.791   1.513
 5069SOL    HW115950   3.609   2.884   1.531
 5069SOL    HW215951   3.594   2.781   1.421
 5070SOL     OW15952   2.770   3.260   0.065
 5070SOL    HW115953   2.701   3.246   0.129
 5070SOL    HW215954   2.724   3.266  13.881
 5071SOL     OW15955   2.522   3.651   0.940
 5071SOL    HW115956   2.501   3.742   0.919
 5071SOL    HW215957   2.618   3.647   0.935
 5072SOL     OW15958   2.730   2.830   0.854
 5072SOL    HW115959   2.780   2.758   0.893
 5072SOL    HW215960   2.695   2.878   0.929
 5073SOL     OW15961   2.960   2.873   0.109
 5073SOL    HW115962   2.950   2.919   0.026
 5073SOL    HW215963   3.034   2.813   0.095
 5074SOL     OW15964   3.714   3.415   0.840
 5074SOL    HW115965   3.634   3.400   0.790
 5074SOL    HW215966   3.711   3.350   0.910
 5075SOL     OW15967   2.088   3.164   1.856
 5075SOL    HW115968   2.020   3.104   1.826
 5075SOL    HW215969   2.070   3.176   1.949
 5076SOL     OW15970   1.946   3.091   0.666
 5076SOL    HW115971   1.955   3.044   0.749
 5076SOL    HW215972   2.018   3.058   0.612
 5077SOL     OW15973   2.545   3.266   1.629
 5077SOL    HW115974   2.465   3.224   1.661
 5077SOL    HW215975   2.542   3.354   1.666
 5078SOL     OW15976   3.675   2.041   1.238
 5078SOL    HW115977   3.667   1.945   1.242
 5078SOL    HW215978   3.689   2.060   1.146
 5079SOL     OW15979   3.559   3.352   1.095
 5079SOL    HW115980   3.480   3.327   1.047
 5079SOL    HW215981   3.571   3.281   1.159
 5080SOL     OW15982   2.203   2.427   1.298
 5080SOL    HW115983   2.256   2.362   1.345
 5080SOL    HW215984   2.227   2.415   1.206
 5081SOL     OW15985   2.691   3.441   0.677
 5081SOL    HW115986   2.675   3.495   0.600
 5081SOL    HW215987   2.615   3.382   0.681
 5082SOL     OW15988   3.293   2.090   1.116
 5082SOL    HW115989   3.314   2.006   1.159
 5082SOL    HW215990   3.243   2.138   1.182
 5083SOL     OW15991   2.872   1.880   1.139
 5083SOL    HW115992   2.817   1.813   1.101
 5083SOL    HW215993   2.960   1.841   1.141
 5084SOL     OW15994   2.636   3.185   0.320
 5084SOL    HW115995   2.607   3.095   0.337
 5084SOL    HW215996   2.719   3.193   0.367
 5085SOL     OW15997   2.482   3.415   1.285
 5085SOL    HW115998   2.483   3.497   1.335
 5085SOL    HW215999   2.570   3.409   1.248
 5086SOL     OW16000   3.211   1.926   0.164
 5086SOL    HW116001   3.245   1.864   0.100
 5086SOL    HW216002   3.128   1.888   0.193
 5087SOL     OW16003   3.156   2.324   0.679
 5087SOL    HW116004   3.104   2.404   0.687
 5087SOL    HW216005   3.153   2.285   0.766
 5088SOL     OW16006   3.444   2.061   0.878
 5088SOL    HW116007   3.388   2.084   0.951
 5088SOL    HW216008   3.445   2.139   0.823
 5089SOL     OW16009   1.901   2.929   0.310
 5089SOL    HW116010   1.997   2.926   0.308
 5089SOL    HW216011   1.875   2.839   0.329
 5090SOL     OW16012   2.757   3.519   0.345
 5090SOL    HW116013   2.684   3.490   0.291
 5090SOL    HW216014   2.722   3.595   0.393
 5091SOL     OW16015   2.096   2.494   1.991
 5091SOL    HW116016   2.011   2.481   2.034
 5091SOL    HW216017   2.078   2.480   1.898
 5092SOL     OW16018   1.872   2.266   2.500
 5092SOL    HW116019   1.781   2.265   2.531
 5092SOL    HW216020   1.882   2.184   2.451
 5093SOL     OW16021   2.429   3.153   3.039
 5093SOL    HW116022   2.342   3.159   3.000
 5093SOL    HW216023   2.445   3.241   3.073
 5094SOL     OW16024   3.425   3.374   2.571
 5094SOL    HW116025   3.383   3.352   2.653
 5094SOL    HW216026   3.353   3.377   2.507
 5095SOL     OW16027   2.992   2.561   2.561
 5095SOL    HW116028   3.041   2.641   2.547
 5095SOL    HW216029   2.946   2.575   2.643
 5096SOL     OW16030   3.629   2.468   2.091
 5096SOL    HW116031   3.609   2.460   1.998
 5096SOL    HW216032   3.594   2.388   2.130
 5097SOL     OW16033   2.613   3.002   2.905
 5097SOL    HW116034   2.545   3.038   2.962
 5097SOL    HW216035   2.651   3.078   2.861
 5098SOL     OW16036   2.730   2.632   3.684
 5098SOL    HW116037   2.720   2.703   3.748
 5098SOL    HW216038   2.754   2.676   3.603
 5099SOL     OW16039   2.549   2.863   2.508
 5099SOL    HW116040   2.614   2.854   2.577
 5099SOL    HW216041   2.479   2.916   2.547
 5100SOL     OW16042   2.574   3.013   3.676
 5100SOL    HW116043   2.622   3.091   3.705
 5100SOL    HW216044   2.493   3.047   3.639
 5101SOL     OW16045   2.193   3.284   2.929
 5101SOL    HW116046   2.119   3.247   2.880
 5101SOL    HW216047   2.241   3.336   2.864
 5102SOL     OW16048   3.321   3.363   3.218
 5102SOL    HW116049   3.375   3.441   3.229
 5102SOL    HW216050   3.256   3.369   3.288
 5103SOL     OW16051   3.472   2.308   2.605
 5103SOL    HW116052   3.399   2.330   2.547
 5103SOL    HW216053   3.485   2.387   2.659
 5104SOL     OW16054   2.083   3.578   2.341
 5104SOL    HW116055   2.114   3.638   2.409
 5104SOL    HW216056   2.155   3.575   2.277
 5105SOL     OW16057   2.999   3.204   3.556
 5105SOL    HW116058   3.040   3.197   3.642
 5105SOL    HW216059   2.947   3.124   3.548
 5106SOL     OW16060   2.091   3.304   2.397
 5106SOL    HW116061   2.074   3.398   2.401
 5106SOL    HW216062   2.032   3.266   2.463
 5107SOL     OW16063   2.122   2.955   2.753
 5107SOL    HW116064   2.118   2.868   2.792
 5107SOL    HW216065   2.064   3.009   2.807
 5108SOL     OW16066   2.471   3.648   3.290
 5108SOL    HW116067   2.389   3.633   3.338
 5108SOL    HW216068   2.497   3.737   3.315
 5109SOL     OW16069   2.445   2.847   1.997
 5109SOL    HW116070   2.493   2.894   1.928
 5109SOL    HW216071   2.484   2.879   2.079
 5110SOL     OW16072   3.457   1.987   3.328
 5110SOL    HW116073   3.469   2.069   3.280
 5110SOL    HW216074   3.442   2.015   3.419
 5111SOL     OW16075   1.984   2.513   2.424
 5111SOL    HW116076   1.950   2.426   2.445
 5111SOL    HW216077   1.972   2.563   2.504
 5112SOL     OW16078   3.700   3.613   2.203
 5112SOL    HW116079   3.770   3.588   2.263
 5112SOL    HW216080   3.719   3.704   2.180
 5113SOL     OW16081   1.892   3.453   1.984
 5113SOL    HW116082   1.876   3.361   2.005
 5113SOL    HW216083   1.871   3.500   2.064
 5114SOL     OW16084   3.550   2.782   2.508
 5114SOL    HW116085   3.633   2.738   2.489
 5114SOL    HW216086   3.531   2.830   2.428
 5115SOL     OW16087   3.503   2.967   2.293
 5115SOL    HW116088   3.588   2.972   2.250
 5115SOL    HW216089   3.510   3.029   2.365
 5116SOL     OW16090   1.978   2.628   3.423
 5116SOL    HW116091   2.068   2.656   3.439
 5116SOL    HW216092   1.925   2.707   3.435
 5117SOL     OW16093   2.477   3.251   2.597
 5117SOL    HW116094   2.431   3.167   2.606
 5117SOL    HW216095   2.460   3.277   2.506
 5118SOL     OW16096   3.149   3.099   3.285
 5118SOL    HW116097   3.182   3.032   3.224
 5118SOL    HW216098   3.208   3.094   3.360
 5119SOL     OW16099   2.687   1.862   2.373
 5119SOL    HW116100   2.725   1.947   2.350
 5119SOL    HW216101   2.593   1.879   2.378
 5120SOL     OW16102   2.051   2.829   3.136
 5120SOL    HW116103   2.136   2.789   3.119
 5120SOL    HW216104   1.989   2.775   3.088
 5121SOL     OW16105   3.390   2.858   2.062
 5121SOL    HW116106   3.321   2.801   2.095
 5121SOL    HW216107   3.432   2.893   2.141
 5122SOL     OW16108   3.079   3.666   3.489
 5122SOL    HW116109   3.056   3.726   3.418
 5122SOL    HW216110   3.080   3.580   3.447
 5123SOL     OW16111   3.327   3.282   2.811
 5123SOL    HW116112   3.260   3.297   2.878
 5123SOL    HW216113   3.316   3.191   2.786
 5124SOL     OW16114   3.510   3.605   2.442
 5124SOL    HW116115   3.501   3.571   2.353
 5124SOL    HW216116   3.493   3.530   2.499
 5125SOL     OW16117   2.465   2.597   2.134
 5125SOL    HW116118   2.467   2.676   2.080
 5125SOL    HW216119   2.397   2.615   2.200
 5126SOL     OW16120   3.139   2.219   2.795
 5126SOL    HW116121   3.051   2.184   2.804
 5126SOL    HW216122   3.192   2.166   2.855
 5127SOL     OW16123   3.436   3.538   2.170
 5127SOL    HW116124   3.529   3.562   2.166
 5127SOL    HW216125   3.412   3.518   2.080
 5128SOL     OW16126   2.656   2.479   3.312
 5128SOL    HW116127   2.632   2.456   3.402
 5128SOL    HW216128   2.610   2.416   3.258
 5129SOL     OW16129   3.256   2.336   3.540
 5129SOL    HW116130   3.259   2.380   3.625
 5129SOL    HW216131   3.314   2.261   3.550
 5130SOL     OW16132   2.814   2.748   3.446
 5130SOL    HW116133   2.870   2.680   3.409
 5130SOL    HW216134   2.767   2.784   3.370
 5131SOL     OW16135   2.860   2.277   3.098
 5131SOL    HW116136   2.776   2.296   3.141
 5131SOL    HW216137   2.836   2.229   3.019
 5132SOL     OW16138   2.914   2.561   2.287
 5132SOL    HW116139   2.931   2.554   2.381
 5132SOL    HW216140   2.831   2.514   2.275
 5133SOL     OW16141   1.950   2.682   2.640
 5133SOL    HW116142   2.032   2.681   2.689
 5133SOL    HW216143   1.904   2.760   2.671
 5134SOL     OW16144   1.983   3.706   3.438
 5134SOL    HW116145   1.986   3.686   3.532
 5134SOL    HW216146   1.890   3.706   3.416
 5135SOL     OW16147   2.759   2.214   2.063
 5135SOL    HW116148   2.803   2.269   1.997
 5135SOL    HW216149   2.736   2.134   2.016
 5136SOL     OW16150   3.572   2.436   3.691
 5136SOL    HW116151   3.533   2.509   3.642
 5136SOL    HW216152   3.596   2.372   3.623
 5137SOL     OW16153   3.239   3.003   2.402
 5137SOL    HW116154   3.318   2.991   2.351
 5137SOL    HW216155   3.187   3.066   2.351
 5138SOL     OW16156   2.438   2.058   2.768
 5138SOL    HW116157   2.349   2.070   2.800
 5138SOL    HW216158   2.460   2.141   2.726
 5139SOL     OW16159   2.866   3.307   2.333
 5139SOL    HW116160   2.829   3.381   2.284
 5139SOL    HW216161   2.846   3.326   2.424
 5140SOL     OW16162   2.213   3.673   2.701
 5140SOL    HW116163   2.263   3.593   2.720
 5140SOL    HW216164   2.272   3.744   2.724
 5141SOL     OW16165   3.667   2.923   2.729
 5141SOL    HW116166   3.614   2.897   2.654
 5141SOL    HW216167   3.605   2.926   2.802
 5142SOL     OW16168   3.089   3.399   3.374
 5142SOL    HW116169   3.076   3.327   3.435
 5142SOL    HW216170   3.022   3.386   3.307
 5143SOL     OW16171   2.179   2.821   2.113
 5143SOL    HW116172   2.261   2.840   2.067
 5143SOL    HW216173   2.150   2.737   2.077
 5144SOL     OW16174   3.341   2.608   2.588
 5144SOL    HW116175   3.335   2.565   2.674
 5144SOL    HW216176   3.419   2.662   2.594
 5145SOL     OW16177   2.329   3.127   3.599
 5145SOL    HW116178   2.303   3.132   3.507
 5145SOL    HW216179   2.247   3.125   3.648
 5146SOL     OW16180   2.976   3.643   2.084
 5146SOL    HW116181   2.912   3.597   2.138
 5146SOL    HW216182   3.006   3.577   2.021
 5147SOL     OW16183   3.487   3.246   1.951
 5147SOL    HW116184   3.444   3.330   1.933
 5147SOL    HW216185   3.420   3.181   1.931
 5148SOL     OW16186   2.329   3.597   2.187
 5148SOL    HW116187   2.367   3.662   2.246
 5148SOL    HW216188   2.402   3.572   2.130
 5149SOL     OW16189   3.263   1.969   2.298
 5149SOL    HW116190   3.255   1.944   2.206
 5149SOL    HW216191   3.357   1.975   2.313
 5150SOL     OW16192   2.122   3.654   3.086
 5150SOL    HW116193   2.169   3.584   3.132
 5150SOL    HW216194   2.107   3.618   2.998
 5151SOL     OW16195   2.800   3.563   2.762
 5151SOL    HW116196   2.877   3.511   2.783
 5151SOL    HW216197   2.756   3.513   2.693
 5152SOL     OW16198   2.254   2.573   2.339
 5152SOL    HW116199   2.284   2.483   2.352
 5152SOL    HW216200   2.160   2.570   2.356
 5153SOL     OW16201   3.395   2.087   3.587
 5153SOL    HW116202   3.405   2.107   3.680
 5153SOL    HW216203   3.327   2.020   3.584
 5154SOL     OW16204   2.533   1.990   1.966
 5154SOL    HW116205   2.578   1.911   1.996
 5154SOL    HW216206   2.466   1.957   1.906
 5155SOL     OW16207   2.627   2.145   3.617
 5155SOL    HW116208   2.705   2.088   3.612
 5155SOL    HW216209   2.579   2.113   3.692
 5156SOL     OW16210   2.738   3.382   3.057
 5156SOL    HW116211   2.722   3.347   2.969
 5156SOL    HW216212   2.808   3.328   3.092
 5157SOL     OW16213   3.202   2.451   3.295
 5157SOL    HW116214   3.233   2.420   3.380
 5157SOL    HW216215   3.239   2.539   3.287
 5158SOL     OW16216   2.679   3.254   2.804
 5158SOL    HW116217   2.763   3.243   2.760
 5158SOL    HW216218   2.615   3.258   2.733
 5159SOL     OW16219   2.789   2.369   2.764
 5159SOL    HW116220   2.766   2.362   2.672
 5159SOL    HW216221   2.823   2.283   2.788
 5160SOL     OW16222   2.422   1.920   2.371
 5160SOL    HW116223   2.366   1.907   2.447
 5160SOL    HW216224   2.412   2.013   2.350
 5161SOL     OW16225   3.290   3.061   1.902
 5161SOL    HW116226   3.320   2.986   1.953
 5161SOL    HW216227   3.204   3.082   1.940
 5162SOL     OW16228   2.802   2.111   2.320
 5162SOL    HW116229   2.779   2.149   2.235
 5162SOL    HW216230   2.897   2.124   2.327
 5163SOL     OW16231   2.944   2.545   3.321
 5163SOL    HW116232   2.878   2.476   3.328
 5163SOL    HW216233   3.027   2.498   3.315
 5164SOL     OW16234   3.083   3.432   2.656
 5164SOL    HW116235   3.099   3.500   2.590
 5164SOL    HW216236   3.153   3.445   2.720
 5165SOL     OW16237   2.333   3.013   2.593
 5165SOL    HW116238   2.264   2.995   2.657
 5165SOL    HW216239   2.291   2.998   2.508
 5166SOL     OW16240   3.128   3.657   2.470
 5166SOL    HW116241   3.174   3.721   2.417
 5166SOL    HW216242   3.056   3.706   2.509
 5167SOL     OW16243   2.887   2.402   1.885
 5167SOL    HW116244   2.843   2.485   1.867
 5167SOL    HW216245   2.950   2.422   1.953
 5168SOL     OW16246   1.938   2.428   3.243
 5168SOL    HW116247   2.032   2.417   3.230
 5168SOL    HW216248   1.931   2.500   3.306
 5169SOL     OW16249   2.726   2.320   2.501
 5169SOL    HW116250   2.684   2.376   2.436
 5169SOL    HW216251   2.752   2.241   2.453
 5170SOL     OW16252   2.875   1.916   2.613
 5170SOL    HW116253   2.820   1.906   2.535
 5170SOL    HW216254   2.854   1.841   2.667
 5171SOL     OW16255   3.301   3.024   2.719
 5171SOL    HW116256   3.231   2.959   2.718
 5171SOL    HW216257   3.326   3.033   2.627
 5172SOL     OW16258   3.327   2.470   2.836
 5172SOL    HW116259   3.275   2.390   2.838
 5172SOL    HW216260   3.386   2.463   2.911
 5173SOL     OW16261   3.723   2.679   2.237
 5173SOL    HW116262   3.767   2.623   2.301
 5173SOL    HW216263   3.686   2.617   2.173
 5174SOL     OW16264   2.352   3.280   2.016
 5174SOL    HW116265   2.277   3.253   2.068
 5174SOL    HW216266   2.340   3.238   1.931
 5175SOL     OW16267   3.529   3.127   2.506
 5175SOL    HW116268   3.624   3.129   2.516
 5175SOL    HW216269   3.500   3.216   2.527
 5176SOL     OW16270   3.256   2.434   1.934
 5176SOL    HW116271   3.194   2.414   2.004
 5176SOL    HW216272   3.340   2.401   1.966
 5177SOL     OW16273   3.613   3.097   3.428
 5177SOL    HW116274   3.700   3.061   3.411
 5177SOL    HW216275   3.629   3.186   3.458
 5178SOL     OW16276   2.919   3.214   3.194
 5178SOL    HW116277   2.844   3.184   3.245
 5178SOL    HW216278   2.995   3.173   3.236
 5179SOL     OW16279   3.469   3.491   3.518
 5179SOL    HW116280   3.459   3.524   3.429
 5179SOL    HW216281   3.549   3.440   3.517
 5180SOL     OW16282   2.993   3.067   2.965
 5180SOL    HW116283   2.934   3.106   3.031
 5180SOL    HW216284   2.961   3.101   2.882
 5181SOL     OW16285   3.491   2.958   2.937
 5181SOL    HW116286   3.483   3.019   3.010
 5181SOL    HW216287   3.413   2.974   2.883
 5182SOL     OW16288   2.787   1.956   3.256
 5182SOL    HW116289   2.809   1.937   3.165
 5182SOL    HW216290   2.866   1.995   3.293
 5183SOL     OW16291   2.846   2.977   3.585
 5183SOL    HW116292   2.754   2.993   3.607
 5183SOL    HW216293   2.844   2.899   3.530
 5184SOL     OW16294   2.571   2.924   2.232
 5184SOL    HW116295   2.557   2.906   2.325
 5184SOL    HW216296   2.646   2.870   2.209
 5185SOL     OW16297   2.283   2.683   3.116
 5185SOL    HW116298   2.352   2.694   3.180
 5185SOL    HW216299   2.246   2.596   3.135
 5186SOL     OW16300   3.129   2.239   3.140
 5186SOL    HW116301   3.161   2.316   3.186
 5186SOL    HW216302   3.039   2.260   3.116
 5187SOL     OW16303   1.934   3.435   3.215
 5187SOL    HW116304   1.906   3.510   3.163
 5187SOL    HW216305   2.030   3.437   3.211
 5188SOL     OW16306   2.207   2.974   2.352
 5188SOL    HW116307   2.212   3.047   2.290
 5188SOL    HW216308   2.204   2.896   2.297
 5189SOL     OW16309   2.427   2.390   2.711
 5189SOL    HW116310   2.438   2.450   2.637
 5189SOL    HW216311   2.493   2.420   2.775
 5190SOL     OW16312   3.110   3.211   2.251
 5190SOL    HW116313   3.166   3.282   2.283
 5190SOL    HW216314   3.023   3.232   2.285
 5191SOL     OW16315   3.146   3.322   3.010
 5191SOL    HW116316   3.202   3.325   3.087
 5191SOL    HW216317   3.091   3.245   3.024
 5192SOL     OW16318   3.441   2.482   2.344
 5192SOL    HW116319   3.393   2.535   2.408
 5192SOL    HW216320   3.483   2.546   2.287
 5193SOL     OW16321   2.208   3.391   3.174
 5193SOL    HW116322   2.196   3.347   3.090
 5193SOL    HW216323   2.302   3.402   3.183
 5194SOL     OW16324   2.282   2.607   3.467
 5194SOL    HW116325   2.341   2.651   3.405
 5194SOL    HW216326   2.334   2.534   3.501
 5195SOL     OW16327   3.466   2.641   3.545
 5195SOL    HW116328   3.380   2.683   3.539
 5195SOL    HW216329   3.518   2.684   3.477
 5196SOL     OW16330   2.856   1.989   3.610
 5196SOL    HW116331   2.916   2.061   3.590
 5196SOL    HW216332   2.905   1.910   3.588
 5197SOL     OW16333   2.361   1.889   3.636
 5197SOL    HW116334   2.315   1.843   3.566
 5197SOL    HW216335   2.294   1.945   3.676
 5198SOL     OW16336   2.447   2.734   2.895
 5198SOL    HW116337   2.480   2.824   2.893
 5198SOL    HW216338   2.390   2.730   2.972
 5199SOL     OW16339   3.217   2.721   2.888
 5199SOL    HW116340   3.133   2.709   2.843
 5199SOL    HW216341   3.260   2.636   2.882
 5200SOL     OW16342   3.065   2.390   2.127
 5200SOL    HW116343   3.072   2.311   2.180
 5200SOL    HW216344   3.022   2.454   2.184
 5201SOL     OW16345   1.907   3.173   3.138
 5201SOL    HW116346   1.941   3.119   3.209
 5201SOL    HW216347   1.914   3.263   3.170
 5202SOL     OW16348   2.584   2.487   2.918
 5202SOL    HW116349   2.663   2.475   2.865
 5202SOL    HW216350   2.557   2.578   2.900
 5203SOL     OW16351   3.593   2.822   3.722
 5203SOL    HW116352   3.552   2.757   3.664
 5203SOL    HW216353   3.529   2.835   3.793
 5204SOL     OW16354   3.481   2.238   2.227
 5204SOL    HW116355   3.508   2.173   2.291
 5204SOL    HW216356   3.458   2.315   2.278
 5205SOL     OW16357   2.889   2.620   2.821
 5205SOL    HW116358   2.885   2.637   2.915
 5205SOL    HW216359   2.864   2.528   2.813
 5206SOL     OW16360   2.847   3.430   3.582
 5206SOL    HW116361   2.829   3.471   3.498
 5206SOL    HW216362   2.889   3.347   3.559
 5207SOL     OW16363   3.705   3.361   3.460
 5207SOL    HW116364   3.729   3.391   3.372
 5207SOL    HW216365   3.785   3.372   3.511
 5208SOL     OW16366   2.214   2.779   3.671
 5208SOL    HW116367   2.297   2.799   3.716
 5208SOL    HW216368   2.239   2.717   3.603
 5209SOL     OW16369   3.391   2.135   1.989
 5209SOL    HW116370   3.326   2.069   2.015
 5209SOL    HW216371   3.424   2.170   2.072
 5210SOL     OW16372   3.151   2.687   1.892
 5210SOL    HW116373   3.195   2.602   1.896
 5210SOL    HW216374   3.184   2.726   1.811
 5211SOL     OW16375   2.928   3.199   2.717
 5211SOL    HW116376   2.933   3.126   2.654
 5211SOL    HW216377   2.989   3.264   2.682
 5212SOL     OW16378   2.171   2.681   2.808
 5212SOL    HW116379   2.264   2.706   2.800
 5212SOL    HW216380   2.174   2.589   2.835
 5213SOL     OW16381   2.211   2.416   2.863
 5213SOL    HW116382   2.176   2.329   2.844
 5213SOL    HW216383   2.290   2.422   2.809
 5214SOL     OW16384   2.996   2.238   3.543
 5214SOL    HW116385   2.948   2.291   3.607
 5214SOL    HW216386   3.083   2.277   3.541
 5215SOL     OW16387   3.025   2.064   3.332
 5215SOL    HW116388   3.013   2.126   3.404
 5215SOL    HW216389   3.067   2.115   3.263
 5216SOL     OW16390   1.867   3.181   2.057
 5216SOL    HW116391   1.780   3.196   2.020
 5216SOL    HW216392   1.864   3.091   2.091
 5217SOL     OW16393   1.958   3.641   2.800
 5217SOL    HW116394   1.928   3.563   2.755
 5217SOL    HW216395   2.044   3.660   2.760
 5218SOL     OW16396   2.356   3.438   2.767
 5218SOL    HW116397   2.424   3.501   2.792
 5218SOL    HW216398   2.401   3.375   2.711
 5219SOL     OW16399   2.841   2.651   3.087
 5219SOL    HW116400   2.902   2.631   3.159
 5219SOL    HW216401   2.757   2.617   3.117
 5220SOL     OW16402   1.895   2.399   2.976
 5220SOL    HW116403   1.972   2.427   2.927
 5220SOL    HW216404   1.918   2.414   3.068
 5221SOL     OW16405   2.017   2.432   3.603
 5221SOL    HW116406   2.082   2.392   3.545
 5221SOL    HW216407   1.977   2.501   3.551
 5222SOL     OW16408   3.241   2.799   3.520
 5222SOL    HW116409   3.262   2.892   3.517
 5222SOL    HW216410   3.237   2.773   3.428
 5223SOL     OW16411   2.678   2.432   2.229
 5223SOL    HW116412   2.685   2.359   2.167
 5223SOL    HW216413   2.607   2.486   2.194
 5224SOL     OW16414   3.502   2.464   3.046
 5224SOL    HW116415   3.491   2.403   3.119
 5224SOL    HW216416   3.588   2.442   3.010
 5225SOL     OW16417   2.105   3.411   3.587
 5225SOL    HW116418   2.082   3.478   3.652
 5225SOL    HW216419   2.108   3.330   3.637
 5226SOL     OW16420   2.539   2.322   3.128
 5226SOL    HW116421   2.521   2.235   3.093
 5226SOL    HW216422   2.548   2.378   3.050
 5227SOL     OW16423   2.789   3.534   3.331
 5227SOL    HW116424   2.763   3.496   3.247
 5227SOL    HW216425   2.781   3.629   3.319
 5228SOL     OW16426   2.338   2.367   2.089
 5228SOL    HW116427   2.396   2.443   2.090
 5228SOL    HW216428   2.257   2.399   2.049
 5229SOL     OW16429   2.006   3.005   3.336
 5229SOL    HW116430   2.008   2.954   3.417
 5229SOL    HW216431   2.024   2.940   3.267
 5230SOL     OW16432   3.184   2.907   3.084
 5230SOL    HW116433   3.208   2.844   3.016
 5230SOL    HW216434   3.116   2.961   3.044
 5231SOL     OW16435   3.174   2.718   2.167
 5231SOL    HW116436   3.099   2.687   2.218
 5231SOL    HW216437   3.149   2.704   2.076
 5232SOL     OW16438   3.638   3.603   3.016
 5232SOL    HW116439   3.696   3.629   2.945
 5232SOL    HW216440   3.611   3.514   2.993
 5233SOL     OW16441   3.106   3.595   2.972
 5233SOL    HW116442   3.188   3.616   2.929
 5233SOL    HW216443   3.112   3.502   2.991
 5234SOL     OW16444   1.947   3.128   2.874
 5234SOL    HW116445   1.931   3.142   2.967
 5234SOL    HW216446   1.873   3.074   2.845
 5235SOL     OW16447   2.540   3.526   3.594
 5235SOL    HW116448   2.484   3.603   3.598
 5235SOL    HW216449   2.601   3.545   3.522
 5236SOL     OW16450   3.573   2.011   2.374
 5236SOL    HW116451   3.641   1.999   2.308
 5236SOL    HW216452   3.562   1.925   2.414
 5237SOL     OW16453   3.252   3.430   2.349
 5237SOL    HW116454   3.311   3.464   2.282
 5237SOL    HW216455   3.204   3.508   2.379
 5238SOL     OW16456   1.996   3.652   3.701
 5238SOL    HW116457   1.944   3.588   3.750
 5238SOL    HW216458   2.045   3.700   3.768
 5239SOL     OW16459   3.139   2.788   2.533
 5239SOL    HW116460   3.213   2.728   2.542
 5239SOL    HW216461   3.173   2.860   2.480
 5240SOL     OW16462   2.673   3.136   3.290
 5240SOL    HW116463   2.645   3.176   3.373
 5240SOL    HW216464   2.604   3.159   3.228
 5241SOL     OW16465   2.537   3.479   2.020
 5241SOL    HW116466   2.546   3.497   1.926
 5241SOL    HW216467   2.478   3.404   2.024
 5242SOL     OW16468   3.482   3.588   3.252
 5242SOL    HW116469   3.537   3.592   3.174
 5242SOL    HW216470   3.469   3.680   3.277
 5243SOL     OW16471   3.700   2.043   2.829
 5243SOL    HW116472   3.731   1.956   2.804
 5243SOL    HW216473   3.614   2.051   2.788
 5244SOL     OW16474   3.069   3.466   1.898
 5244SOL    HW116475   3.059   3.374   1.922
 5244SOL    HW216476   3.008   3.479   1.825
 5245SOL     OW16477   2.686   2.868   3.234
 5245SOL    HW116478   2.731   2.865   3.150
 5245SOL    HW216479   2.684   2.962   3.256
 5246SOL     OW16480   2.779   2.773   2.152
 5246SOL    HW116481   2.839   2.805   2.086
 5246SOL    HW216482   2.827   2.704   2.198
 5247SOL     OW16483   3.350   3.493   1.904
 5247SOL    HW116484   3.257   3.481   1.888
 5247SOL    HW216485   3.389   3.498   1.817
 5248SOL     OW16486   2.231   3.165   3.353
 5248SOL    HW116487   2.218   3.243   3.298
 5248SOL    HW216488   2.153   3.112   3.338
 5249SOL     OW16489   3.463   3.142   3.140
 5249SOL    HW116490   3.532   3.134   3.206
 5249SOL    HW216491   3.406   3.211   3.172
 5250SOL     OW16492   2.917   2.970   2.570
 5250SOL    HW116493   2.846   2.919   2.608
 5250SOL    HW216494   2.981   2.905   2.541
 5251SOL     OW16495   2.882   2.102   2.828
 5251SOL    HW116496   2.878   2.055   2.745
 5251SOL    HW216497   2.879   2.034   2.895
 5252SOL     OW16498   2.466   3.352   2.342
 5252SOL    HW116499   2.512   3.301   2.275
 5252SOL    HW216500   2.397   3.399   2.294
 5253SOL     OW16501   3.586   2.252   3.240
 5253SOL    HW116502   3.658   2.315   3.237
 5253SOL    HW216503   3.614   2.180   3.184
 5254SOL     OW16504   2.122   3.206   2.151
 5254SOL    HW116505   2.029   3.203   2.129
 5254SOL    HW216506   2.124   3.244   2.239
 5255SOL     OW16507   1.974   2.886   3.582
 5255SOL    HW116508   1.897   2.863   3.634
 5255SOL    HW216509   2.048   2.848   3.629
 5256SOL     OW16510   2.546   2.046   3.356
 5256SOL    HW116511   2.634   2.023   3.323
 5256SOL    HW216512   2.563   2.088   3.440
 5257SOL     OW16513   1.881   2.255   1.915
 5257SOL    HW116514   1.819   2.215   1.854
 5257SOL    HW216515   1.930   2.318   1.862
 5258SOL     OW16516   3.289   2.721   3.261
 5258SOL    HW116517   3.239   2.782   3.207
 5258SOL    HW216518   3.377   2.722   3.225
 5259SOL     OW16519   3.040   3.200   1.979
 5259SOL    HW116520   2.949   3.170   1.981
 5259SOL    HW216521   3.067   3.199   2.071
 5260SOL     OW16522   2.484   2.693   3.296
 5260SOL    HW116523   2.539   2.769   3.281
 5260SOL    HW216524   2.545   2.620   3.305
 5261SOL     OW16525   3.347   3.643   2.844
 5261SOL    HW116526   3.371   3.697   2.769
 5261SOL    HW216527   3.431   3.613   2.880
 5262SOL     OW16528   2.575   2.425   3.564
 5262SOL    HW116529   2.619   2.484   3.624
 5262SOL    HW216530   2.596   2.337   3.596
 5263SOL     OW16531   3.335   3.060   3.493
 5263SOL    HW116532   3.324   3.074   3.587
 5263SOL    HW216533   3.428   3.075   3.476
 5264SOL     OW16534   2.238   3.602   3.427
 5264SOL    HW116535   2.153   3.644   3.411
 5264SOL    HW216536   2.216   3.518   3.468
 5265SOL     OW16537   3.527   2.742   3.121
 5265SOL    HW116538   3.525   2.657   3.078
 5265SOL    HW216539   3.521   2.805   3.049
 5266SOL     OW16540   3.078   2.181   2.320
 5266SOL    HW116541   3.141   2.109   2.312
 5266SOL    HW216542   3.108   2.230   2.397
 5267SOL     OW16543   2.450   2.602   2.534
 5267SOL    HW116544   2.493   2.687   2.521
 5267SOL    HW216545   2.382   2.599   2.467
 5268SOL     OW16546   3.621   2.228   3.512
 5268SOL    HW116547   3.604   2.241   3.418
 5268SOL    HW216548   3.551   2.169   3.541
 5269SOL     OW16549   3.618   2.791   3.375
 5269SOL    HW116550   3.609   2.884   3.393
 5269SOL    HW216551   3.594   2.781   3.283
 5270SOL     OW16552   2.725   3.229   1.900
 5270SOL    HW116553   2.685   3.257   1.982
 5270SOL    HW216554   2.741   3.310   1.852
 5271SOL     OW16555   2.522   3.651   2.802
 5271SOL    HW116556   2.501   3.742   2.781
 5271SOL    HW216557   2.618   3.647   2.797
 5272SOL     OW16558   2.730   2.830   2.717
 5272SOL    HW116559   2.780   2.759   2.755
 5272SOL    HW216560   2.695   2.878   2.792
 5273SOL     OW16561   2.940   2.850   1.950
 5273SOL    HW116562   2.919   2.902   1.872
 5273SOL    HW216563   3.015   2.796   1.924
 5274SOL     OW16564   3.713   3.417   2.703
 5274SOL    HW116565   3.633   3.397   2.653
 5274SOL    HW216566   3.715   3.349   2.771
 5275SOL     OW16567   2.088   3.164   3.718
 5275SOL    HW116568   2.020   3.104   3.688
 5275SOL    HW216569   2.069   3.176   3.811
 5276SOL     OW16570   1.947   3.093   2.527
 5276SOL    HW116571   1.956   3.047   2.610
 5276SOL    HW216572   2.015   3.055   2.471
 5277SOL     OW16573   2.545   3.266   3.491
 5277SOL    HW116574   2.465   3.224   3.523
 5277SOL    HW216575   2.542   3.354   3.528
 5278SOL     OW16576   3.675   2.041   3.101
 5278SOL    HW116577   3.667   1.945   3.104
 5278SOL    HW216578   3.689   2.060   3.008
 5279SOL     OW16579   2.329   2.317   2.370
 5279SOL    HW116580   2.351   2.312   2.277
 5279SOL    HW216581   2.250   2.264   2.379
 5280SOL     OW16582   3.558   3.352   2.959
 5280SOL    HW116583   3.479   3.327   2.910
 5280SOL    HW216584   3.571   3.281   3.022
 5281SOL     OW16585   2.200   2.423   3.156
 5281SOL    HW116586   2.249   2.356   3.203
 5281SOL    HW216587   2.225   2.412   3.064
 5282SOL     OW16588   2.690   3.440   2.539
 5282SOL    HW116589   2.673   3.492   2.460
 5282SOL    HW216590   2.615   3.381   2.545
 5283SOL     OW16591   3.293   2.089   2.979
 5283SOL    HW116592   3.314   2.006   3.021
 5283SOL    HW216593   3.243   2.138   3.044
 5284SOL     OW16594   2.872   1.880   3.001
 5284SOL    HW116595   2.817   1.813   2.962
 5284SOL    HW216596   2.960   1.841   3.003
 5285SOL     OW16597   2.635   3.194   2.180
 5285SOL    HW116598   2.605   3.104   2.186
 5285SOL    HW216599   2.717   3.196   2.229
 5286SOL     OW16600   2.482   3.415   3.147
 5286SOL    HW116601   2.483   3.497   3.197
 5286SOL    HW216602   2.570   3.409   3.110
 5287SOL     OW16603   3.216   1.915   2.028
 5287SOL    HW116604   3.246   1.847   1.968
 5287SOL    HW216605   3.128   1.888   2.054
 5288SOL     OW16606   3.158   2.324   2.542
 5288SOL    HW116607   3.105   2.404   2.548
 5288SOL    HW216608   3.154   2.285   2.629
 5289SOL     OW16609   3.444   2.061   2.740
 5289SOL    HW116610   3.388   2.084   2.813
 5289SOL    HW216611   3.445   2.139   2.684
 5290SOL     OW16612   1.905   2.930   2.169
 5290SOL    HW116613   1.999   2.923   2.151
 5290SOL    HW216614   1.878   2.842   2.192
 5291SOL     OW16615   2.748   3.520   2.205
 5291SOL    HW116616   2.677   3.501   2.144
 5291SOL    HW216617   2.717   3.595   2.255
 5292SOL     OW16618   2.093   2.501   3.859
 5292SOL    HW116619   2.009   2.484   3.901
 5292SOL    HW216620   2.077   2.485   3.766
 5293SOL     OW16621   1.870   2.269   4.358
 5293SOL    HW116622   1.780   2.265   4.390
 5293SOL    HW216623   1.881   2.189   4.307
 5294SOL     OW16624   2.429   3.153   4.901
 5294SOL    HW116625   2.342   3.159   4.861
 5294SOL    HW216626   2.445   3.241   4.935
 5295SOL     OW16627   3.425   3.374   4.433
 5295SOL    HW116628   3.383   3.352   4.515
 5295SOL    HW216629   3.353   3.377   4.369
 5296SOL     OW16630   2.991   2.561   4.423
 5296SOL    HW116631   3.041   2.641   4.408
 5296SOL    HW216632   2.945   2.575   4.505
 5297SOL     OW16633   3.628   2.468   3.953
 5297SOL    HW116634   3.609   2.460   3.860
 5297SOL    HW216635   3.594   2.388   3.992
 5298SOL     OW16636   2.613   3.002   4.767
 5298SOL    HW116637   2.545   3.038   4.824
 5298SOL    HW216638   2.651   3.078   4.723
 5299SOL     OW16639   2.726   2.633   5.546
 5299SOL    HW116640   2.726   2.703   5.611
 5299SOL    HW216641   2.752   2.677   5.465
 5300SOL     OW16642   2.547   2.861   4.370
 5300SOL    HW116643   2.613   2.852   4.439
 5300SOL    HW216644   2.479   2.915   4.409
 5301SOL     OW16645   2.575   3.013   5.537
 5301SOL    HW116646   2.622   3.091   5.566
 5301SOL    HW216647   2.493   3.047   5.501
 5302SOL     OW16648   2.193   3.284   4.791
 5302SOL    HW116649   2.119   3.247   4.742
 5302SOL    HW216650   2.241   3.336   4.727
 5303SOL     OW16651   3.321   3.363   5.080
 5303SOL    HW116652   3.375   3.441   5.091
 5303SOL    HW216653   3.256   3.369   5.150
 5304SOL     OW16654   3.472   2.308   4.467
 5304SOL    HW116655   3.400   2.330   4.409
 5304SOL    HW216656   3.485   2.386   4.521
 5305SOL     OW16657   2.083   3.578   4.203
 5305SOL    HW116658   2.114   3.638   4.271
 5305SOL    HW216659   2.155   3.575   4.139
 5306SOL     OW16660   2.999   3.204   5.418
 5306SOL    HW116661   3.040   3.197   5.504
 5306SOL    HW216662   2.947   3.124   5.410
 5307SOL     OW16663   2.091   3.304   4.259
 5307SOL    HW116664   2.074   3.398   4.263
 5307SOL    HW216665   2.032   3.266   4.325
 5308SOL     OW16666   2.122   2.956   4.614
 5308SOL    HW116667   2.118   2.869   4.654
 5308SOL    HW216668   2.064   3.009   4.668
 5309SOL     OW16669   2.471   3.648   5.152
 5309SOL    HW116670   2.389   3.633   5.200
 5309SOL    HW216671   2.497   3.737   5.177
 5310SOL     OW16672   2.446   2.847   3.858
 5310SOL    HW116673   2.493   2.895   3.790
 5310SOL    HW216674   2.484   2.880   3.940
 5311SOL     OW16675   3.457   1.987   5.190
 5311SOL    HW116676   3.469   2.069   5.142
 5311SOL    HW216677   3.442   2.014   5.281
 5312SOL     OW16678   1.984   2.514   4.286
 5312SOL    HW116679   1.950   2.427   4.306
 5312SOL    HW216680   1.970   2.564   4.367
 5313SOL     OW16681   3.700   3.613   4.065
 5313SOL    HW116682   3.771   3.588   4.125
 5313SOL    HW216683   3.719   3.704   4.042
 5314SOL     OW16684   1.892   3.453   3.846
 5314SOL    HW116685   1.876   3.361   3.867
 5314SOL    HW216686   1.871   3.500   3.926
 5315SOL     OW16687   3.550   2.781   4.370
 5315SOL    HW116688   3.633   2.738   4.352
 5315SOL    HW216689   3.531   2.830   4.290
 5316SOL     OW16690   3.503   2.967   4.155
 5316SOL    HW116691   3.588   2.972   4.112
 5316SOL    HW216692   3.510   3.029   4.227
 5317SOL     OW16693   1.978   2.626   5.287
 5317SOL    HW116694   2.068   2.655   5.300
 5317SOL    HW216695   1.926   2.705   5.296
 5318SOL     OW16696   2.477   3.251   4.459
 5318SOL    HW116697   2.431   3.167   4.468
 5318SOL    HW216698   2.460   3.277   4.368
 5319SOL     OW16699   3.149   3.099   5.147
 5319SOL    HW116700   3.182   3.032   5.086
 5319SOL    HW216701   3.208   3.094   5.222
 5320SOL     OW16702   2.686   1.863   4.235
 5320SOL    HW116703   2.725   1.948   4.212
 5320SOL    HW216704   2.592   1.880   4.239
 5321SOL     OW16705   2.051   2.828   4.999
 5321SOL    HW116706   2.136   2.788   4.981
 5321SOL    HW216707   1.989   2.776   4.949
 5322SOL     OW16708   3.390   2.858   3.924
 5322SOL    HW116709   3.321   2.801   3.957
 5322SOL    HW216710   3.432   2.893   4.003
 5323SOL     OW16711   3.079   3.666   5.351
 5323SOL    HW116712   3.056   3.726   5.280
 5323SOL    HW216713   3.080   3.580   5.309
 5324SOL     OW16714   3.327   3.282   4.673
 5324SOL    HW116715   3.260   3.297   4.740
 5324SOL    HW216716   3.316   3.191   4.648
 5325SOL     OW16717   3.510   3.605   4.304
 5325SOL    HW116718   3.501   3.571   4.215
 5325SOL    HW216719   3.493   3.530   4.361
 5326SOL     OW16720   2.466   2.599   3.996
 5326SOL    HW116721   2.470   2.677   3.941
 5326SOL    HW216722   2.400   2.620   4.062
 5327SOL     OW16723   3.139   2.219   4.657
 5327SOL    HW116724   3.051   2.184   4.666
 5327SOL    HW216725   3.192   2.166   4.717
 5328SOL     OW16726   3.436   3.538   4.032
 5328SOL    HW116727   3.529   3.562   4.028
 5328SOL    HW216728   3.412   3.518   3.942
 5329SOL     OW16729   2.656   2.479   5.174
 5329SOL    HW116730   2.631   2.456   5.264
 5329SOL    HW216731   2.610   2.416   5.120
 5330SOL     OW16732   3.256   2.336   5.402
 5330SOL    HW116733   3.259   2.380   5.486
 5330SOL    HW216734   3.315   2.260   5.413
 5331SOL     OW16735   2.814   2.748   5.308
 5331SOL    HW116736   2.870   2.680   5.271
 5331SOL    HW216737   2.767   2.784   5.232
 5332SOL     OW16738   2.859   2.277   4.960
 5332SOL    HW116739   2.776   2.295   5.003
 5332SOL    HW216740   2.836   2.228   4.881
 5333SOL     OW16741   2.914   2.561   4.149
 5333SOL    HW116742   2.931   2.554   4.243
 5333SOL    HW216743   2.831   2.514   4.137
 5334SOL     OW16744   1.949   2.682   4.502
 5334SOL    HW116745   2.032   2.682   4.551
 5334SOL    HW216746   1.903   2.760   4.534
 5335SOL     OW16747   1.983   3.705   5.300
 5335SOL    HW116748   1.986   3.686   5.394
 5335SOL    HW216749   1.890   3.707   5.278
 5336SOL     OW16750   2.759   2.214   3.925
 5336SOL    HW116751   2.803   2.268   3.859
 5336SOL    HW216752   2.732   2.136   3.879
 5337SOL     OW16753   3.573   2.436   5.552
 5337SOL    HW116754   3.534   2.509   5.504
 5337SOL    HW216755   3.596   2.373   5.485
 5338SOL     OW16756   3.238   3.003   4.264
 5338SOL    HW116757   3.318   2.991   4.213
 5338SOL    HW216758   3.187   3.066   4.213
 5339SOL     OW16759   2.441   2.058   4.629
 5339SOL    HW116760   2.351   2.071   4.657
 5339SOL    HW216761   2.465   2.140   4.587
 5340SOL     OW16762   2.866   3.307   4.195
 5340SOL    HW116763   2.829   3.381   4.146
 5340SOL    HW216764   2.846   3.326   4.286
 5341SOL     OW16765   2.213   3.673   4.563
 5341SOL    HW116766   2.263   3.593   4.582
 5341SOL    HW216767   2.272   3.744   4.586
 5342SOL     OW16768   3.667   2.923   4.591
 5342SOL    HW116769   3.614   2.898   4.516
 5342SOL    HW216770   3.605   2.926   4.664
 5343SOL     OW16771   3.089   3.399   5.236
 5343SOL    HW116772   3.076   3.327   5.297
 5343SOL    HW216773   3.022   3.386   5.169
 5344SOL     OW16774   2.181   2.817   3.977
 5344SOL    HW116775   2.261   2.838   3.928
 5344SOL    HW216776   2.149   2.736   3.937
 5345SOL     OW16777   3.341   2.608   4.450
 5345SOL    HW116778   3.335   2.565   4.536
 5345SOL    HW216779   3.419   2.662   4.456
 5346SOL     OW16780   2.329   3.127   5.461
 5346SOL    HW116781   2.303   3.132   5.369
 5346SOL    HW216782   2.247   3.126   5.510
 5347SOL     OW16783   2.976   3.643   3.946
 5347SOL    HW116784   2.912   3.597   4.000
 5347SOL    HW216785   3.006   3.578   3.883
 5348SOL     OW16786   3.487   3.246   3.813
 5348SOL    HW116787   3.444   3.330   3.795
 5348SOL    HW216788   3.420   3.181   3.793
 5349SOL     OW16789   2.329   3.597   4.049
 5349SOL    HW116790   2.367   3.662   4.108
 5349SOL    HW216791   2.402   3.572   3.992
 5350SOL     OW16792   3.263   1.970   4.160
 5350SOL    HW116793   3.255   1.944   4.068
 5350SOL    HW216794   3.357   1.975   4.175
 5351SOL     OW16795   2.122   3.654   4.948
 5351SOL    HW116796   2.169   3.584   4.994
 5351SOL    HW216797   2.107   3.618   4.860
 5352SOL     OW16798   2.800   3.563   4.624
 5352SOL    HW116799   2.877   3.511   4.645
 5352SOL    HW216800   2.756   3.513   4.555
 5353SOL     OW16801   2.254   2.549   4.202
 5353SOL    HW116802   2.266   2.461   4.167
 5353SOL    HW216803   2.162   2.553   4.227
 5354SOL     OW16804   3.395   2.087   5.449
 5354SOL    HW116805   3.405   2.107   5.542
 5354SOL    HW216806   3.327   2.020   5.446
 5355SOL     OW16807   2.533   1.989   3.827
 5355SOL    HW116808   2.577   1.909   3.855
 5355SOL    HW216809   2.465   1.959   3.767
 5356SOL     OW16810   2.625   2.144   5.479
 5356SOL    HW116811   2.702   2.087   5.476
 5356SOL    HW216812   2.578   2.115   5.557
 5357SOL     OW16813   2.738   3.382   4.919
 5357SOL    HW116814   2.722   3.347   4.831
 5357SOL    HW216815   2.808   3.328   4.954
 5358SOL     OW16816   3.202   2.451   5.157
 5358SOL    HW116817   3.233   2.420   5.242
 5358SOL    HW216818   3.239   2.540   5.149
 5359SOL     OW16819   2.679   3.254   4.666
 5359SOL    HW116820   2.763   3.243   4.622
 5359SOL    HW216821   2.615   3.258   4.595
 5360SOL     OW16822   2.789   2.369   4.626
 5360SOL    HW116823   2.765   2.361   4.533
 5360SOL    HW216824   2.823   2.283   4.649
 5361SOL     OW16825   2.421   1.922   4.228
 5361SOL    HW116826   2.362   1.907   4.302
 5361SOL    HW216827   2.404   2.012   4.201
 5362SOL     OW16828   3.290   3.061   3.764
 5362SOL    HW116829   3.321   2.986   3.814
 5362SOL    HW216830   3.204   3.082   3.802
 5363SOL     OW16831   2.803   2.112   4.182
 5363SOL    HW116832   2.780   2.148   4.097
 5363SOL    HW216833   2.897   2.124   4.189
 5364SOL     OW16834   2.944   2.545   5.182
 5364SOL    HW116835   2.878   2.476   5.191
 5364SOL    HW216836   3.027   2.498   5.178
 5365SOL     OW16837   3.083   3.432   4.518
 5365SOL    HW116838   3.099   3.500   4.452
 5365SOL    HW216839   3.153   3.445   4.582
 5366SOL     OW16840   2.333   3.013   4.454
 5366SOL    HW116841   2.264   2.995   4.518
 5366SOL    HW216842   2.291   2.998   4.370
 5367SOL     OW16843   3.128   3.657   4.332
 5367SOL    HW116844   3.174   3.721   4.279
 5367SOL    HW216845   3.056   3.706   4.371
 5368SOL     OW16846   2.887   2.402   3.746
 5368SOL    HW116847   2.843   2.485   3.729
 5368SOL    HW216848   2.951   2.422   3.815
 5369SOL     OW16849   1.937   2.427   5.105
 5369SOL    HW116850   2.031   2.416   5.091
 5369SOL    HW216851   1.931   2.498   5.169
 5370SOL     OW16852   2.724   2.319   4.362
 5370SOL    HW116853   2.689   2.377   4.293
 5370SOL    HW216854   2.752   2.240   4.315
 5371SOL     OW16855   2.875   1.916   4.474
 5371SOL    HW116856   2.819   1.906   4.397
 5371SOL    HW216857   2.854   1.841   4.529
 5372SOL     OW16858   3.301   3.024   4.581
 5372SOL    HW116859   3.231   2.959   4.580
 5372SOL    HW216860   3.326   3.033   4.489
 5373SOL     OW16861   3.327   2.470   4.698
 5373SOL    HW116862   3.275   2.389   4.700
 5373SOL    HW216863   3.386   2.463   4.773
 5374SOL     OW16864   3.723   2.679   4.099
 5374SOL    HW116865   3.767   2.623   4.163
 5374SOL    HW216866   3.686   2.617   4.035
 5375SOL     OW16867   2.352   3.280   3.878
 5375SOL    HW116868   2.277   3.253   3.930
 5375SOL    HW216869   2.339   3.238   3.793
 5376SOL     OW16870   3.529   3.127   4.368
 5376SOL    HW116871   3.624   3.129   4.378
 5376SOL    HW216872   3.500   3.216   4.389
 5377SOL     OW16873   3.256   2.434   3.796
 5377SOL    HW116874   3.194   2.414   3.866
 5377SOL    HW216875   3.340   2.401   3.828
 5378SOL     OW16876   3.613   3.097   5.290
 5378SOL    HW116877   3.700   3.061   5.273
 5378SOL    HW216878   3.629   3.186   5.320
 5379SOL     OW16879   2.919   3.214   5.056
 5379SOL    HW116880   2.844   3.184   5.107
 5379SOL    HW216881   2.995   3.173   5.098
 5380SOL     OW16882   3.469   3.491   5.380
 5380SOL    HW116883   3.459   3.524   5.291
 5380SOL    HW216884   3.549   3.440   5.379
 5381SOL     OW16885   2.992   3.067   4.827
 5381SOL    HW116886   2.934   3.106   4.893
 5381SOL    HW216887   2.961   3.101   4.744
 5382SOL     OW16888   3.491   2.958   4.799
 5382SOL    HW116889   3.483   3.020   4.872
 5382SOL    HW216890   3.413   2.974   4.745
 5383SOL     OW16891   2.787   1.956   5.119
 5383SOL    HW116892   2.809   1.936   5.027
 5383SOL    HW216893   2.867   1.995   5.154
 5384SOL     OW16894   2.846   2.977   5.446
 5384SOL    HW116895   2.755   2.993   5.469
 5384SOL    HW216896   2.844   2.899   5.391
 5385SOL     OW16897   2.571   2.923   4.095
 5385SOL    HW116898   2.557   2.905   4.188
 5385SOL    HW216899   2.646   2.870   4.071
 5386SOL     OW16900   2.282   2.681   4.977
 5386SOL    HW116901   2.352   2.692   5.042
 5386SOL    HW216902   2.246   2.594   4.996
 5387SOL     OW16903   3.129   2.239   5.002
 5387SOL    HW116904   3.161   2.316   5.048
 5387SOL    HW216905   3.039   2.261   4.978
 5388SOL     OW16906   1.934   3.435   5.077
 5388SOL    HW116907   1.906   3.511   5.026
 5388SOL    HW216908   2.030   3.437   5.073
 5389SOL     OW16909   2.207   2.974   4.213
 5389SOL    HW116910   2.212   3.048   4.153
 5389SOL    HW216911   2.204   2.897   4.156
 5390SOL     OW16912   2.431   2.392   4.569
 5390SOL    HW116913   2.442   2.456   4.499
 5390SOL    HW216914   2.495   2.418   4.636
 5391SOL     OW16915   3.109   3.211   4.113
 5391SOL    HW116916   3.166   3.282   4.145
 5391SOL    HW216917   3.023   3.232   4.147
 5392SOL     OW16918   3.146   3.321   4.872
 5392SOL    HW116919   3.202   3.325   4.949
 5392SOL    HW216920   3.091   3.245   4.886
 5393SOL     OW16921   3.441   2.482   4.206
 5393SOL    HW116922   3.393   2.535   4.270
 5393SOL    HW216923   3.483   2.546   4.149
 5394SOL     OW16924   2.208   3.391   5.036
 5394SOL    HW116925   2.196   3.347   4.952
 5394SOL    HW216926   2.302   3.402   5.045
 5395SOL     OW16927   2.282   2.608   5.330
 5395SOL    HW116928   2.340   2.652   5.268
 5395SOL    HW216929   2.334   2.535   5.364
 5396SOL     OW16930   3.466   2.640   5.407
 5396SOL    HW116931   3.380   2.683   5.401
 5396SOL    HW216932   3.518   2.684   5.339
 5397SOL     OW16933   2.856   1.990   5.475
 5397SOL    HW116934   2.915   2.061   5.453
 5397SOL    HW216935   2.904   1.910   5.453
 5398SOL     OW16936   2.360   1.894   5.494
 5398SOL    HW116937   2.314   1.845   5.427
 5398SOL    HW216938   2.293   1.951   5.533
 5399SOL     OW16939   2.447   2.734   4.756
 5399SOL    HW116940   2.480   2.824   4.755
 5399SOL    HW216941   2.390   2.730   4.834
 5400SOL     OW16942   3.217   2.721   4.750
 5400SOL    HW116943   3.133   2.709   4.705
 5400SOL    HW216944   3.260   2.636   4.744
 5401SOL     OW16945   3.065   2.390   3.989
 5401SOL    HW116946   3.072   2.311   4.042
 5401SOL    HW216947   3.022   2.454   4.046
 5402SOL     OW16948   1.907   3.173   5.000
 5402SOL    HW116949   1.941   3.119   5.071
 5402SOL    HW216950   1.914   3.263   5.032
 5403SOL     OW16951   2.583   2.487   4.779
 5403SOL    HW116952   2.663   2.475   4.728
 5403SOL    HW216953   2.557   2.577   4.762
 5404SOL     OW16954   3.592   2.822   5.584
 5404SOL    HW116955   3.552   2.757   5.527
 5404SOL    HW216956   3.529   2.835   5.655
 5405SOL     OW16957   3.481   2.238   4.089
 5405SOL    HW116958   3.508   2.173   4.153
 5405SOL    HW216959   3.458   2.315   4.140
 5406SOL     OW16960   2.889   2.620   4.683
 5406SOL    HW116961   2.885   2.637   4.777
 5406SOL    HW216962   2.865   2.528   4.675
 5407SOL     OW16963   2.847   3.430   5.444
 5407SOL    HW116964   2.829   3.471   5.360
 5407SOL    HW216965   2.889   3.347   5.422
 5408SOL     OW16966   3.705   3.361   5.322
 5408SOL    HW116967   3.729   3.391   5.234
 5408SOL    HW216968   3.785   3.372   5.373
 5409SOL     OW16969   2.215   2.778   5.537
 5409SOL    HW116970   2.298   2.801   5.578
 5409SOL    HW216971   2.238   2.717   5.467
 5410SOL     OW16972   3.391   2.135   3.851
 5410SOL    HW116973   3.326   2.070   3.877
 5410SOL    HW216974   3.424   2.170   3.934
 5411SOL     OW16975   3.151   2.687   3.754
 5411SOL    HW116976   3.195   2.602   3.758
 5411SOL    HW216977   3.184   2.726   3.673
 5412SOL     OW16978   2.928   3.199   4.579
 5412SOL    HW116979   2.933   3.126   4.516
 5412SOL    HW216980   2.989   3.264   4.544
 5413SOL     OW16981   2.171   2.682   4.670
 5413SOL    HW116982   2.263   2.708   4.664
 5413SOL    HW216983   2.174   2.590   4.695
 5414SOL     OW16984   2.212   2.417   4.718
 5414SOL    HW116985   2.176   2.332   4.696
 5414SOL    HW216986   2.293   2.423   4.666
 5415SOL     OW16987   2.997   2.238   5.405
 5415SOL    HW116988   2.949   2.292   5.468
 5415SOL    HW216989   3.084   2.276   5.402
 5416SOL     OW16990   3.025   2.064   5.194
 5416SOL    HW116991   3.013   2.126   5.266
 5416SOL    HW216992   3.067   2.116   5.125
 5417SOL     OW16993   1.867   3.181   3.919
 5417SOL    HW116994   1.780   3.196   3.882
 5417SOL    HW216995   1.863   3.091   3.953
 5418SOL     OW16996   1.958   3.641   4.662
 5418SOL    HW116997   1.928   3.563   4.617
 5418SOL    HW216998   2.044   3.660   4.622
 5419SOL     OW16999   2.356   3.437   4.629
 5419SOL    HW117000   2.424   3.501   4.654
 5419SOL    HW217001   2.401   3.375   4.573
 5420SOL     OW17002   2.841   2.651   4.949
 5420SOL    HW117003   2.902   2.631   5.021
 5420SOL    HW217004   2.757   2.617   4.980
 5421SOL     OW17005   1.894   2.400   4.838
 5421SOL    HW117006   1.972   2.427   4.789
 5421SOL    HW217007   1.917   2.414   4.930
 5422SOL     OW17008   2.019   2.435   5.472
 5422SOL    HW117009   2.088   2.397   5.418
 5422SOL    HW217010   1.979   2.502   5.417
 5423SOL     OW17011   3.241   2.799   5.382
 5423SOL    HW117012   3.262   2.892   5.379
 5423SOL    HW217013   3.237   2.773   5.290
 5424SOL     OW17014   2.677   2.431   4.092
 5424SOL    HW117015   2.685   2.358   4.031
 5424SOL    HW217016   2.607   2.485   4.057
 5425SOL     OW17017   3.502   2.464   4.908
 5425SOL    HW117018   3.491   2.403   4.981
 5425SOL    HW217019   3.588   2.442   4.872
 5426SOL     OW17020   2.105   3.411   5.449
 5426SOL    HW117021   2.082   3.478   5.513
 5426SOL    HW217022   2.108   3.330   5.499
 5427SOL     OW17023   2.541   2.321   4.990
 5427SOL    HW117024   2.521   2.234   4.956
 5427SOL    HW217025   2.548   2.377   4.912
 5428SOL     OW17026   2.789   3.534   5.193
 5428SOL    HW117027   2.763   3.496   5.109
 5428SOL    HW217028   2.781   3.629   5.181
 5429SOL     OW17029   2.337   2.373   3.935
 5429SOL    HW117030   2.395   2.449   3.945
 5429SOL    HW217031   2.255   2.411   3.903
 5430SOL     OW17032   2.006   3.005   5.198
 5430SOL    HW117033   2.007   2.954   5.279
 5430SOL    HW217034   2.023   2.940   5.129
 5431SOL     OW17035   3.184   2.907   4.946
 5431SOL    HW117036   3.208   2.844   4.878
 5431SOL    HW217037   3.116   2.961   4.906
 5432SOL     OW17038   3.174   2.719   4.029
 5432SOL    HW117039   3.099   2.687   4.080
 5432SOL    HW217040   3.149   2.704   3.938
 5433SOL     OW17041   3.638   3.603   4.878
 5433SOL    HW117042   3.696   3.630   4.807
 5433SOL    HW217043   3.611   3.514   4.855
 5434SOL     OW17044   3.106   3.595   4.834
 5434SOL    HW117045   3.188   3.616   4.790
 5434SOL    HW217046   3.112   3.502   4.853
 5435SOL     OW17047   1.947   3.128   4.736
 5435SOL    HW117048   1.931   3.142   4.829
 5435SOL    HW217049   1.873   3.074   4.707
 5436SOL     OW17050   2.540   3.526   5.456
 5436SOL    HW117051   2.484   3.603   5.460
 5436SOL    HW217052   2.601   3.545   5.385
 5437SOL     OW17053   3.573   2.011   4.236
 5437SOL    HW117054   3.641   1.999   4.170
 5437SOL    HW217055   3.562   1.925   4.276
 5438SOL     OW17056   3.252   3.430   4.211
 5438SOL    HW117057   3.311   3.464   4.144
 5438SOL    HW217058   3.204   3.508   4.241
 5439SOL     OW17059   1.996   3.652   5.563
 5439SOL    HW117060   1.944   3.588   5.612
 5439SOL    HW217061   2.045   3.700   5.629
 5440SOL     OW17062   3.139   2.788   4.395
 5440SOL    HW117063   3.213   2.728   4.404
 5440SOL    HW217064   3.173   2.860   4.342
 5441SOL     OW17065   2.673   3.136   5.152
 5441SOL    HW117066   2.645   3.176   5.235
 5441SOL    HW217067   2.604   3.159   5.090
 5442SOL     OW17068   2.537   3.479   3.882
 5442SOL    HW117069   2.546   3.497   3.788
 5442SOL    HW217070   2.478   3.404   3.886
 5443SOL     OW17071   3.482   3.588   5.114
 5443SOL    HW117072   3.537   3.592   5.036
 5443SOL    HW217073   3.469   3.680   5.139
 5444SOL     OW17074   3.700   2.043   4.691
 5444SOL    HW117075   3.731   1.956   4.666
 5444SOL    HW217076   3.614   2.051   4.650
 5445SOL     OW17077   3.069   3.466   3.760
 5445SOL    HW117078   3.059   3.374   3.784
 5445SOL    HW217079   3.008   3.479   3.687
 5446SOL     OW17080   2.686   2.868   5.096
 5446SOL    HW117081   2.731   2.865   5.012
 5446SOL    HW217082   2.684   2.961   5.118
 5447SOL     OW17083   2.779   2.773   4.015
 5447SOL    HW117084   2.839   2.805   3.948
 5447SOL    HW217085   2.827   2.704   4.060
 5448SOL     OW17086   3.350   3.493   3.766
 5448SOL    HW117087   3.257   3.481   3.750
 5448SOL    HW217088   3.389   3.498   3.679
 5449SOL     OW17089   2.231   3.165   5.215
 5449SOL    HW117090   2.218   3.243   5.160
 5449SOL    HW217091   2.153   3.112   5.200
 5450SOL     OW17092   3.463   3.142   5.002
 5450SOL    HW117093   3.531   3.133   5.068
 5450SOL    HW217094   3.406   3.211   5.034
 5451SOL     OW17095   2.917   2.970   4.432
 5451SOL    HW117096   2.846   2.919   4.470
 5451SOL    HW217097   2.981   2.905   4.403
 5452SOL     OW17098   2.882   2.102   4.690
 5452SOL    HW117099   2.878   2.055   4.607
 5452SOL    HW217100   2.879   2.034   4.757
 5453SOL     OW17101   2.466   3.352   4.204
 5453SOL    HW117102   2.512   3.301   4.137
 5453SOL    HW217103   2.398   3.399   4.156
 5454SOL     OW17104   3.586   2.252   5.102
 5454SOL    HW117105   3.658   2.315   5.099
 5454SOL    HW217106   3.615   2.180   5.046
 5455SOL     OW17107   2.122   3.205   4.014
 5455SOL    HW117108   2.029   3.203   3.991
 5455SOL    HW217109   2.124   3.244   4.101
 5456SOL     OW17110   1.975   2.886   5.444
 5456SOL    HW117111   1.898   2.863   5.496
 5456SOL    HW217112   2.049   2.848   5.492
 5457SOL     OW17113   2.547   2.046   5.217
 5457SOL    HW117114   2.634   2.023   5.185
 5457SOL    HW217115   2.563   2.088   5.302
 5458SOL     OW17116   1.881   2.252   3.769
 5458SOL    HW117117   1.822   2.216   3.703
 5458SOL    HW217118   1.932   2.318   3.721
 5459SOL     OW17119   3.289   2.721   5.123
 5459SOL    HW117120   3.239   2.782   5.069
 5459SOL    HW217121   3.377   2.722   5.087
 5460SOL     OW17122   3.040   3.200   3.841
 5460SOL    HW117123   2.949   3.170   3.843
 5460SOL    HW217124   3.067   3.199   3.933
 5461SOL     OW17125   2.483   2.693   5.158
 5461SOL    HW117126   2.539   2.769   5.143
 5461SOL    HW217127   2.544   2.620   5.167
 5462SOL     OW17128   3.347   3.643   4.706
 5462SOL    HW117129   3.371   3.697   4.631
 5462SOL    HW217130   3.431   3.613   4.742
 5463SOL     OW17131   2.574   2.425   5.426
 5463SOL    HW117132   2.620   2.485   5.485
 5463SOL    HW217133   2.595   2.338   5.458
 5464SOL     OW17134   3.335   3.060   5.355
 5464SOL    HW117135   3.324   3.074   5.449
 5464SOL    HW217136   3.428   3.075   5.339
 5465SOL     OW17137   2.238   3.602   5.289
 5465SOL    HW117138   2.153   3.643   5.273
 5465SOL    HW217139   2.216   3.518   5.330
 5466SOL     OW17140   3.527   2.742   4.983
 5466SOL    HW117141   3.526   2.657   4.940
 5466SOL    HW217142   3.521   2.805   4.911
 5467SOL     OW17143   3.079   2.181   4.182
 5467SOL    HW117144   3.141   2.109   4.174
 5467SOL    HW217145   3.109   2.230   4.259
 5468SOL     OW17146   2.450   2.598   4.393
 5468SOL    HW117147   2.489   2.684   4.378
 5468SOL    HW217148   2.382   2.591   4.325
 5469SOL     OW17149   3.621   2.228   5.374
 5469SOL    HW117150   3.604   2.241   5.280
 5469SOL    HW217151   3.551   2.169   5.403
 5470SOL     OW17152   3.618   2.791   5.237
 5470SOL    HW117153   3.609   2.884   5.255
 5470SOL    HW217154   3.594   2.781   5.145
 5471SOL     OW17155   2.725   3.229   3.762
 5471SOL    HW117156   2.685   3.257   3.844
 5471SOL    HW217157   2.741   3.310   3.714
 5472SOL     OW17158   2.522   3.651   4.664
 5472SOL    HW117159   2.501   3.742   4.643
 5472SOL    HW217160   2.618   3.647   4.659
 5473SOL     OW17161   2.730   2.830   4.579
 5473SOL    HW117162   2.780   2.759   4.617
 5473SOL    HW217163   2.695   2.878   4.654
 5474SOL     OW17164   2.940   2.850   3.812
 5474SOL    HW117165   2.919   2.901   3.734
 5474SOL    HW217166   3.015   2.796   3.786
 5475SOL     OW17167   3.713   3.417   4.565
 5475SOL    HW117168   3.633   3.397   4.515
 5475SOL    HW217169   3.715   3.349   4.633
 5476SOL     OW17170   2.088   3.164   5.580
 5476SOL    HW117171   2.019   3.105   5.549
 5476SOL    HW217172   2.069   3.177   5.673
 5477SOL     OW17173   1.947   3.093   4.389
 5477SOL    HW117174   1.955   3.047   4.473
 5477SOL    HW217175   2.015   3.055   4.334
 5478SOL     OW17176   2.544   3.266   5.353
 5478SOL    HW117177   2.464   3.224   5.385
 5478SOL    HW217178   2.542   3.354   5.390
 5479SOL     OW17179   3.676   2.041   4.963
 5479SOL    HW117180   3.667   1.945   4.966
 5479SOL    HW217181   3.690   2.060   4.870
 5480SOL     OW17182   3.558   3.352   4.821
 5480SOL    HW117183   3.480   3.327   4.772
 5480SOL    HW217184   3.571   3.281   4.884
 5481SOL     OW17185   2.198   2.421   5.013
 5481SOL    HW117186   2.241   2.349   5.060
 5481SOL    HW217187   2.225   2.410   4.922
 5482SOL     OW17188   2.690   3.440   4.401
 5482SOL    HW117189   2.673   3.492   4.322
 5482SOL    HW217190   2.615   3.381   4.407
 5483SOL     OW17191   3.293   2.089   4.841
 5483SOL    HW117192   3.313   2.006   4.883
 5483SOL    HW217193   3.243   2.138   4.906
 5484SOL     OW17194   2.872   1.881   4.863
 5484SOL    HW117195   2.817   1.813   4.824
 5484SOL    HW217196   2.960   1.841   4.865
 5485SOL     OW17197   2.635   3.194   4.042
 5485SOL    HW117198   2.605   3.104   4.048
 5485SOL    HW217199   2.717   3.196   4.091
 5486SOL     OW17200   2.482   3.415   5.009
 5486SOL    HW117201   2.483   3.497   5.059
 5486SOL    HW217202   2.570   3.409   4.972
 5487SOL     OW17203   3.216   1.915   3.890
 5487SOL    HW117204   3.246   1.847   3.830
 5487SOL    HW217205   3.128   1.888   3.916
 5488SOL     OW17206   3.158   2.324   4.404
 5488SOL    HW117207   3.105   2.404   4.411
 5488SOL    HW217208   3.154   2.285   4.492
 5489SOL     OW17209   3.444   2.061   4.602
 5489SOL    HW117210   3.388   2.084   4.675
 5489SOL    HW217211   3.445   2.139   4.546
 5490SOL     OW17212   1.905   2.930   4.031
 5490SOL    HW117213   1.998   2.923   4.014
 5490SOL    HW217214   1.878   2.841   4.054
 5491SOL     OW17215   2.748   3.520   4.067
 5491SOL    HW117216   2.677   3.501   4.006
 5491SOL    HW217217   2.717   3.595   4.117
 5492SOL     OW17218   2.092   2.505   5.728
 5492SOL    HW117219   2.007   2.495   5.771
 5492SOL    HW217220   2.075   2.487   5.636
 5493SOL     OW17221   1.831   2.213   6.183
 5493SOL    HW117222   1.783   2.163   6.249
 5493SOL    HW217223   1.883   2.147   6.137
 5494SOL     OW17224   2.433   3.153   6.763
 5494SOL    HW117225   2.345   3.155   6.725
 5494SOL    HW217226   2.448   3.242   6.794
 5495SOL     OW17227   3.425   3.374   6.295
 5495SOL    HW117228   3.383   3.352   6.378
 5495SOL    HW217229   3.353   3.377   6.231
 5496SOL     OW17230   2.990   2.558   6.294
 5496SOL    HW117231   3.041   2.635   6.269
 5496SOL    HW217232   2.945   2.584   6.375
 5497SOL     OW17233   3.628   2.468   5.816
 5497SOL    HW117234   3.608   2.460   5.722
 5497SOL    HW217235   3.594   2.387   5.854
 5498SOL     OW17236   2.637   3.008   6.637
 5498SOL    HW117237   2.557   3.028   6.684
 5498SOL    HW217238   2.661   3.090   6.594
 5499SOL     OW17239   2.747   2.651   7.417
 5499SOL    HW117240   2.706   2.721   7.468
 5499SOL    HW217241   2.761   2.688   7.331
 5500SOL     OW17242   2.547   2.878   6.230
 5500SOL    HW117243   2.609   2.853   6.298
 5500SOL    HW217244   2.479   2.928   6.276
 5501SOL     OW17245   2.582   3.018   7.395
 5501SOL    HW117246   2.626   3.098   7.423
 5501SOL    HW217247   2.496   3.047   7.363
 5502SOL     OW17248   2.196   3.282   6.655
 5502SOL    HW117249   2.117   3.247   6.613
 5502SOL    HW217250   2.237   3.335   6.587
 5503SOL     OW17251   3.321   3.363   6.943
 5503SOL    HW117252   3.375   3.441   6.952
 5503SOL    HW217253   3.256   3.369   7.013
 5504SOL     OW17254   3.473   2.308   6.330
 5504SOL    HW117255   3.403   2.332   6.269
 5504SOL    HW217256   3.487   2.387   6.383
 5505SOL     OW17257   2.083   3.579   6.064
 5505SOL    HW117258   2.114   3.637   6.133
 5505SOL    HW217259   2.155   3.575   6.002
 5506SOL     OW17260   2.998   3.203   7.280
 5506SOL    HW117261   3.040   3.197   7.366
 5506SOL    HW217262   2.946   3.123   7.272
 5507SOL     OW17263   2.096   3.304   6.121
 5507SOL    HW117264   2.074   3.397   6.126
 5507SOL    HW217265   2.035   3.262   6.181
 5508SOL     OW17266   2.471   3.648   7.015
 5508SOL    HW117267   2.389   3.634   7.062
 5508SOL    HW217268   2.497   3.737   7.039
 5509SOL     OW17269   2.448   2.847   5.718
 5509SOL    HW117270   2.496   2.895   5.650
 5509SOL    HW217271   2.485   2.879   5.801
 5510SOL     OW17272   3.456   1.987   7.052
 5510SOL    HW117273   3.469   2.069   7.005
 5510SOL    HW217274   3.442   2.014   7.143
 5511SOL     OW17275   3.700   3.613   5.927
 5511SOL    HW117276   3.771   3.588   5.987
 5511SOL    HW217277   3.719   3.704   5.904
 5512SOL     OW17278   1.892   3.452   5.708
 5512SOL    HW117279   1.875   3.361   5.730
 5512SOL    HW217280   1.871   3.500   5.788
 5513SOL     OW17281   3.549   2.781   6.232
 5513SOL    HW117282   3.633   2.737   6.214
 5513SOL    HW217283   3.530   2.830   6.152
 5514SOL     OW17284   3.503   2.966   6.018
 5514SOL    HW117285   3.588   2.971   5.974
 5514SOL    HW217286   3.510   3.029   6.089
 5515SOL     OW17287   1.990   2.616   7.111
 5515SOL    HW117288   2.070   2.653   7.148
 5515SOL    HW217289   1.927   2.688   7.110
 5516SOL     OW17290   2.481   3.255   6.319
 5516SOL    HW117291   2.434   3.172   6.329
 5516SOL    HW217292   2.463   3.282   6.229
 5517SOL     OW17293   3.149   3.099   7.009
 5517SOL    HW117294   3.181   3.033   6.948
 5517SOL    HW217295   3.208   3.094   7.084
 5518SOL     OW17296   2.038   2.835   6.862
 5518SOL    HW117297   2.119   2.784   6.857
 5518SOL    HW217298   1.981   2.795   6.797
 5519SOL     OW17299   3.390   2.858   5.786
 5519SOL    HW117300   3.320   2.801   5.819
 5519SOL    HW217301   3.432   2.892   5.865
 5520SOL     OW17302   3.079   3.666   7.213
 5520SOL    HW117303   3.056   3.726   7.143
 5520SOL    HW217304   3.080   3.579   7.171
 5521SOL     OW17305   3.327   3.282   6.535
 5521SOL    HW117306   3.260   3.297   6.602
 5521SOL    HW217307   3.316   3.191   6.510
 5522SOL     OW17308   3.510   3.605   6.166
 5522SOL    HW117309   3.501   3.571   6.077
 5522SOL    HW217310   3.493   3.530   6.223
 5523SOL     OW17311   2.459   2.603   5.863
 5523SOL    HW117312   2.480   2.672   5.800
 5523SOL    HW217313   2.384   2.638   5.912
 5524SOL     OW17314   3.158   2.231   6.525
 5524SOL    HW117315   3.071   2.192   6.537
 5524SOL    HW217316   3.215   2.179   6.581
 5525SOL     OW17317   3.436   3.538   5.894
 5525SOL    HW117318   3.529   3.563   5.890
 5525SOL    HW217319   3.412   3.518   5.804
 5526SOL     OW17320   3.265   2.338   7.261
 5526SOL    HW117321   3.263   2.382   7.347
 5526SOL    HW217322   3.320   2.261   7.275
 5527SOL     OW17323   2.812   2.746   7.163
 5527SOL    HW117324   2.867   2.675   7.130
 5527SOL    HW217325   2.777   2.787   7.084
 5528SOL     OW17326   2.875   2.279   6.837
 5528SOL    HW117327   2.804   2.284   6.901
 5528SOL    HW217328   2.831   2.258   6.755
 5529SOL     OW17329   2.918   2.564   6.010
 5529SOL    HW117330   2.920   2.550   6.105
 5529SOL    HW217331   2.839   2.518   5.981
 5530SOL     OW17332   1.984   3.706   7.162
 5530SOL    HW117333   1.985   3.686   7.256
 5530SOL    HW217334   1.891   3.707   7.139
 5531SOL     OW17335   2.766   2.201   5.772
 5531SOL    HW117336   2.806   2.255   5.704
 5531SOL    HW217337   2.755   2.115   5.730
 5532SOL     OW17338   3.574   2.436   7.414
 5532SOL    HW117339   3.534   2.509   7.367
 5532SOL    HW217340   3.596   2.373   7.347
 5533SOL     OW17341   3.238   3.003   6.127
 5533SOL    HW117342   3.318   2.990   6.076
 5533SOL    HW217343   3.186   3.065   6.076
 5534SOL     OW17344   2.366   2.026   6.424
 5534SOL    HW117345   2.326   2.062   6.503
 5534SOL    HW217346   2.455   2.060   6.424
 5535SOL     OW17347   2.866   3.307   6.057
 5535SOL    HW117348   2.829   3.381   6.008
 5535SOL    HW217349   2.846   3.326   6.148
 5536SOL     OW17350   2.213   3.673   6.424
 5536SOL    HW117351   2.263   3.593   6.443
 5536SOL    HW217352   2.272   3.744   6.447
 5537SOL     OW17353   3.667   2.922   6.453
 5537SOL    HW117354   3.613   2.898   6.378
 5537SOL    HW217355   3.605   2.926   6.526
 5538SOL     OW17356   3.089   3.399   7.098
 5538SOL    HW117357   3.076   3.326   7.159
 5538SOL    HW217358   3.023   3.386   7.030
 5539SOL     OW17359   2.188   2.809   5.844
 5539SOL    HW117360   2.263   2.835   5.790
 5539SOL    HW217361   2.152   2.734   5.799
 5540SOL     OW17362   3.341   2.607   6.313
 5540SOL    HW117363   3.337   2.565   6.399
 5540SOL    HW217364   3.419   2.662   6.317
 5541SOL     OW17365   2.329   3.129   7.325
 5541SOL    HW117366   2.303   3.136   7.233
 5541SOL    HW217367   2.246   3.127   7.373
 5542SOL     OW17368   2.976   3.643   5.808
 5542SOL    HW117369   2.912   3.597   5.862
 5542SOL    HW217370   3.006   3.577   5.745
 5543SOL     OW17371   3.487   3.246   5.675
 5543SOL    HW117372   3.444   3.330   5.657
 5543SOL    HW217373   3.420   3.181   5.655
 5544SOL     OW17374   2.329   3.597   5.911
 5544SOL    HW117375   2.367   3.662   5.971
 5544SOL    HW217376   2.402   3.572   5.854
 5545SOL     OW17377   3.268   1.967   6.021
 5545SOL    HW117378   3.258   1.943   5.928
 5545SOL    HW217379   3.363   1.973   6.033
 5546SOL     OW17380   2.123   3.653   6.810
 5546SOL    HW117381   2.171   3.583   6.854
 5546SOL    HW217382   2.105   3.619   6.722
 5547SOL     OW17383   2.800   3.563   6.486
 5547SOL    HW117384   2.876   3.510   6.509
 5547SOL    HW217385   2.756   3.514   6.416
 5548SOL     OW17386   3.395   2.086   7.311
 5548SOL    HW117387   3.405   2.106   7.405
 5548SOL    HW217388   3.323   2.023   7.308
 5549SOL     OW17389   2.528   1.981   5.694
 5549SOL    HW117390   2.583   1.903   5.701
 5549SOL    HW217391   2.460   1.956   5.632
 5550SOL     OW17392   2.738   3.383   6.781
 5550SOL    HW117393   2.722   3.348   6.694
 5550SOL    HW217394   2.808   3.328   6.816
 5551SOL     OW17395   3.198   2.459   7.022
 5551SOL    HW117396   3.233   2.425   7.105
 5551SOL    HW217397   3.240   2.545   7.013
 5552SOL     OW17398   2.679   3.259   6.528
 5552SOL    HW117399   2.763   3.245   6.485
 5552SOL    HW217400   2.615   3.260   6.457
 5553SOL     OW17401   2.380   1.927   6.079
 5553SOL    HW117402   2.303   1.919   6.134
 5553SOL    HW217403   2.383   2.019   6.054
 5554SOL     OW17404   3.290   3.061   5.626
 5554SOL    HW117405   3.321   2.986   5.676
 5554SOL    HW217406   3.204   3.082   5.664
 5555SOL     OW17407   2.833   2.144   6.032
 5555SOL    HW117408   2.803   2.166   5.944
 5555SOL    HW217409   2.928   2.158   6.030
 5556SOL     OW17410   2.933   2.524   7.049
 5556SOL    HW117411   2.899   2.450   7.099
 5556SOL    HW217412   3.025   2.504   7.035
 5557SOL     OW17413   3.084   3.432   6.379
 5557SOL    HW117414   3.100   3.500   6.313
 5557SOL    HW217415   3.153   3.445   6.444
 5558SOL     OW17416   2.328   3.026   6.322
 5558SOL    HW117417   2.260   3.014   6.388
 5558SOL    HW217418   2.284   3.006   6.239
 5559SOL     OW17419   3.128   3.657   6.194
 5559SOL    HW117420   3.174   3.722   6.141
 5559SOL    HW217421   3.056   3.705   6.233
 5560SOL     OW17422   2.890   2.401   5.604
 5560SOL    HW117423   2.841   2.483   5.592
 5560SOL    HW217424   2.946   2.418   5.680
 5561SOL     OW17425   1.943   2.400   6.962
 5561SOL    HW117426   2.036   2.386   6.946
 5561SOL    HW217427   1.939   2.479   7.015
 5562SOL     OW17428   3.301   3.024   6.443
 5562SOL    HW117429   3.229   2.961   6.441
 5562SOL    HW217430   3.327   3.034   6.351
 5563SOL     OW17431   3.327   2.471   6.560
 5563SOL    HW117432   3.275   2.391   6.561
 5563SOL    HW217433   3.385   2.462   6.635
 5564SOL     OW17434   3.723   2.679   5.960
 5564SOL    HW117435   3.767   2.623   6.025
 5564SOL    HW217436   3.686   2.617   5.897
 5565SOL     OW17437   2.352   3.280   5.740
 5565SOL    HW117438   2.277   3.252   5.793
 5565SOL    HW217439   2.339   3.238   5.655
 5566SOL     OW17440   3.529   3.127   6.230
 5566SOL    HW117441   3.624   3.129   6.240
 5566SOL    HW217442   3.500   3.216   6.251
 5567SOL     OW17443   3.257   2.434   5.656
 5567SOL    HW117444   3.193   2.416   5.725
 5567SOL    HW217445   3.340   2.400   5.691
 5568SOL     OW17446   3.613   3.097   7.152
 5568SOL    HW117447   3.700   3.061   7.135
 5568SOL    HW217448   3.629   3.186   7.182
 5569SOL     OW17449   2.918   3.214   6.920
 5569SOL    HW117450   2.844   3.183   6.971
 5569SOL    HW217451   2.994   3.173   6.960
 5570SOL     OW17452   3.469   3.491   7.242
 5570SOL    HW117453   3.459   3.524   7.153
 5570SOL    HW217454   3.549   3.440   7.241
 5571SOL     OW17455   2.994   3.068   6.690
 5571SOL    HW117456   2.932   3.103   6.755
 5571SOL    HW217457   2.960   3.099   6.606
 5572SOL     OW17458   3.491   2.958   6.661
 5572SOL    HW117459   3.482   3.019   6.734
 5572SOL    HW217460   3.413   2.975   6.607
 5573SOL     OW17461   2.780   1.958   6.971
 5573SOL    HW117462   2.823   1.938   6.888
 5573SOL    HW217463   2.849   1.996   7.025
 5574SOL     OW17464   2.847   2.973   7.309
 5574SOL    HW117465   2.755   2.991   7.331
 5574SOL    HW217466   2.843   2.896   7.253
 5575SOL     OW17467   2.568   2.923   5.957
 5575SOL    HW117468   2.556   2.908   6.051
 5575SOL    HW217469   2.645   2.870   5.934
 5576SOL     OW17470   2.254   2.676   6.847
 5576SOL    HW117471   2.337   2.691   6.892
 5576SOL    HW217472   2.236   2.583   6.860
 5577SOL     OW17473   3.139   2.237   6.868
 5577SOL    HW117474   3.167   2.316   6.914
 5577SOL    HW217475   3.048   2.255   6.845
 5578SOL     OW17476   1.934   3.434   6.939
 5578SOL    HW117477   1.903   3.508   6.885
 5578SOL    HW217478   2.029   3.439   6.934
 5579SOL     OW17479   2.198   2.970   6.085
 5579SOL    HW117480   2.210   3.045   6.027
 5579SOL    HW217481   2.201   2.894   6.027
 5580SOL     OW17482   3.109   3.211   5.975
 5580SOL    HW117483   3.166   3.282   6.007
 5580SOL    HW217484   3.023   3.232   6.009
 5581SOL     OW17485   3.145   3.322   6.733
 5581SOL    HW117486   3.201   3.324   6.811
 5581SOL    HW217487   3.090   3.244   6.746
 5582SOL     OW17488   3.441   2.481   6.069
 5582SOL    HW117489   3.393   2.536   6.131
 5582SOL    HW217490   3.483   2.544   6.010
 5583SOL     OW17491   2.209   3.391   6.899
 5583SOL    HW117492   2.197   3.346   6.815
 5583SOL    HW217493   2.304   3.403   6.906
 5584SOL     OW17494   3.466   2.641   7.269
 5584SOL    HW117495   3.380   2.683   7.264
 5584SOL    HW217496   3.518   2.684   7.202
 5585SOL     OW17497   2.938   1.965   7.357
 5585SOL    HW117498   2.910   2.032   7.296
 5585SOL    HW217499   2.984   1.900   7.303
 5586SOL     OW17500   2.352   1.929   7.301
 5586SOL    HW117501   2.300   1.856   7.267
 5586SOL    HW217502   2.297   1.967   7.370
 5587SOL     OW17503   3.218   2.721   6.614
 5587SOL    HW117504   3.138   2.711   6.562
 5587SOL    HW217505   3.261   2.636   6.607
 5588SOL     OW17506   3.065   2.393   5.846
 5588SOL    HW117507   3.079   2.316   5.902
 5588SOL    HW217508   3.021   2.456   5.904
 5589SOL     OW17509   1.905   3.173   6.862
 5589SOL    HW117510   1.943   3.121   6.934
 5589SOL    HW217511   1.913   3.263   6.892
 5590SOL     OW17512   3.592   2.822   7.446
 5590SOL    HW117513   3.552   2.757   7.389
 5590SOL    HW217514   3.529   2.835   7.516
 5591SOL     OW17515   3.482   2.238   5.950
 5591SOL    HW117516   3.508   2.173   6.015
 5591SOL    HW217517   3.458   2.315   6.002
 5592SOL     OW17518   2.888   2.618   6.549
 5592SOL    HW117519   2.887   2.651   6.638
 5592SOL    HW217520   2.882   2.523   6.558
 5593SOL     OW17521   2.847   3.430   7.306
 5593SOL    HW117522   2.829   3.471   7.222
 5593SOL    HW217523   2.889   3.347   7.283
 5594SOL     OW17524   3.705   3.362   7.184
 5594SOL    HW117525   3.729   3.391   7.096
 5594SOL    HW217526   3.785   3.372   7.235
 5595SOL     OW17527   3.391   2.134   5.713
 5595SOL    HW117528   3.325   2.070   5.739
 5595SOL    HW217529   3.424   2.170   5.796
 5596SOL     OW17530   3.152   2.688   5.616
 5596SOL    HW117531   3.194   2.602   5.620
 5596SOL    HW217532   3.184   2.727   5.535
 5597SOL     OW17533   2.928   3.199   6.441
 5597SOL    HW117534   2.932   3.126   6.379
 5597SOL    HW217535   2.989   3.264   6.405
 5598SOL     OW17536   2.252   2.365   6.609
 5598SOL    HW117537   2.218   2.289   6.563
 5598SOL    HW217538   2.302   2.413   6.542
 5599SOL     OW17539   3.002   2.268   7.243
 5599SOL    HW117540   2.964   2.316   7.317
 5599SOL    HW217541   3.095   2.289   7.246
 5600SOL     OW17542   3.017   2.067   7.060
 5600SOL    HW117543   3.012   2.134   7.128
 5600SOL    HW217544   3.063   2.111   6.988
 5601SOL     OW17545   1.868   3.178   5.780
 5601SOL    HW117546   1.781   3.195   5.743
 5601SOL    HW217547   1.864   3.087   5.810
 5602SOL     OW17548   1.959   3.642   6.525
 5602SOL    HW117549   1.927   3.563   6.481
 5602SOL    HW217550   2.043   3.660   6.484
 5603SOL     OW17551   2.355   3.439   6.490
 5603SOL    HW117552   2.423   3.502   6.517
 5603SOL    HW217553   2.401   3.377   6.434
 5604SOL     OW17554   2.851   2.649   6.813
 5604SOL    HW117555   2.899   2.610   6.886
 5604SOL    HW217556   2.764   2.666   6.847
 5605SOL     OW17557   1.887   2.395   6.701
 5605SOL    HW117558   1.957   2.437   6.650
 5605SOL    HW217559   1.917   2.402   6.792
 5606SOL     OW17560   1.994   2.405   7.282
 5606SOL    HW117561   2.079   2.381   7.246
 5606SOL    HW217562   1.967   2.481   7.230
 5607SOL     OW17563   3.240   2.799   7.244
 5607SOL    HW117564   3.262   2.892   7.242
 5607SOL    HW217565   3.239   2.773   7.151
 5608SOL     OW17566   2.712   2.453   5.867
 5608SOL    HW117567   2.711   2.359   5.848
 5608SOL    HW217568   2.624   2.483   5.844
 5609SOL     OW17569   3.502   2.463   6.770
 5609SOL    HW117570   3.492   2.402   6.843
 5609SOL    HW217571   3.588   2.442   6.734
 5610SOL     OW17572   2.105   3.412   7.311
 5610SOL    HW117573   2.082   3.480   7.374
 5610SOL    HW217574   2.110   3.332   7.363
 5611SOL     OW17575   2.789   3.534   7.055
 5611SOL    HW117576   2.763   3.496   6.971
 5611SOL    HW217577   2.781   3.629   7.042
 5612SOL     OW17578   2.338   2.372   5.788
 5612SOL    HW117579   2.391   2.450   5.809
 5612SOL    HW217580   2.252   2.408   5.765
 5613SOL     OW17581   2.011   3.005   7.064
 5613SOL    HW117582   2.039   2.950   7.137
 5613SOL    HW217583   2.015   2.947   6.988
 5614SOL     OW17584   3.184   2.907   6.808
 5614SOL    HW117585   3.208   2.844   6.740
 5614SOL    HW217586   3.117   2.962   6.768
 5615SOL     OW17587   3.173   2.718   5.893
 5615SOL    HW117588   3.098   2.685   5.943
 5615SOL    HW217589   3.148   2.704   5.801
 5616SOL     OW17590   3.638   3.603   6.740
 5616SOL    HW117591   3.696   3.630   6.669
 5616SOL    HW217592   3.611   3.514   6.717
 5617SOL     OW17593   3.106   3.595   6.696
 5617SOL    HW117594   3.189   3.616   6.653
 5617SOL    HW217595   3.112   3.502   6.715
 5618SOL     OW17596   1.955   3.156   6.591
 5618SOL    HW117597   1.934   3.150   6.684
 5618SOL    HW217598   1.903   3.087   6.550
 5619SOL     OW17599   2.540   3.527   7.318
 5619SOL    HW117600   2.484   3.604   7.322
 5619SOL    HW217601   2.601   3.545   7.246
 5620SOL     OW17602   3.572   2.011   6.097
 5620SOL    HW117603   3.641   1.999   6.032
 5620SOL    HW217604   3.562   1.925   6.137
 5621SOL     OW17605   3.252   3.430   6.073
 5621SOL    HW117606   3.311   3.464   6.006
 5621SOL    HW217607   3.204   3.508   6.103
 5622SOL     OW17608   1.997   3.652   7.425
 5622SOL    HW117609   1.945   3.588   7.474
 5622SOL    HW217610   2.045   3.700   7.491
 5623SOL     OW17611   3.138   2.786   6.256
 5623SOL    HW117612   3.213   2.726   6.265
 5623SOL    HW217613   3.171   2.858   6.203
 5624SOL     OW17614   2.671   3.133   7.015
 5624SOL    HW117615   2.642   3.175   7.096
 5624SOL    HW217616   2.605   3.157   6.951
 5625SOL     OW17617   2.537   3.479   5.743
 5625SOL    HW117618   2.546   3.497   5.650
 5625SOL    HW217619   2.478   3.403   5.748
 5626SOL     OW17620   3.482   3.588   6.976
 5626SOL    HW117621   3.537   3.592   6.898
 5626SOL    HW217622   3.469   3.680   7.001
 5627SOL     OW17623   3.700   2.043   6.553
 5627SOL    HW117624   3.731   1.956   6.529
 5627SOL    HW217625   3.614   2.050   6.511
 5628SOL     OW17626   3.069   3.466   5.622
 5628SOL    HW117627   3.059   3.374   5.646
 5628SOL    HW217628   3.008   3.479   5.549
 5629SOL     OW17629   2.693   2.869   6.947
 5629SOL    HW117630   2.717   2.882   6.856
 5629SOL    HW217631   2.684   2.957   6.983
 5630SOL     OW17632   2.776   2.775   5.875
 5630SOL    HW117633   2.838   2.806   5.809
 5630SOL    HW217634   2.822   2.703   5.919
 5631SOL     OW17635   3.350   3.493   5.628
 5631SOL    HW117636   3.257   3.481   5.612
 5631SOL    HW217637   3.389   3.498   5.541
 5632SOL     OW17638   2.231   3.170   7.080
 5632SOL    HW117639   2.222   3.246   7.023
 5632SOL    HW217640   2.155   3.116   7.060
 5633SOL     OW17641   3.463   3.141   6.864
 5633SOL    HW117642   3.532   3.134   6.930
 5633SOL    HW217643   3.406   3.211   6.896
 5634SOL     OW17644   2.916   2.969   6.297
 5634SOL    HW117645   2.842   2.919   6.331
 5634SOL    HW217646   2.977   2.903   6.264
 5635SOL     OW17647   2.938   2.084   6.578
 5635SOL    HW117648   2.891   2.042   6.506
 5635SOL    HW217649   2.928   2.025   6.652
 5636SOL     OW17650   2.466   3.353   6.064
 5636SOL    HW117651   2.511   3.302   5.997
 5636SOL    HW217652   2.397   3.399   6.017
 5637SOL     OW17653   3.586   2.252   6.964
 5637SOL    HW117654   3.658   2.315   6.961
 5637SOL    HW217655   3.614   2.180   6.908
 5638SOL     OW17656   2.122   3.204   5.875
 5638SOL    HW117657   2.028   3.203   5.853
 5638SOL    HW217658   2.125   3.244   5.962
 5639SOL     OW17659   1.875   2.251   5.621
 5639SOL    HW117660   1.822   2.219   5.548
 5639SOL    HW217661   1.930   2.319   5.583
 5640SOL     OW17662   3.290   2.723   6.985
 5640SOL    HW117663   3.241   2.784   6.931
 5640SOL    HW217664   3.378   2.723   6.949
 5641SOL     OW17665   3.040   3.200   5.703
 5641SOL    HW117666   2.949   3.169   5.705
 5641SOL    HW217667   3.067   3.199   5.795
 5642SOL     OW17668   2.484   2.689   7.003
 5642SOL    HW117669   2.538   2.767   6.987
 5642SOL    HW217670   2.541   2.632   7.054
 5643SOL     OW17671   3.347   3.643   6.568
 5643SOL    HW117672   3.371   3.697   6.493
 5643SOL    HW217673   3.431   3.613   6.604
 5644SOL     OW17674   3.335   3.060   7.217
 5644SOL    HW117675   3.324   3.074   7.311
 5644SOL    HW217676   3.428   3.075   7.201
 5645SOL     OW17677   2.238   3.603   7.151
 5645SOL    HW117678   2.153   3.644   7.134
 5645SOL    HW217679   2.216   3.518   7.191
 5646SOL     OW17680   3.527   2.742   6.844
 5646SOL    HW117681   3.526   2.657   6.801
 5646SOL    HW217682   3.521   2.806   6.773
 5647SOL     OW17683   3.102   2.191   6.034
 5647SOL    HW117684   3.159   2.113   6.032
 5647SOL    HW217685   3.125   2.235   6.115
 5648SOL     OW17686   3.621   2.227   7.236
 5648SOL    HW117687   3.603   2.241   7.143
 5648SOL    HW217688   3.551   2.169   7.265
 5649SOL     OW17689   3.617   2.791   7.099
 5649SOL    HW117690   3.609   2.885   7.116
 5649SOL    HW217691   3.594   2.781   7.007
 5650SOL     OW17692   2.725   3.229   5.624
 5650SOL    HW117693   2.685   3.257   5.706
 5650SOL    HW217694   2.741   3.311   5.576
 5651SOL     OW17695   2.522   3.652   6.527
 5651SOL    HW117696   2.501   3.742   6.505
 5651SOL    HW217697   2.618   3.647   6.521
 5652SOL     OW17698   2.723   2.827   6.440
 5652SOL    HW117699   2.772   2.756   6.481
 5652SOL    HW217700   2.691   2.879   6.514
 5653SOL     OW17701   2.939   2.849   5.673
 5653SOL    HW117702   2.920   2.901   5.595
 5653SOL    HW217703   3.014   2.796   5.649
 5654SOL     OW17704   3.713   3.417   6.426
 5654SOL    HW117705   3.633   3.397   6.377
 5654SOL    HW217706   3.715   3.349   6.495
 5655SOL     OW17707   2.088   3.164   7.447
 5655SOL    HW117708   2.002   3.129   7.424
 5655SOL    HW217709   2.083   3.179   7.541
 5656SOL     OW17710   1.947   3.105   6.249
 5656SOL    HW117711   1.919   3.057   6.326
 5656SOL    HW217712   2.008   3.047   6.204
 5657SOL     OW17713   2.544   3.267   7.214
 5657SOL    HW117714   2.465   3.225   7.247
 5657SOL    HW217715   2.542   3.355   7.251
 5658SOL     OW17716   3.674   2.041   6.824
 5658SOL    HW117717   3.667   1.945   6.828
 5658SOL    HW217718   3.689   2.061   6.732
 5659SOL     OW17719   3.558   3.352   6.683
 5659SOL    HW117720   3.480   3.327   6.634
 5659SOL    HW217721   3.571   3.281   6.746
 5660SOL     OW17722   2.204   2.408   6.874
 5660SOL    HW117723   2.230   2.326   6.917
 5660SOL    HW217724   2.228   2.395   6.782
 5661SOL     OW17725   2.691   3.442   6.262
 5661SOL    HW117726   2.672   3.492   6.183
 5661SOL    HW217727   2.618   3.381   6.271
 5662SOL     OW17728   3.302   2.090   6.705
 5662SOL    HW117729   3.319   2.006   6.747
 5662SOL    HW217730   3.249   2.138   6.769
 5663SOL     OW17731   2.906   1.871   6.750
 5663SOL    HW117732   2.843   1.798   6.747
 5663SOL    HW217733   2.991   1.830   6.738
 5664SOL     OW17734   2.635   3.193   5.904
 5664SOL    HW117735   2.605   3.103   5.911
 5664SOL    HW217736   2.717   3.195   5.953
 5665SOL     OW17737   2.482   3.416   6.871
 5665SOL    HW117738   2.483   3.498   6.921
 5665SOL    HW217739   2.570   3.410   6.834
 5666SOL     OW17740   3.216   1.915   5.753
 5666SOL    HW117741   3.246   1.848   5.692
 5666SOL    HW217742   3.128   1.888   5.778
 5667SOL     OW17743   3.157   2.323   6.267
 5667SOL    HW117744   3.105   2.403   6.273
 5667SOL    HW217745   3.160   2.289   6.356
 5668SOL     OW17746   3.444   2.059   6.462
 5668SOL    HW117747   3.392   2.083   6.538
 5668SOL    HW217748   3.445   2.138   6.408
 5669SOL     OW17749   1.904   2.924   5.890
 5669SOL    HW117750   2.000   2.921   5.886
 5669SOL    HW217751   1.878   2.832   5.894
 5670SOL     OW17752   2.748   3.520   5.929
 5670SOL    HW117753   2.677   3.501   5.868
 5670SOL    HW217754   2.717   3.596   5.979
 5671SOL     OW17755   1.848   2.266   8.066
 5671SOL    HW117756   1.760   2.266   8.104
 5671SOL    HW217757   1.852   2.187   8.014
 5672SOL     OW17758   2.429   3.153   8.625
 5672SOL    HW117759   2.341   3.159   8.586
 5672SOL    HW217760   2.446   3.241   8.660
 5673SOL     OW17761   3.425   3.374   8.156
 5673SOL    HW117762   3.383   3.352   8.239
 5673SOL    HW217763   3.353   3.377   8.093
 5674SOL     OW17764   2.992   2.563   8.147
 5674SOL    HW117765   3.043   2.643   8.135
 5674SOL    HW217766   2.946   2.575   8.230
 5675SOL     OW17767   3.627   2.468   7.678
 5675SOL    HW117768   3.609   2.461   7.584
 5675SOL    HW217769   3.594   2.387   7.716
 5676SOL     OW17770   2.611   3.002   8.490
 5676SOL    HW117771   2.544   3.038   8.547
 5676SOL    HW217772   2.650   3.078   8.447
 5677SOL     OW17773   2.730   2.632   9.270
 5677SOL    HW117774   2.721   2.703   9.334
 5677SOL    HW217775   2.754   2.676   9.189
 5678SOL     OW17776   2.543   2.856   8.099
 5678SOL    HW117777   2.612   2.849   8.166
 5678SOL    HW217778   2.478   2.914   8.138
 5679SOL     OW17779   2.574   3.013   9.262
 5679SOL    HW117780   2.622   3.091   9.291
 5679SOL    HW217781   2.493   3.047   9.225
 5680SOL     OW17782   2.194   3.283   8.515
 5680SOL    HW117783   2.119   3.248   8.467
 5680SOL    HW217784   2.241   3.336   8.451
 5681SOL     OW17785   3.321   3.363   8.804
 5681SOL    HW117786   3.375   3.441   8.814
 5681SOL    HW217787   3.256   3.369   8.875
 5682SOL     OW17788   3.472   2.308   8.191
 5682SOL    HW117789   3.400   2.330   8.133
 5682SOL    HW217790   3.487   2.387   8.244
 5683SOL     OW17791   2.084   3.577   7.927
 5683SOL    HW117792   2.113   3.638   7.994
 5683SOL    HW217793   2.156   3.575   7.863
 5684SOL     OW17794   2.999   3.204   9.142
 5684SOL    HW117795   3.040   3.197   9.228
 5684SOL    HW217796   2.947   3.124   9.134
 5685SOL     OW17797   2.091   3.303   7.981
 5685SOL    HW117798   2.076   3.397   7.985
 5685SOL    HW217799   2.032   3.267   8.047
 5686SOL     OW17800   2.121   2.956   8.337
 5686SOL    HW117801   2.119   2.869   8.377
 5686SOL    HW217802   2.064   3.010   8.393
 5687SOL     OW17803   2.471   3.648   8.876
 5687SOL    HW117804   2.389   3.633   8.924
 5687SOL    HW217805   2.497   3.737   8.901
 5688SOL     OW17806   2.477   2.851   7.586
 5688SOL    HW117807   2.521   2.910   7.525
 5688SOL    HW217808   2.512   2.876   7.672
 5689SOL     OW17809   3.457   1.987   8.914
 5689SOL    HW117810   3.470   2.069   8.866
 5689SOL    HW217811   3.442   2.015   9.004
 5690SOL     OW17812   2.039   2.464   8.098
 5690SOL    HW117813   1.972   2.398   8.081
 5690SOL    HW217814   1.989   2.543   8.122
 5691SOL     OW17815   3.700   3.613   7.790
 5691SOL    HW117816   3.771   3.588   7.849
 5691SOL    HW217817   3.719   3.704   7.766
 5692SOL     OW17818   1.895   3.451   7.571
 5692SOL    HW117819   1.873   3.361   7.593
 5692SOL    HW217820   1.872   3.501   7.650
 5693SOL     OW17821   3.550   2.781   8.094
 5693SOL    HW117822   3.633   2.737   8.075
 5693SOL    HW217823   3.531   2.830   8.014
 5694SOL     OW17824   3.503   2.967   7.880
 5694SOL    HW117825   3.588   2.971   7.836
 5694SOL    HW217826   3.510   3.029   7.952
 5695SOL     OW17827   1.986   2.594   9.038
 5695SOL    HW117828   2.079   2.615   9.052
 5695SOL    HW217829   1.941   2.678   9.050
 5696SOL     OW17830   2.477   3.251   8.183
 5696SOL    HW117831   2.431   3.168   8.192
 5696SOL    HW217832   2.460   3.278   8.092
 5697SOL     OW17833   3.149   3.099   8.871
 5697SOL    HW117834   3.182   3.032   8.810
 5697SOL    HW217835   3.208   3.094   8.946
 5698SOL     OW17836   2.689   1.866   8.008
 5698SOL    HW117837   2.727   1.931   7.949
 5698SOL    HW217838   2.594   1.880   8.000
 5699SOL     OW17839   2.052   2.829   8.721
 5699SOL    HW117840   2.136   2.786   8.704
 5699SOL    HW217841   1.988   2.775   8.676
 5700SOL     OW17842   3.391   2.858   7.648
 5700SOL    HW117843   3.322   2.801   7.680
 5700SOL    HW217844   3.433   2.893   7.727
 5701SOL     OW17845   3.079   3.666   9.075
 5701SOL    HW117846   3.056   3.726   9.005
 5701SOL    HW217847   3.080   3.580   9.033
 5702SOL     OW17848   3.327   3.283   8.397
 5702SOL    HW117849   3.260   3.297   8.464
 5702SOL    HW217850   3.316   3.191   8.372
 5703SOL     OW17851   3.510   3.606   8.028
 5703SOL    HW117852   3.501   3.572   7.939
 5703SOL    HW217853   3.493   3.530   8.085
 5704SOL     OW17854   3.139   2.219   8.382
 5704SOL    HW117855   3.051   2.183   8.390
 5704SOL    HW217856   3.192   2.166   8.441
 5705SOL     OW17857   3.436   3.538   7.756
 5705SOL    HW117858   3.529   3.562   7.752
 5705SOL    HW217859   3.412   3.518   7.666
 5706SOL     OW17860   2.655   2.478   8.897
 5706SOL    HW117861   2.632   2.456   8.987
 5706SOL    HW217862   2.607   2.415   8.843
 5707SOL     OW17863   3.256   2.336   9.126
 5707SOL    HW117864   3.259   2.380   9.211
 5707SOL    HW217865   3.314   2.261   9.136
 5708SOL     OW17866   2.814   2.748   9.032
 5708SOL    HW117867   2.870   2.680   8.995
 5708SOL    HW217868   2.767   2.784   8.956
 5709SOL     OW17869   2.860   2.277   8.685
 5709SOL    HW117870   2.776   2.296   8.727
 5709SOL    HW217871   2.836   2.230   8.605
 5710SOL     OW17872   2.914   2.560   7.879
 5710SOL    HW117873   2.941   2.559   7.971
 5710SOL    HW217874   2.829   2.517   7.879
 5711SOL     OW17875   1.941   2.697   8.223
 5711SOL    HW117876   2.026   2.688   8.266
 5711SOL    HW217877   1.900   2.773   8.265
 5712SOL     OW17878   1.983   3.706   9.024
 5712SOL    HW117879   1.986   3.686   9.118
 5712SOL    HW217880   1.890   3.706   9.002
 5713SOL     OW17881   3.571   2.436   9.277
 5713SOL    HW117882   3.533   2.509   9.228
 5713SOL    HW217883   3.596   2.373   9.209
 5714SOL     OW17884   3.238   3.004   7.988
 5714SOL    HW117885   3.318   2.990   7.937
 5714SOL    HW217886   3.187   3.066   7.937
 5715SOL     OW17887   2.442   2.061   8.359
 5715SOL    HW117888   2.347   2.071   8.372
 5715SOL    HW217889   2.468   2.140   8.313
 5716SOL     OW17890   2.866   3.307   7.919
 5716SOL    HW117891   2.829   3.381   7.870
 5716SOL    HW217892   2.847   3.326   8.010
 5717SOL     OW17893   2.213   3.673   8.287
 5717SOL    HW117894   2.264   3.594   8.306
 5717SOL    HW217895   2.272   3.745   8.310
 5718SOL     OW17896   3.667   2.923   8.315
 5718SOL    HW117897   3.614   2.897   8.240
 5718SOL    HW217898   3.605   2.926   8.388
 5719SOL     OW17899   3.089   3.399   8.960
 5719SOL    HW117900   3.076   3.327   9.021
 5719SOL    HW217901   3.023   3.386   8.893
 5720SOL     OW17902   3.340   2.609   8.175
 5720SOL    HW117903   3.336   2.565   8.260
 5720SOL    HW217904   3.420   2.662   8.180
 5721SOL     OW17905   2.329   3.127   9.185
 5721SOL    HW117906   2.302   3.132   9.093
 5721SOL    HW217907   2.247   3.125   9.234
 5722SOL     OW17908   2.976   3.643   7.670
 5722SOL    HW117909   2.912   3.597   7.724
 5722SOL    HW217910   3.006   3.578   7.607
 5723SOL     OW17911   3.486   3.247   7.537
 5723SOL    HW117912   3.443   3.330   7.519
 5723SOL    HW217913   3.420   3.181   7.517
 5724SOL     OW17914   2.330   3.596   7.774
 5724SOL    HW117915   2.367   3.662   7.833
 5724SOL    HW217916   2.403   3.573   7.716
 5725SOL     OW17917   3.265   1.967   7.885
 5725SOL    HW117918   3.256   1.944   7.792
 5725SOL    HW217919   3.359   1.973   7.899
 5726SOL     OW17920   2.122   3.654   8.672
 5726SOL    HW117921   2.169   3.584   8.718
 5726SOL    HW217922   2.107   3.619   8.584
 5727SOL     OW17923   2.800   3.563   8.348
 5727SOL    HW117924   2.878   3.511   8.369
 5727SOL    HW217925   2.756   3.513   8.279
 5728SOL     OW17926   3.395   2.087   9.173
 5728SOL    HW117927   3.405   2.107   9.266
 5728SOL    HW217928   3.327   2.020   9.170
 5729SOL     OW17929   2.628   2.145   9.203
 5729SOL    HW117930   2.704   2.088   9.200
 5729SOL    HW217931   2.577   2.113   9.278
 5730SOL     OW17932   2.738   3.382   8.643
 5730SOL    HW117933   2.722   3.347   8.555
 5730SOL    HW217934   2.808   3.328   8.678
 5731SOL     OW17935   3.202   2.452   8.881
 5731SOL    HW117936   3.233   2.420   8.966
 5731SOL    HW217937   3.239   2.540   8.873
 5732SOL     OW17938   2.679   3.254   8.390
 5732SOL    HW117939   2.763   3.243   8.347
 5732SOL    HW217940   2.615   3.258   8.319
 5733SOL     OW17941   2.790   2.369   8.359
 5733SOL    HW117942   2.765   2.365   8.267
 5733SOL    HW217943   2.824   2.282   8.379
 5734SOL     OW17944   2.423   1.923   7.973
 5734SOL    HW117945   2.351   1.864   7.994
 5734SOL    HW217946   2.381   2.003   7.942
 5735SOL     OW17947   3.290   3.061   7.488
 5735SOL    HW117948   3.321   2.986   7.538
 5735SOL    HW217949   3.204   3.080   7.525
 5736SOL     OW17950   2.829   2.140   7.947
 5736SOL    HW117951   2.803   2.101   7.864
 5736SOL    HW217952   2.923   2.152   7.939
 5737SOL     OW17953   2.943   2.545   8.907
 5737SOL    HW117954   2.878   2.476   8.914
 5737SOL    HW217955   3.027   2.498   8.901
 5738SOL     OW17956   3.082   3.433   8.242
 5738SOL    HW117957   3.099   3.500   8.176
 5738SOL    HW217958   3.153   3.444   8.306
 5739SOL     OW17959   2.330   3.015   8.178
 5739SOL    HW117960   2.264   2.997   8.244
 5739SOL    HW217961   2.285   3.002   8.095
 5740SOL     OW17962   3.128   3.657   8.056
 5740SOL    HW117963   3.174   3.721   8.002
 5740SOL    HW217964   3.056   3.706   8.095
 5741SOL     OW17965   2.926   2.435   7.448
 5741SOL    HW117966   2.874   2.515   7.447
 5741SOL    HW217967   2.963   2.432   7.536
 5742SOL     OW17968   1.938   2.425   8.832
 5742SOL    HW117969   2.031   2.418   8.813
 5742SOL    HW217970   1.933   2.484   8.907
 5743SOL     OW17971   2.722   2.336   8.100
 5743SOL    HW117972   2.656   2.373   8.042
 5743SOL    HW217973   2.759   2.263   8.051
 5744SOL     OW17974   2.880   1.914   8.204
 5744SOL    HW117975   2.817   1.910   8.132
 5744SOL    HW217976   2.858   1.839   8.259
 5745SOL     OW17977   3.301   3.024   8.305
 5745SOL    HW117978   3.231   2.959   8.303
 5745SOL    HW217979   3.328   3.033   8.214
 5746SOL     OW17980   3.327   2.470   8.422
 5746SOL    HW117981   3.276   2.389   8.424
 5746SOL    HW217982   3.386   2.463   8.497
 5747SOL     OW17983   3.723   2.679   7.823
 5747SOL    HW117984   3.767   2.623   7.887
 5747SOL    HW217985   3.685   2.618   7.759
 5748SOL     OW17986   2.352   3.282   7.602
 5748SOL    HW117987   2.276   3.253   7.653
 5748SOL    HW217988   2.344   3.235   7.519
 5749SOL     OW17989   3.529   3.127   8.093
 5749SOL    HW117990   3.624   3.129   8.102
 5749SOL    HW217991   3.501   3.216   8.113
 5750SOL     OW17992   3.258   2.434   7.518
 5750SOL    HW117993   3.193   2.414   7.586
 5750SOL    HW217994   3.340   2.399   7.553
 5751SOL     OW17995   3.613   3.097   9.015
 5751SOL    HW117996   3.700   3.061   8.997
 5751SOL    HW217997   3.630   3.186   9.044
 5752SOL     OW17998   2.919   3.214   8.780
 5752SOL    HW117999   2.844   3.184   8.831
 5752SOL    HW218000   2.995   3.173   8.822
 5753SOL     OW18001   3.469   3.491   9.104
 5753SOL    HW118002   3.459   3.524   9.015
 5753SOL    HW218003   3.549   3.440   9.103
 5754SOL     OW18004   2.992   3.067   8.551
 5754SOL    HW118005   2.934   3.106   8.617
 5754SOL    HW218006   2.961   3.102   8.468
 5755SOL     OW18007   3.491   2.958   8.523
 5755SOL    HW118008   3.482   3.019   8.596
 5755SOL    HW218009   3.413   2.974   8.469
 5756SOL     OW18010   2.788   1.955   8.843
 5756SOL    HW118011   2.809   1.936   8.751
 5756SOL    HW218012   2.868   1.994   8.878
 5757SOL     OW18013   2.846   2.977   9.170
 5757SOL    HW118014   2.754   2.993   9.193
 5757SOL    HW218015   2.844   2.898   9.116
 5758SOL     OW18016   2.581   2.929   7.832
 5758SOL    HW118017   2.567   2.905   7.924
 5758SOL    HW218018   2.654   2.875   7.804
 5759SOL     OW18019   2.281   2.675   8.700
 5759SOL    HW118020   2.349   2.688   8.765
 5759SOL    HW218021   2.243   2.589   8.722
 5760SOL     OW18022   3.129   2.238   8.726
 5760SOL    HW118023   3.161   2.316   8.772
 5760SOL    HW218024   3.039   2.260   8.702
 5761SOL     OW18025   1.934   3.435   8.801
 5761SOL    HW118026   1.906   3.511   8.750
 5761SOL    HW218027   2.029   3.437   8.797
 5762SOL     OW18028   2.203   2.976   7.933
 5762SOL    HW118029   2.219   3.049   7.874
 5762SOL    HW218030   2.250   2.903   7.893
 5763SOL     OW18031   2.411   2.388   8.309
 5763SOL    HW118032   2.421   2.451   8.238
 5763SOL    HW218033   2.469   2.421   8.378
 5764SOL     OW18034   3.110   3.211   7.837
 5764SOL    HW118035   3.166   3.282   7.869
 5764SOL    HW218036   3.023   3.232   7.871
 5765SOL     OW18037   3.146   3.321   8.596
 5765SOL    HW118038   3.203   3.326   8.673
 5765SOL    HW218039   3.091   3.245   8.611
 5766SOL     OW18040   3.441   2.482   7.931
 5766SOL    HW118041   3.393   2.537   7.993
 5766SOL    HW218042   3.483   2.544   7.871
 5767SOL     OW18043   2.207   3.391   8.760
 5767SOL    HW118044   2.196   3.347   8.676
 5767SOL    HW218045   2.302   3.402   8.769
 5768SOL     OW18046   2.283   2.605   9.056
 5768SOL    HW118047   2.341   2.649   8.994
 5768SOL    HW218048   2.333   2.529   9.086
 5769SOL     OW18049   3.466   2.641   9.131
 5769SOL    HW118050   3.380   2.683   9.125
 5769SOL    HW218051   3.518   2.684   9.063
 5770SOL     OW18052   2.856   1.989   9.197
 5770SOL    HW118053   2.915   2.061   9.176
 5770SOL    HW218054   2.905   1.910   9.174
 5771SOL     OW18055   2.360   1.900   9.210
 5771SOL    HW118056   2.312   1.850   9.144
 5771SOL    HW218057   2.299   1.968   9.238
 5772SOL     OW18058   2.447   2.737   8.479
 5772SOL    HW118059   2.483   2.826   8.480
 5772SOL    HW218060   2.391   2.732   8.557
 5773SOL     OW18061   3.217   2.721   8.475
 5773SOL    HW118062   3.133   2.709   8.429
 5773SOL    HW218063   3.260   2.636   8.468
 5774SOL     OW18064   3.065   2.392   7.712
 5774SOL    HW118065   3.077   2.313   7.765
 5774SOL    HW218066   3.024   2.455   7.772
 5775SOL     OW18067   1.909   3.173   8.724
 5775SOL    HW118068   1.941   3.119   8.796
 5775SOL    HW218069   1.915   3.263   8.757
 5776SOL     OW18070   2.581   2.488   8.504
 5776SOL    HW118071   2.659   2.470   8.451
 5776SOL    HW218072   2.559   2.579   8.484
 5777SOL     OW18073   3.593   2.822   9.308
 5777SOL    HW118074   3.552   2.757   9.250
 5777SOL    HW218075   3.529   2.834   9.379
 5778SOL     OW18076   3.481   2.238   7.813
 5778SOL    HW118077   3.508   2.173   7.878
 5778SOL    HW218078   3.458   2.315   7.865
 5779SOL     OW18079   2.889   2.621   8.408
 5779SOL    HW118080   2.885   2.639   8.501
 5779SOL    HW218081   2.864   2.528   8.400
 5780SOL     OW18082   2.847   3.430   9.168
 5780SOL    HW118083   2.828   3.471   9.084
 5780SOL    HW218084   2.889   3.347   9.145
 5781SOL     OW18085   3.705   3.362   9.046
 5781SOL    HW118086   3.729   3.391   8.958
 5781SOL    HW218087   3.785   3.372   9.097
 5782SOL     OW18088   2.215   2.777   9.259
 5782SOL    HW118089   2.297   2.800   9.303
 5782SOL    HW218090   2.241   2.718   9.189
 5783SOL     OW18091   3.392   2.135   7.575
 5783SOL    HW118092   3.326   2.071   7.601
 5783SOL    HW218093   3.425   2.171   7.658
 5784SOL     OW18094   3.153   2.689   7.479
 5784SOL    HW118095   3.192   2.601   7.481
 5784SOL    HW218096   3.184   2.727   7.398
 5785SOL     OW18097   2.929   3.199   8.303
 5785SOL    HW118098   2.933   3.126   8.240
 5785SOL    HW218099   2.989   3.264   8.268
 5786SOL     OW18100   2.173   2.683   8.391
 5786SOL    HW118101   2.265   2.706   8.384
 5786SOL    HW218102   2.173   2.591   8.417
 5787SOL     OW18103   2.996   2.238   9.130
 5787SOL    HW118104   2.948   2.291   9.193
 5787SOL    HW218105   3.083   2.277   9.127
 5788SOL     OW18106   3.026   2.064   8.918
 5788SOL    HW118107   3.013   2.126   8.990
 5788SOL    HW218108   3.068   2.115   8.849
 5789SOL     OW18109   1.864   3.176   7.641
 5789SOL    HW118110   1.778   3.196   7.605
 5789SOL    HW218111   1.856   3.087   7.675
 5790SOL     OW18112   1.958   3.641   8.386
 5790SOL    HW118113   1.928   3.562   8.340
 5790SOL    HW218114   2.043   3.659   8.346
 5791SOL     OW18115   2.356   3.438   8.354
 5791SOL    HW118116   2.423   3.501   8.378
 5791SOL    HW218117   2.402   3.375   8.297
 5792SOL     OW18118   2.841   2.653   8.674
 5792SOL    HW118119   2.902   2.632   8.745
 5792SOL    HW218120   2.757   2.616   8.702
 5793SOL     OW18121   1.886   2.398   8.565
 5793SOL    HW118122   1.966   2.398   8.512
 5793SOL    HW218123   1.916   2.413   8.654
 5794SOL     OW18124   3.241   2.799   9.106
 5794SOL    HW118125   3.262   2.892   9.103
 5794SOL    HW218126   3.237   2.773   9.014
 5795SOL     OW18127   3.502   2.464   8.632
 5795SOL    HW118128   3.491   2.403   8.705
 5795SOL    HW218129   3.588   2.442   8.596
 5796SOL     OW18130   2.105   3.411   9.173
 5796SOL    HW118131   2.082   3.478   9.238
 5796SOL    HW218132   2.107   3.330   9.223
 5797SOL     OW18133   2.534   2.322   8.712
 5797SOL    HW118134   2.522   2.234   8.677
 5797SOL    HW218135   2.548   2.377   8.635
 5798SOL     OW18136   2.789   3.534   8.917
 5798SOL    HW118137   2.763   3.496   8.833
 5798SOL    HW218138   2.781   3.629   8.905
 5799SOL     OW18139   2.006   3.004   8.922
 5799SOL    HW118140   2.007   2.953   9.003
 5799SOL    HW218141   2.024   2.940   8.853
 5800SOL     OW18142   3.184   2.907   8.670
 5800SOL    HW118143   3.208   2.844   8.602
 5800SOL    HW218144   3.116   2.961   8.630
 5801SOL     OW18145   3.176   2.718   7.754
 5801SOL    HW118146   3.099   2.689   7.803
 5801SOL    HW218147   3.153   2.705   7.662
 5802SOL     OW18148   3.638   3.603   8.602
 5802SOL    HW118149   3.697   3.630   8.531
 5802SOL    HW218150   3.611   3.514   8.580
 5803SOL     OW18151   3.106   3.595   8.558
 5803SOL    HW118152   3.188   3.617   8.515
 5803SOL    HW218153   3.112   3.502   8.577
 5804SOL     OW18154   1.947   3.129   8.460
 5804SOL    HW118155   1.932   3.143   8.554
 5804SOL    HW218156   1.873   3.076   8.431
 5805SOL     OW18157   2.540   3.526   9.180
 5805SOL    HW118158   2.484   3.603   9.184
 5805SOL    HW218159   2.601   3.545   9.108
 5806SOL     OW18160   3.573   2.012   7.960
 5806SOL    HW118161   3.641   1.999   7.894
 5806SOL    HW218162   3.562   1.925   8.000
 5807SOL     OW18163   3.252   3.431   7.935
 5807SOL    HW118164   3.311   3.464   7.868
 5807SOL    HW218165   3.204   3.508   7.965
 5808SOL     OW18166   1.996   3.652   9.287
 5808SOL    HW118167   1.944   3.588   9.336
 5808SOL    HW218168   2.045   3.700   9.354
 5809SOL     OW18169   3.139   2.789   8.120
 5809SOL    HW118170   3.213   2.729   8.129
 5809SOL    HW218171   3.173   2.861   8.066
 5810SOL     OW18172   2.673   3.136   8.876
 5810SOL    HW118173   2.645   3.175   8.959
 5810SOL    HW218174   2.604   3.159   8.814
 5811SOL     OW18175   2.537   3.480   7.605
 5811SOL    HW118176   2.547   3.497   7.512
 5811SOL    HW218177   2.478   3.405   7.610
 5812SOL     OW18178   3.482   3.588   8.838
 5812SOL    HW118179   3.537   3.592   8.760
 5812SOL    HW218180   3.469   3.680   8.863
 5813SOL     OW18181   3.700   2.043   8.415
 5813SOL    HW118182   3.731   1.956   8.390
 5813SOL    HW218183   3.614   2.051   8.374
 5814SOL     OW18184   3.069   3.466   7.484
 5814SOL    HW118185   3.059   3.374   7.508
 5814SOL    HW218186   3.009   3.479   7.411
 5815SOL     OW18187   2.685   2.868   8.820
 5815SOL    HW118188   2.732   2.864   8.737
 5815SOL    HW218189   2.684   2.961   8.842
 5816SOL     OW18190   2.786   2.779   7.745
 5816SOL    HW118191   2.842   2.810   7.674
 5816SOL    HW218192   2.835   2.707   7.785
 5817SOL     OW18193   3.350   3.494   7.490
 5817SOL    HW118194   3.257   3.481   7.474
 5817SOL    HW218195   3.389   3.498   7.403
 5818SOL     OW18196   2.231   3.165   8.939
 5818SOL    HW118197   2.217   3.242   8.884
 5818SOL    HW218198   2.153   3.111   8.924
 5819SOL     OW18199   3.463   3.141   8.726
 5819SOL    HW118200   3.532   3.134   8.791
 5819SOL    HW218201   3.406   3.211   8.758
 5820SOL     OW18202   2.917   2.970   8.156
 5820SOL    HW118203   2.846   2.918   8.194
 5820SOL    HW218204   2.981   2.906   8.126
 5821SOL     OW18205   2.883   2.103   8.414
 5821SOL    HW118206   2.879   2.056   8.331
 5821SOL    HW218207   2.879   2.034   8.481
 5822SOL     OW18208   2.464   3.350   7.928
 5822SOL    HW118209   2.512   3.301   7.861
 5822SOL    HW218210   2.399   3.401   7.879
 5823SOL     OW18211   3.586   2.252   8.827
 5823SOL    HW118212   3.658   2.315   8.823
 5823SOL    HW218213   3.614   2.180   8.770
 5824SOL     OW18214   2.119   3.201   7.735
 5824SOL    HW118215   2.026   3.202   7.713
 5824SOL    HW218216   2.123   3.241   7.822
 5825SOL     OW18217   1.975   2.885   9.168
 5825SOL    HW118218   1.898   2.862   9.220
 5825SOL    HW218219   2.049   2.847   9.216
 5826SOL     OW18220   2.548   2.044   8.943
 5826SOL    HW118221   2.636   2.022   8.910
 5826SOL    HW218222   2.564   2.087   9.027
 5827SOL     OW18223   1.861   2.243   7.463
 5827SOL    HW118224   1.814   2.206   7.388
 5827SOL    HW218225   1.916   2.312   7.425
 5828SOL     OW18226   3.289   2.721   8.847
 5828SOL    HW118227   3.239   2.782   8.793
 5828SOL    HW218228   3.377   2.722   8.811
 5829SOL     OW18229   3.040   3.200   7.565
 5829SOL    HW118230   2.950   3.166   7.567
 5829SOL    HW218231   3.068   3.199   7.657
 5830SOL     OW18232   2.482   2.692   8.880
 5830SOL    HW118233   2.537   2.769   8.867
 5830SOL    HW218234   2.543   2.619   8.890
 5831SOL     OW18235   3.347   3.643   8.430
 5831SOL    HW118236   3.371   3.697   8.355
 5831SOL    HW218237   3.430   3.613   8.466
 5832SOL     OW18238   2.575   2.425   9.149
 5832SOL    HW118239   2.620   2.484   9.210
 5832SOL    HW218240   2.596   2.337   9.181
 5833SOL     OW18241   3.335   3.060   9.079
 5833SOL    HW118242   3.324   3.074   9.173
 5833SOL    HW218243   3.428   3.075   9.062
 5834SOL     OW18244   2.238   3.602   9.013
 5834SOL    HW118245   2.153   3.644   8.997
 5834SOL    HW218246   2.216   3.518   9.054
 5835SOL     OW18247   3.527   2.742   8.707
 5835SOL    HW118248   3.526   2.657   8.664
 5835SOL    HW218249   3.521   2.805   8.635
 5836SOL     OW18250   3.095   2.187   7.905
 5836SOL    HW118251   3.153   2.112   7.898
 5836SOL    HW218252   3.125   2.234   7.983
 5837SOL     OW18253   2.449   2.591   8.118
 5837SOL    HW118254   2.493   2.675   8.107
 5837SOL    HW218255   2.376   2.593   8.057
 5838SOL     OW18256   3.621   2.228   9.098
 5838SOL    HW118257   3.604   2.241   9.005
 5838SOL    HW218258   3.551   2.169   9.127
 5839SOL     OW18259   3.618   2.791   8.961
 5839SOL    HW118260   3.609   2.884   8.978
 5839SOL    HW218261   3.594   2.781   8.869
 5840SOL     OW18262   2.724   3.233   7.485
 5840SOL    HW118263   2.686   3.262   7.568
 5840SOL    HW218264   2.743   3.314   7.438
 5841SOL     OW18265   2.522   3.651   8.388
 5841SOL    HW118266   2.501   3.742   8.367
 5841SOL    HW218267   2.618   3.647   8.383
 5842SOL     OW18268   2.730   2.829   8.303
 5842SOL    HW118269   2.781   2.758   8.341
 5842SOL    HW218270   2.695   2.877   8.378
 5843SOL     OW18271   2.947   2.860   7.542
 5843SOL    HW118272   2.920   2.904   7.461
 5843SOL    HW218273   3.017   2.800   7.515
 5844SOL     OW18274   3.713   3.417   8.289
 5844SOL    HW118275   3.634   3.397   8.238
 5844SOL    HW218276   3.716   3.349   8.356
 5845SOL     OW18277   2.088   3.163   9.304
 5845SOL    HW118278   2.021   3.103   9.273
 5845SOL    HW218279   2.068   3.176   9.396
 5846SOL     OW18280   1.949   3.092   8.112
 5846SOL    HW118281   1.952   3.047   8.197
 5846SOL    HW218282   2.021   3.054   8.062
 5847SOL     OW18283   2.545   3.266   9.077
 5847SOL    HW118284   2.465   3.224   9.109
 5847SOL    HW218285   2.542   3.354   9.114
 5848SOL     OW18286   3.675   2.040   8.687
 5848SOL    HW118287   3.667   1.945   8.690
 5848SOL    HW218288   3.689   2.061   8.594
 5849SOL     OW18289   3.558   3.352   8.545
 5849SOL    HW118290   3.479   3.327   8.496
 5849SOL    HW218291   3.571   3.281   8.608
 5850SOL     OW18292   2.200   2.409   8.734
 5850SOL    HW118293   2.201   2.330   8.788
 5850SOL    HW218294   2.271   2.396   8.671
 5851SOL     OW18295   2.690   3.441   8.125
 5851SOL    HW118296   2.674   3.493   8.046
 5851SOL    HW218297   2.615   3.381   8.130
 5852SOL     OW18298   3.293   2.089   8.565
 5852SOL    HW118299   3.315   2.006   8.608
 5852SOL    HW218300   3.243   2.138   8.630
 5853SOL     OW18301   2.872   1.880   8.587
 5853SOL    HW118302   2.817   1.814   8.546
 5853SOL    HW218303   2.960   1.841   8.589
 5854SOL     OW18304   2.635   3.196   7.768
 5854SOL    HW118305   2.607   3.105   7.776
 5854SOL    HW218306   2.719   3.200   7.813
 5855SOL     OW18307   2.482   3.415   8.733
 5855SOL    HW118308   2.483   3.497   8.783
 5855SOL    HW218309   2.570   3.409   8.696
 5856SOL     OW18310   3.218   1.920   7.615
 5856SOL    HW118311   3.242   1.857   7.547
 5856SOL    HW218312   3.127   1.897   7.637
 5857SOL     OW18313   3.161   2.326   8.131
 5857SOL    HW118314   3.107   2.405   8.137
 5857SOL    HW218315   3.155   2.286   8.218
 5858SOL     OW18316   3.444   2.061   8.326
 5858SOL    HW118317   3.387   2.084   8.399
 5858SOL    HW218318   3.445   2.139   8.270
 5859SOL     OW18319   1.895   2.926   7.761
 5859SOL    HW118320   1.987   2.937   7.784
 5859SOL    HW218321   1.879   2.832   7.771
 5860SOL     OW18322   2.747   3.520   7.792
 5860SOL    HW118323   2.677   3.502   7.730
 5860SOL    HW218324   2.716   3.596   7.841
 5861SOL     OW18325   2.088   2.505   9.442
 5861SOL    HW118326   2.002   2.483   9.478
 5861SOL    HW218327   2.080   2.489   9.348
 5862SOL     OW18328   1.857   2.278   9.927
 5862SOL    HW118329   1.770   2.276   9.968
 5862SOL    HW218330   1.862   2.197   9.878
 5863SOL     OW18331   2.429   3.153  10.487
 5863SOL    HW118332   2.342   3.159  10.447
 5863SOL    HW218333   2.445   3.241  10.521
 5864SOL     OW18334   3.425   3.374  10.018
 5864SOL    HW118335   3.383   3.352  10.101
 5864SOL    HW218336   3.353   3.377   9.955
 5865SOL     OW18337   2.991   2.561  10.009
 5865SOL    HW118338   3.041   2.641   9.995
 5865SOL    HW218339   2.946   2.575  10.092
 5866SOL     OW18340   3.628   2.468   9.539
 5866SOL    HW118341   3.609   2.460   9.446
 5866SOL    HW218342   3.594   2.388   9.578
 5867SOL     OW18343   2.612   3.002  10.353
 5867SOL    HW118344   2.545   3.038  10.410
 5867SOL    HW218345   2.650   3.078  10.309
 5868SOL     OW18346   2.730   2.632  11.133
 5868SOL    HW118347   2.721   2.703  11.196
 5868SOL    HW218348   2.754   2.676  11.051
 5869SOL     OW18349   2.547   2.860   9.956
 5869SOL    HW118350   2.613   2.852  10.024
 5869SOL    HW218351   2.479   2.915   9.995
 5870SOL     OW18352   2.574   3.013  11.124
 5870SOL    HW118353   2.622   3.091  11.153
 5870SOL    HW218354   2.493   3.047  11.087
 5871SOL     OW18355   2.194   3.283  10.377
 5871SOL    HW118356   2.119   3.247  10.328
 5871SOL    HW218357   2.241   3.336  10.312
 5872SOL     OW18358   3.321   3.363  10.666
 5872SOL    HW118359   3.375   3.441  10.676
 5872SOL    HW218360   3.256   3.369  10.737
 5873SOL     OW18361   3.472   2.308  10.053
 5873SOL    HW118362   3.400   2.330   9.995
 5873SOL    HW218363   3.485   2.387  10.106
 5874SOL     OW18364   2.083   3.578   9.789
 5874SOL    HW118365   2.114   3.638   9.856
 5874SOL    HW218366   2.155   3.575   9.725
 5875SOL     OW18367   2.999   3.204  11.004
 5875SOL    HW118368   3.040   3.197  11.090
 5875SOL    HW218369   2.947   3.124  10.996
 5876SOL     OW18370   2.091   3.304   9.846
 5876SOL    HW118371   2.074   3.398   9.849
 5876SOL    HW218372   2.032   3.266   9.911
 5877SOL     OW18373   2.122   2.957  10.200
 5877SOL    HW118374   2.118   2.870  10.240
 5877SOL    HW218375   2.064   3.011  10.254
 5878SOL     OW18376   2.471   3.648  10.738
 5878SOL    HW118377   2.389   3.633  10.786
 5878SOL    HW218378   2.497   3.737  10.763
 5879SOL     OW18379   2.446   2.847   9.444
 5879SOL    HW118380   2.493   2.894   9.376
 5879SOL    HW218381   2.484   2.879   9.526
 5880SOL     OW18382   3.457   1.987  10.776
 5880SOL    HW118383   3.470   2.069  10.728
 5880SOL    HW218384   3.442   2.015  10.866
 5881SOL     OW18385   1.986   2.517   9.871
 5881SOL    HW118386   1.946   2.431   9.886
 5881SOL    HW218387   1.971   2.565   9.952
 5882SOL     OW18388   3.700   3.613   9.651
 5882SOL    HW118389   3.771   3.588   9.711
 5882SOL    HW218390   3.719   3.704   9.628
 5883SOL     OW18391   1.892   3.453   9.432
 5883SOL    HW118392   1.876   3.361   9.453
 5883SOL    HW218393   1.871   3.500   9.512
 5884SOL     OW18394   3.550   2.782   9.956
 5884SOL    HW118395   3.633   2.738   9.937
 5884SOL    HW218396   3.531   2.830   9.876
 5885SOL     OW18397   3.503   2.967   9.741
 5885SOL    HW118398   3.588   2.971   9.698
 5885SOL    HW218399   3.510   3.029   9.813
 5886SOL     OW18400   1.987   2.598  10.895
 5886SOL    HW118401   2.079   2.617  10.913
 5886SOL    HW218402   1.942   2.681  10.911
 5887SOL     OW18403   2.477   3.251  10.045
 5887SOL    HW118404   2.431   3.167  10.054
 5887SOL    HW218405   2.460   3.277   9.954
 5888SOL     OW18406   3.149   3.099  10.733
 5888SOL    HW118407   3.182   3.032  10.672
 5888SOL    HW218408   3.208   3.094  10.808
 5889SOL     OW18409   2.690   1.863   9.822
 5889SOL    HW118410   2.729   1.947   9.799
 5889SOL    HW218411   2.596   1.879   9.821
 5890SOL     OW18412   2.052   2.830  10.583
 5890SOL    HW118413   2.135   2.786  10.567
 5890SOL    HW218414   1.987   2.774  10.540
 5891SOL     OW18415   3.390   2.858   9.510
 5891SOL    HW118416   3.321   2.801   9.543
 5891SOL    HW218417   3.432   2.893   9.589
 5892SOL     OW18418   3.079   3.666  10.937
 5892SOL    HW118419   3.056   3.726  10.867
 5892SOL    HW218420   3.080   3.580  10.895
 5893SOL     OW18421   3.327   3.282  10.259
 5893SOL    HW118422   3.260   3.297  10.326
 5893SOL    HW218423   3.316   3.191  10.234
 5894SOL     OW18424   3.510   3.605   9.890
 5894SOL    HW118425   3.501   3.571   9.801
 5894SOL    HW218426   3.493   3.530   9.947
 5895SOL     OW18427   2.466   2.598   9.582
 5895SOL    HW118428   2.470   2.676   9.527
 5895SOL    HW218429   2.401   2.619   9.649
 5896SOL     OW18430   3.139   2.219  10.244
 5896SOL    HW118431   3.051   2.184  10.252
 5896SOL    HW218432   3.192   2.166  10.303
 5897SOL     OW18433   3.436   3.538   9.618
 5897SOL    HW118434   3.529   3.562   9.614
 5897SOL    HW218435   3.412   3.518   9.528
 5898SOL     OW18436   2.655   2.478  10.759
 5898SOL    HW118437   2.632   2.456  10.849
 5898SOL    HW218438   2.607   2.415  10.705
 5899SOL     OW18439   3.256   2.336  10.988
 5899SOL    HW118440   3.259   2.380  11.073
 5899SOL    HW218441   3.314   2.261  10.998
 5900SOL     OW18442   2.814   2.748  10.894
 5900SOL    HW118443   2.870   2.680  10.857
 5900SOL    HW218444   2.767   2.784  10.818
 5901SOL     OW18445   2.860   2.277  10.546
 5901SOL    HW118446   2.776   2.296  10.589
 5901SOL    HW218447   2.836   2.230  10.466
 5902SOL     OW18448   2.914   2.561   9.735
 5902SOL    HW118449   2.931   2.554   9.829
 5902SOL    HW218450   2.831   2.514   9.723
 5903SOL     OW18451   1.950   2.683  10.088
 5903SOL    HW118452   2.033   2.682  10.135
 5903SOL    HW218453   1.904   2.760  10.121
 5904SOL     OW18454   1.983   3.706  10.886
 5904SOL    HW118455   1.986   3.686  10.980
 5904SOL    HW218456   1.890   3.706  10.864
 5905SOL     OW18457   2.760   2.214   9.511
 5905SOL    HW118458   2.803   2.269   9.445
 5905SOL    HW218459   2.737   2.134   9.464
 5906SOL     OW18460   3.571   2.436  11.139
 5906SOL    HW118461   3.533   2.509  11.090
 5906SOL    HW218462   3.596   2.373  11.071
 5907SOL     OW18463   3.239   3.003   9.850
 5907SOL    HW118464   3.318   2.991   9.799
 5907SOL    HW218465   3.187   3.066   9.799
 5908SOL     OW18466   2.445   2.062  10.218
 5908SOL    HW118467   2.351   2.072  10.231
 5908SOL    HW218468   2.472   2.142  10.173
 5909SOL     OW18469   2.866   3.307   9.781
 5909SOL    HW118470   2.829   3.381   9.732
 5909SOL    HW218471   2.846   3.326   9.872
 5910SOL     OW18472   2.213   3.673  10.149
 5910SOL    HW118473   2.263   3.593  10.168
 5910SOL    HW218474   2.272   3.744  10.172
 5911SOL     OW18475   3.667   2.923  10.177
 5911SOL    HW118476   3.614   2.898  10.102
 5911SOL    HW218477   3.605   2.926  10.250
 5912SOL     OW18478   3.089   3.399  10.822
 5912SOL    HW118479   3.076   3.327  10.883
 5912SOL    HW218480   3.022   3.386  10.754
 5913SOL     OW18481   2.181   2.818   9.563
 5913SOL    HW118482   2.261   2.838   9.515
 5913SOL    HW218483   2.148   2.737   9.522
 5914SOL     OW18484   3.341   2.608  10.036
 5914SOL    HW118485   3.335   2.565  10.122
 5914SOL    HW218486   3.419   2.662  10.042
 5915SOL     OW18487   2.329   3.127  11.047
 5915SOL    HW118488   2.302   3.132  10.955
 5915SOL    HW218489   2.247   3.125  11.096
 5916SOL     OW18490   2.976   3.643   9.532
 5916SOL    HW118491   2.912   3.597   9.586
 5916SOL    HW218492   3.006   3.578   9.469
 5917SOL     OW18493   3.487   3.246   9.399
 5917SOL    HW118494   3.444   3.330   9.381
 5917SOL    HW218495   3.420   3.181   9.379
 5918SOL     OW18496   2.329   3.597   9.635
 5918SOL    HW118497   2.367   3.662   9.694
 5918SOL    HW218498   2.402   3.572   9.578
 5919SOL     OW18499   3.263   1.969   9.746
 5919SOL    HW118500   3.255   1.944   9.654
 5919SOL    HW218501   3.357   1.975   9.761
 5920SOL     OW18502   2.122   3.654  10.534
 5920SOL    HW118503   2.169   3.584  10.580
 5920SOL    HW218504   2.107   3.619  10.446
 5921SOL     OW18505   2.800   3.563  10.210
 5921SOL    HW118506   2.878   3.511  10.231
 5921SOL    HW218507   2.756   3.513  10.141
 5922SOL     OW18508   2.255   2.549   9.788
 5922SOL    HW118509   2.266   2.460   9.755
 5922SOL    HW218510   2.163   2.554   9.812
 5923SOL     OW18511   3.395   2.087  11.035
 5923SOL    HW118512   3.405   2.107  11.128
 5923SOL    HW218513   3.327   2.020  11.032
 5924SOL     OW18514   2.524   1.989   9.410
 5924SOL    HW118515   2.569   1.910   9.438
 5924SOL    HW218516   2.459   1.959   9.347
 5925SOL     OW18517   2.628   2.145  11.065
 5925SOL    HW118518   2.704   2.088  11.061
 5925SOL    HW218519   2.577   2.113  11.139
 5926SOL     OW18520   2.738   3.382  10.505
 5926SOL    HW118521   2.722   3.347  10.417
 5926SOL    HW218522   2.808   3.328  10.540
 5927SOL     OW18523   3.202   2.452  10.743
 5927SOL    HW118524   3.233   2.420  10.828
 5927SOL    HW218525   3.239   2.540  10.735
 5928SOL     OW18526   2.679   3.254  10.252
 5928SOL    HW118527   2.763   3.243  10.208
 5928SOL    HW218528   2.615   3.258  10.181
 5929SOL     OW18529   2.787   2.369  10.213
 5929SOL    HW118530   2.764   2.362  10.120
 5929SOL    HW218531   2.822   2.283  10.235
 5930SOL     OW18532   2.426   1.918   9.803
 5930SOL    HW118533   2.371   1.905   9.881
 5930SOL    HW218534   2.405   2.006   9.774
 5931SOL     OW18535   3.290   3.061   9.350
 5931SOL    HW118536   3.321   2.986   9.400
 5931SOL    HW218537   3.204   3.082   9.388
 5932SOL     OW18538   2.803   2.112   9.768
 5932SOL    HW118539   2.780   2.149   9.683
 5932SOL    HW218540   2.898   2.124   9.774
 5933SOL     OW18541   2.944   2.545  10.769
 5933SOL    HW118542   2.878   2.476  10.776
 5933SOL    HW218543   3.027   2.498  10.763
 5934SOL     OW18544   3.083   3.433  10.104
 5934SOL    HW118545   3.099   3.500  10.038
 5934SOL    HW218546   3.153   3.445  10.168
 5935SOL     OW18547   2.333   3.013  10.040
 5935SOL    HW118548   2.264   2.995  10.104
 5935SOL    HW218549   2.291   2.998   9.955
 5936SOL     OW18550   3.128   3.657   9.918
 5936SOL    HW118551   3.174   3.721   9.865
 5936SOL    HW218552   3.056   3.706   9.957
 5937SOL     OW18553   2.887   2.402   9.333
 5937SOL    HW118554   2.843   2.485   9.315
 5937SOL    HW218555   2.951   2.423   9.401
 5938SOL     OW18556   1.937   2.425  10.693
 5938SOL    HW118557   2.030   2.419  10.675
 5938SOL    HW218558   1.931   2.483  10.769
 5939SOL     OW18559   2.725   2.319   9.948
 5939SOL    HW118560   2.689   2.377   9.881
 5939SOL    HW218561   2.752   2.240   9.901
 5940SOL     OW18562   2.875   1.916  10.061
 5940SOL    HW118563   2.819   1.906   9.983
 5940SOL    HW218564   2.854   1.840  10.115
 5941SOL     OW18565   3.301   3.024  10.167
 5941SOL    HW118566   3.231   2.959  10.166
 5941SOL    HW218567   3.327   3.033  10.075
 5942SOL     OW18568   3.327   2.470  10.284
 5942SOL    HW118569   3.275   2.389  10.286
 5942SOL    HW218570   3.386   2.463  10.359
 5943SOL     OW18571   3.723   2.679   9.685
 5943SOL    HW118572   3.767   2.623   9.749
 5943SOL    HW218573   3.686   2.617   9.621
 5944SOL     OW18574   2.352   3.280   9.464
 5944SOL    HW118575   2.277   3.253   9.516
 5944SOL    HW218576   2.339   3.238   9.379
 5945SOL     OW18577   3.529   3.127   9.954
 5945SOL    HW118578   3.624   3.129   9.964
 5945SOL    HW218579   3.500   3.216   9.975
 5946SOL     OW18580   3.256   2.434   9.382
 5946SOL    HW118581   3.194   2.414   9.452
 5946SOL    HW218582   3.340   2.401   9.414
 5947SOL     OW18583   3.613   3.097  10.877
 5947SOL    HW118584   3.700   3.061  10.859
 5947SOL    HW218585   3.630   3.186  10.906
 5948SOL     OW18586   2.919   3.214  10.642
 5948SOL    HW118587   2.844   3.184  10.693
 5948SOL    HW218588   2.995   3.173  10.684
 5949SOL     OW18589   3.469   3.491  10.966
 5949SOL    HW118590   3.459   3.524  10.877
 5949SOL    HW218591   3.549   3.440  10.965
 5950SOL     OW18592   2.992   3.067  10.414
 5950SOL    HW118593   2.934   3.106  10.479
 5950SOL    HW218594   2.961   3.101  10.330
 5951SOL     OW18595   3.491   2.958  10.385
 5951SOL    HW118596   3.482   3.019  10.458
 5951SOL    HW218597   3.413   2.974  10.331
 5952SOL     OW18598   2.787   1.955  10.704
 5952SOL    HW118599   2.809   1.936  10.613
 5952SOL    HW218600   2.867   1.995  10.740
 5953SOL     OW18601   2.846   2.977  11.033
 5953SOL    HW118602   2.754   2.993  11.055
 5953SOL    HW218603   2.844   2.899  10.978
 5954SOL     OW18604   2.571   2.923   9.681
 5954SOL    HW118605   2.557   2.905   9.774
 5954SOL    HW218606   2.646   2.870   9.657
 5955SOL     OW18607   2.279   2.674  10.561
 5955SOL    HW118608   2.348   2.689  10.626
 5955SOL    HW218609   2.242   2.589  10.584
 5956SOL     OW18610   3.129   2.238  10.588
 5956SOL    HW118611   3.162   2.316  10.634
 5956SOL    HW218612   3.039   2.260  10.564
 5957SOL     OW18613   1.934   3.435  10.663
 5957SOL    HW118614   1.906   3.510  10.611
 5957SOL    HW218615   2.029   3.437  10.659
 5958SOL     OW18616   2.207   2.974   9.799
 5958SOL    HW118617   2.212   3.048   9.739
 5958SOL    HW218618   2.204   2.897   9.742
 5959SOL     OW18619   2.406   2.393  10.171
 5959SOL    HW118620   2.419   2.456  10.100
 5959SOL    HW218621   2.467   2.422  10.239
 5960SOL     OW18622   3.109   3.211   9.699
 5960SOL    HW118623   3.166   3.282   9.731
 5960SOL    HW218624   3.023   3.232   9.733
 5961SOL     OW18625   3.146   3.322  10.458
 5961SOL    HW118626   3.202   3.325  10.535
 5961SOL    HW218627   3.091   3.244  10.472
 5962SOL     OW18628   3.441   2.482   9.792
 5962SOL    HW118629   3.393   2.536   9.855
 5962SOL    HW218630   3.483   2.545   9.734
 5963SOL     OW18631   2.208   3.391  10.622
 5963SOL    HW118632   2.196   3.347  10.538
 5963SOL    HW218633   2.302   3.402  10.631
 5964SOL     OW18634   2.283   2.606  10.919
 5964SOL    HW118635   2.342   2.650  10.857
 5964SOL    HW218636   2.332   2.529  10.947
 5965SOL     OW18637   3.466   2.641  10.993
 5965SOL    HW118638   3.380   2.683  10.987
 5965SOL    HW218639   3.518   2.684  10.925
 5966SOL     OW18640   2.856   1.989  11.059
 5966SOL    HW118641   2.915   2.061  11.038
 5966SOL    HW218642   2.905   1.910  11.036
 5967SOL     OW18643   2.355   1.904  11.071
 5967SOL    HW118644   2.311   1.854  11.003
 5967SOL    HW218645   2.294   1.975  11.092
 5968SOL     OW18646   2.450   2.735  10.343
 5968SOL    HW118647   2.483   2.825  10.340
 5968SOL    HW218648   2.392   2.733  10.419
 5969SOL     OW18649   3.217   2.721  10.337
 5969SOL    HW118650   3.133   2.709  10.291
 5969SOL    HW218651   3.260   2.636  10.330
 5970SOL     OW18652   3.065   2.390   9.575
 5970SOL    HW118653   3.072   2.311   9.628
 5970SOL    HW218654   3.022   2.454   9.632
 5971SOL     OW18655   1.908   3.173  10.586
 5971SOL    HW118656   1.941   3.119  10.657
 5971SOL    HW218657   1.914   3.263  10.619
 5972SOL     OW18658   2.581   2.487  10.365
 5972SOL    HW118659   2.657   2.470  10.309
 5972SOL    HW218660   2.557   2.578  10.346
 5973SOL     OW18661   3.593   2.822  11.170
 5973SOL    HW118662   3.552   2.757  11.112
 5973SOL    HW218663   3.529   2.834  11.241
 5974SOL     OW18664   3.481   2.238   9.675
 5974SOL    HW118665   3.508   2.173   9.739
 5974SOL    HW218666   3.458   2.315   9.726
 5975SOL     OW18667   2.889   2.620  10.269
 5975SOL    HW118668   2.885   2.637  10.363
 5975SOL    HW218669   2.863   2.528  10.261
 5976SOL     OW18670   2.847   3.430  11.030
 5976SOL    HW118671   2.828   3.471  10.946
 5976SOL    HW218672   2.889   3.347  11.007
 5977SOL     OW18673   3.705   3.362  10.908
 5977SOL    HW118674   3.729   3.391  10.820
 5977SOL    HW218675   3.785   3.372  10.959
 5978SOL     OW18676   2.215   2.777  11.122
 5978SOL    HW118677   2.297   2.800  11.165
 5978SOL    HW218678   2.240   2.718  11.052
 5979SOL     OW18679   3.391   2.135   9.437
 5979SOL    HW118680   3.326   2.069   9.463
 5979SOL    HW218681   3.424   2.170   9.520
 5980SOL     OW18682   3.151   2.687   9.340
 5980SOL    HW118683   3.195   2.602   9.344
 5980SOL    HW218684   3.184   2.727   9.259
 5981SOL     OW18685   2.929   3.198  10.165
 5981SOL    HW118686   2.933   3.126  10.102
 5981SOL    HW218687   2.989   3.264  10.130
 5982SOL     OW18688   2.175   2.681  10.253
 5982SOL    HW118689   2.266   2.705  10.235
 5982SOL    HW218690   2.181   2.598  10.300
 5983SOL     OW18691   2.996   2.238  10.992
 5983SOL    HW118692   2.948   2.291  11.055
 5983SOL    HW218693   3.083   2.277  10.989
 5984SOL     OW18694   3.026   2.064  10.780
 5984SOL    HW118695   3.013   2.126  10.852
 5984SOL    HW218696   3.068   2.115  10.711
 5985SOL     OW18697   1.867   3.181   9.505
 5985SOL    HW118698   1.780   3.196   9.468
 5985SOL    HW218699   1.864   3.091   9.539
 5986SOL     OW18700   1.958   3.641  10.248
 5986SOL    HW118701   1.928   3.562  10.203
 5986SOL    HW218702   2.044   3.660  10.208
 5987SOL     OW18703   2.356   3.438  10.216
 5987SOL    HW118704   2.424   3.501  10.240
 5987SOL    HW218705   2.401   3.375  10.159
 5988SOL     OW18706   2.841   2.652  10.535
 5988SOL    HW118707   2.901   2.631  10.607
 5988SOL    HW218708   2.757   2.617  10.564
 5989SOL     OW18709   1.887   2.398  10.427
 5989SOL    HW118710   1.969   2.399  10.378
 5989SOL    HW218711   1.914   2.412  10.518
 5990SOL     OW18712   3.241   2.799  10.968
 5990SOL    HW118713   3.262   2.892  10.965
 5990SOL    HW218714   3.237   2.773  10.876
 5991SOL     OW18715   2.677   2.431   9.678
 5991SOL    HW118716   2.685   2.358   9.616
 5991SOL    HW218717   2.607   2.485   9.642
 5992SOL     OW18718   3.502   2.464  10.494
 5992SOL    HW118719   3.491   2.403  10.567
 5992SOL    HW218720   3.588   2.442  10.458
 5993SOL     OW18721   2.105   3.411  11.035
 5993SOL    HW118722   2.082   3.478  11.100
 5993SOL    HW218723   2.108   3.330  11.085
 5994SOL     OW18724   2.535   2.322  10.574
 5994SOL    HW118725   2.523   2.234  10.539
 5994SOL    HW218726   2.549   2.377  10.497
 5995SOL     OW18727   2.789   3.534  10.779
 5995SOL    HW118728   2.763   3.496  10.695
 5995SOL    HW218729   2.781   3.629  10.767
 5996SOL     OW18730   2.331   2.375   9.520
 5996SOL    HW118731   2.392   2.448   9.530
 5996SOL    HW218732   2.249   2.416   9.493
 5997SOL     OW18733   2.006   3.004  10.784
 5997SOL    HW118734   2.007   2.953  10.865
 5997SOL    HW218735   2.023   2.940  10.715
 5998SOL     OW18736   3.184   2.907  10.532
 5998SOL    HW118737   3.208   2.844  10.464
 5998SOL    HW218738   3.116   2.961  10.492
 5999SOL     OW18739   3.174   2.718   9.615
 5999SOL    HW118740   3.099   2.687   9.666
 5999SOL    HW218741   3.149   2.704   9.524
 6000SOL     OW18742   3.638   3.603  10.464
 6000SOL    HW118743   3.697   3.630  10.393
 6000SOL    HW218744   3.611   3.514  10.442
 6001SOL     OW18745   3.106   3.595  10.420
 6001SOL    HW118746   3.188   3.616  10.377
 6001SOL    HW218747   3.112   3.502  10.439
 6002SOL     OW18748   1.946   3.128  10.322
 6002SOL    HW118749   1.932   3.142  10.415
 6002SOL    HW218750   1.872   3.074  10.294
 6003SOL     OW18751   2.540   3.526  11.042
 6003SOL    HW118752   2.484   3.603  11.046
 6003SOL    HW218753   2.601   3.545  10.970
 6004SOL     OW18754   3.573   2.012   9.822
 6004SOL    HW118755   3.641   1.999   9.756
 6004SOL    HW218756   3.562   1.925   9.862
 6005SOL     OW18757   3.252   3.430   9.797
 6005SOL    HW118758   3.311   3.464   9.730
 6005SOL    HW218759   3.204   3.508   9.827
 6006SOL     OW18760   1.996   3.652  11.149
 6006SOL    HW118761   1.944   3.588  11.198
 6006SOL    HW218762   2.045   3.700  11.216
 6007SOL     OW18763   3.139   2.788   9.981
 6007SOL    HW118764   3.213   2.728   9.990
 6007SOL    HW218765   3.173   2.860   9.928
 6008SOL     OW18766   2.673   3.136  10.738
 6008SOL    HW118767   2.645   3.176  10.821
 6008SOL    HW218768   2.604   3.159  10.676
 6009SOL     OW18769   2.537   3.479   9.468
 6009SOL    HW118770   2.546   3.497   9.374
 6009SOL    HW218771   2.478   3.404   9.472
 6010SOL     OW18772   3.482   3.588  10.700
 6010SOL    HW118773   3.537   3.592  10.622
 6010SOL    HW218774   3.469   3.680  10.725
 6011SOL     OW18775   3.700   2.043  10.277
 6011SOL    HW118776   3.731   1.956  10.252
 6011SOL    HW218777   3.614   2.051  10.236
 6012SOL     OW18778   3.069   3.466   9.346
 6012SOL    HW118779   3.059   3.374   9.370
 6012SOL    HW218780   3.008   3.479   9.273
 6013SOL     OW18781   2.686   2.868  10.682
 6013SOL    HW118782   2.731   2.864  10.598
 6013SOL    HW218783   2.684   2.961  10.704
 6014SOL     OW18784   2.778   2.773   9.600
 6014SOL    HW118785   2.839   2.805   9.534
 6014SOL    HW218786   2.827   2.704   9.646
 6015SOL     OW18787   3.350   3.493   9.352
 6015SOL    HW118788   3.257   3.481   9.336
 6015SOL    HW218789   3.389   3.498   9.265
 6016SOL     OW18790   2.231   3.165  10.801
 6016SOL    HW118791   2.217   3.242  10.746
 6016SOL    HW218792   2.153   3.111  10.786
 6017SOL     OW18793   3.463   3.141  10.588
 6017SOL    HW118794   3.532   3.134  10.654
 6017SOL    HW218795   3.406   3.211  10.620
 6018SOL     OW18796   2.917   2.970  10.018
 6018SOL    HW118797   2.846   2.919  10.056
 6018SOL    HW218798   2.981   2.905   9.989
 6019SOL     OW18799   2.882   2.103  10.276
 6019SOL    HW118800   2.878   2.055  10.193
 6019SOL    HW218801   2.880   2.034  10.343
 6020SOL     OW18802   2.466   3.352   9.790
 6020SOL    HW118803   2.512   3.302   9.723
 6020SOL    HW218804   2.397   3.399   9.742
 6021SOL     OW18805   3.586   2.252  10.688
 6021SOL    HW118806   3.658   2.315  10.685
 6021SOL    HW218807   3.614   2.180  10.632
 6022SOL     OW18808   2.122   3.205   9.600
 6022SOL    HW118809   2.029   3.203   9.577
 6022SOL    HW218810   2.124   3.244   9.688
 6023SOL     OW18811   1.975   2.884  11.030
 6023SOL    HW118812   1.898   2.862  11.082
 6023SOL    HW218813   2.049   2.847  11.078
 6024SOL     OW18814   2.547   2.044  10.806
 6024SOL    HW118815   2.635   2.022  10.773
 6024SOL    HW218816   2.563   2.088  10.889
 6025SOL     OW18817   1.888   2.265   9.332
 6025SOL    HW118818   1.811   2.215   9.305
 6025SOL    HW218819   1.919   2.307   9.252
 6026SOL     OW18820   3.289   2.721  10.709
 6026SOL    HW118821   3.239   2.782  10.655
 6026SOL    HW218822   3.377   2.722  10.673
 6027SOL     OW18823   3.040   3.200   9.427
 6027SOL    HW118824   2.949   3.170   9.429
 6027SOL    HW218825   3.067   3.199   9.519
 6028SOL     OW18826   2.482   2.692  10.742
 6028SOL    HW118827   2.537   2.769  10.728
 6028SOL    HW218828   2.543   2.619  10.751
 6029SOL     OW18829   3.347   3.643  10.292
 6029SOL    HW118830   3.371   3.697  10.217
 6029SOL    HW218831   3.431   3.613  10.328
 6030SOL     OW18832   2.576   2.425  11.011
 6030SOL    HW118833   2.620   2.484  11.072
 6030SOL    HW218834   2.596   2.337  11.044
 6031SOL     OW18835   3.335   3.060  10.941
 6031SOL    HW118836   3.324   3.074  11.035
 6031SOL    HW218837   3.428   3.075  10.924
 6032SOL     OW18838   2.238   3.602  10.875
 6032SOL    HW118839   2.153   3.644  10.859
 6032SOL    HW218840   2.216   3.518  10.916
 6033SOL     OW18841   3.527   2.742  10.569
 6033SOL    HW118842   3.526   2.657  10.526
 6033SOL    HW218843   3.520   2.805  10.497
 6034SOL     OW18844   3.079   2.181   9.768
 6034SOL    HW118845   3.141   2.109   9.760
 6034SOL    HW218846   3.109   2.230   9.845
 6035SOL     OW18847   2.445   2.597   9.985
 6035SOL    HW118848   2.488   2.681   9.968
 6035SOL    HW218849   2.380   2.589   9.915
 6036SOL     OW18850   3.621   2.228  10.960
 6036SOL    HW118851   3.604   2.241  10.867
 6036SOL    HW218852   3.551   2.169  10.989
 6037SOL     OW18853   3.618   2.791  10.823
 6037SOL    HW118854   3.609   2.884  10.841
 6037SOL    HW218855   3.594   2.781  10.731
 6038SOL     OW18856   2.725   3.229   9.348
 6038SOL    HW118857   2.685   3.257   9.430
 6038SOL    HW218858   2.741   3.310   9.300
 6039SOL     OW18859   2.522   3.651  10.250
 6039SOL    HW118860   2.501   3.742  10.229
 6039SOL    HW218861   2.618   3.647  10.245
 6040SOL     OW18862   2.730   2.830  10.165
 6040SOL    HW118863   2.780   2.758  10.203
 6040SOL    HW218864   2.695   2.878  10.240
 6041SOL     OW18865   2.940   2.850   9.398
 6041SOL    HW118866   2.919   2.901   9.320
 6041SOL    HW218867   3.014   2.796   9.372
 6042SOL     OW18868   3.713   3.417  10.151
 6042SOL    HW118869   3.633   3.397  10.101
 6042SOL    HW218870   3.716   3.349  10.218
 6043SOL     OW18871   2.088   3.163  11.166
 6043SOL    HW118872   2.020   3.103  11.134
 6043SOL    HW218873   2.067   3.176  11.258
 6044SOL     OW18874   1.947   3.094   9.975
 6044SOL    HW118875   1.955   3.047  10.059
 6044SOL    HW218876   2.014   3.055   9.919
 6045SOL     OW18877   2.545   3.266  10.939
 6045SOL    HW118878   2.465   3.224  10.971
 6045SOL    HW218879   2.542   3.354  10.976
 6046SOL     OW18880   3.675   2.040  10.549
 6046SOL    HW118881   3.667   1.945  10.552
 6046SOL    HW218882   3.689   2.060  10.456
 6047SOL     OW18883   3.558   3.352  10.407
 6047SOL    HW118884   3.479   3.327  10.358
 6047SOL    HW218885   3.571   3.281  10.470
 6048SOL     OW18886   2.199   2.409  10.589
 6048SOL    HW118887   2.194   2.328  10.639
 6048SOL    HW218888   2.273   2.396  10.531
 6049SOL     OW18889   2.690   3.441   9.987
 6049SOL    HW118890   2.673   3.492   9.908
 6049SOL    HW218891   2.615   3.381   9.992
 6050SOL     OW18892   3.293   2.089  10.427
 6050SOL    HW118893   3.314   2.006  10.469
 6050SOL    HW218894   3.243   2.138  10.492
 6051SOL     OW18895   2.872   1.880  10.449
 6051SOL    HW118896   2.817   1.813  10.409
 6051SOL    HW218897   2.960   1.841  10.451
 6052SOL     OW18898   2.634   3.194   9.629
 6052SOL    HW118899   2.605   3.104   9.634
 6052SOL    HW218900   2.717   3.196   9.677
 6053SOL     OW18901   2.482   3.415  10.595
 6053SOL    HW118902   2.483   3.497  10.645
 6053SOL    HW218903   2.570   3.409  10.558
 6054SOL     OW18904   3.216   1.915   9.477
 6054SOL    HW118905   3.246   1.847   9.416
 6054SOL    HW218906   3.128   1.888   9.502
 6055SOL     OW18907   3.157   2.324   9.990
 6055SOL    HW118908   3.105   2.404   9.997
 6055SOL    HW218909   3.154   2.285  10.078
 6056SOL     OW18910   3.444   2.061  10.188
 6056SOL    HW118911   3.388   2.084  10.261
 6056SOL    HW218912   3.445   2.139  10.132
 6057SOL     OW18913   1.905   2.931   9.618
 6057SOL    HW118914   1.998   2.923   9.600
 6057SOL    HW218915   1.877   2.842   9.640
 6058SOL     OW18916   2.748   3.520   9.653
 6058SOL    HW118917   2.677   3.501   9.592
 6058SOL    HW218918   2.717   3.595   9.703
 6059SOL     OW18919   2.083   2.506  11.299
 6059SOL    HW118920   1.995   2.498  11.337
 6059SOL    HW218921   2.070   2.493  11.205
 6060SOL     OW18922   1.850   2.282  11.785
 6060SOL    HW118923   1.765   2.281  11.828
 6060SOL    HW218924   1.855   2.200  11.738
 6061SOL     OW18925   2.429   3.153  12.349
 6061SOL    HW118926   2.342   3.159  12.309
 6061SOL    HW218927   2.445   3.241  12.383
 6062SOL     OW18928   3.425   3.374  11.880
 6062SOL    HW118929   3.383   3.352  11.963
 6062SOL    HW218930   3.353   3.377  11.817
 6063SOL     OW18931   2.991   2.561  11.871
 6063SOL    HW118932   3.041   2.641  11.857
 6063SOL    HW218933   2.946   2.575  11.953
 6064SOL     OW18934   3.628   2.468  11.401
 6064SOL    HW118935   3.609   2.460  11.308
 6064SOL    HW218936   3.594   2.388  11.440
 6065SOL     OW18937   2.612   3.002  12.215
 6065SOL    HW118938   2.545   3.038  12.272
 6065SOL    HW218939   2.650   3.078  12.171
 6066SOL     OW18940   2.730   2.632  12.994
 6066SOL    HW118941   2.721   2.704  13.057
 6066SOL    HW218942   2.754   2.676  12.912
 6067SOL     OW18943   2.547   2.860  11.818
 6067SOL    HW118944   2.613   2.852  11.887
 6067SOL    HW218945   2.479   2.915  11.857
 6068SOL     OW18946   2.574   3.013  12.986
 6068SOL    HW118947   2.622   3.091  13.014
 6068SOL    HW218948   2.492   3.047  12.949
 6069SOL     OW18949   2.194   3.283  12.239
 6069SOL    HW118950   2.119   3.247  12.190
 6069SOL    HW218951   2.241   3.336  12.175
 6070SOL     OW18952   3.321   3.363  12.528
 6070SOL    HW118953   3.375   3.441  12.538
 6070SOL    HW218954   3.256   3.369  12.598
 6071SOL     OW18955   3.472   2.308  11.915
 6071SOL    HW118956   3.400   2.330  11.857
 6071SOL    HW218957   3.485   2.387  11.968
 6072SOL     OW18958   2.083   3.578  11.651
 6072SOL    HW118959   2.114   3.638  11.718
 6072SOL    HW218960   2.155   3.575  11.587
 6073SOL     OW18961   2.999   3.204  12.865
 6073SOL    HW118962   3.040   3.198  12.951
 6073SOL    HW218963   2.947   3.124  12.858
 6074SOL     OW18964   2.091   3.304  11.708
 6074SOL    HW118965   2.074   3.398  11.711
 6074SOL    HW218966   2.032   3.266  11.773
 6075SOL     OW18967   2.122   2.957  12.062
 6075SOL    HW118968   2.118   2.870  12.102
 6075SOL    HW218969   2.064   3.011  12.116
 6076SOL     OW18970   2.471   3.648  12.600
 6076SOL    HW118971   2.389   3.633  12.648
 6076SOL    HW218972   2.497   3.737  12.625
 6077SOL     OW18973   2.446   2.847  11.307
 6077SOL    HW118974   2.493   2.894  11.238
 6077SOL    HW218975   2.485   2.879  11.388
 6078SOL     OW18976   3.457   1.987  12.638
 6078SOL    HW118977   3.470   2.069  12.590
 6078SOL    HW218978   3.442   2.015  12.729
 6079SOL     OW18979   1.986   2.517  11.733
 6079SOL    HW118980   1.944   2.433  11.746
 6079SOL    HW218981   1.972   2.565  11.814
 6080SOL     OW18982   3.700   3.613  11.513
 6080SOL    HW118983   3.771   3.588  11.573
 6080SOL    HW218984   3.719   3.704  11.490
 6081SOL     OW18985   1.892   3.453  11.294
 6081SOL    HW118986   1.876   3.361  11.315
 6081SOL    HW218987   1.871   3.500  11.374
 6082SOL     OW18988   3.550   2.781  11.818
 6082SOL    HW118989   3.633   2.738  11.799
 6082SOL    HW218990   3.531   2.830  11.738
 6083SOL     OW18991   3.503   2.967  11.603
 6083SOL    HW118992   3.588   2.971  11.560
 6083SOL    HW218993   3.510   3.029  11.675
 6084SOL     OW18994   1.987   2.598  12.757
 6084SOL    HW118995   2.079   2.617  12.775
 6084SOL    HW218996   1.942   2.681  12.773
 6085SOL     OW18997   2.477   3.251  11.907
 6085SOL    HW118998   2.431   3.167  11.916
 6085SOL    HW218999   2.460   3.277  11.816
 6086SOL     OW19000   3.149   3.099  12.595
 6086SOL    HW119001   3.182   3.032  12.534
 6086SOL    HW219002   3.208   3.094  12.670
 6087SOL     OW19003   2.691   1.863  11.684
 6087SOL    HW119004   2.729   1.947  11.661
 6087SOL    HW219005   2.596   1.878  11.683
 6088SOL     OW19006   2.052   2.830  12.445
 6088SOL    HW119007   2.136   2.786  12.429
 6088SOL    HW219008   1.987   2.774  12.402
 6089SOL     OW19009   3.390   2.858  11.372
 6089SOL    HW119010   3.321   2.801  11.405
 6089SOL    HW219011   3.432   2.893  11.451
 6090SOL     OW19012   3.079   3.666  12.799
 6090SOL    HW119013   3.056   3.726  12.728
 6090SOL    HW219014   3.080   3.580  12.757
 6091SOL     OW19015   3.327   3.282  12.121
 6091SOL    HW119016   3.260   3.297  12.188
 6091SOL    HW219017   3.316   3.191  12.096
 6092SOL     OW19018   3.510   3.605  11.752
 6092SOL    HW119019   3.501   3.571  11.663
 6092SOL    HW219020   3.493   3.530  11.809
 6093SOL     OW19021   2.465   2.596  11.443
 6093SOL    HW119022   2.470   2.675  11.388
 6093SOL    HW219023   2.401   2.618  11.510
 6094SOL     OW19024   3.139   2.219  12.105
 6094SOL    HW119025   3.051   2.184  12.114
 6094SOL    HW219026   3.192   2.166  12.164
 6095SOL     OW19027   3.436   3.538  11.480
 6095SOL    HW119028   3.529   3.562  11.476
 6095SOL    HW219029   3.412   3.518  11.390
 6096SOL     OW19030   2.655   2.479  12.621
 6096SOL    HW119031   2.632   2.456  12.711
 6096SOL    HW219032   2.608   2.416  12.567
 6097SOL     OW19033   3.256   2.336  12.850
 6097SOL    HW119034   3.259   2.380  12.935
 6097SOL    HW219035   3.314   2.261  12.860
 6098SOL     OW19036   2.814   2.748  12.756
 6098SOL    HW119037   2.870   2.680  12.719
 6098SOL    HW219038   2.767   2.784  12.680
 6099SOL     OW19039   2.860   2.277  12.408
 6099SOL    HW119040   2.776   2.296  12.450
 6099SOL    HW219041   2.836   2.230  12.328
 6100SOL     OW19042   2.914   2.561  11.597
 6100SOL    HW119043   2.931   2.554  11.691
 6100SOL    HW219044   2.831   2.514  11.585
 6101SOL     OW19045   1.949   2.683  11.950
 6101SOL    HW119046   2.033   2.682  11.997
 6101SOL    HW219047   1.904   2.760  11.983
 6102SOL     OW19048   1.983   3.706  12.748
 6102SOL    HW119049   1.986   3.686  12.842
 6102SOL    HW219050   1.890   3.706  12.726
 6103SOL     OW19051   2.760   2.215  11.372
 6103SOL    HW119052   2.803   2.270  11.307
 6103SOL    HW219053   2.739   2.134  11.325
 6104SOL     OW19054   3.571   2.436  13.001
 6104SOL    HW119055   3.533   2.509  12.952
 6104SOL    HW219056   3.595   2.373  12.933
 6105SOL     OW19057   3.238   3.003  11.712
 6105SOL    HW119058   3.318   2.991  11.661
 6105SOL    HW219059   3.187   3.066  11.661
 6106SOL     OW19060   2.448   2.062  12.082
 6106SOL    HW119061   2.354   2.068  12.099
 6106SOL    HW219062   2.468   2.141  12.032
 6107SOL     OW19063   2.866   3.307  11.643
 6107SOL    HW119064   2.829   3.381  11.594
 6107SOL    HW219065   2.846   3.326  11.734
 6108SOL     OW19066   2.213   3.673  12.011
 6108SOL    HW119067   2.263   3.593  12.030
 6108SOL    HW219068   2.272   3.745  12.034
 6109SOL     OW19069   3.667   2.923  12.039
 6109SOL    HW119070   3.614   2.898  11.964
 6109SOL    HW219071   3.605   2.926  12.112
 6110SOL     OW19072   3.089   3.399  12.684
 6110SOL    HW119073   3.076   3.327  12.745
 6110SOL    HW219074   3.022   3.386  12.617
 6111SOL     OW19075   2.182   2.818  11.425
 6111SOL    HW119076   2.262   2.839  11.378
 6111SOL    HW219077   2.149   2.739  11.382
 6112SOL     OW19078   3.341   2.608  11.898
 6112SOL    HW119079   3.335   2.565  11.984
 6112SOL    HW219080   3.419   2.662  11.904
 6113SOL     OW19081   2.329   3.126  12.909
 6113SOL    HW119082   2.302   3.132  12.817
 6113SOL    HW219083   2.247   3.125  12.958
 6114SOL     OW19084   2.976   3.643  11.394
 6114SOL    HW119085   2.912   3.597  11.448
 6114SOL    HW219086   3.006   3.578  11.331
 6115SOL     OW19087   3.487   3.246  11.261
 6115SOL    HW119088   3.444   3.330  11.243
 6115SOL    HW219089   3.420   3.181  11.241
 6116SOL     OW19090   2.329   3.597  11.497
 6116SOL    HW119091   2.367   3.662  11.556
 6116SOL    HW219092   2.402   3.572  11.440
 6117SOL     OW19093   3.263   1.969  11.608
 6117SOL    HW119094   3.255   1.944  11.516
 6117SOL    HW219095   3.357   1.975  11.623
 6118SOL     OW19096   2.122   3.654  12.396
 6118SOL    HW119097   2.169   3.584  12.442
 6118SOL    HW219098   2.107   3.619  12.308
 6119SOL     OW19099   2.800   3.563  12.072
 6119SOL    HW119100   2.877   3.511  12.093
 6119SOL    HW219101   2.756   3.513  12.003
 6120SOL     OW19102   2.255   2.549  11.649
 6120SOL    HW119103   2.266   2.460  11.615
 6120SOL    HW219104   2.163   2.554  11.674
 6121SOL     OW19105   3.395   2.087  12.897
 6121SOL    HW119106   3.405   2.107  12.990
 6121SOL    HW219107   3.327   2.020  12.895
 6122SOL     OW19108   2.522   1.990  11.270
 6122SOL    HW119109   2.567   1.910  11.299
 6122SOL    HW219110   2.456   1.959  11.207
 6123SOL     OW19111   2.628   2.145  12.927
 6123SOL    HW119112   2.705   2.088  12.923
 6123SOL    HW219113   2.577   2.113  13.001
 6124SOL     OW19114   2.738   3.382  12.367
 6124SOL    HW119115   2.722   3.347  12.279
 6124SOL    HW219116   2.808   3.328  12.402
 6125SOL     OW19117   3.202   2.452  12.605
 6125SOL    HW119118   3.233   2.420  12.690
 6125SOL    HW219119   3.239   2.540  12.597
 6126SOL     OW19120   2.679   3.254  12.114
 6126SOL    HW119121   2.763   3.243  12.070
 6126SOL    HW219122   2.615   3.258  12.043
 6127SOL     OW19123   2.787   2.369  12.075
 6127SOL    HW119124   2.764   2.362  11.982
 6127SOL    HW219125   2.822   2.283  12.097
 6128SOL     OW19126   2.426   1.917  11.666
 6128SOL    HW119127   2.372   1.906  11.745
 6128SOL    HW219128   2.405   2.005  11.635
 6129SOL     OW19129   3.290   3.062  11.212
 6129SOL    HW119130   3.321   2.986  11.262
 6129SOL    HW219131   3.204   3.082  11.250
 6130SOL     OW19132   2.803   2.112  11.630
 6130SOL    HW119133   2.780   2.149  11.545
 6130SOL    HW219134   2.898   2.124  11.636
 6131SOL     OW19135   2.944   2.545  12.631
 6131SOL    HW119136   2.878   2.476  12.638
 6131SOL    HW219137   3.027   2.498  12.625
 6132SOL     OW19138   3.083   3.432  11.966
 6132SOL    HW119139   3.099   3.500  11.900
 6132SOL    HW219140   3.153   3.445  12.030
 6133SOL     OW19141   2.333   3.013  11.902
 6133SOL    HW119142   2.264   2.995  11.966
 6133SOL    HW219143   2.291   2.998  11.817
 6134SOL     OW19144   3.128   3.657  11.780
 6134SOL    HW119145   3.174   3.721  11.727
 6134SOL    HW219146   3.056   3.706  11.819
 6135SOL     OW19147   2.887   2.402  11.195
 6135SOL    HW119148   2.843   2.485  11.177
 6135SOL    HW219149   2.951   2.423  11.263
 6136SOL     OW19150   1.937   2.424  12.555
 6136SOL    HW119151   2.031   2.420  12.536
 6136SOL    HW219152   1.931   2.483  12.631
 6137SOL     OW19153   2.725   2.319  11.810
 6137SOL    HW119154   2.689   2.377  11.742
 6137SOL    HW219155   2.752   2.241  11.763
 6138SOL     OW19156   2.875   1.916  11.923
 6138SOL    HW119157   2.819   1.905  11.845
 6138SOL    HW219158   2.854   1.840  11.978
 6139SOL     OW19159   3.301   3.024  12.029
 6139SOL    HW119160   3.231   2.959  12.028
 6139SOL    HW219161   3.327   3.033  11.937
 6140SOL     OW19162   3.327   2.470  12.146
 6140SOL    HW119163   3.275   2.389  12.148
 6140SOL    HW219164   3.386   2.463  12.221
 6141SOL     OW19165   3.723   2.679  11.547
 6141SOL    HW119166   3.767   2.623  11.611
 6141SOL    HW219167   3.686   2.617  11.483
 6142SOL     OW19168   2.352   3.280  11.326
 6142SOL    HW119169   2.277   3.253  11.378
 6142SOL    HW219170   2.339   3.238  11.241
 6143SOL     OW19171   3.529   3.127  11.816
 6143SOL    HW119172   3.624   3.129  11.826
 6143SOL    HW219173   3.500   3.216  11.837
 6144SOL     OW19174   3.256   2.434  11.244
 6144SOL    HW119175   3.194   2.414  11.314
 6144SOL    HW219176   3.340   2.401  11.276
 6145SOL     OW19177   3.613   3.097  12.739
 6145SOL    HW119178   3.700   3.061  12.721
 6145SOL    HW219179   3.629   3.186  12.768
 6146SOL     OW19180   2.919   3.214  12.504
 6146SOL    HW119181   2.844   3.184  12.555
 6146SOL    HW219182   2.995   3.173  12.546
 6147SOL     OW19183   3.469   3.491  12.828
 6147SOL    HW119184   3.460   3.524  12.739
 6147SOL    HW219185   3.549   3.440  12.827
 6148SOL     OW19186   2.992   3.067  12.275
 6148SOL    HW119187   2.934   3.106  12.341
 6148SOL    HW219188   2.961   3.101  12.192
 6149SOL     OW19189   3.491   2.958  12.247
 6149SOL    HW119190   3.482   3.019  12.320
 6149SOL    HW219191   3.413   2.974  12.193
 6150SOL     OW19192   2.787   1.955  12.567
 6150SOL    HW119193   2.809   1.936  12.475
 6150SOL    HW219194   2.867   1.995  12.602
 6151SOL     OW19195   2.846   2.977  12.895
 6151SOL    HW119196   2.754   2.993  12.917
 6151SOL    HW219197   2.844   2.899  12.840
 6152SOL     OW19198   2.571   2.923  11.543
 6152SOL    HW119199   2.557   2.905  11.636
 6152SOL    HW219200   2.647   2.870  11.519
 6153SOL     OW19201   2.279   2.675  12.423
 6153SOL    HW119202   2.348   2.689  12.488
 6153SOL    HW219203   2.243   2.589  12.446
 6154SOL     OW19204   3.129   2.238  12.450
 6154SOL    HW119205   3.161   2.316  12.496
 6154SOL    HW219206   3.039   2.260  12.426
 6155SOL     OW19207   1.934   3.435  12.525
 6155SOL    HW119208   1.906   3.510  12.473
 6155SOL    HW219209   2.029   3.437  12.521
 6156SOL     OW19210   2.207   2.974  11.661
 6156SOL    HW119211   2.212   3.048  11.601
 6156SOL    HW219212   2.204   2.897  11.604
 6157SOL     OW19213   2.405   2.394  12.034
 6157SOL    HW119214   2.418   2.457  11.963
 6157SOL    HW219215   2.467   2.422  12.102
 6158SOL     OW19216   3.109   3.211  11.561
 6158SOL    HW119217   3.166   3.282  11.593
 6158SOL    HW219218   3.023   3.232  11.595
 6159SOL     OW19219   3.146   3.322  12.320
 6159SOL    HW119220   3.202   3.325  12.397
 6159SOL    HW219221   3.091   3.245  12.334
 6160SOL     OW19222   3.441   2.482  11.654
 6160SOL    HW119223   3.393   2.536  11.718
 6160SOL    HW219224   3.483   2.546  11.596
 6161SOL     OW19225   2.207   3.391  12.484
 6161SOL    HW119226   2.196   3.347  12.400
 6161SOL    HW219227   2.302   3.402  12.493
 6162SOL     OW19228   2.283   2.606  12.781
 6162SOL    HW119229   2.342   2.650  12.719
 6162SOL    HW219230   2.332   2.529  12.810
 6163SOL     OW19231   3.466   2.641  12.854
 6163SOL    HW119232   3.380   2.683  12.849
 6163SOL    HW219233   3.518   2.684  12.787
 6164SOL     OW19234   2.856   1.989  12.921
 6164SOL    HW119235   2.915   2.061  12.900
 6164SOL    HW219236   2.905   1.910  12.898
 6165SOL     OW19237   2.355   1.905  12.932
 6165SOL    HW119238   2.311   1.854  12.864
 6165SOL    HW219239   2.294   1.976  12.952
 6166SOL     OW19240   2.450   2.735  12.205
 6166SOL    HW119241   2.483   2.825  12.202
 6166SOL    HW219242   2.392   2.734  12.281
 6167SOL     OW19243   3.217   2.721  12.199
 6167SOL    HW119244   3.133   2.709  12.153
 6167SOL    HW219245   3.260   2.636  12.192
 6168SOL     OW19246   3.065   2.390  11.437
 6168SOL    HW119247   3.072   2.311  11.490
 6168SOL    HW219248   3.022   2.454  11.494
 6169SOL     OW19249   1.909   3.173  12.448
 6169SOL    HW119250   1.941   3.119  12.519
 6169SOL    HW219251   1.914   3.263  12.481
 6170SOL     OW19252   2.581   2.487  12.227
 6170SOL    HW119253   2.657   2.470  12.171
 6170SOL    HW219254   2.558   2.578  12.208
 6171SOL     OW19255   3.593   2.820  13.033
 6171SOL    HW119256   3.552   2.757  12.975
 6171SOL    HW219257   3.529   2.834  13.103
 6172SOL     OW19258   3.481   2.238  11.537
 6172SOL    HW119259   3.508   2.173  11.601
 6172SOL    HW219260   3.458   2.315  11.588
 6173SOL     OW19261   2.889   2.620  12.131
 6173SOL    HW119262   2.885   2.637  12.225
 6173SOL    HW219263   2.863   2.528  12.123
 6174SOL     OW19264   2.847   3.430  12.892
 6174SOL    HW119265   2.829   3.471  12.808
 6174SOL    HW219266   2.889   3.347  12.869
 6175SOL     OW19267   3.705   3.362  12.770
 6175SOL    HW119268   3.729   3.391  12.682
 6175SOL    HW219269   3.785   3.372  12.821
 6176SOL     OW19270   2.215   2.777  12.984
 6176SOL    HW119271   2.297   2.800  13.027
 6176SOL    HW219272   2.240   2.718  12.914
 6177SOL     OW19273   3.391   2.135  11.299
 6177SOL    HW119274   3.326   2.069  11.325
 6177SOL    HW219275   3.424   2.170  11.382
 6178SOL     OW19276   3.151   2.687  11.202
 6178SOL    HW119277   3.195   2.602  11.206
 6178SOL    HW219278   3.184   2.727  11.121
 6179SOL     OW19279   2.929   3.198  12.027
 6179SOL    HW119280   2.933   3.126  11.964
 6179SOL    HW219281   2.989   3.264  11.992
 6180SOL     OW19282   2.175   2.681  12.115
 6180SOL    HW119283   2.266   2.704  12.097
 6180SOL    HW219284   2.181   2.598  12.163
 6181SOL     OW19285   2.996   2.238  12.854
 6181SOL    HW119286   2.948   2.291  12.917
 6181SOL    HW219287   3.083   2.277  12.851
 6182SOL     OW19288   3.026   2.064  12.642
 6182SOL    HW119289   3.013   2.126  12.714
 6182SOL    HW219290   3.067   2.115  12.573
 6183SOL     OW19291   1.867   3.181  11.367
 6183SOL    HW119292   1.781   3.196  11.330
 6183SOL    HW219293   1.864   3.091  11.401
 6184SOL     OW19294   1.958   3.641  12.110
 6184SOL    HW119295   1.928   3.562  12.065
 6184SOL    HW219296   2.044   3.660  12.070
 6185SOL     OW19297   2.356   3.438  12.078
 6185SOL    HW119298   2.424   3.501  12.102
 6185SOL    HW219299   2.401   3.375  12.021
 6186SOL     OW19300   2.841   2.652  12.397
 6186SOL    HW119301   2.902   2.631  12.469
 6186SOL    HW219302   2.757   2.617  12.426
 6187SOL     OW19303   1.887   2.398  12.289
 6187SOL    HW119304   1.970   2.398  12.240
 6187SOL    HW219305   1.914   2.411  12.380
 6188SOL     OW19306   3.241   2.799  12.830
 6188SOL    HW119307   3.262   2.892  12.827
 6188SOL    HW219308   3.237   2.773  12.738
 6189SOL     OW19309   2.677   2.431  11.540
 6189SOL    HW119310   2.686   2.358  11.478
 6189SOL    HW219311   2.606   2.485  11.504
 6190SOL     OW19312   3.502   2.464  12.356
 6190SOL    HW119313   3.491   2.403  12.429
 6190SOL    HW219314   3.588   2.442  12.320
 6191SOL     OW19315   2.105   3.411  12.897
 6191SOL    HW119316   2.082   3.478  12.962
 6191SOL    HW219317   2.107   3.330  12.947
 6192SOL     OW19318   2.537   2.322  12.436
 6192SOL    HW119319   2.523   2.234  12.401
 6192SOL    HW219320   2.550   2.377  12.359
 6193SOL     OW19321   2.789   3.534  12.641
 6193SOL    HW119322   2.763   3.496  12.557
 6193SOL    HW219323   2.781   3.629  12.629
 6194SOL     OW19324   2.326   2.376  11.381
 6194SOL    HW119325   2.389   2.447  11.390
 6194SOL    HW219326   2.245   2.419  11.352
 6195SOL     OW19327   2.006   3.004  12.646
 6195SOL    HW119328   2.007   2.952  12.727
 6195SOL    HW219329   2.024   2.940  12.577
 6196SOL     OW19330   3.184   2.907  12.394
 6196SOL    HW119331   3.208   2.844  12.326
 6196SOL    HW219332   3.116   2.961  12.354
 6197SOL     OW19333   3.174   2.718  11.477
 6197SOL    HW119334   3.099   2.687  11.528
 6197SOL    HW219335   3.149   2.704  11.386
 6198SOL     OW19336   3.638   3.603  12.326
 6198SOL    HW119337   3.697   3.630  12.255
 6198SOL    HW219338   3.611   3.514  12.303
 6199SOL     OW19339   3.106   3.595  12.282
 6199SOL    HW119340   3.188   3.616  12.239
 6199SOL    HW219341   3.112   3.502  12.301
 6200SOL     OW19342   1.946   3.128  12.184
 6200SOL    HW119343   1.932   3.143  12.277
 6200SOL    HW219344   1.872   3.074  12.156
 6201SOL     OW19345   2.540   3.526  12.904
 6201SOL    HW119346   2.484   3.603  12.908
 6201SOL    HW219347   2.601   3.545  12.832
 6202SOL     OW19348   3.572   2.012  11.684
 6202SOL    HW119349   3.641   1.999  11.618
 6202SOL    HW219350   3.562   1.925  11.724
 6203SOL     OW19351   3.252   3.430  11.659
 6203SOL    HW119352   3.311   3.464  11.592
 6203SOL    HW219353   3.204   3.508  11.689
 6204SOL     OW19354   1.996   3.652  13.010
 6204SOL    HW119355   1.944   3.588  13.060
 6204SOL    HW219356   2.045   3.700  13.077
 6205SOL     OW19357   3.139   2.788  11.843
 6205SOL    HW119358   3.213   2.728  11.852
 6205SOL    HW219359   3.173   2.860  11.790
 6206SOL     OW19360   2.673   3.136  12.600
 6206SOL    HW119361   2.645   3.176  12.683
 6206SOL    HW219362   2.604   3.159  12.538
 6207SOL     OW19363   2.537   3.479  11.330
 6207SOL    HW119364   2.546   3.497  11.236
 6207SOL    HW219365   2.478   3.404  11.334
 6208SOL     OW19366   3.482   3.588  12.562
 6208SOL    HW119367   3.537   3.592  12.484
 6208SOL    HW219368   3.470   3.680  12.587
 6209SOL     OW19369   3.700   2.043  12.139
 6209SOL    HW119370   3.731   1.956  12.114
 6209SOL    HW219371   3.614   2.051  12.098
 6210SOL     OW19372   3.069   3.466  11.208
 6210SOL    HW119373   3.059   3.374  11.232
 6210SOL    HW219374   3.008   3.479  11.135
 6211SOL     OW19375   2.686   2.868  12.544
 6211SOL    HW119376   2.731   2.864  12.460
 6211SOL    HW219377   2.684   2.961  12.566
 6212SOL     OW19378   2.778   2.773  11.462
 6212SOL    HW119379   2.839   2.805  11.396
 6212SOL    HW219380   2.827   2.704  11.508
 6213SOL     OW19381   3.350   3.493  11.214
 6213SOL    HW119382   3.257   3.481  11.198
 6213SOL    HW219383   3.389   3.498  11.127
 6214SOL     OW19384   2.231   3.165  12.663
 6214SOL    HW119385   2.217   3.242  12.608
 6214SOL    HW219386   2.153   3.111  12.648
 6215SOL     OW19387   3.463   3.141  12.450
 6215SOL    HW119388   3.532   3.134  12.516
 6215SOL    HW219389   3.406   3.211  12.482
 6216SOL     OW19390   2.917   2.970  11.880
 6216SOL    HW119391   2.846   2.919  11.918
 6216SOL    HW219392   2.981   2.905  11.851
 6217SOL     OW19393   2.883   2.103  12.138
 6217SOL    HW119394   2.878   2.055  12.055
 6217SOL    HW219395   2.880   2.034  12.205
 6218SOL     OW19396   2.466   3.352  11.652
 6218SOL    HW119397   2.512   3.302  11.585
 6218SOL    HW219398   2.398   3.399  11.604
 6219SOL     OW19399   3.586   2.252  12.551
 6219SOL    HW119400   3.658   2.315  12.547
 6219SOL    HW219401   3.614   2.180  12.494
 6220SOL     OW19402   2.122   3.205  11.462
 6220SOL    HW119403   2.029   3.203  11.439
 6220SOL    HW219404   2.124   3.244  11.550
 6221SOL     OW19405   1.975   2.884  12.891
 6221SOL    HW119406   1.898   2.861  12.944
 6221SOL    HW219407   2.048   2.846  12.940
 6222SOL     OW19408   2.547   2.044  12.668
 6222SOL    HW119409   2.635   2.023  12.635
 6222SOL    HW219410   2.563   2.088  12.751
 6223SOL     OW19411   3.289   2.721  12.571
 6223SOL    HW119412   3.239   2.782  12.517
 6223SOL    HW219413   3.377   2.722  12.535
 6224SOL     OW19414   3.040   3.200  11.289
 6224SOL    HW119415   2.949   3.170  11.291
 6224SOL    HW219416   3.067   3.199  11.381
 6225SOL     OW19417   2.482   2.692  12.604
 6225SOL    HW119418   2.537   2.769  12.590
 6225SOL    HW219419   2.543   2.620  12.614
 6226SOL     OW19420   3.347   3.643  12.154
 6226SOL    HW119421   3.371   3.697  12.079
 6226SOL    HW219422   3.431   3.613  12.190
 6227SOL     OW19423   2.576   2.425  12.873
 6227SOL    HW119424   2.620   2.484  12.934
 6227SOL    HW219425   2.596   2.337  12.906
 6228SOL     OW19426   3.335   3.060  12.803
 6228SOL    HW119427   3.324   3.074  12.897
 6228SOL    HW219428   3.428   3.075  12.787
 6229SOL     OW19429   2.238   3.602  12.737
 6229SOL    HW119430   2.153   3.644  12.721
 6229SOL    HW219431   2.216   3.518  12.778
 6230SOL     OW19432   3.527   2.742  12.431
 6230SOL    HW119433   3.526   2.657  12.388
 6230SOL    HW219434   3.521   2.806  12.359
 6231SOL     OW19435   3.078   2.181  11.630
 6231SOL    HW119436   3.141   2.109  11.622
 6231SOL    HW219437   3.108   2.230  11.707
 6232SOL     OW19438   2.445   2.597  11.847
 6232SOL    HW119439   2.488   2.681  11.830
 6232SOL    HW219440   2.380   2.589  11.777
 6233SOL     OW19441   3.621   2.228  12.822
 6233SOL    HW119442   3.604   2.241  12.729
 6233SOL    HW219443   3.551   2.169  12.851
 6234SOL     OW19444   3.618   2.791  12.685
 6234SOL    HW119445   3.609   2.884  12.703
 6234SOL    HW219446   3.594   2.781  12.593
 6235SOL     OW19447   2.725   3.229  11.210
 6235SOL    HW119448   2.685   3.258  11.292
 6235SOL    HW219449   2.741   3.310  11.162
 6236SOL     OW19450   2.522   3.651  12.112
 6236SOL    HW119451   2.501   3.742  12.091
 6236SOL    HW219452   2.618   3.647  12.107
 6237SOL     OW19453   2.730   2.830  12.027
 6237SOL    HW119454   2.780   2.758  12.065
 6237SOL    HW219455   2.695   2.878  12.102
 6238SOL     OW19456   2.940   2.850  11.260
 6238SOL    HW119457   2.919   2.901  11.182
 6238SOL    HW219458   3.014   2.796  11.234
 6239SOL     OW19459   3.713   3.417  12.013
 6239SOL    HW119460   3.633   3.397  11.963
 6239SOL    HW219461   3.715   3.349  12.080
 6240SOL     OW19462   2.088   3.163  13.028
 6240SOL    HW119463   2.020   3.103  12.996
 6240SOL    HW219464   2.067   3.177  13.120
 6241SOL     OW19465   1.947   3.093  11.837
 6241SOL    HW119466   1.956   3.047  11.921
 6241SOL    HW219467   2.015   3.055  11.781
 6242SOL     OW19468   2.544   3.266  12.801
 6242SOL    HW119469   2.464   3.224  12.833
 6242SOL    HW219470   2.542   3.354  12.838
 6243SOL     OW19471   3.675   2.041  12.411
 6243SOL    HW119472   3.667   1.945  12.414
 6243SOL    HW219473   3.689   2.061  12.318
 6244SOL     OW19474   3.558   3.352  12.269
 6244SOL    HW119475   3.479   3.327  12.220
 6244SOL    HW219476   3.571   3.281  12.332
 6245SOL     OW19477   2.198   2.409  12.448
 6245SOL    HW119478   2.191   2.326  12.495
 6245SOL    HW219479   2.272   2.397  12.389
 6246SOL     OW19480   2.690   3.440  11.849
 6246SOL    HW119481   2.673   3.493  11.770
 6246SOL    HW219482   2.615   3.381  11.854
 6247SOL     OW19483   3.293   2.089  12.289
 6247SOL    HW119484   3.314   2.006  12.331
 6247SOL    HW219485   3.243   2.138  12.354
 6248SOL     OW19486   2.872   1.880  12.311
 6248SOL    HW119487   2.817   1.813  12.271
 6248SOL    HW219488   2.960   1.841  12.313
 6249SOL     OW19489   2.634   3.194  11.491
 6249SOL    HW119490   2.605   3.104  11.496
 6249SOL    HW219491   2.717   3.196  11.539
 6250SOL     OW19492   2.482   3.415  12.457
 6250SOL    HW119493   2.483   3.497  12.507
 6250SOL    HW219494   2.570   3.409  12.420
 6251SOL     OW19495   3.216   1.915  11.339
 6251SOL    HW119496   3.246   1.847  11.278
 6251SOL    HW219497   3.128   1.888  11.364
 6252SOL     OW19498   3.157   2.324  11.852
 6252SOL    HW119499   3.105   2.404  11.859
 6252SOL    HW219500   3.154   2.285  11.939
 6253SOL     OW19501   3.444   2.061  12.050
 6253SOL    HW119502   3.388   2.084  12.123
 6253SOL    HW219503   3.445   2.139  11.994
 6254SOL     OW19504   1.905   2.931  11.480
 6254SOL    HW119505   1.998   2.923  11.462
 6254SOL    HW219506   1.877   2.842  11.502
 6255SOL     OW19507   2.748   3.520  11.515
 6255SOL    HW119508   2.677   3.501  11.454
 6255SOL    HW219509   2.717   3.595  11.565
 6256SOL     OW19510   2.081   2.507  13.162
 6256SOL    HW119511   1.994   2.498  13.199
 6256SOL    HW219512   2.069   2.493  13.068
 6257SOL     OW19513   1.866   2.259  13.654
 6257SOL    HW119514   1.773   2.271  13.673
 6257SOL    HW219515   1.868   2.198  13.581
 6258SOL     OW19516   3.386   3.359  13.727
 6258SOL    HW119517   3.330   3.291  13.767
 6258SOL    HW219518   3.342   3.381  13.645
 6259SOL     OW19519   2.989   2.561  13.731
 6259SOL    HW119520   3.043   2.638  13.708
 6259SOL    HW219521   2.945   2.586  13.812
 6260SOL     OW19522   3.638   2.466  13.261
 6260SOL    HW119523   3.614   2.459  13.169
 6260SOL    HW219524   3.595   2.391  13.303
 6261SOL     OW19525   2.545   2.871  13.672
 6261SOL    HW119526   2.600   2.852  13.748
 6261SOL    HW219527   2.471   2.921  13.707
 6262SOL     OW19528   3.484   2.323  13.755
 6262SOL    HW119529   3.397   2.314  13.717
 6262SOL    HW219530   3.478   2.397  13.815
 6263SOL     OW19531   2.085   3.578  13.518
 6263SOL    HW119532   2.120   3.627  13.593
 6263SOL    HW219533   2.156   3.578  13.454
 6264SOL     OW19534   2.093   3.303  13.570
 6264SOL    HW119535   2.074   3.397  13.573
 6264SOL    HW219536   2.033   3.264  13.632
 6265SOL     OW19537   2.102   2.969   0.027
 6265SOL    HW119538   2.122   2.907   0.097
 6265SOL    HW219539   2.033   3.025   0.063
 6266SOL     OW19540   2.446   2.847  13.167
 6266SOL    HW119541   2.493   2.894  13.098
 6266SOL    HW219542   2.484   2.879  13.249
 6267SOL     OW19543   1.985   2.512  13.595
 6267SOL    HW119544   1.948   2.426  13.612
 6267SOL    HW219545   1.965   2.562  13.674
 6268SOL     OW19546   3.699   3.613  13.374
 6268SOL    HW119547   3.771   3.587  13.432
 6268SOL    HW219548   3.717   3.705  13.354
 6269SOL     OW19549   1.891   3.453  13.156
 6269SOL    HW119550   1.876   3.361  13.178
 6269SOL    HW219551   1.872   3.501  13.237
 6270SOL     OW19552   3.548   2.778  13.669
 6270SOL    HW119553   3.635   2.744  13.649
 6270SOL    HW219554   3.525   2.834  13.595
 6271SOL     OW19555   3.504   2.966  13.463
 6271SOL    HW119556   3.588   2.970  13.418
 6271SOL    HW219557   3.511   3.030  13.533
 6272SOL     OW19558   2.467   3.245  13.760
 6272SOL    HW119559   2.423   3.161  13.767
 6272SOL    HW219560   2.445   3.277  13.672
 6273SOL     OW19561   2.693   1.862  13.545
 6273SOL    HW119562   2.729   1.947  13.522
 6273SOL    HW219563   2.598   1.874  13.545
 6274SOL     OW19564   3.390   2.857  13.234
 6274SOL    HW119565   3.320   2.800  13.268
 6274SOL    HW219566   3.430   2.894  13.313
 6275SOL     OW19567   3.512   3.599  13.614
 6275SOL    HW119568   3.497   3.569  13.524
 6275SOL    HW219569   3.507   3.519  13.667
 6276SOL     OW19570   2.464   2.597  13.304
 6276SOL    HW119571   2.468   2.675  13.249
 6276SOL    HW219572   2.399   2.617  13.370
 6277SOL     OW19573   3.118   2.191   0.046
 6277SOL    HW119574   3.040   2.140   0.070
 6277SOL    HW219575   3.191   2.144   0.087
 6278SOL     OW19576   3.436   3.540  13.340
 6278SOL    HW119577   3.529   3.564  13.337
 6278SOL    HW219578   3.414   3.519  13.250
 6279SOL     OW19579   2.911   2.559  13.459
 6279SOL    HW119580   2.927   2.549  13.552
 6279SOL    HW219581   2.829   2.512  13.443
 6280SOL     OW19582   1.945   2.684  13.808
 6280SOL    HW119583   2.026   2.685  13.860
 6280SOL    HW219584   1.894   2.757  13.842
 6281SOL     OW19585   2.760   2.214  13.234
 6281SOL    HW119586   2.802   2.269  13.169
 6281SOL    HW219587   2.740   2.133  13.187
 6282SOL     OW19588   3.225   2.997  13.553
 6282SOL    HW119589   3.315   2.995  13.519
 6282SOL    HW219590   3.183   3.068  13.505
 6283SOL     OW19591   2.862   3.303  13.502
 6283SOL    HW119592   2.829   3.379  13.455
 6283SOL    HW219593   2.832   3.316  13.592
 6284SOL     OW19594   2.254   3.665  13.800
 6284SOL    HW119595   2.214   3.595  13.851
 6284SOL    HW219596   2.312   3.710  13.862
 6285SOL     OW19597   3.651   2.917  13.899
 6285SOL    HW119598   3.595   2.905  13.823
 6285SOL    HW219599   3.592   2.909   0.074
 6286SOL     OW19600   2.182   2.818  13.288
 6286SOL    HW119601   2.262   2.839  13.239
 6286SOL    HW219602   2.149   2.739  13.246
 6287SOL     OW19603   3.350   2.596  13.745
 6287SOL    HW119604   3.341   2.555  13.831
 6287SOL    HW219605   3.424   2.657  13.755
 6288SOL     OW19606   2.975   3.644  13.255
 6288SOL    HW119607   2.913   3.598  13.311
 6288SOL    HW219608   3.006   3.578  13.193
 6289SOL     OW19609   3.487   3.246  13.122
 6289SOL    HW119610   3.444   3.330  13.105
 6289SOL    HW219611   3.420   3.180  13.102
 6290SOL     OW19612   2.329   3.596  13.358
 6290SOL    HW119613   2.366   3.660  13.418
 6290SOL    HW219614   2.402   3.572  13.301
 6291SOL     OW19615   3.264   1.975  13.466
 6291SOL    HW119616   3.255   1.947  13.375
 6291SOL    HW219617   3.359   1.974  13.482
 6292SOL     OW19618   2.794   3.547   0.009
 6292SOL    HW119619   2.810   3.480   0.075
 6292SOL    HW219620   2.749   3.501  13.838
 6293SOL     OW19621   2.253   2.550  13.510
 6293SOL    HW119622   2.268   2.460  13.481
 6293SOL    HW219623   2.161   2.553  13.534
 6294SOL     OW19624   2.521   1.991  13.132
 6294SOL    HW119625   2.565   1.911  13.162
 6294SOL    HW219626   2.456   1.960  13.068
 6295SOL     OW19627   2.428   1.906  13.528
 6295SOL    HW119628   2.381   1.893  13.611
 6295SOL    HW219629   2.406   1.995  13.503
 6296SOL     OW19630   3.290   3.061  13.075
 6296SOL    HW119631   3.320   2.986  13.125
 6296SOL    HW219632   3.204   3.082  13.112
 6297SOL     OW19633   2.803   2.111  13.492
 6297SOL    HW119634   2.779   2.149  13.407
 6297SOL    HW219635   2.897   2.123  13.499
 6298SOL     OW19636   2.325   3.006  13.770
 6298SOL    HW119637   2.253   2.993  13.831
 6298SOL    HW219638   2.286   2.993  13.683
 6299SOL     OW19639   3.130   3.660  13.629
 6299SOL    HW119640   3.175   3.728  13.578
 6299SOL    HW219641   3.062   3.707  13.677
 6300SOL     OW19642   2.887   2.402  13.057
 6300SOL    HW119643   2.843   2.485  13.039
 6300SOL    HW219644   2.951   2.422  13.125
 6301SOL     OW19645   2.746   2.330  13.669
 6301SOL    HW119646   2.696   2.381  13.604
 6301SOL    HW219647   2.762   2.246  13.626
 6302SOL     OW19648   2.885   1.901  13.775
 6302SOL    HW119649   2.828   1.904  13.698
 6302SOL    HW219650   2.860   1.820  13.820
 6303SOL     OW19651   3.728   2.677  13.410
 6303SOL    HW119652   3.776   2.622  13.472
 6303SOL    HW219653   3.691   2.615  13.346
 6304SOL     OW19654   2.352   3.280  13.188
 6304SOL    HW119655   2.277   3.253  13.241
 6304SOL    HW219656   2.339   3.238  13.103
 6305SOL     OW19657   3.539   3.131  13.666
 6305SOL    HW119658   3.634   3.134  13.683
 6305SOL    HW219659   3.507   3.214  13.701
 6306SOL     OW19660   3.256   2.434  13.105
 6306SOL    HW119661   3.194   2.414  13.176
 6306SOL    HW219662   3.340   2.401  13.138
 6307SOL     OW19663   2.571   2.925  13.400
 6307SOL    HW119664   2.556   2.909  13.493
 6307SOL    HW219665   2.647   2.871  13.378
 6308SOL     OW19666   2.210   2.974  13.524
 6308SOL    HW119667   2.212   3.049  13.465
 6308SOL    HW219668   2.206   2.898  13.465
 6309SOL     OW19669   2.413   2.419  13.881
 6309SOL    HW119670   2.429   2.481  13.811
 6309SOL    HW219671   2.497   2.412   0.027
 6310SOL     OW19672   3.107   3.214  13.418
 6310SOL    HW119673   3.163   3.287  13.447
 6310SOL    HW219674   3.021   3.234  13.454
 6311SOL     OW19675   3.443   2.487  13.501
 6311SOL    HW119676   3.401   2.527  13.577
 6311SOL    HW219677   3.477   2.560  13.450
 6312SOL     OW19678   3.064   2.390  13.298
 6312SOL    HW119679   3.072   2.311  13.352
 6312SOL    HW219680   3.021   2.454  13.355
 6313SOL     OW19681   3.482   2.237  13.398
 6313SOL    HW119682   3.506   2.174  13.466
 6313SOL    HW219683   3.458   2.316  13.446
 6314SOL     OW19684   3.391   2.135  13.161
 6314SOL    HW119685   3.326   2.070  13.187
 6314SOL    HW219686   3.424   2.170  13.243
 6315SOL     OW19687   3.151   2.687  13.063
 6315SOL    HW119688   3.194   2.602  13.067
 6315SOL    HW219689   3.183   2.727  12.982
 6316SOL     OW19690   1.868   3.181  13.228
 6316SOL    HW119691   1.781   3.196  13.191
 6316SOL    HW219692   1.864   3.092  13.263
 6317SOL     OW19693   2.676   2.432  13.397
 6317SOL    HW119694   2.684   2.358  13.337
 6317SOL    HW219695   2.604   2.484  13.362
 6318SOL     OW19696   2.326   2.376  13.242
 6318SOL    HW119697   2.389   2.448  13.252
 6318SOL    HW219698   2.245   2.419  13.215
 6319SOL     OW19699   3.176   2.714  13.338
 6319SOL    HW119700   3.099   2.688  13.388
 6319SOL    HW219701   3.150   2.702  13.247
 6320SOL     OW19702   3.576   2.010  13.548
 6320SOL    HW119703   3.642   1.999  13.480
 6320SOL    HW219704   3.564   1.923  13.585
 6321SOL     OW19705   3.245   3.436  13.508
 6321SOL    HW119706   3.305   3.473  13.444
 6321SOL    HW219707   3.199   3.512  13.545
 6322SOL     OW19708   3.149   2.776  13.684
 6322SOL    HW119709   3.226   2.720  13.671
 6322SOL    HW219710   3.172   2.859  13.643
 6323SOL     OW19711   2.537   3.479  13.191
 6323SOL    HW119712   2.546   3.497  13.097
 6323SOL    HW219713   2.478   3.404  13.196
 6324SOL     OW19714   3.681   2.022   0.086
 6324SOL    HW119715   3.695   1.935   0.049
 6324SOL    HW219716   3.587   2.036   0.079
 6325SOL     OW19717   3.070   3.466  13.069
 6325SOL    HW119718   3.059   3.374  13.093
 6325SOL    HW219719   3.008   3.480  12.997
 6326SOL     OW19720   2.781   2.775  13.328
 6326SOL    HW119721   2.840   2.805  13.259
 6326SOL    HW219722   2.827   2.702  13.369
 6327SOL     OW19723   3.350   3.493  13.076
 6327SOL    HW119724   3.257   3.481  13.060
 6327SOL    HW219725   3.389   3.498  12.988
 6328SOL     OW19726   2.912   2.953  13.754
 6328SOL    HW119727   2.826   2.913  13.741
 6328SOL    HW219728   2.968   2.913  13.687
 6329SOL     OW19729   2.461   3.353  13.506
 6329SOL    HW119730   2.507   3.303  13.439
 6329SOL    HW219731   2.395   3.403  13.458
 6330SOL     OW19732   2.122   3.204  13.324
 6330SOL    HW119733   2.030   3.202  13.301
 6330SOL    HW219734   2.125   3.244  13.411
 6331SOL     OW19735   3.040   3.199  13.149
 6331SOL    HW119736   2.948   3.170  13.151
 6331SOL    HW219737   3.067   3.200  13.241
 6332SOL     OW19738   3.079   2.182  13.492
 6332SOL    HW119739   3.141   2.110  13.481
 6332SOL    HW219740   3.110   2.230  13.568
 6333SOL     OW19741   2.454   2.607  13.690
 6333SOL    HW119742   2.490   2.695  13.672
 6333SOL    HW219743   2.383   2.597  13.627
 6334SOL     OW19744   2.726   3.229  13.071
 6334SOL    HW119745   2.685   3.257  13.154
 6334SOL    HW219746   2.741   3.310  13.024
 6335SOL     OW19747   2.513   3.713   0.067
 6335SOL    HW119748   2.509   3.807   0.084
 6335SOL    HW219749   2.605   3.691   0.079
 6336SOL     OW19750   2.689   2.827  13.896
 6336SOL    HW119751   2.720   2.744   0.032
 6336SOL    HW219752   2.719   2.894   0.058
 6337SOL     OW19753   2.938   2.848  13.122
 6337SOL    HW119754   2.918   2.901  13.045
 6337SOL    HW219755   3.014   2.795  13.096
 6338SOL     OW19756   1.953   3.093  13.700
 6338SOL    HW119757   1.948   3.036  13.777
 6338SOL    HW219758   2.020   3.053  13.645
 6339SOL     OW19759   3.541   3.323   0.346
 6339SOL    HW119760   3.511   3.295   0.259
 6339SOL    HW219761   3.628   3.284   0.354
 6340SOL     OW19762   2.680   3.412  13.708
 6340SOL    HW119763   2.655   3.464  13.632
 6340SOL    HW219764   2.603   3.357  13.726
 6341SOL     OW19765   2.634   3.195  13.349
 6341SOL    HW119766   2.605   3.104  13.356
 6341SOL    HW219767   2.716   3.198  13.398
 6342SOL     OW19768   3.216   1.915  13.200
 6342SOL    HW119769   3.246   1.847  13.140
 6342SOL    HW219770   3.128   1.888  13.225
 6343SOL     OW19771   3.166   2.322  13.712
 6343SOL    HW119772   3.112   2.401  13.719
 6343SOL    HW219773   3.151   2.276  13.795
 6344SOL     OW19774   1.906   2.930  13.340
 6344SOL    HW119775   1.999   2.923  13.323
 6344SOL    HW219776   1.878   2.841  13.363
 6345SOL     OW19777   2.748   3.520  13.377
 6345SOL    HW119778   2.676   3.502  13.316
 6345SOL    HW219779   2.717   3.594  13.429
 6346SOL     OW19780   2.094   3.982   0.984
 6346SOL    HW119781   2.117   3.962   1.075
 6346SOL    HW219782   2.003   3.953   0.976
 6347SOL     OW19783   1.877   0.063   0.712
 6347SOL    HW119784   1.800   0.109   0.678
 6347SOL    HW219785   1.910   0.013   0.637
 6348SOL     OW19786   3.660   0.360   0.255
 6348SOL    HW119787   3.637   0.306   0.179
 6348SOL    HW219788   3.580   0.363   0.307
 6349SOL     OW19789   2.301   0.096   1.506
 6349SOL    HW119790   2.374   0.054   1.460
 6349SOL    HW219791   2.225   0.042   1.485
 6350SOL     OW19792   3.458   3.850   1.461
 6350SOL    HW119793   3.461   3.936   1.420
 6350SOL    HW219794   3.444   3.868   1.554
 6351SOL     OW19795   2.668   3.727   0.506
 6351SOL    HW119796   2.696   3.818   0.497
 6351SOL    HW219797   2.573   3.732   0.516
 6352SOL     OW19798   3.130   0.062   0.936
 6352SOL    HW119799   3.057   0.008   0.905
 6352SOL    HW219800   3.185   0.002   0.986
 6353SOL     OW19801   2.416   3.904   0.891
 6353SOL    HW119802   2.410   3.924   0.985
 6353SOL    HW219803   2.411   3.989   0.848
 6354SOL     OW19804   2.053   3.983   1.489
 6354SOL    HW119805   2.000   0.063   1.498
 6354SOL    HW219806   2.015   3.923   1.553
 6355SOL     OW19807   3.270   3.839   0.428
 6355SOL    HW119808   3.263   3.798   0.342
 6355SOL    HW219809   3.360   3.822   0.456
 6356SOL     OW19810   3.398   3.939   1.724
 6356SOL    HW119811   3.423   3.941   1.816
 6356SOL    HW219812   3.329   3.872   1.720
 6357SOL     OW19813   2.635   3.958   1.744
 6357SOL    HW119814   2.687   3.928   1.818
 6357SOL    HW219815   2.548   3.975   1.781
 6358SOL     OW19816   2.396   3.783   0.514
 6358SOL    HW119817   2.347   3.782   0.596
 6358SOL    HW219818   2.406   3.876   0.493
 6359SOL     OW19819   2.134   3.744   0.210
 6359SOL    HW119820   2.166   3.830   0.185
 6359SOL    HW219821   2.213   3.695   0.234
 6360SOL     OW19822   2.420   3.944   1.169
 6360SOL    HW119823   2.462   3.871   1.215
 6360SOL    HW219824   2.328   3.940   1.196
 6361SOL     OW19825   2.882   3.767   0.736
 6361SOL    HW119826   2.817   3.756   0.667
 6361SOL    HW219827   2.859   3.702   0.802
 6362SOL     OW19828   2.785   3.803   1.398
 6362SOL    HW119829   2.814   3.783   1.309
 6362SOL    HW219830   2.858   3.852   1.436
 6363SOL     OW19831   3.129   0.075   1.265
 6363SOL    HW119832   3.140   0.144   1.331
 6363SOL    HW219833   3.061   0.110   1.207
 6364SOL     OW19834   2.370   3.749   1.756
 6364SOL    HW119835   2.315   3.704   1.692
 6364SOL    HW219836   2.340   3.840   1.754
 6365SOL     OW19837   2.157   3.920   1.251
 6365SOL    HW119838   2.112   3.939   1.334
 6365SOL    HW219839   2.145   3.826   1.238
 6366SOL     OW19840   3.461   3.937   0.155
 6366SOL    HW119841   3.380   3.886   0.156
 6366SOL    HW219842   3.436   0.022   0.192
 6367SOL     OW19843   3.025   3.922   1.473
 6367SOL    HW119844   3.028   3.996   1.534
 6367SOL    HW219845   3.067   3.955   1.393
 6368SOL     OW19846   2.781   3.823   0.150
 6368SOL    HW119847   2.812   3.816   0.060
 6368SOL    HW219848   2.841   3.769   0.201
 6369SOL     OW19849   3.588   3.862   0.531
 6369SOL    HW119850   3.656   3.849   0.466
 6369SOL    HW219851   3.568   3.775   0.563
 6370SOL     OW19852   3.697   3.895   0.963
 6370SOL    HW119853   3.730   3.808   0.939
 6370SOL    HW219854   3.611   3.900   0.921
 6371SOL     OW19855   2.538   3.910   1.491
 6371SOL    HW119856   2.620   3.902   1.443
 6371SOL    HW219857   2.563   3.932   1.580
 6372SOL     OW19858   1.926   3.858   0.341
 6372SOL    HW119859   1.909   3.939   0.292
 6372SOL    HW219860   2.006   3.823   0.303
 6373SOL     OW19861   3.052   0.009   0.466
 6373SOL    HW119862   3.117   3.940   0.468
 6373SOL    HW219863   3.074   0.064   0.542
 6374SOL     OW19864   3.647   0.048   1.629
 6374SOL    HW119865   3.604   0.081   1.550
 6374SOL    HW219866   3.577   0.004   1.677
 6375SOL     OW19867   3.678   3.910   1.236
 6375SOL    HW119868   3.667   3.818   1.259
 6375SOL    HW219869   3.687   3.910   1.140
 6376SOL     OW19870   3.301   3.933   1.117
 6376SOL    HW119871   3.329   3.851   1.159
 6376SOL    HW219872   3.242   3.974   1.181
 6377SOL     OW19873   2.877   3.736   1.148
 6377SOL    HW119874   2.819   3.681   1.096
 6377SOL    HW219875   2.962   3.693   1.143
 6378SOL     OW19876   3.214   3.783   0.151
 6378SOL    HW119877   3.253   3.711   0.100
 6378SOL    HW219878   3.131   3.747   0.182
 6379SOL     OW19879   3.146   0.163   0.680
 6379SOL    HW119880   3.142   0.258   0.687
 6379SOL    HW219881   3.150   0.132   0.770
 6380SOL     OW19882   3.441   3.930   0.879
 6380SOL    HW119883   3.389   3.932   0.960
 6380SOL    HW219884   3.438   0.020   0.847
 6381SOL     OW19885   2.094   3.981   2.845
 6381SOL    HW119886   2.118   3.962   2.936
 6381SOL    HW219887   2.003   3.953   2.837
 6382SOL     OW19888   1.875   0.061   2.576
 6382SOL    HW119889   1.803   0.113   2.541
 6382SOL    HW219890   1.908   0.012   2.501
 6383SOL     OW19891   3.634   0.320   2.045
 6383SOL    HW119892   3.558   0.304   1.989
 6383SOL    HW219893   3.597   0.341   2.130
 6384SOL     OW19894   2.301   0.096   3.368
 6384SOL    HW119895   2.374   0.054   3.322
 6384SOL    HW219896   2.225   0.042   3.347
 6385SOL     OW19897   3.458   3.850   3.323
 6385SOL    HW119898   3.461   3.936   3.282
 6385SOL    HW219899   3.444   3.868   3.416
 6386SOL     OW19900   2.668   3.729   2.367
 6386SOL    HW119901   2.695   3.821   2.361
 6386SOL    HW219902   2.573   3.732   2.376
 6387SOL     OW19903   3.129   0.062   2.801
 6387SOL    HW119904   3.058   0.008   2.767
 6387SOL    HW219905   3.185   0.001   2.849
 6388SOL     OW19906   2.416   3.905   2.753
 6388SOL    HW119907   2.410   3.924   2.847
 6388SOL    HW219908   2.411   3.990   2.711
 6389SOL     OW19909   2.052   3.983   3.351
 6389SOL    HW119910   2.001   0.063   3.360
 6389SOL    HW219911   2.015   3.923   3.415
 6390SOL     OW19912   3.268   3.833   2.291
 6390SOL    HW119913   3.259   3.800   2.202
 6390SOL    HW219914   3.360   3.820   2.313
 6391SOL     OW19915   3.398   3.939   3.586
 6391SOL    HW119916   3.423   3.941   3.678
 6391SOL    HW219917   3.329   3.872   3.582
 6392SOL     OW19918   2.490   3.848   1.989
 6392SOL    HW119919   2.581   3.819   1.989
 6392SOL    HW219920   2.449   3.801   1.916
 6393SOL     OW19921   2.635   3.958   3.606
 6393SOL    HW119922   2.687   3.928   3.680
 6393SOL    HW219923   2.548   3.976   3.643
 6394SOL     OW19924   2.396   3.785   2.376
 6394SOL    HW119925   2.349   3.787   2.459
 6394SOL    HW219926   2.405   3.877   2.351
 6395SOL     OW19927   2.148   3.758   2.041
 6395SOL    HW119928   2.189   3.844   2.032
 6395SOL    HW219929   2.216   3.703   2.080
 6396SOL     OW19930   2.420   3.943   3.030
 6396SOL    HW119931   2.462   3.871   3.078
 6396SOL    HW219932   2.328   3.939   3.058
 6397SOL     OW19933   2.882   3.767   2.598
 6397SOL    HW119934   2.817   3.755   2.528
 6397SOL    HW219935   2.859   3.702   2.664
 6398SOL     OW19936   2.785   3.803   3.260
 6398SOL    HW119937   2.814   3.783   3.171
 6398SOL    HW219938   2.858   3.852   3.298
 6399SOL     OW19939   3.129   0.075   3.127
 6399SOL    HW119940   3.140   0.144   3.193
 6399SOL    HW219941   3.061   0.110   3.069
 6400SOL     OW19942   2.370   3.749   3.618
 6400SOL    HW119943   2.315   3.704   3.554
 6400SOL    HW219944   2.340   3.840   3.616
 6401SOL     OW19945   2.157   3.920   3.113
 6401SOL    HW119946   2.112   3.939   3.196
 6401SOL    HW219947   2.144   3.826   3.100
 6402SOL     OW19948   3.444   3.955   1.985
 6402SOL    HW119949   3.379   3.898   2.027
 6402SOL    HW219950   3.457   0.026   2.047
 6403SOL     OW19951   3.025   3.922   3.335
 6403SOL    HW119952   3.028   3.996   3.396
 6403SOL    HW219953   3.067   3.955   3.255
 6404SOL     OW19954   2.763   3.811   1.965
 6404SOL    HW119955   2.823   3.773   1.902
 6404SOL    HW219956   2.803   3.794   2.050
 6405SOL     OW19957   3.590   3.860   2.386
 6405SOL    HW119958   3.658   3.845   2.321
 6405SOL    HW219959   3.569   3.772   2.419
 6406SOL     OW19960   3.697   3.896   2.825
 6406SOL    HW119961   3.730   3.809   2.802
 6406SOL    HW219962   3.611   3.901   2.783
 6407SOL     OW19963   2.538   3.910   3.353
 6407SOL    HW119964   2.620   3.902   3.305
 6407SOL    HW219965   2.563   3.932   3.442
 6408SOL     OW19966   1.907   0.053   1.896
 6408SOL    HW119967   1.868   0.030   1.812
 6408SOL    HW219968   1.937   0.143   1.885
 6409SOL     OW19969   1.924   3.865   2.171
 6409SOL    HW119970   1.913   3.955   2.140
 6409SOL    HW219971   2.006   3.835   2.131
 6410SOL     OW19972   3.055   0.012   2.328
 6410SOL    HW119973   3.123   3.945   2.326
 6410SOL    HW219974   3.076   0.066   2.404
 6411SOL     OW19975   3.647   0.048   3.491
 6411SOL    HW119976   3.604   0.081   3.412
 6411SOL    HW219977   3.577   0.004   3.539
 6412SOL     OW19978   3.678   3.910   3.098
 6412SOL    HW119979   3.667   3.818   3.121
 6412SOL    HW219980   3.687   3.910   3.003
 6413SOL     OW19981   3.301   3.932   2.979
 6413SOL    HW119982   3.329   3.851   3.022
 6413SOL    HW219983   3.243   3.974   3.043
 6414SOL     OW19984   2.877   3.736   3.010
 6414SOL    HW119985   2.819   3.681   2.958
 6414SOL    HW219986   2.962   3.693   3.005
 6415SOL     OW19987   3.217   3.771   2.021
 6415SOL    HW119988   3.250   3.700   1.965
 6415SOL    HW219989   3.129   3.742   2.047
 6416SOL     OW19990   3.144   0.162   2.545
 6416SOL    HW119991   3.144   0.257   2.549
 6416SOL    HW219992   3.149   0.133   2.636
 6417SOL     OW19993   3.441   3.930   2.741
 6417SOL    HW119994   3.389   3.932   2.822
 6417SOL    HW219995   3.437   0.020   2.709
 6418SOL     OW19996   2.094   3.980   4.707
 6418SOL    HW119997   2.118   3.962   4.798
 6418SOL    HW219998   2.003   3.953   4.699
 6419SOL     OW19999   1.875   0.061   4.438
 6419SOL    HW120000   1.803   0.113   4.403
 6419SOL    HW220001   1.908   0.012   4.363
 6420SOL     OW20002   3.634   0.320   3.907
 6420SOL    HW120003   3.558   0.304   3.851
 6420SOL    HW220004   3.597   0.341   3.992
 6421SOL     OW20005   2.301   0.096   5.230
 6421SOL    HW120006   2.374   0.054   5.184
 6421SOL    HW220007   2.225   0.041   5.209
 6422SOL     OW20008   3.458   3.850   5.185
 6422SOL    HW120009   3.461   3.936   5.144
 6422SOL    HW220010   3.444   3.867   5.278
 6423SOL     OW20011   2.668   3.729   4.229
 6423SOL    HW120012   2.695   3.821   4.223
 6423SOL    HW220013   2.573   3.732   4.238
 6424SOL     OW20014   3.129   0.062   4.663
 6424SOL    HW120015   3.058   0.008   4.630
 6424SOL    HW220016   3.185   0.001   4.711
 6425SOL     OW20017   2.416   3.905   4.615
 6425SOL    HW120018   2.410   3.924   4.709
 6425SOL    HW220019   2.411   3.990   4.573
 6426SOL     OW20020   2.052   3.983   5.213
 6426SOL    HW120021   2.001   0.064   5.222
 6426SOL    HW220022   2.015   3.924   5.278
 6427SOL     OW20023   3.268   3.833   4.153
 6427SOL    HW120024   3.259   3.800   4.064
 6427SOL    HW220025   3.360   3.820   4.175
 6428SOL     OW20026   3.398   3.939   5.448
 6428SOL    HW120027   3.423   3.941   5.540
 6428SOL    HW220028   3.329   3.872   5.444
 6429SOL     OW20029   2.490   3.848   3.851
 6429SOL    HW120030   2.581   3.819   3.851
 6429SOL    HW220031   2.449   3.801   3.778
 6430SOL     OW20032   2.635   3.958   5.468
 6430SOL    HW120033   2.687   3.928   5.542
 6430SOL    HW220034   2.548   3.976   5.505
 6431SOL     OW20035   2.396   3.785   4.238
 6431SOL    HW120036   2.349   3.787   4.321
 6431SOL    HW220037   2.405   3.877   4.213
 6432SOL     OW20038   2.148   3.758   3.903
 6432SOL    HW120039   2.188   3.845   3.894
 6432SOL    HW220040   2.216   3.704   3.942
 6433SOL     OW20041   2.419   3.943   4.892
 6433SOL    HW120042   2.462   3.871   4.940
 6433SOL    HW220043   2.328   3.939   4.920
 6434SOL     OW20044   2.882   3.767   4.460
 6434SOL    HW120045   2.817   3.755   4.390
 6434SOL    HW220046   2.859   3.702   4.526
 6435SOL     OW20047   2.785   3.803   5.122
 6435SOL    HW120048   2.814   3.783   5.033
 6435SOL    HW220049   2.858   3.852   5.160
 6436SOL     OW20050   3.129   0.075   4.989
 6436SOL    HW120051   3.140   0.144   5.055
 6436SOL    HW220052   3.061   0.110   4.931
 6437SOL     OW20053   2.371   3.749   5.480
 6437SOL    HW120054   2.315   3.704   5.416
 6437SOL    HW220055   2.340   3.840   5.478
 6438SOL     OW20056   2.156   3.920   4.975
 6438SOL    HW120057   2.112   3.939   5.058
 6438SOL    HW220058   2.144   3.826   4.962
 6439SOL     OW20059   3.444   3.955   3.847
 6439SOL    HW120060   3.379   3.898   3.889
 6439SOL    HW220061   3.457   0.026   3.909
 6440SOL     OW20062   3.025   3.922   5.197
 6440SOL    HW120063   3.028   3.996   5.258
 6440SOL    HW220064   3.067   3.955   5.117
 6441SOL     OW20065   2.763   3.811   3.827
 6441SOL    HW120066   2.823   3.773   3.764
 6441SOL    HW220067   2.803   3.794   3.912
 6442SOL     OW20068   3.590   3.860   4.248
 6442SOL    HW120069   3.658   3.845   4.183
 6442SOL    HW220070   3.569   3.772   4.281
 6443SOL     OW20071   3.697   3.896   4.687
 6443SOL    HW120072   3.730   3.809   4.664
 6443SOL    HW220073   3.611   3.901   4.645
 6444SOL     OW20074   2.538   3.910   5.215
 6444SOL    HW120075   2.620   3.902   5.167
 6444SOL    HW220076   2.563   3.932   5.304
 6445SOL     OW20077   1.907   0.053   3.758
 6445SOL    HW120078   1.868   0.030   3.674
 6445SOL    HW220079   1.937   0.143   3.747
 6446SOL     OW20080   1.924   3.865   4.033
 6446SOL    HW120081   1.913   3.955   4.002
 6446SOL    HW220082   2.006   3.835   3.992
 6447SOL     OW20083   3.055   0.011   4.190
 6447SOL    HW120084   3.123   3.945   4.188
 6447SOL    HW220085   3.076   0.066   4.266
 6448SOL     OW20086   3.647   0.048   5.353
 6448SOL    HW120087   3.604   0.081   5.274
 6448SOL    HW220088   3.577   0.004   5.401
 6449SOL     OW20089   3.678   3.910   4.960
 6449SOL    HW120090   3.667   3.818   4.983
 6449SOL    HW220091   3.687   3.910   4.865
 6450SOL     OW20092   3.301   3.932   4.841
 6450SOL    HW120093   3.329   3.851   4.884
 6450SOL    HW220094   3.243   3.974   4.905
 6451SOL     OW20095   2.877   3.736   4.872
 6451SOL    HW120096   2.819   3.681   4.820
 6451SOL    HW220097   2.962   3.693   4.867
 6452SOL     OW20098   3.217   3.771   3.883
 6452SOL    HW120099   3.250   3.700   3.827
 6452SOL    HW220100   3.129   3.742   3.908
 6453SOL     OW20101   3.144   0.162   4.407
 6453SOL    HW120102   3.144   0.257   4.411
 6453SOL    HW220103   3.149   0.133   4.498
 6454SOL     OW20104   3.441   3.930   4.603
 6454SOL    HW120105   3.389   3.932   4.684
 6454SOL    HW220106   3.437   0.020   4.571
 6455SOL     OW20107   2.095   3.980   6.569
 6455SOL    HW120108   2.118   3.962   6.660
 6455SOL    HW220109   2.004   3.952   6.561
 6456SOL     OW20110   1.876   0.061   6.300
 6456SOL    HW120111   1.803   0.113   6.266
 6456SOL    HW220112   1.907   0.011   6.225
 6457SOL     OW20113   3.634   0.319   5.769
 6457SOL    HW120114   3.558   0.304   5.713
 6457SOL    HW220115   3.597   0.341   5.854
 6458SOL     OW20116   2.302   0.095   7.093
 6458SOL    HW120117   2.373   0.053   7.045
 6458SOL    HW220118   2.224   0.042   7.071
 6459SOL     OW20119   3.458   3.850   7.047
 6459SOL    HW120120   3.461   3.936   7.006
 6459SOL    HW220121   3.444   3.868   7.140
 6460SOL     OW20122   2.668   3.729   6.090
 6460SOL    HW120123   2.694   3.821   6.084
 6460SOL    HW220124   2.573   3.732   6.100
 6461SOL     OW20125   3.129   0.062   6.525
 6461SOL    HW120126   3.058   0.008   6.491
 6461SOL    HW220127   3.185   0.001   6.573
 6462SOL     OW20128   2.416   3.905   6.477
 6462SOL    HW120129   2.410   3.924   6.571
 6462SOL    HW220130   2.411   3.990   6.434
 6463SOL     OW20131   2.053   3.984   7.075
 6463SOL    HW120132   2.000   0.064   7.082
 6463SOL    HW220133   2.014   3.924   7.139
 6464SOL     OW20134   3.268   3.833   6.015
 6464SOL    HW120135   3.259   3.800   5.926
 6464SOL    HW220136   3.360   3.820   6.037
 6465SOL     OW20137   3.398   3.939   7.310
 6465SOL    HW120138   3.423   3.941   7.402
 6465SOL    HW220139   3.329   3.872   7.305
 6466SOL     OW20140   2.490   3.848   5.713
 6466SOL    HW120141   2.581   3.820   5.713
 6466SOL    HW220142   2.449   3.801   5.640
 6467SOL     OW20143   2.635   3.959   7.330
 6467SOL    HW120144   2.687   3.929   7.404
 6467SOL    HW220145   2.548   3.976   7.367
 6468SOL     OW20146   2.396   3.785   6.100
 6468SOL    HW120147   2.348   3.787   6.183
 6468SOL    HW220148   2.405   3.877   6.075
 6469SOL     OW20149   2.148   3.759   5.765
 6469SOL    HW120150   2.188   3.845   5.756
 6469SOL    HW220151   2.216   3.704   5.804
 6470SOL     OW20152   2.419   3.943   6.755
 6470SOL    HW120153   2.461   3.871   6.801
 6470SOL    HW220154   2.328   3.939   6.782
 6471SOL     OW20155   2.882   3.767   6.322
 6471SOL    HW120156   2.818   3.754   6.252
 6471SOL    HW220157   2.859   3.702   6.388
 6472SOL     OW20158   2.785   3.803   6.984
 6472SOL    HW120159   2.814   3.783   6.895
 6472SOL    HW220160   2.858   3.852   7.022
 6473SOL     OW20161   3.129   0.075   6.851
 6473SOL    HW120162   3.140   0.144   6.917
 6473SOL    HW220163   3.061   0.109   6.793
 6474SOL     OW20164   2.370   3.750   7.342
 6474SOL    HW120165   2.315   3.705   7.278
 6474SOL    HW220166   2.340   3.840   7.340
 6475SOL     OW20167   2.157   3.920   6.837
 6475SOL    HW120168   2.112   3.939   6.920
 6475SOL    HW220169   2.145   3.826   6.824
 6476SOL     OW20170   3.444   3.955   5.709
 6476SOL    HW120171   3.379   3.898   5.751
 6476SOL    HW220172   3.457   0.027   5.771
 6477SOL     OW20173   3.025   3.922   7.059
 6477SOL    HW120174   3.029   3.996   7.120
 6477SOL    HW220175   3.067   3.955   6.979
 6478SOL     OW20176   2.763   3.811   5.689
 6478SOL    HW120177   2.824   3.773   5.626
 6478SOL    HW220178   2.803   3.794   5.774
 6479SOL     OW20179   3.590   3.860   6.110
 6479SOL    HW120180   3.658   3.845   6.045
 6479SOL    HW220181   3.569   3.772   6.143
 6480SOL     OW20182   3.697   3.896   6.550
 6480SOL    HW120183   3.730   3.809   6.526
 6480SOL    HW220184   3.611   3.901   6.507
 6481SOL     OW20185   2.538   3.910   7.077
 6481SOL    HW120186   2.621   3.902   7.029
 6481SOL    HW220187   2.564   3.933   7.166
 6482SOL     OW20188   1.907   0.052   5.620
 6482SOL    HW120189   1.868   0.030   5.535
 6482SOL    HW220190   1.938   0.142   5.609
 6483SOL     OW20191   1.924   3.865   5.895
 6483SOL    HW120192   1.913   3.955   5.865
 6483SOL    HW220193   2.005   3.836   5.854
 6484SOL     OW20194   3.055   0.012   6.052
 6484SOL    HW120195   3.123   3.945   6.050
 6484SOL    HW220196   3.076   0.066   6.128
 6485SOL     OW20197   3.647   0.048   7.216
 6485SOL    HW120198   3.605   0.081   7.136
 6485SOL    HW220199   3.576   0.004   7.263
 6486SOL     OW20200   3.678   3.910   6.822
 6486SOL    HW120201   3.667   3.818   6.845
 6486SOL    HW220202   3.687   3.910   6.727
 6487SOL     OW20203   3.301   3.932   6.703
 6487SOL    HW120204   3.329   3.851   6.746
 6487SOL    HW220205   3.243   3.973   6.767
 6488SOL     OW20206   2.877   3.736   6.734
 6488SOL    HW120207   2.819   3.681   6.682
 6488SOL    HW220208   2.962   3.693   6.729
 6489SOL     OW20209   3.217   3.771   5.745
 6489SOL    HW120210   3.250   3.700   5.689
 6489SOL    HW220211   3.129   3.742   5.770
 6490SOL     OW20212   3.144   0.162   6.269
 6490SOL    HW120213   3.144   0.257   6.273
 6490SOL    HW220214   3.149   0.133   6.360
 6491SOL     OW20215   3.441   3.930   6.465
 6491SOL    HW120216   3.389   3.932   6.546
 6491SOL    HW220217   3.437   0.020   6.433
 6492SOL     OW20218   2.095   3.980   8.431
 6492SOL    HW120219   2.118   3.962   8.522
 6492SOL    HW220220   2.003   3.953   8.423
 6493SOL     OW20221   1.876   0.060   8.162
 6493SOL    HW120222   1.804   0.114   8.128
 6493SOL    HW220223   1.908   0.011   8.087
 6494SOL     OW20224   3.634   0.321   7.631
 6494SOL    HW120225   3.558   0.304   7.575
 6494SOL    HW220226   3.597   0.341   7.717
 6495SOL     OW20227   2.301   0.095   8.954
 6495SOL    HW120228   2.374   0.053   8.908
 6495SOL    HW220229   2.225   0.042   8.933
 6496SOL     OW20230   3.458   3.850   8.909
 6496SOL    HW120231   3.461   3.936   8.868
 6496SOL    HW220232   3.444   3.868   9.002
 6497SOL     OW20233   2.668   3.729   7.953
 6497SOL    HW120234   2.695   3.821   7.947
 6497SOL    HW220235   2.573   3.733   7.962
 6498SOL     OW20236   3.129   0.062   8.387
 6498SOL    HW120237   3.058   0.007   8.353
 6498SOL    HW220238   3.185   0.002   8.435
 6499SOL     OW20239   2.416   3.904   8.339
 6499SOL    HW120240   2.410   3.924   8.433
 6499SOL    HW220241   2.411   3.990   8.297
 6500SOL     OW20242   2.053   3.983   8.937
 6500SOL    HW120243   2.000   0.063   8.945
 6500SOL    HW220244   2.015   3.923   9.001
 6501SOL     OW20245   3.267   3.833   7.877
 6501SOL    HW120246   3.259   3.800   7.788
 6501SOL    HW220247   3.359   3.819   7.899
 6502SOL     OW20248   3.398   3.939   9.172
 6502SOL    HW120249   3.423   3.941   9.264
 6502SOL    HW220250   3.329   3.872   9.167
 6503SOL     OW20251   2.490   3.848   7.575
 6503SOL    HW120252   2.581   3.819   7.575
 6503SOL    HW220253   2.449   3.802   7.502
 6504SOL     OW20254   2.635   3.958   9.192
 6504SOL    HW120255   2.687   3.928   9.266
 6504SOL    HW220256   2.548   3.976   9.229
 6505SOL     OW20257   2.396   3.785   7.962
 6505SOL    HW120258   2.348   3.787   8.045
 6505SOL    HW220259   2.405   3.877   7.937
 6506SOL     OW20260   2.148   3.758   7.627
 6506SOL    HW120261   2.188   3.845   7.618
 6506SOL    HW220262   2.217   3.704   7.665
 6507SOL     OW20263   2.419   3.943   8.616
 6507SOL    HW120264   2.462   3.871   8.664
 6507SOL    HW220265   2.328   3.939   8.644
 6508SOL     OW20266   2.882   3.767   8.184
 6508SOL    HW120267   2.817   3.755   8.115
 6508SOL    HW220268   2.859   3.702   8.250
 6509SOL     OW20269   2.785   3.803   8.846
 6509SOL    HW120270   2.814   3.783   8.757
 6509SOL    HW220271   2.858   3.852   8.884
 6510SOL     OW20272   3.129   0.075   8.713
 6510SOL    HW120273   3.140   0.144   8.779
 6510SOL    HW220274   3.061   0.110   8.655
 6511SOL     OW20275   2.370   3.749   9.204
 6511SOL    HW120276   2.315   3.704   9.140
 6511SOL    HW220277   2.340   3.840   9.202
 6512SOL     OW20278   2.156   3.920   8.699
 6512SOL    HW120279   2.112   3.939   8.782
 6512SOL    HW220280   2.144   3.826   8.686
 6513SOL     OW20281   3.444   3.954   7.571
 6513SOL    HW120282   3.380   3.897   7.613
 6513SOL    HW220283   3.458   0.025   7.634
 6514SOL     OW20284   3.025   3.922   8.921
 6514SOL    HW120285   3.029   3.996   8.982
 6514SOL    HW220286   3.067   3.955   8.841
 6515SOL     OW20287   2.763   3.811   7.551
 6515SOL    HW120288   2.823   3.773   7.487
 6515SOL    HW220289   2.804   3.794   7.635
 6516SOL     OW20290   3.590   3.860   7.972
 6516SOL    HW120291   3.658   3.846   7.907
 6516SOL    HW220292   3.569   3.772   8.005
 6517SOL     OW20293   3.697   3.895   8.412
 6517SOL    HW120294   3.730   3.809   8.388
 6517SOL    HW220295   3.611   3.900   8.369
 6518SOL     OW20296   2.538   3.910   8.938
 6518SOL    HW120297   2.621   3.902   8.891
 6518SOL    HW220298   2.563   3.932   9.028
 6519SOL     OW20299   1.908   0.052   7.482
 6519SOL    HW120300   1.868   0.029   7.398
 6519SOL    HW220301   1.938   0.143   7.470
 6520SOL     OW20302   1.924   3.865   7.758
 6520SOL    HW120303   1.912   3.955   7.727
 6520SOL    HW220304   2.006   3.836   7.717
 6521SOL     OW20305   3.054   0.011   7.915
 6521SOL    HW120306   3.123   3.945   7.912
 6521SOL    HW220307   3.076   0.066   7.990
 6522SOL     OW20308   3.647   0.048   9.077
 6522SOL    HW120309   3.605   0.081   8.998
 6522SOL    HW220310   3.577   0.004   9.125
 6523SOL     OW20311   3.678   3.910   8.684
 6523SOL    HW120312   3.667   3.818   8.707
 6523SOL    HW220313   3.687   3.910   8.589
 6524SOL     OW20314   3.301   3.932   8.565
 6524SOL    HW120315   3.329   3.851   8.608
 6524SOL    HW220316   3.243   3.973   8.629
 6525SOL     OW20317   2.877   3.736   8.596
 6525SOL    HW120318   2.819   3.681   8.544
 6525SOL    HW220319   2.962   3.693   8.591
 6526SOL     OW20320   3.217   3.770   7.607
 6526SOL    HW120321   3.250   3.700   7.551
 6526SOL    HW220322   3.129   3.742   7.632
 6527SOL     OW20323   3.144   0.162   8.131
 6527SOL    HW120324   3.145   0.257   8.136
 6527SOL    HW220325   3.149   0.133   8.222
 6528SOL     OW20326   3.440   3.930   8.327
 6528SOL    HW120327   3.389   3.932   8.408
 6528SOL    HW220328   3.438   0.020   8.295
 6529SOL     OW20329   2.095   3.980  10.293
 6529SOL    HW120330   2.118   3.962  10.384
 6529SOL    HW220331   2.003   3.953  10.285
 6530SOL     OW20332   1.875   0.061  10.024
 6530SOL    HW120333   1.804   0.113   9.989
 6530SOL    HW220334   1.908   0.011   9.949
 6531SOL     OW20335   3.634   0.320   9.493
 6531SOL    HW120336   3.558   0.304   9.437
 6531SOL    HW220337   3.597   0.341   9.578
 6532SOL     OW20338   2.301   0.095  10.816
 6532SOL    HW120339   2.374   0.054  10.770
 6532SOL    HW220340   2.225   0.042  10.795
 6533SOL     OW20341   3.458   3.850  10.771
 6533SOL    HW120342   3.461   3.936  10.730
 6533SOL    HW220343   3.444   3.868  10.864
 6534SOL     OW20344   2.668   3.729   9.815
 6534SOL    HW120345   2.695   3.821   9.809
 6534SOL    HW220346   2.573   3.732   9.824
 6535SOL     OW20347   3.129   0.062  10.249
 6535SOL    HW120348   3.058   0.008  10.215
 6535SOL    HW220349   3.185   0.001  10.297
 6536SOL     OW20350   2.416   3.904  10.201
 6536SOL    HW120351   2.410   3.924  10.295
 6536SOL    HW220352   2.411   3.990  10.159
 6537SOL     OW20353   2.052   3.984  10.799
 6537SOL    HW120354   2.001   0.064  10.808
 6537SOL    HW220355   2.015   3.923  10.863
 6538SOL     OW20356   3.267   3.833   9.740
 6538SOL    HW120357   3.259   3.800   9.650
 6538SOL    HW220358   3.360   3.820   9.761
 6539SOL     OW20359   3.398   3.939  11.034
 6539SOL    HW120360   3.423   3.941  11.126
 6539SOL    HW220361   3.329   3.872  11.029
 6540SOL     OW20362   2.490   3.848   9.437
 6540SOL    HW120363   2.581   3.819   9.437
 6540SOL    HW220364   2.449   3.801   9.364
 6541SOL     OW20365   2.635   3.959  11.054
 6541SOL    HW120366   2.687   3.928  11.128
 6541SOL    HW220367   2.548   3.976  11.091
 6542SOL     OW20368   2.396   3.785   9.824
 6542SOL    HW120369   2.348   3.787   9.907
 6542SOL    HW220370   2.405   3.877   9.799
 6543SOL     OW20371   2.148   3.758   9.489
 6543SOL    HW120372   2.188   3.845   9.480
 6543SOL    HW220373   2.216   3.704   9.528
 6544SOL     OW20374   2.419   3.943  10.479
 6544SOL    HW120375   2.462   3.871  10.525
 6544SOL    HW220376   2.328   3.939  10.506
 6545SOL     OW20377   2.882   3.767  10.046
 6545SOL    HW120378   2.817   3.755   9.976
 6545SOL    HW220379   2.859   3.702  10.112
 6546SOL     OW20380   2.785   3.803  10.708
 6546SOL    HW120381   2.814   3.783  10.619
 6546SOL    HW220382   2.858   3.852  10.746
 6547SOL     OW20383   3.129   0.075  10.575
 6547SOL    HW120384   3.140   0.144  10.641
 6547SOL    HW220385   3.061   0.109  10.516
 6548SOL     OW20386   2.370   3.749  11.066
 6548SOL    HW120387   2.315   3.704  11.002
 6548SOL    HW220388   2.340   3.840  11.064
 6549SOL     OW20389   2.157   3.920  10.561
 6549SOL    HW120390   2.112   3.939  10.644
 6549SOL    HW220391   2.144   3.826  10.548
 6550SOL     OW20392   3.444   3.954   9.433
 6550SOL    HW120393   3.379   3.898   9.475
 6550SOL    HW220394   3.457   0.026   9.495
 6551SOL     OW20395   3.025   3.922  10.783
 6551SOL    HW120396   3.028   3.996  10.844
 6551SOL    HW220397   3.067   3.955  10.703
 6552SOL     OW20398   2.763   3.811   9.413
 6552SOL    HW120399   2.823   3.773   9.349
 6552SOL    HW220400   2.803   3.794   9.498
 6553SOL     OW20401   3.590   3.860   9.834
 6553SOL    HW120402   3.658   3.845   9.769
 6553SOL    HW220403   3.569   3.772   9.867
 6554SOL     OW20404   3.697   3.895  10.274
 6554SOL    HW120405   3.730   3.809  10.250
 6554SOL    HW220406   3.611   3.901  10.231
 6555SOL     OW20407   2.538   3.910  10.801
 6555SOL    HW120408   2.621   3.902  10.753
 6555SOL    HW220409   2.563   3.932  10.890
 6556SOL     OW20410   1.907   0.053   9.344
 6556SOL    HW120411   1.868   0.030   9.260
 6556SOL    HW220412   1.938   0.143   9.333
 6557SOL     OW20413   1.924   3.865   9.619
 6557SOL    HW120414   1.913   3.955   9.588
 6557SOL    HW220415   2.006   3.835   9.578
 6558SOL     OW20416   3.054   0.011   9.776
 6558SOL    HW120417   3.123   3.945   9.774
 6558SOL    HW220418   3.076   0.066   9.852
 6559SOL     OW20419   3.647   0.048  10.939
 6559SOL    HW120420   3.605   0.081  10.860
 6559SOL    HW220421   3.577   0.004  10.987
 6560SOL     OW20422   3.678   3.910  10.546
 6560SOL    HW120423   3.667   3.818  10.569
 6560SOL    HW220424   3.687   3.910  10.451
 6561SOL     OW20425   3.301   3.932  10.427
 6561SOL    HW120426   3.329   3.851  10.470
 6561SOL    HW220427   3.243   3.973  10.491
 6562SOL     OW20428   2.877   3.736  10.458
 6562SOL    HW120429   2.819   3.681  10.406
 6562SOL    HW220430   2.962   3.693  10.453
 6563SOL     OW20431   3.217   3.770   9.469
 6563SOL    HW120432   3.250   3.700   9.413
 6563SOL    HW220433   3.129   3.742   9.495
 6564SOL     OW20434   3.144   0.162   9.993
 6564SOL    HW120435   3.145   0.257   9.997
 6564SOL    HW220436   3.149   0.133  10.084
 6565SOL     OW20437   3.441   3.930  10.189
 6565SOL    HW120438   3.389   3.932  10.270
 6565SOL    HW220439   3.438   0.020  10.157
 6566SOL     OW20440   2.095   3.980  12.155
 6566SOL    HW120441   2.118   3.962  12.246
 6566SOL    HW220442   2.003   3.953  12.147
 6567SOL     OW20443   1.875   0.061  11.886
 6567SOL    HW120444   1.804   0.113  11.851
 6567SOL    HW220445   1.908   0.012  11.811
 6568SOL     OW20446   3.634   0.320  11.355
 6568SOL    HW120447   3.558   0.304  11.299
 6568SOL    HW220448   3.597   0.341  11.440
 6569SOL     OW20449   2.301   0.096  12.678
 6569SOL    HW120450   2.373   0.053  12.632
 6569SOL    HW220451   2.225   0.042  12.657
 6570SOL     OW20452   3.458   3.850  12.633
 6570SOL    HW120453   3.461   3.936  12.592
 6570SOL    HW220454   3.444   3.867  12.726
 6571SOL     OW20455   2.668   3.729  11.677
 6571SOL    HW120456   2.695   3.821  11.671
 6571SOL    HW220457   2.573   3.732  11.686
 6572SOL     OW20458   3.129   0.062  12.111
 6572SOL    HW120459   3.058   0.008  12.077
 6572SOL    HW220460   3.185   0.001  12.159
 6573SOL     OW20461   2.416   3.904  12.063
 6573SOL    HW120462   2.410   3.924  12.157
 6573SOL    HW220463   2.411   3.990  12.021
 6574SOL     OW20464   2.053   3.983  12.661
 6574SOL    HW120465   2.000   0.063  12.670
 6574SOL    HW220466   2.015   3.923  12.725
 6575SOL     OW20467   3.267   3.833  11.602
 6575SOL    HW120468   3.259   3.800  11.512
 6575SOL    HW220469   3.360   3.820  11.623
 6576SOL     OW20470   3.398   3.939  12.896
 6576SOL    HW120471   3.421   3.943  12.989
 6576SOL    HW220472   3.329   3.872  12.892
 6577SOL     OW20473   2.490   3.848  11.299
 6577SOL    HW120474   2.581   3.819  11.299
 6577SOL    HW220475   2.449   3.801  11.226
 6578SOL     OW20476   2.635   3.959  12.916
 6578SOL    HW120477   2.687   3.928  12.990
 6578SOL    HW220478   2.548   3.975  12.953
 6579SOL     OW20479   2.396   3.785  11.686
 6579SOL    HW120480   2.348   3.787  11.769
 6579SOL    HW220481   2.405   3.877  11.661
 6580SOL     OW20482   2.148   3.758  11.351
 6580SOL    HW120483   2.188   3.845  11.342
 6580SOL    HW220484   2.216   3.704  11.390
 6581SOL     OW20485   2.419   3.943  12.341
 6581SOL    HW120486   2.462   3.871  12.388
 6581SOL    HW220487   2.328   3.939  12.368
 6582SOL     OW20488   2.882   3.767  11.908
 6582SOL    HW120489   2.817   3.755  11.838
 6582SOL    HW220490   2.859   3.702  11.974
 6583SOL     OW20491   2.785   3.803  12.570
 6583SOL    HW120492   2.814   3.783  12.481
 6583SOL    HW220493   2.858   3.852  12.608
 6584SOL     OW20494   3.129   0.075  12.437
 6584SOL    HW120495   3.140   0.144  12.503
 6584SOL    HW220496   3.061   0.109  12.379
 6585SOL     OW20497   2.371   3.749  12.928
 6585SOL    HW120498   2.315   3.704  12.864
 6585SOL    HW220499   2.339   3.840  12.926
 6586SOL     OW20500   2.157   3.920  12.423
 6586SOL    HW120501   2.112   3.939  12.506
 6586SOL    HW220502   2.144   3.826  12.410
 6587SOL     OW20503   3.444   3.954  11.295
 6587SOL    HW120504   3.379   3.898  11.337
 6587SOL    HW220505   3.457   0.026  11.357
 6588SOL     OW20506   3.025   3.922  12.645
 6588SOL    HW120507   3.029   3.996  12.706
 6588SOL    HW220508   3.067   3.955  12.565
 6589SOL     OW20509   2.763   3.811  11.275
 6589SOL    HW120510   2.823   3.773  11.211
 6589SOL    HW220511   2.803   3.794  11.360
 6590SOL     OW20512   3.590   3.860  11.696
 6590SOL    HW120513   3.658   3.845  11.631
 6590SOL    HW220514   3.569   3.772  11.729
 6591SOL     OW20515   3.697   3.895  12.136
 6591SOL    HW120516   3.730   3.809  12.112
 6591SOL    HW220517   3.611   3.901  12.093
 6592SOL     OW20518   2.538   3.910  12.662
 6592SOL    HW120519   2.621   3.902  12.615
 6592SOL    HW220520   2.563   3.932  12.752
 6593SOL     OW20521   1.907   0.053  11.206
 6593SOL    HW120522   1.868   0.030  11.122
 6593SOL    HW220523   1.937   0.143  11.195
 6594SOL     OW20524   1.924   3.865  11.481
 6594SOL    HW120525   1.913   3.955  11.450
 6594SOL    HW220526   2.006   3.835  11.441
 6595SOL     OW20527   3.054   0.011  11.638
 6595SOL    HW120528   3.123   3.945  11.636
 6595SOL    HW220529   3.076   0.066  11.714
 6596SOL     OW20530   3.647   0.048  12.801
 6596SOL    HW120531   3.604   0.081  12.721
 6596SOL    HW220532   3.577   0.004  12.849
 6597SOL     OW20533   3.678   3.910  12.408
 6597SOL    HW120534   3.667   3.818  12.431
 6597SOL    HW220535   3.687   3.910  12.313
 6598SOL     OW20536   3.301   3.932  12.289
 6598SOL    HW120537   3.329   3.851  12.332
 6598SOL    HW220538   3.243   3.973  12.353
 6599SOL     OW20539   2.877   3.736  12.320
 6599SOL    HW120540   2.819   3.681  12.268
 6599SOL    HW220541   2.962   3.693  12.315
 6600SOL     OW20542   3.217   3.770  11.331
 6600SOL    HW120543   3.250   3.700  11.275
 6600SOL    HW220544   3.129   3.742  11.357
 6601SOL     OW20545   3.144   0.162  11.855
 6601SOL    HW120546   3.145   0.257  11.859
 6601SOL    HW220547   3.149   0.133  11.946
 6602SOL     OW20548   3.441   3.930  12.051
 6602SOL    HW120549   3.389   3.932  12.132
 6602SOL    HW220550   3.438   0.020  12.019
 6603SOL     OW20551   1.881   0.089  13.687
 6603SOL    HW120552   1.800   0.110  13.734
 6603SOL    HW220553   1.869   3.999  13.657
 6604SOL     OW20554   3.634   0.318  13.217
 6604SOL    HW120555   3.557   0.303  13.161
 6604SOL    HW220556   3.597   0.335  13.303
 6605SOL     OW20557   3.465   0.174  13.766
 6605SOL    HW120558   3.376   0.153  13.737
 6605SOL    HW220559   3.458   0.262  13.804
 6606SOL     OW20560   2.670   3.730  13.539
 6606SOL    HW120561   2.694   3.822  13.533
 6606SOL    HW220562   2.575   3.730  13.549
 6607SOL     OW20563   3.268   3.836  13.461
 6607SOL    HW120564   3.263   3.800  13.373
 6607SOL    HW220565   3.361   3.828  13.485
 6608SOL     OW20566   2.490   3.849  13.160
 6608SOL    HW120567   2.581   3.819  13.161
 6608SOL    HW220568   2.449   3.801  13.088
 6609SOL     OW20569   2.398   3.780  13.547
 6609SOL    HW120570   2.344   3.771  13.626
 6609SOL    HW220571   2.401   3.875  13.532
 6610SOL     OW20572   2.148   3.758  13.212
 6610SOL    HW120573   2.189   3.844  13.204
 6610SOL    HW220574   2.215   3.703  13.252
 6611SOL     OW20575   2.874   3.763  13.772
 6611SOL    HW120576   2.817   3.758  13.695
 6611SOL    HW220577   2.854   3.684  13.822
 6612SOL     OW20578   3.442   3.958  13.158
 6612SOL    HW120579   3.384   3.896  13.201
 6612SOL    HW220580   3.476   0.014  13.228
 6613SOL     OW20581   2.763   3.811  13.137
 6613SOL    HW120582   2.823   3.773  13.073
 6613SOL    HW220583   2.803   3.792  13.222
 6614SOL     OW20584   3.590   3.858  13.566
 6614SOL    HW120585   3.658   3.847  13.499
 6614SOL    HW220586   3.573   3.769  13.597
 6615SOL     OW20587   3.712   3.893   0.046
 6615SOL    HW120588   3.745   3.804   0.056
 6615SOL    HW220589   3.623   3.890   0.082
 6616SOL     OW20590   1.908   0.052  13.065
 6616SOL    HW120591   1.868   0.030  12.981
 6616SOL    HW220592   1.937   0.143  13.056
 6617SOL     OW20593   1.922   3.866  13.343
 6617SOL    HW120594   1.915   3.959  13.320
 6617SOL    HW220595   2.003   3.838  13.301
 6618SOL     OW20596   3.049   0.003  13.516
 6618SOL    HW120597   3.122   3.944  13.497
 6618SOL    HW220598   3.083   0.061  13.584
 6619SOL     OW20599   3.217   3.770  13.192
 6619SOL    HW120600   3.249   3.699  13.136
 6619SOL    HW220601   3.130   3.743  13.219
 6620SOL     OW20602   3.173   0.156  13.735
 6620SOL    HW120603   3.138   0.244  13.716
 6620SOL    HW220604   3.155   0.142  13.827
 6621SOL     OW20605   3.954   0.630   0.126
 6621SOL    HW120606   3.891   0.630   0.198
 6621SOL    HW220607   3.914   0.575   0.059
 6622SOL     OW20608   3.954   0.297   0.993
 6622SOL    HW120609   3.964   0.273   1.085
 6622SOL    HW220610   3.868   0.263   0.968
 6623SOL     OW20611   3.731   0.394   0.638
 6623SOL    HW120612   3.644   0.408   0.674
 6623SOL    HW220613   3.722   0.317   0.582
 6624SOL     OW20614   0.012   1.524   1.050
 6624SOL    HW120615   3.961   1.445   1.037
 6624SOL    HW220616   0.080   1.520   0.982
 6625SOL     OW20617   3.947   1.717   0.474
 6625SOL    HW120618   3.945   1.792   0.534
 6625SOL    HW220619   0.040   1.706   0.453
 6626SOL     OW20620   3.937   1.438   0.507
 6626SOL    HW120621   3.926   1.533   0.511
 6626SOL    HW220622   3.883   1.405   0.580
 6627SOL     OW20623   3.808   0.649   0.557
 6627SOL    HW120624   3.792   0.558   0.582
 6627SOL    HW220625   3.811   0.696   0.640
 6628SOL     OW20626   3.696   1.617   0.100
 6628SOL    HW120627   3.731   1.529   0.118
 6628SOL    HW220628   3.699   1.662   0.184
 6629SOL     OW20629   3.825   0.750   1.577
 6629SOL    HW120630   3.907   0.794   1.600
 6629SOL    HW220631   3.761   0.821   1.571
 6630SOL     OW20632   3.804   0.818   0.771
 6630SOL    HW120633   3.898   0.814   0.791
 6630SOL    HW220634   3.772   0.891   0.825
 6631SOL     OW20635   3.847   1.872   1.569
 6631SOL    HW120636   3.848   1.843   1.660
 6631SOL    HW220637   3.766   1.836   1.533
 6632SOL     OW20638   3.924   0.310   1.520
 6632SOL    HW120639   3.849   0.358   1.484
 6632SOL    HW220640   3.885   0.247   1.580
 6633SOL     OW20641   3.808   0.548   1.391
 6633SOL    HW120642   3.903   0.546   1.379
 6633SOL    HW220643   3.793   0.624   1.447
 6634SOL     OW20644   3.791   1.573   1.349
 6634SOL    HW120645   3.764   1.636   1.282
 6634SOL    HW220646   3.886   1.580   1.352
 6635SOL     OW20647   0.070   1.095   0.535
 6635SOL    HW120648   0.082   1.151   0.458
 6635SOL    HW220649   0.143   1.033   0.531
 6636SOL     OW20650   0.005   0.215   1.246
 6636SOL    HW120651   3.978   0.239   1.335
 6636SOL    HW220652   0.004   0.119   1.247
 6637SOL     OW20653   3.752   1.312   1.277
 6637SOL    HW120654   3.795   1.262   1.347
 6637SOL    HW220655   3.765   1.403   1.301
 6638SOL     OW20656   3.743   1.317   0.171
 6638SOL    HW120657   3.659   1.333   0.127
 6638SOL    HW220658   3.730   1.235   0.218
 6639SOL     OW20659   3.801   1.794   0.938
 6639SOL    HW120660   3.778   1.713   0.892
 6639SOL    HW220661   3.895   1.804   0.924
 6640SOL     OW20662   0.213   1.551   0.868
 6640SOL    HW120663   0.291   1.607   0.868
 6640SOL    HW220664   0.228   1.489   0.796
 6641SOL     OW20665   3.753   0.535   1.117
 6641SOL    HW120666   3.832   0.528   1.064
 6641SOL    HW220667   3.784   0.545   1.207
 6642SOL     OW20668   3.905   0.530   1.713
 6642SOL    HW120669   3.942   0.477   1.643
 6642SOL    HW220670   3.861   0.603   1.669
 6643SOL     OW20671   3.942   1.533   1.726
 6643SOL    HW120672   3.932   1.615   1.774
 6643SOL    HW220673   3.989   1.475   1.787
 6644SOL     OW20674   3.860   1.134   1.473
 6644SOL    HW120675   3.933   1.128   1.534
 6644SOL    HW220676   3.892   1.092   1.393
 6645SOL     OW20677   3.811   1.267   1.012
 6645SOL    HW120678   3.783   1.279   1.103
 6645SOL    HW220679   3.750   1.202   0.977
 6646SOL     OW20680   3.842   1.791   1.826
 6646SOL    HW120681   3.791   1.726   1.873
 6646SOL    HW220682   3.893   1.835   1.893
 6647SOL     OW20683   3.802   0.404   0.003
 6647SOL    HW120684   3.765   0.323   0.037
 6647SOL    HW220685   3.775   0.406  13.811
 6648SOL     OW20686   3.793   0.145   0.349
 6648SOL    HW120687   3.757   0.222   0.305
 6648SOL    HW220688   3.888   0.159   0.348
 6649SOL     OW20689   3.800   1.235   0.664
 6649SOL    HW120690   3.792   1.187   0.747
 6649SOL    HW220691   3.884   1.205   0.628
 6650SOL     OW20692   3.753   1.080   0.306
 6650SOL    HW120693   3.848   1.086   0.309
 6650SOL    HW220694   3.733   0.989   0.328
 6651SOL     OW20695   3.956   0.631   1.970
 6651SOL    HW120696   3.875   0.634   2.020
 6651SOL    HW220697   3.930   0.598   1.884
 6652SOL     OW20698   3.954   0.295   2.854
 6652SOL    HW120699   3.964   0.273   2.946
 6652SOL    HW220700   3.867   0.262   2.830
 6653SOL     OW20701   3.731   0.393   2.500
 6653SOL    HW120702   3.644   0.408   2.536
 6653SOL    HW220703   3.720   0.316   2.443
 6654SOL     OW20704   0.012   1.524   2.912
 6654SOL    HW120705   3.961   1.445   2.899
 6654SOL    HW220706   0.080   1.521   2.844
 6655SOL     OW20707   3.942   1.720   2.337
 6655SOL    HW120708   3.946   1.792   2.399
 6655SOL    HW220709   0.033   1.704   2.312
 6656SOL     OW20710   3.944   1.439   2.371
 6656SOL    HW120711   3.923   1.532   2.372
 6656SOL    HW220712   3.886   1.401   2.437
 6657SOL     OW20713   3.807   0.649   2.420
 6657SOL    HW120714   3.792   0.558   2.446
 6657SOL    HW220715   3.811   0.696   2.503
 6658SOL     OW20716   3.757   1.596   1.991
 6658SOL    HW120717   3.736   1.504   2.008
 6658SOL    HW220718   3.726   1.643   2.068
 6659SOL     OW20719   3.825   0.750   3.439
 6659SOL    HW120720   3.907   0.794   3.462
 6659SOL    HW220721   3.761   0.821   3.433
 6660SOL     OW20722   3.804   0.818   2.635
 6660SOL    HW120723   3.898   0.814   2.654
 6660SOL    HW220724   3.772   0.891   2.687
 6661SOL     OW20725   3.847   1.872   3.431
 6661SOL    HW120726   3.848   1.843   3.522
 6661SOL    HW220727   3.766   1.836   3.395
 6662SOL     OW20728   3.924   0.310   3.382
 6662SOL    HW120729   3.850   0.359   3.346
 6662SOL    HW220730   3.885   0.248   3.443
 6663SOL     OW20731   3.808   0.548   3.253
 6663SOL    HW120732   3.903   0.546   3.241
 6663SOL    HW220733   3.793   0.624   3.310
 6664SOL     OW20734   0.267   0.291   2.195
 6664SOL    HW120735   0.315   0.225   2.145
 6664SOL    HW220736   0.303   0.375   2.166
 6665SOL     OW20737   3.791   1.573   3.211
 6665SOL    HW120738   3.764   1.636   3.144
 6665SOL    HW220739   3.887   1.580   3.214
 6666SOL     OW20740   0.066   1.094   2.391
 6666SOL    HW120741   0.063   1.137   2.306
 6666SOL    HW220742   0.129   1.023   2.381
 6667SOL     OW20743   0.005   0.215   3.108
 6667SOL    HW120744   3.978   0.240   3.197
 6667SOL    HW220745   0.004   0.119   3.109
 6668SOL     OW20746   3.752   1.312   3.140
 6668SOL    HW120747   3.795   1.262   3.210
 6668SOL    HW220748   3.765   1.403   3.164
 6669SOL     OW20749   3.728   1.326   2.049
 6669SOL    HW120750   3.642   1.340   2.009
 6669SOL    HW220751   3.720   1.243   2.095
 6670SOL     OW20752   3.801   1.795   2.800
 6670SOL    HW120753   3.778   1.714   2.754
 6670SOL    HW220754   3.895   1.804   2.786
 6671SOL     OW20755   0.213   1.551   2.730
 6671SOL    HW120756   0.291   1.606   2.730
 6671SOL    HW220757   0.228   1.488   2.659
 6672SOL     OW20758   3.753   0.535   2.979
 6672SOL    HW120759   3.832   0.529   2.926
 6672SOL    HW220760   3.784   0.545   3.069
 6673SOL     OW20761   3.905   0.530   3.575
 6673SOL    HW120762   3.942   0.478   3.505
 6673SOL    HW220763   3.861   0.603   3.531
 6674SOL     OW20764   3.942   1.533   3.588
 6674SOL    HW120765   3.932   1.615   3.636
 6674SOL    HW220766   3.989   1.475   3.649
 6675SOL     OW20767   3.860   1.133   3.335
 6675SOL    HW120768   3.933   1.128   3.396
 6675SOL    HW220769   3.892   1.092   3.255
 6676SOL     OW20770   3.810   1.268   2.874
 6676SOL    HW120771   3.782   1.279   2.965
 6676SOL    HW220772   3.750   1.202   2.839
 6677SOL     OW20773   3.842   1.791   3.688
 6677SOL    HW120774   3.791   1.726   3.735
 6677SOL    HW220775   3.893   1.835   3.755
 6678SOL     OW20776   3.823   0.316   1.857
 6678SOL    HW120777   3.754   0.334   1.921
 6678SOL    HW220778   3.822   0.393   1.800
 6679SOL     OW20779   3.777   0.151   2.207
 6679SOL    HW120780   3.745   0.208   2.136
 6679SOL    HW220781   3.872   0.154   2.198
 6680SOL     OW20782   3.801   1.238   2.527
 6680SOL    HW120783   3.794   1.188   2.609
 6680SOL    HW220784   3.879   1.202   2.485
 6681SOL     OW20785   3.752   1.082   2.173
 6681SOL    HW120786   3.843   1.083   2.141
 6681SOL    HW220787   3.735   0.990   2.193
 6682SOL     OW20788   3.956   0.631   3.832
 6682SOL    HW120789   3.875   0.635   3.882
 6682SOL    HW220790   3.930   0.598   3.746
 6683SOL     OW20791   3.954   0.295   4.716
 6683SOL    HW120792   3.964   0.273   4.808
 6683SOL    HW220793   3.867   0.262   4.692
 6684SOL     OW20794   3.731   0.393   4.362
 6684SOL    HW120795   3.644   0.408   4.398
 6684SOL    HW220796   3.720   0.316   4.305
 6685SOL     OW20797   0.012   1.524   4.774
 6685SOL    HW120798   3.961   1.445   4.761
 6685SOL    HW220799   0.080   1.521   4.706
 6686SOL     OW20800   3.942   1.720   4.199
 6686SOL    HW120801   3.946   1.792   4.261
 6686SOL    HW220802   0.033   1.704   4.174
 6687SOL     OW20803   3.944   1.439   4.233
 6687SOL    HW120804   3.923   1.532   4.234
 6687SOL    HW220805   3.886   1.400   4.299
 6688SOL     OW20806   3.807   0.649   4.282
 6688SOL    HW120807   3.792   0.558   4.308
 6688SOL    HW220808   3.811   0.696   4.365
 6689SOL     OW20809   3.757   1.596   3.853
 6689SOL    HW120810   3.736   1.504   3.870
 6689SOL    HW220811   3.726   1.643   3.930
 6690SOL     OW20812   3.825   0.750   5.301
 6690SOL    HW120813   3.907   0.794   5.324
 6690SOL    HW220814   3.761   0.821   5.295
 6691SOL     OW20815   3.804   0.818   4.497
 6691SOL    HW120816   3.898   0.814   4.516
 6691SOL    HW220817   3.772   0.891   4.549
 6692SOL     OW20818   3.847   1.872   5.293
 6692SOL    HW120819   3.848   1.842   5.384
 6692SOL    HW220820   3.766   1.836   5.257
 6693SOL     OW20821   3.924   0.310   5.244
 6693SOL    HW120822   3.849   0.359   5.208
 6693SOL    HW220823   3.885   0.248   5.305
 6694SOL     OW20824   3.808   0.548   5.115
 6694SOL    HW120825   3.903   0.546   5.103
 6694SOL    HW220826   3.793   0.624   5.171
 6695SOL     OW20827   0.267   0.291   4.057
 6695SOL    HW120828   0.315   0.226   4.007
 6695SOL    HW220829   0.303   0.375   4.028
 6696SOL     OW20830   3.791   1.573   5.073
 6696SOL    HW120831   3.764   1.636   5.006
 6696SOL    HW220832   3.886   1.580   5.076
 6697SOL     OW20833   0.066   1.094   4.253
 6697SOL    HW120834   0.063   1.137   4.168
 6697SOL    HW220835   0.130   1.023   4.243
 6698SOL     OW20836   0.005   0.215   4.971
 6698SOL    HW120837   3.978   0.240   5.059
 6698SOL    HW220838   0.004   0.119   4.971
 6699SOL     OW20839   3.753   1.312   5.001
 6699SOL    HW120840   3.795   1.262   5.072
 6699SOL    HW220841   3.765   1.403   5.026
 6700SOL     OW20842   3.728   1.326   3.911
 6700SOL    HW120843   3.642   1.340   3.871
 6700SOL    HW220844   3.720   1.243   3.957
 6701SOL     OW20845   3.801   1.795   4.662
 6701SOL    HW120846   3.778   1.714   4.616
 6701SOL    HW220847   3.895   1.804   4.648
 6702SOL     OW20848   0.213   1.551   4.592
 6702SOL    HW120849   0.291   1.606   4.592
 6702SOL    HW220850   0.228   1.488   4.521
 6703SOL     OW20851   3.753   0.535   4.841
 6703SOL    HW120852   3.832   0.529   4.789
 6703SOL    HW220853   3.784   0.545   4.931
 6704SOL     OW20854   3.905   0.530   5.437
 6704SOL    HW120855   3.942   0.477   5.367
 6704SOL    HW220856   3.861   0.603   5.393
 6705SOL     OW20857   3.943   1.533   5.450
 6705SOL    HW120858   3.932   1.615   5.498
 6705SOL    HW220859   3.988   1.475   5.511
 6706SOL     OW20860   3.860   1.134   5.197
 6706SOL    HW120861   3.933   1.128   5.258
 6706SOL    HW220862   3.892   1.092   5.117
 6707SOL     OW20863   3.810   1.268   4.736
 6707SOL    HW120864   3.783   1.279   4.827
 6707SOL    HW220865   3.750   1.202   4.701
 6708SOL     OW20866   3.843   1.790   5.549
 6708SOL    HW120867   3.791   1.726   5.597
 6708SOL    HW220868   3.893   1.835   5.617
 6709SOL     OW20869   3.823   0.316   3.719
 6709SOL    HW120870   3.754   0.334   3.784
 6709SOL    HW220871   3.822   0.393   3.662
 6710SOL     OW20872   3.777   0.151   4.069
 6710SOL    HW120873   3.745   0.207   3.998
 6710SOL    HW220874   3.872   0.154   4.060
 6711SOL     OW20875   3.801   1.238   4.389
 6711SOL    HW120876   3.793   1.188   4.471
 6711SOL    HW220877   3.879   1.202   4.347
 6712SOL     OW20878   3.752   1.082   4.035
 6712SOL    HW120879   3.843   1.083   4.003
 6712SOL    HW220880   3.735   0.990   4.055
 6713SOL     OW20881   3.956   0.631   5.694
 6713SOL    HW120882   3.875   0.635   5.744
 6713SOL    HW220883   3.930   0.599   5.608
 6714SOL     OW20884   3.954   0.295   6.577
 6714SOL    HW120885   3.964   0.273   6.670
 6714SOL    HW220886   3.867   0.262   6.554
 6715SOL     OW20887   3.731   0.393   6.224
 6715SOL    HW120888   3.644   0.408   6.260
 6715SOL    HW220889   3.721   0.316   6.167
 6716SOL     OW20890   0.011   1.524   6.635
 6716SOL    HW120891   3.961   1.444   6.622
 6716SOL    HW220892   0.080   1.521   6.568
 6717SOL     OW20893   3.942   1.720   6.061
 6717SOL    HW120894   3.946   1.792   6.123
 6717SOL    HW220895   0.033   1.704   6.036
 6718SOL     OW20896   3.944   1.439   6.095
 6718SOL    HW120897   3.922   1.532   6.096
 6718SOL    HW220898   3.887   1.400   6.161
 6719SOL     OW20899   3.807   0.649   6.144
 6719SOL    HW120900   3.792   0.558   6.170
 6719SOL    HW220901   3.811   0.696   6.227
 6720SOL     OW20902   3.757   1.596   5.715
 6720SOL    HW120903   3.736   1.504   5.732
 6720SOL    HW220904   3.726   1.643   5.792
 6721SOL     OW20905   3.825   0.750   7.163
 6721SOL    HW120906   3.908   0.793   7.185
 6721SOL    HW220907   3.762   0.822   7.157
 6722SOL     OW20908   3.804   0.817   6.359
 6722SOL    HW120909   3.898   0.814   6.378
 6722SOL    HW220910   3.772   0.891   6.411
 6723SOL     OW20911   3.847   1.872   7.155
 6723SOL    HW120912   3.848   1.842   7.246
 6723SOL    HW220913   3.765   1.837   7.119
 6724SOL     OW20914   3.924   0.310   7.106
 6724SOL    HW120915   3.850   0.359   7.070
 6724SOL    HW220916   3.885   0.247   7.166
 6725SOL     OW20917   3.808   0.548   6.978
 6725SOL    HW120918   3.903   0.546   6.965
 6725SOL    HW220919   3.793   0.624   7.034
 6726SOL     OW20920   0.267   0.291   5.919
 6726SOL    HW120921   0.315   0.225   5.868
 6726SOL    HW220922   0.303   0.375   5.890
 6727SOL     OW20923   3.792   1.573   6.935
 6727SOL    HW120924   3.765   1.636   6.868
 6727SOL    HW220925   3.887   1.580   6.938
 6728SOL     OW20926   0.066   1.094   6.115
 6728SOL    HW120927   0.063   1.137   6.030
 6728SOL    HW220928   0.129   1.023   6.105
 6729SOL     OW20929   0.005   0.215   6.832
 6729SOL    HW120930   3.979   0.240   6.921
 6729SOL    HW220931   0.004   0.119   6.833
 6730SOL     OW20932   3.750   1.312   6.864
 6730SOL    HW120933   3.795   1.262   6.933
 6730SOL    HW220934   3.765   1.404   6.887
 6731SOL     OW20935   3.728   1.326   5.773
 6731SOL    HW120936   3.642   1.340   5.733
 6731SOL    HW220937   3.720   1.243   5.819
 6732SOL     OW20938   3.801   1.795   6.524
 6732SOL    HW120939   3.778   1.714   6.478
 6732SOL    HW220940   3.895   1.804   6.510
 6733SOL     OW20941   0.213   1.551   6.454
 6733SOL    HW120942   0.291   1.606   6.454
 6733SOL    HW220943   0.228   1.488   6.383
 6734SOL     OW20944   3.753   0.535   6.703
 6734SOL    HW120945   3.832   0.529   6.650
 6734SOL    HW220946   3.784   0.545   6.793
 6735SOL     OW20947   3.904   0.530   7.300
 6735SOL    HW120948   3.943   0.478   7.229
 6735SOL    HW220949   3.861   0.603   7.255
 6736SOL     OW20950   3.941   1.532   7.312
 6736SOL    HW120951   3.933   1.614   7.361
 6736SOL    HW220952   3.992   1.475   7.371
 6737SOL     OW20953   3.860   1.132   7.059
 6737SOL    HW120954   3.933   1.129   7.120
 6737SOL    HW220955   3.893   1.092   6.979
 6738SOL     OW20956   3.810   1.268   6.599
 6738SOL    HW120957   3.782   1.279   6.689
 6738SOL    HW220958   3.751   1.202   6.563
 6739SOL     OW20959   3.842   1.791   7.412
 6739SOL    HW120960   3.791   1.726   7.459
 6739SOL    HW220961   3.893   1.835   7.480
 6740SOL     OW20962   3.823   0.316   5.581
 6740SOL    HW120963   3.754   0.334   5.646
 6740SOL    HW220964   3.822   0.393   5.524
 6741SOL     OW20965   3.777   0.151   5.931
 6741SOL    HW120966   3.745   0.207   5.860
 6741SOL    HW220967   3.872   0.154   5.922
 6742SOL     OW20968   3.801   1.238   6.251
 6742SOL    HW120969   3.793   1.188   6.332
 6742SOL    HW220970   3.879   1.202   6.209
 6743SOL     OW20971   3.752   1.082   5.897
 6743SOL    HW120972   3.843   1.083   5.864
 6743SOL    HW220973   3.735   0.990   5.917
 6744SOL     OW20974   3.956   0.631   7.556
 6744SOL    HW120975   3.875   0.634   7.606
 6744SOL    HW220976   3.930   0.598   7.470
 6745SOL     OW20977   3.954   0.295   8.440
 6745SOL    HW120978   3.964   0.273   8.532
 6745SOL    HW220979   3.867   0.262   8.416
 6746SOL     OW20980   3.731   0.392   8.086
 6746SOL    HW120981   3.644   0.407   8.122
 6746SOL    HW220982   3.721   0.316   8.029
 6747SOL     OW20983   0.012   1.524   8.498
 6747SOL    HW120984   3.961   1.444   8.484
 6747SOL    HW220985   0.080   1.521   8.431
 6748SOL     OW20986   3.942   1.719   7.923
 6748SOL    HW120987   3.946   1.792   7.985
 6748SOL    HW220988   0.033   1.704   7.898
 6749SOL     OW20989   3.944   1.439   7.957
 6749SOL    HW120990   3.923   1.532   7.957
 6749SOL    HW220991   3.886   1.401   8.024
 6750SOL     OW20992   3.806   0.649   8.006
 6750SOL    HW120993   3.792   0.557   8.032
 6750SOL    HW220994   3.810   0.696   8.089
 6751SOL     OW20995   3.756   1.596   7.577
 6751SOL    HW120996   3.736   1.504   7.595
 6751SOL    HW220997   3.725   1.643   7.655
 6752SOL     OW20998   3.825   0.750   9.025
 6752SOL    HW120999   3.907   0.794   9.048
 6752SOL    HW221000   3.761   0.821   9.019
 6753SOL     OW21001   3.804   0.818   8.221
 6753SOL    HW121002   3.898   0.814   8.240
 6753SOL    HW221003   3.772   0.891   8.273
 6754SOL     OW21004   3.847   1.872   9.017
 6754SOL    HW121005   3.848   1.843   9.108
 6754SOL    HW221006   3.766   1.836   8.981
 6755SOL     OW21007   3.924   0.310   8.968
 6755SOL    HW121008   3.850   0.359   8.932
 6755SOL    HW221009   3.885   0.248   9.029
 6756SOL     OW21010   3.808   0.548   8.839
 6756SOL    HW121011   3.903   0.546   8.827
 6756SOL    HW221012   3.793   0.624   8.896
 6757SOL     OW21013   0.266   0.291   7.781
 6757SOL    HW121014   0.315   0.225   7.732
 6757SOL    HW221015   0.304   0.375   7.752
 6758SOL     OW21016   3.791   1.573   8.797
 6758SOL    HW121017   3.764   1.636   8.730
 6758SOL    HW221018   3.887   1.580   8.800
 6759SOL     OW21019   0.066   1.094   7.977
 6759SOL    HW121020   0.065   1.138   7.892
 6759SOL    HW221021   0.132   1.025   7.967
 6760SOL     OW21022   0.005   0.215   8.694
 6760SOL    HW121023   3.978   0.240   8.783
 6760SOL    HW221024   0.004   0.119   8.695
 6761SOL     OW21025   3.751   1.312   8.726
 6761SOL    HW121026   3.795   1.262   8.795
 6761SOL    HW221027   3.765   1.404   8.749
 6762SOL     OW21028   3.728   1.327   7.636
 6762SOL    HW121029   3.642   1.340   7.596
 6762SOL    HW221030   3.721   1.243   7.682
 6763SOL     OW21031   3.801   1.795   8.386
 6763SOL    HW121032   3.779   1.714   8.340
 6763SOL    HW221033   3.895   1.805   8.372
 6764SOL     OW21034   0.213   1.552   8.316
 6764SOL    HW121035   0.291   1.607   8.316
 6764SOL    HW221036   0.228   1.489   8.245
 6765SOL     OW21037   3.753   0.535   8.565
 6765SOL    HW121038   3.832   0.529   8.512
 6765SOL    HW221039   3.784   0.545   8.655
 6766SOL     OW21040   3.905   0.530   9.161
 6766SOL    HW121041   3.942   0.478   9.091
 6766SOL    HW221042   3.861   0.603   9.117
 6767SOL     OW21043   3.942   1.532   9.174
 6767SOL    HW121044   3.933   1.614   9.223
 6767SOL    HW221045   3.990   1.475   9.234
 6768SOL     OW21046   3.860   1.133   8.921
 6768SOL    HW121047   3.933   1.129   8.982
 6768SOL    HW221048   3.893   1.092   8.841
 6769SOL     OW21049   3.810   1.268   8.460
 6769SOL    HW121050   3.782   1.279   8.551
 6769SOL    HW221051   3.751   1.202   8.425
 6770SOL     OW21052   3.842   1.791   9.274
 6770SOL    HW121053   3.791   1.726   9.321
 6770SOL    HW221054   3.893   1.835   9.342
 6771SOL     OW21055   3.823   0.316   7.443
 6771SOL    HW121056   3.754   0.334   7.507
 6771SOL    HW221057   3.823   0.393   7.386
 6772SOL     OW21058   3.777   0.152   7.793
 6772SOL    HW121059   3.745   0.208   7.722
 6772SOL    HW221060   3.872   0.154   7.784
 6773SOL     OW21061   3.800   1.237   8.112
 6773SOL    HW121062   3.795   1.189   8.195
 6773SOL    HW221063   3.879   1.203   8.070
 6774SOL     OW21064   3.752   1.082   7.758
 6774SOL    HW121065   3.842   1.083   7.727
 6774SOL    HW221066   3.735   0.990   7.779
 6775SOL     OW21067   3.956   0.631   9.418
 6775SOL    HW121068   3.875   0.634   9.468
 6775SOL    HW221069   3.930   0.598   9.332
 6776SOL     OW21070   3.954   0.295  10.302
 6776SOL    HW121071   3.964   0.273  10.394
 6776SOL    HW221072   3.867   0.262  10.278
 6777SOL     OW21073   3.731   0.393   9.948
 6777SOL    HW121074   3.644   0.408   9.984
 6777SOL    HW221075   3.720   0.317   9.891
 6778SOL     OW21076   0.012   1.524  10.360
 6778SOL    HW121077   3.961   1.444  10.347
 6778SOL    HW221078   0.080   1.521  10.293
 6779SOL     OW21079   3.942   1.720   9.785
 6779SOL    HW121080   3.946   1.792   9.847
 6779SOL    HW221081   0.033   1.704   9.760
 6780SOL     OW21082   3.944   1.439   9.819
 6780SOL    HW121083   3.923   1.532   9.820
 6780SOL    HW221084   3.886   1.401   9.885
 6781SOL     OW21085   3.806   0.649   9.868
 6781SOL    HW121086   3.792   0.558   9.894
 6781SOL    HW221087   3.811   0.696   9.951
 6782SOL     OW21088   3.757   1.596   9.439
 6782SOL    HW121089   3.736   1.504   9.456
 6782SOL    HW221090   3.726   1.643   9.516
 6783SOL     OW21091   3.825   0.750  10.887
 6783SOL    HW121092   3.907   0.794  10.910
 6783SOL    HW221093   3.761   0.821  10.881
 6784SOL     OW21094   3.804   0.817  10.083
 6784SOL    HW121095   3.898   0.814  10.102
 6784SOL    HW221096   3.772   0.891  10.135
 6785SOL     OW21097   3.847   1.872  10.879
 6785SOL    HW121098   3.848   1.843  10.970
 6785SOL    HW221099   3.766   1.836  10.843
 6786SOL     OW21100   3.924   0.310  10.830
 6786SOL    HW121101   3.850   0.359  10.794
 6786SOL    HW221102   3.885   0.248  10.891
 6787SOL     OW21103   3.808   0.548  10.702
 6787SOL    HW121104   3.903   0.546  10.689
 6787SOL    HW221105   3.793   0.624  10.758
 6788SOL     OW21106   0.267   0.291   9.643
 6788SOL    HW121107   0.315   0.225   9.593
 6788SOL    HW221108   0.303   0.375   9.614
 6789SOL     OW21109   3.791   1.573  10.659
 6789SOL    HW121110   3.764   1.636  10.592
 6789SOL    HW221111   3.887   1.580  10.662
 6790SOL     OW21112   0.066   1.094   9.839
 6790SOL    HW121113   0.064   1.137   9.754
 6790SOL    HW221114   0.130   1.024   9.829
 6791SOL     OW21115   0.005   0.215  10.557
 6791SOL    HW121116   3.978   0.240  10.645
 6791SOL    HW221117   0.004   0.119  10.557
 6792SOL     OW21118   3.751   1.312  10.588
 6792SOL    HW121119   3.795   1.262  10.657
 6792SOL    HW221120   3.765   1.404  10.611
 6793SOL     OW21121   3.728   1.327   9.497
 6793SOL    HW121122   3.642   1.340   9.457
 6793SOL    HW221123   3.720   1.243   9.543
 6794SOL     OW21124   3.801   1.795  10.248
 6794SOL    HW121125   3.778   1.714  10.202
 6794SOL    HW221126   3.895   1.804  10.234
 6795SOL     OW21127   0.213   1.551  10.178
 6795SOL    HW121128   0.291   1.606  10.178
 6795SOL    HW221129   0.228   1.488  10.107
 6796SOL     OW21130   3.753   0.535  10.427
 6796SOL    HW121131   3.832   0.529  10.374
 6796SOL    HW221132   3.784   0.545  10.517
 6797SOL     OW21133   3.905   0.530  11.023
 6797SOL    HW121134   3.942   0.478  10.953
 6797SOL    HW221135   3.861   0.603  10.979
 6798SOL     OW21136   3.942   1.532  11.036
 6798SOL    HW121137   3.933   1.614  11.085
 6798SOL    HW221138   3.990   1.475  11.096
 6799SOL     OW21139   3.860   1.133  10.783
 6799SOL    HW121140   3.933   1.129  10.844
 6799SOL    HW221141   3.892   1.092  10.703
 6800SOL     OW21142   3.810   1.268  10.322
 6800SOL    HW121143   3.782   1.279  10.413
 6800SOL    HW221144   3.750   1.202  10.287
 6801SOL     OW21145   3.842   1.791  11.136
 6801SOL    HW121146   3.791   1.726  11.183
 6801SOL    HW221147   3.893   1.835  11.204
 6802SOL     OW21148   3.823   0.316   9.305
 6802SOL    HW121149   3.754   0.334   9.369
 6802SOL    HW221150   3.823   0.393   9.248
 6803SOL     OW21151   3.777   0.152   9.655
 6803SOL    HW121152   3.745   0.208   9.584
 6803SOL    HW221153   3.872   0.154   9.646
 6804SOL     OW21154   3.801   1.238   9.975
 6804SOL    HW121155   3.794   1.188  10.056
 6804SOL    HW221156   3.879   1.202   9.932
 6805SOL     OW21157   3.752   1.082   9.621
 6805SOL    HW121158   3.843   1.083   9.588
 6805SOL    HW221159   3.735   0.990   9.641
 6806SOL     OW21160   3.956   0.631  11.280
 6806SOL    HW121161   3.875   0.634  11.330
 6806SOL    HW221162   3.930   0.598  11.194
 6807SOL     OW21163   3.954   0.295  12.164
 6807SOL    HW121164   3.964   0.273  12.256
 6807SOL    HW221165   3.867   0.262  12.140
 6808SOL     OW21166   3.731   0.393  11.810
 6808SOL    HW121167   3.644   0.408  11.846
 6808SOL    HW221168   3.720   0.317  11.752
 6809SOL     OW21169   0.012   1.524  12.222
 6809SOL    HW121170   3.961   1.444  12.208
 6809SOL    HW221171   0.080   1.521  12.155
 6810SOL     OW21172   3.942   1.720  11.647
 6810SOL    HW121173   3.946   1.792  11.709
 6810SOL    HW221174   0.033   1.704  11.622
 6811SOL     OW21175   3.944   1.439  11.681
 6811SOL    HW121176   3.923   1.532  11.682
 6811SOL    HW221177   3.886   1.401  11.748
 6812SOL     OW21178   3.806   0.649  11.731
 6812SOL    HW121179   3.792   0.558  11.756
 6812SOL    HW221180   3.811   0.696  11.813
 6813SOL     OW21181   3.757   1.596  11.301
 6813SOL    HW121182   3.736   1.504  11.318
 6813SOL    HW221183   3.726   1.643  11.378
 6814SOL     OW21184   3.825   0.750  12.749
 6814SOL    HW121185   3.907   0.794  12.771
 6814SOL    HW221186   3.761   0.821  12.743
 6815SOL     OW21187   3.804   0.817  11.945
 6815SOL    HW121188   3.898   0.814  11.964
 6815SOL    HW221189   3.772   0.891  11.997
 6816SOL     OW21190   3.847   1.872  12.742
 6816SOL    HW121191   3.848   1.843  12.833
 6816SOL    HW221192   3.766   1.836  12.706
 6817SOL     OW21193   3.924   0.310  12.692
 6817SOL    HW121194   3.850   0.358  12.656
 6817SOL    HW221195   3.884   0.247  12.752
 6818SOL     OW21196   3.808   0.548  12.564
 6818SOL    HW121197   3.903   0.546  12.551
 6818SOL    HW221198   3.793   0.624  12.620
 6819SOL     OW21199   0.267   0.291  11.505
 6819SOL    HW121200   0.315   0.225  11.455
 6819SOL    HW221201   0.303   0.375  11.476
 6820SOL     OW21202   3.791   1.573  12.521
 6820SOL    HW121203   3.764   1.636  12.454
 6820SOL    HW221204   3.887   1.580  12.524
 6821SOL     OW21205   0.066   1.094  11.701
 6821SOL    HW121206   0.064   1.137  11.616
 6821SOL    HW221207   0.130   1.024  11.691
 6822SOL     OW21208   0.005   0.215  12.419
 6822SOL    HW121209   3.978   0.240  12.507
 6822SOL    HW221210   0.004   0.119  12.419
 6823SOL     OW21211   3.751   1.312  12.450
 6823SOL    HW121212   3.795   1.262  12.519
 6823SOL    HW221213   3.765   1.404  12.473
 6824SOL     OW21214   3.728   1.327  11.359
 6824SOL    HW121215   3.642   1.340  11.319
 6824SOL    HW221216   3.720   1.243  11.405
 6825SOL     OW21217   3.801   1.795  12.110
 6825SOL    HW121218   3.778   1.714  12.064
 6825SOL    HW221219   3.895   1.804  12.096
 6826SOL     OW21220   0.213   1.551  12.040
 6826SOL    HW121221   0.291   1.606  12.040
 6826SOL    HW221222   0.228   1.488  11.969
 6827SOL     OW21223   3.753   0.535  12.289
 6827SOL    HW121224   3.832   0.529  12.236
 6827SOL    HW221225   3.784   0.545  12.379
 6828SOL     OW21226   3.906   0.531  12.886
 6828SOL    HW121227   3.942   0.477  12.815
 6828SOL    HW221228   3.862   0.603  12.841
 6829SOL     OW21229   3.942   1.533  12.899
 6829SOL    HW121230   3.933   1.615  12.947
 6829SOL    HW221231   3.988   1.474  12.959
 6830SOL     OW21232   3.860   1.133  12.645
 6830SOL    HW121233   3.934   1.129  12.706
 6830SOL    HW221234   3.892   1.092  12.565
 6831SOL     OW21235   3.810   1.268  12.184
 6831SOL    HW121236   3.782   1.279  12.275
 6831SOL    HW221237   3.751   1.202  12.149
 6832SOL     OW21238   3.843   1.792  12.999
 6832SOL    HW121239   3.792   1.726  13.046
 6832SOL    HW221240   3.893   1.836  13.067
 6833SOL     OW21241   3.823   0.316  11.167
 6833SOL    HW121242   3.754   0.334  11.231
 6833SOL    HW221243   3.823   0.393  11.110
 6834SOL     OW21244   3.777   0.152  11.517
 6834SOL    HW121245   3.745   0.208  11.446
 6834SOL    HW221246   3.872   0.154  11.508
 6835SOL     OW21247   3.801   1.238  11.837
 6835SOL    HW121248   3.794   1.188  11.918
 6835SOL    HW221249   3.879   1.202  11.794
 6836SOL     OW21250   3.752   1.082  11.483
 6836SOL    HW121251   3.843   1.083  11.450
 6836SOL    HW221252   3.735   0.990  11.503
 6837SOL     OW21253   3.954   0.629  13.143
 6837SOL    HW121254   3.871   0.634  13.190
 6837SOL    HW221255   3.931   0.598  13.056
 6838SOL     OW21256   3.721   0.389  13.646
 6838SOL    HW121257   3.630   0.406  13.672
 6838SOL    HW221258   3.720   0.298  13.616
 6839SOL     OW21259   3.941   1.716  13.503
 6839SOL    HW121260   3.941   1.790  13.563
 6839SOL    HW221261   0.033   1.701  13.483
 6840SOL     OW21262   3.943   1.436  13.540
 6840SOL    HW121263   3.924   1.529  13.541
 6840SOL    HW221264   3.885   1.399  13.606
 6841SOL     OW21265   3.947   1.095   0.004
 6841SOL    HW121266   3.983   1.051   0.081
 6841SOL    HW221267   3.862   1.128   0.033
 6842SOL     OW21268   3.824   0.648  13.594
 6842SOL    HW121269   3.781   0.564  13.610
 6842SOL    HW221270   3.814   0.696  13.676
 6843SOL     OW21271   3.755   1.596  13.162
 6843SOL    HW121272   3.735   1.504  13.180
 6843SOL    HW221273   3.725   1.643  13.240
 6844SOL     OW21274   3.797   0.809  13.812
 6844SOL    HW121275   3.892   0.816  13.827
 6844SOL    HW221276   3.761   0.888  13.851
 6845SOL     OW21277   0.098   1.810  13.884
 6845SOL    HW121278   0.057   1.735   0.027
 6845SOL    HW221279   0.168   1.837   0.044
 6846SOL     OW21280   0.267   0.294  13.368
 6846SOL    HW121281   0.314   0.223  13.324
 6846SOL    HW221282   0.309   0.374  13.337
 6847SOL     OW21283   0.069   1.094  13.556
 6847SOL    HW121284   0.067   1.140  13.473
 6847SOL    HW221285   0.136   1.027  13.545
 6848SOL     OW21286   3.728   1.327  13.221
 6848SOL    HW121287   3.642   1.340  13.181
 6848SOL    HW221288   3.720   1.244  13.268
 6849SOL     OW21289   0.313   1.534   0.015
 6849SOL    HW121290   0.259   1.608   0.043
 6849SOL    HW221291   0.254   1.482  13.860
 6850SOL     OW21292   3.823   0.317  13.029
 6850SOL    HW121293   3.754   0.333  13.093
 6850SOL    HW221294   3.822   0.393  12.972
 6851SOL     OW21295   3.787   0.152  13.372
 6851SOL    HW121296   3.752   0.209  13.303
 6851SOL    HW221297   3.882   0.154  13.359
 6852SOL     OW21298   3.808   1.232  13.691
 6852SOL    HW121299   3.797   1.170  13.763
 6852SOL    HW221300   3.885   1.202  13.644
 6853SOL     OW21301   3.752   1.081  13.343
 6853SOL    HW121302   3.842   1.083  13.309
 6853SOL    HW221303   3.737   0.989  13.364
 6854SOL     OW21304   3.955   2.496   0.129
 6854SOL    HW121305   3.884   2.497   0.194
 6854SOL    HW221306   3.919   2.447   0.056
 6855SOL     OW21307   3.961   2.126   0.986
 6855SOL    HW121308   3.966   2.121   1.082
 6855SOL    HW221309   3.868   2.112   0.967
 6856SOL     OW21310   3.725   2.245   0.636
 6856SOL    HW121311   3.644   2.267   0.683
 6856SOL    HW221312   3.706   2.161   0.594
 6857SOL     OW21313   0.013   3.383   1.051
 6857SOL    HW121314   3.962   3.304   1.033
 6857SOL    HW221315   0.080   3.385   0.983
 6858SOL     OW21316   3.940   3.575   0.479
 6858SOL    HW121317   3.951   3.649   0.538
 6858SOL    HW221318   0.026   3.562   0.440
 6859SOL     OW21319   3.934   3.297   0.508
 6859SOL    HW121320   3.926   3.393   0.508
 6859SOL    HW221321   3.882   3.269   0.583
 6860SOL     OW21322   3.814   2.503   0.559
 6860SOL    HW121323   3.784   2.415   0.584
 6860SOL    HW221324   3.811   2.553   0.640
 6861SOL     OW21325   3.745   3.468   0.115
 6861SOL    HW121326   3.726   3.377   0.134
 6861SOL    HW221327   3.712   3.516   0.192
 6862SOL     OW21328   3.826   2.604   1.583
 6862SOL    HW121329   3.909   2.645   1.607
 6862SOL    HW221330   3.764   2.676   1.577
 6863SOL     OW21331   3.804   2.679   0.769
 6863SOL    HW121332   3.897   2.676   0.790
 6863SOL    HW221333   3.770   2.751   0.822
 6864SOL     OW21334   3.849   3.722   1.568
 6864SOL    HW121335   3.848   3.694   1.660
 6864SOL    HW221336   3.761   3.700   1.536
 6865SOL     OW21337   3.923   2.154   1.515
 6865SOL    HW121338   3.842   2.197   1.488
 6865SOL    HW221339   3.895   2.070   1.553
 6866SOL     OW21340   3.808   2.410   1.390
 6866SOL    HW121341   3.903   2.406   1.380
 6866SOL    HW221342   3.794   2.483   1.449
 6867SOL     OW21343   3.791   3.435   1.349
 6867SOL    HW121344   3.766   3.499   1.283
 6867SOL    HW221345   3.887   3.442   1.353
 6868SOL     OW21346   0.073   2.954   0.534
 6868SOL    HW121347   0.080   3.014   0.460
 6868SOL    HW221348   0.151   2.899   0.528
 6869SOL     OW21349   0.006   2.074   1.251
 6869SOL    HW121350   3.976   2.105   1.337
 6869SOL    HW221351   0.011   1.979   1.260
 6870SOL     OW21352   3.751   3.174   1.277
 6870SOL    HW121353   3.794   3.124   1.346
 6870SOL    HW221354   3.766   3.266   1.300
 6871SOL     OW21355   3.994   1.921   0.654
 6871SOL    HW121356   0.015   2.014   0.667
 6871SOL    HW221357   0.018   1.879   0.737
 6872SOL     OW21358   3.740   3.177   0.174
 6872SOL    HW121359   3.657   3.188   0.127
 6872SOL    HW221360   3.729   3.093   0.220
 6873SOL     OW21361   3.803   3.652   0.938
 6873SOL    HW121362   3.781   3.571   0.892
 6873SOL    HW221363   3.897   3.661   0.926
 6874SOL     OW21364   0.213   3.420   0.869
 6874SOL    HW121365   0.279   3.489   0.865
 6874SOL    HW221366   0.237   3.359   0.799
 6875SOL     OW21367   3.756   2.401   1.118
 6875SOL    HW121368   3.839   2.397   1.071
 6875SOL    HW221369   3.781   2.407   1.210
 6876SOL     OW21370   3.901   2.377   1.722
 6876SOL    HW121371   3.928   2.317   1.653
 6876SOL    HW221372   3.858   2.449   1.676
 6877SOL     OW21373   3.941   3.393   1.727
 6877SOL    HW121374   3.932   3.478   1.771
 6877SOL    HW221375   3.990   3.339   1.790
 6878SOL     OW21376   3.859   2.996   1.473
 6878SOL    HW121377   3.932   2.990   1.535
 6878SOL    HW221378   3.894   2.956   1.393
 6879SOL     OW21379   3.810   3.129   1.012
 6879SOL    HW121380   3.783   3.141   1.103
 6879SOL    HW221381   3.749   3.063   0.978
 6880SOL     OW21382   3.840   3.649   1.825
 6880SOL    HW121383   3.790   3.584   1.874
 6880SOL    HW221384   3.888   3.698   1.892
 6881SOL     OW21385   3.778   2.270   0.030
 6881SOL    HW121386   3.742   2.187   0.061
 6881SOL    HW221387   3.759   2.271  13.836
 6882SOL     OW21388   3.786   2.021   0.347
 6882SOL    HW121389   3.761   2.045   0.258
 6882SOL    HW221390   3.881   2.022   0.347
 6883SOL     OW21391   3.798   3.095   0.665
 6883SOL    HW121392   3.794   3.049   0.749
 6883SOL    HW221393   3.884   3.072   0.630
 6884SOL     OW21394   3.751   2.938   0.308
 6884SOL    HW121395   3.847   2.944   0.309
 6884SOL    HW221396   3.733   2.846   0.327
 6885SOL     OW21397   3.954   2.495   1.972
 6885SOL    HW121398   3.873   2.491   2.023
 6885SOL    HW221399   3.931   2.457   1.887
 6886SOL     OW21400   3.961   2.125   2.848
 6886SOL    HW121401   3.966   2.121   2.944
 6886SOL    HW221402   3.868   2.112   2.829
 6887SOL     OW21403   3.724   2.242   2.498
 6887SOL    HW121404   3.644   2.268   2.545
 6887SOL    HW221405   3.702   2.158   2.457
 6888SOL     OW21406   0.012   3.384   2.912
 6888SOL    HW121407   3.962   3.303   2.896
 6888SOL    HW221408   0.080   3.384   2.845
 6889SOL     OW21409   3.941   3.582   2.337
 6889SOL    HW121410   3.951   3.655   2.398
 6889SOL    HW221411   0.031   3.563   2.309
 6890SOL     OW21412   3.941   3.301   2.369
 6890SOL    HW121413   3.924   3.395   2.373
 6890SOL    HW221414   3.886   3.264   2.438
 6891SOL     OW21415   3.816   2.502   2.422
 6891SOL    HW121416   3.786   2.415   2.446
 6891SOL    HW221417   3.812   2.552   2.504
 6892SOL     OW21418   3.753   3.458   1.992
 6892SOL    HW121419   3.735   3.365   2.009
 6892SOL    HW221420   3.724   3.503   2.071
 6893SOL     OW21421   3.826   2.604   3.445
 6893SOL    HW121422   3.909   2.645   3.469
 6893SOL    HW221423   3.764   2.676   3.439
 6894SOL     OW21424   3.804   2.678   2.633
 6894SOL    HW121425   3.897   2.675   2.652
 6894SOL    HW221426   3.770   2.751   2.685
 6895SOL     OW21427   3.849   3.722   3.430
 6895SOL    HW121428   3.848   3.694   3.522
 6895SOL    HW221429   3.761   3.700   3.398
 6896SOL     OW21430   3.923   2.154   3.377
 6896SOL    HW121431   3.842   2.197   3.350
 6896SOL    HW221432   3.895   2.070   3.415
 6897SOL     OW21433   0.001   1.887   2.025
 6897SOL    HW121434   0.034   1.975   2.010
 6897SOL    HW221435   0.063   1.847   2.085
 6898SOL     OW21436   3.809   2.410   3.252
 6898SOL    HW121437   3.904   2.405   3.242
 6898SOL    HW221438   3.794   2.483   3.311
 6899SOL     OW21439   0.280   2.150   2.184
 6899SOL    HW121440   0.298   2.076   2.126
 6899SOL    HW221441   0.316   2.226   2.139
 6900SOL     OW21442   3.791   3.435   3.211
 6900SOL    HW121443   3.766   3.499   3.145
 6900SOL    HW221444   3.887   3.441   3.215
 6901SOL     OW21445   0.067   2.954   2.391
 6901SOL    HW121446   0.063   3.001   2.307
 6901SOL    HW221447   0.134   2.887   2.378
 6902SOL     OW21448   0.006   2.074   3.114
 6902SOL    HW121449   3.976   2.104   3.199
 6902SOL    HW221450   0.011   1.979   3.122
 6903SOL     OW21451   3.751   3.174   3.139
 6903SOL    HW121452   3.794   3.124   3.209
 6903SOL    HW221453   3.766   3.265   3.163
 6904SOL     OW21454   3.999   1.920   2.515
 6904SOL    HW121455   0.011   2.014   2.528
 6904SOL    HW221456   0.020   1.881   2.599
 6905SOL     OW21457   3.728   3.188   2.050
 6905SOL    HW121458   3.642   3.201   2.010
 6905SOL    HW221459   3.720   3.104   2.096
 6906SOL     OW21460   3.803   3.652   2.800
 6906SOL    HW121461   3.781   3.571   2.754
 6906SOL    HW221462   3.897   3.661   2.788
 6907SOL     OW21463   0.213   3.419   2.731
 6907SOL    HW121464   0.280   3.487   2.726
 6907SOL    HW221465   0.237   3.357   2.662
 6908SOL     OW21466   3.756   2.401   2.980
 6908SOL    HW121467   3.839   2.397   2.933
 6908SOL    HW221468   3.781   2.407   3.072
 6909SOL     OW21469   3.901   2.377   3.584
 6909SOL    HW121470   3.928   2.317   3.515
 6909SOL    HW221471   3.858   2.449   3.538
 6910SOL     OW21472   3.941   3.393   3.589
 6910SOL    HW121473   3.932   3.477   3.633
 6910SOL    HW221474   3.990   3.339   3.651
 6911SOL     OW21475   3.859   2.996   3.335
 6911SOL    HW121476   3.932   2.990   3.397
 6911SOL    HW221477   3.893   2.955   3.255
 6912SOL     OW21478   3.810   3.130   2.874
 6912SOL    HW121479   3.783   3.141   2.965
 6912SOL    HW221480   3.750   3.064   2.839
 6913SOL     OW21481   3.840   3.649   3.687
 6913SOL    HW121482   3.790   3.584   3.736
 6913SOL    HW221483   3.888   3.698   3.754
 6914SOL     OW21484   3.801   2.196   1.905
 6914SOL    HW121485   3.717   2.161   1.875
 6914SOL    HW221486   3.821   2.267   1.844
 6915SOL     OW21487   3.764   2.022   2.175
 6915SOL    HW121488   3.755   2.087   2.105
 6915SOL    HW221489   3.855   2.028   2.202
 6916SOL     OW21490   3.800   3.100   2.527
 6916SOL    HW121491   3.794   3.051   2.610
 6916SOL    HW221492   3.879   3.067   2.486
 6917SOL     OW21493   3.751   2.941   2.173
 6917SOL    HW121494   3.841   2.943   2.140
 6917SOL    HW221495   3.735   2.848   2.192
 6918SOL     OW21496   3.954   2.495   3.834
 6918SOL    HW121497   3.873   2.491   3.885
 6918SOL    HW221498   3.931   2.457   3.749
 6919SOL     OW21499   3.961   2.125   4.711
 6919SOL    HW121500   3.966   2.121   4.806
 6919SOL    HW221501   3.868   2.112   4.691
 6920SOL     OW21502   3.724   2.242   4.360
 6920SOL    HW121503   3.644   2.268   4.407
 6920SOL    HW221504   3.702   2.159   4.319
 6921SOL     OW21505   0.012   3.384   4.774
 6921SOL    HW121506   3.962   3.303   4.758
 6921SOL    HW221507   0.080   3.384   4.707
 6922SOL     OW21508   3.941   3.582   4.199
 6922SOL    HW121509   3.951   3.655   4.260
 6922SOL    HW221510   0.031   3.563   4.171
 6923SOL     OW21511   3.941   3.301   4.231
 6923SOL    HW121512   3.924   3.395   4.236
 6923SOL    HW221513   3.886   3.263   4.300
 6924SOL     OW21514   3.816   2.502   4.284
 6924SOL    HW121515   3.786   2.415   4.308
 6924SOL    HW221516   3.812   2.552   4.366
 6925SOL     OW21517   3.753   3.458   3.854
 6925SOL    HW121518   3.735   3.365   3.871
 6925SOL    HW221519   3.724   3.503   3.933
 6926SOL     OW21520   3.826   2.604   5.307
 6926SOL    HW121521   3.909   2.645   5.331
 6926SOL    HW221522   3.764   2.676   5.301
 6927SOL     OW21523   3.804   2.678   4.495
 6927SOL    HW121524   3.897   2.675   4.514
 6927SOL    HW221525   3.770   2.751   4.547
 6928SOL     OW21526   3.849   3.722   5.292
 6928SOL    HW121527   3.848   3.694   5.384
 6928SOL    HW221528   3.761   3.700   5.260
 6929SOL     OW21529   3.923   2.154   5.239
 6929SOL    HW121530   3.841   2.197   5.212
 6929SOL    HW221531   3.894   2.070   5.277
 6930SOL     OW21532   0.001   1.887   3.887
 6930SOL    HW121533   0.034   1.975   3.872
 6930SOL    HW221534   0.063   1.847   3.947
 6931SOL     OW21535   3.809   2.410   5.114
 6931SOL    HW121536   3.904   2.406   5.104
 6931SOL    HW221537   3.794   2.483   5.173
 6932SOL     OW21538   0.280   2.150   4.046
 6932SOL    HW121539   0.298   2.076   3.988
 6932SOL    HW221540   0.316   2.226   4.001
 6933SOL     OW21541   3.791   3.435   5.073
 6933SOL    HW121542   3.766   3.499   5.007
 6933SOL    HW221543   3.887   3.441   5.077
 6934SOL     OW21544   0.067   2.954   4.253
 6934SOL    HW121545   0.063   3.001   4.169
 6934SOL    HW221546   0.134   2.887   4.240
 6935SOL     OW21547   0.007   2.075   4.976
 6935SOL    HW121548   3.976   2.104   5.061
 6935SOL    HW221549   0.010   1.979   4.983
 6936SOL     OW21550   3.751   3.174   5.001
 6936SOL    HW121551   3.794   3.124   5.071
 6936SOL    HW221552   3.766   3.265   5.025
 6937SOL     OW21553   3.999   1.920   4.377
 6937SOL    HW121554   0.011   2.014   4.390
 6937SOL    HW221555   0.020   1.881   4.461
 6938SOL     OW21556   3.728   3.188   3.912
 6938SOL    HW121557   3.642   3.201   3.872
 6938SOL    HW221558   3.720   3.104   3.958
 6939SOL     OW21559   3.803   3.652   4.662
 6939SOL    HW121560   3.781   3.571   4.616
 6939SOL    HW221561   3.897   3.661   4.650
 6940SOL     OW21562   0.213   3.419   4.593
 6940SOL    HW121563   0.280   3.487   4.588
 6940SOL    HW221564   0.237   3.357   4.524
 6941SOL     OW21565   3.756   2.401   4.842
 6941SOL    HW121566   3.839   2.397   4.795
 6941SOL    HW221567   3.781   2.407   4.934
 6942SOL     OW21568   3.901   2.377   5.446
 6942SOL    HW121569   3.927   2.316   5.377
 6942SOL    HW221570   3.858   2.449   5.400
 6943SOL     OW21571   3.941   3.393   5.451
 6943SOL    HW121572   3.932   3.477   5.495
 6943SOL    HW221573   3.990   3.339   5.514
 6944SOL     OW21574   3.859   2.996   5.197
 6944SOL    HW121575   3.932   2.990   5.259
 6944SOL    HW221576   3.893   2.955   5.117
 6945SOL     OW21577   3.810   3.130   4.736
 6945SOL    HW121578   3.783   3.141   4.827
 6945SOL    HW221579   3.750   3.064   4.701
 6946SOL     OW21580   3.840   3.649   5.549
 6946SOL    HW121581   3.790   3.584   5.598
 6946SOL    HW221582   3.888   3.698   5.616
 6947SOL     OW21583   3.801   2.196   3.767
 6947SOL    HW121584   3.717   2.161   3.737
 6947SOL    HW221585   3.821   2.267   3.706
 6948SOL     OW21586   3.764   2.022   4.037
 6948SOL    HW121587   3.755   2.087   3.967
 6948SOL    HW221588   3.855   2.028   4.064
 6949SOL     OW21589   3.800   3.100   4.389
 6949SOL    HW121590   3.794   3.051   4.472
 6949SOL    HW221591   3.879   3.067   4.348
 6950SOL     OW21592   3.751   2.941   4.035
 6950SOL    HW121593   3.841   2.943   4.002
 6950SOL    HW221594   3.735   2.848   4.054
 6951SOL     OW21595   3.954   2.495   5.696
 6951SOL    HW121596   3.874   2.491   5.747
 6951SOL    HW221597   3.931   2.457   5.611
 6952SOL     OW21598   3.961   2.125   6.572
 6952SOL    HW121599   3.966   2.121   6.668
 6952SOL    HW221600   3.868   2.112   6.553
 6953SOL     OW21601   3.724   2.242   6.222
 6953SOL    HW121602   3.645   2.267   6.269
 6953SOL    HW221603   3.703   2.158   6.181
 6954SOL     OW21604   0.011   3.384   6.636
 6954SOL    HW121605   3.963   3.303   6.620
 6954SOL    HW221606   0.079   3.385   6.569
 6955SOL     OW21607   3.942   3.582   6.061
 6955SOL    HW121608   3.951   3.655   6.122
 6955SOL    HW221609   0.031   3.563   6.033
 6956SOL     OW21610   3.941   3.301   6.093
 6956SOL    HW121611   3.924   3.395   6.097
 6956SOL    HW221612   3.886   3.264   6.162
 6957SOL     OW21613   3.816   2.502   6.146
 6957SOL    HW121614   3.786   2.415   6.170
 6957SOL    HW221615   3.812   2.552   6.228
 6958SOL     OW21616   3.753   3.458   5.716
 6958SOL    HW121617   3.735   3.365   5.733
 6958SOL    HW221618   3.724   3.503   5.795
 6959SOL     OW21619   3.826   2.604   7.169
 6959SOL    HW121620   3.909   2.644   7.193
 6959SOL    HW221621   3.764   2.676   7.164
 6960SOL     OW21622   3.804   2.678   6.357
 6960SOL    HW121623   3.897   2.675   6.376
 6960SOL    HW221624   3.770   2.751   6.409
 6961SOL     OW21625   3.849   3.722   7.154
 6961SOL    HW121626   3.848   3.694   7.246
 6961SOL    HW221627   3.761   3.699   7.122
 6962SOL     OW21628   3.923   2.154   7.101
 6962SOL    HW121629   3.842   2.197   7.075
 6962SOL    HW221630   3.895   2.071   7.139
 6963SOL     OW21631   0.000   1.887   5.749
 6963SOL    HW121632   0.034   1.975   5.734
 6963SOL    HW221633   0.063   1.847   5.809
 6964SOL     OW21634   3.808   2.410   6.976
 6964SOL    HW121635   3.903   2.405   6.966
 6964SOL    HW221636   3.794   2.483   7.035
 6965SOL     OW21637   0.281   2.150   5.909
 6965SOL    HW121638   0.297   2.076   5.850
 6965SOL    HW221639   0.314   2.226   5.862
 6966SOL     OW21640   3.792   3.435   6.935
 6966SOL    HW121641   3.766   3.499   6.869
 6966SOL    HW221642   3.887   3.441   6.939
 6967SOL     OW21643   0.067   2.954   6.114
 6967SOL    HW121644   0.064   3.001   6.031
 6967SOL    HW221645   0.134   2.887   6.102
 6968SOL     OW21646   0.005   2.074   6.837
 6968SOL    HW121647   3.976   2.104   6.923
 6968SOL    HW221648   0.013   1.979   6.847
 6969SOL     OW21649   3.751   3.174   6.863
 6969SOL    HW121650   3.794   3.124   6.932
 6969SOL    HW221651   3.766   3.265   6.887
 6970SOL     OW21652   3.998   1.920   6.239
 6970SOL    HW121653   0.011   2.014   6.252
 6970SOL    HW221654   0.020   1.881   6.323
 6971SOL     OW21655   3.728   3.188   5.774
 6971SOL    HW121656   3.642   3.201   5.734
 6971SOL    HW221657   3.720   3.104   5.820
 6972SOL     OW21658   3.803   3.652   6.524
 6972SOL    HW121659   3.781   3.571   6.478
 6972SOL    HW221660   3.897   3.661   6.512
 6973SOL     OW21661   0.213   3.419   6.455
 6973SOL    HW121662   0.280   3.487   6.450
 6973SOL    HW221663   0.237   3.357   6.386
 6974SOL     OW21664   3.756   2.402   6.704
 6974SOL    HW121665   3.839   2.397   6.657
 6974SOL    HW221666   3.781   2.407   6.796
 6975SOL     OW21667   3.901   2.377   7.309
 6975SOL    HW121668   3.928   2.317   7.240
 6975SOL    HW221669   3.858   2.449   7.262
 6976SOL     OW21670   3.941   3.393   7.313
 6976SOL    HW121671   3.933   3.477   7.358
 6976SOL    HW221672   3.991   3.338   7.374
 6977SOL     OW21673   3.859   2.996   7.059
 6977SOL    HW121674   3.931   2.990   7.121
 6977SOL    HW221675   3.894   2.955   6.979
 6978SOL     OW21676   3.810   3.130   6.598
 6978SOL    HW121677   3.782   3.141   6.689
 6978SOL    HW221678   3.750   3.064   6.563
 6979SOL     OW21679   3.840   3.649   7.411
 6979SOL    HW121680   3.790   3.584   7.460
 6979SOL    HW221681   3.887   3.698   7.478
 6980SOL     OW21682   3.801   2.196   5.629
 6980SOL    HW121683   3.717   2.161   5.599
 6980SOL    HW221684   3.820   2.267   5.568
 6981SOL     OW21685   3.764   2.023   5.899
 6981SOL    HW121686   3.755   2.087   5.829
 6981SOL    HW221687   3.856   2.028   5.926
 6982SOL     OW21688   3.800   3.100   6.251
 6982SOL    HW121689   3.794   3.051   6.334
 6982SOL    HW221690   3.879   3.067   6.210
 6983SOL     OW21691   3.751   2.941   5.897
 6983SOL    HW121692   3.841   2.943   5.864
 6983SOL    HW221693   3.735   2.848   5.916
 6984SOL     OW21694   3.954   2.495   7.558
 6984SOL    HW121695   3.873   2.491   7.609
 6984SOL    HW221696   3.931   2.457   7.473
 6985SOL     OW21697   3.961   2.125   8.435
 6985SOL    HW121698   3.966   2.121   8.530
 6985SOL    HW221699   3.868   2.112   8.415
 6986SOL     OW21700   3.724   2.242   8.084
 6986SOL    HW121701   3.644   2.267   8.131
 6986SOL    HW221702   3.703   2.159   8.043
 6987SOL     OW21703   0.012   3.384   8.499
 6987SOL    HW121704   3.962   3.303   8.482
 6987SOL    HW221705   0.080   3.385   8.431
 6988SOL     OW21706   3.941   3.582   7.923
 6988SOL    HW121707   3.951   3.655   7.984
 6988SOL    HW221708   0.031   3.563   7.895
 6989SOL     OW21709   3.941   3.301   7.956
 6989SOL    HW121710   3.924   3.395   7.960
 6989SOL    HW221711   3.886   3.264   8.025
 6990SOL     OW21712   3.816   2.503   8.008
 6990SOL    HW121713   3.786   2.415   8.032
 6990SOL    HW221714   3.811   2.552   8.090
 6991SOL     OW21715   3.753   3.458   7.578
 6991SOL    HW121716   3.735   3.365   7.595
 6991SOL    HW221717   3.724   3.503   7.657
 6992SOL     OW21718   3.826   2.604   9.031
 6992SOL    HW121719   3.909   2.645   9.054
 6992SOL    HW221720   3.764   2.676   9.025
 6993SOL     OW21721   3.804   2.677   8.220
 6993SOL    HW121722   3.897   2.675   8.238
 6993SOL    HW221723   3.771   2.751   8.271
 6994SOL     OW21724   3.849   3.722   9.016
 6994SOL    HW121725   3.848   3.694   9.108
 6994SOL    HW221726   3.761   3.700   8.984
 6995SOL     OW21727   3.923   2.154   8.964
 6995SOL    HW121728   3.842   2.197   8.936
 6995SOL    HW221729   3.894   2.070   9.001
 6996SOL     OW21730   0.001   1.887   7.611
 6996SOL    HW121731   0.035   1.975   7.595
 6996SOL    HW221732   0.065   1.847   7.670
 6997SOL     OW21733   3.809   2.410   8.838
 6997SOL    HW121734   3.904   2.405   8.828
 6997SOL    HW221735   3.794   2.483   8.898
 6998SOL     OW21736   0.278   2.151   7.769
 6998SOL    HW121737   0.299   2.077   7.712
 6998SOL    HW221738   0.319   2.226   7.726
 6999SOL     OW21739   3.792   3.435   8.797
 6999SOL    HW121740   3.766   3.499   8.731
 6999SOL    HW221741   3.887   3.442   8.801
 7000SOL     OW21742   0.067   2.954   7.976
 7000SOL    HW121743   0.064   3.001   7.893
 7000SOL    HW221744   0.135   2.888   7.965
 7001SOL     OW21745   0.006   2.074   8.700
 7001SOL    HW121746   3.976   2.104   8.786
 7001SOL    HW221747   0.011   1.979   8.708
 7002SOL     OW21748   3.750   3.174   8.725
 7002SOL    HW121749   3.794   3.124   8.794
 7002SOL    HW221750   3.765   3.266   8.749
 7003SOL     OW21751   3.998   1.920   8.101
 7003SOL    HW121752   0.011   2.014   8.113
 7003SOL    HW221753   0.020   1.881   8.186
 7004SOL     OW21754   3.728   3.188   7.636
 7004SOL    HW121755   3.642   3.201   7.596
 7004SOL    HW221756   3.720   3.104   7.682
 7005SOL     OW21757   3.803   3.652   8.386
 7005SOL    HW121758   3.781   3.571   8.340
 7005SOL    HW221759   3.898   3.661   8.374
 7006SOL     OW21760   0.213   3.419   8.317
 7006SOL    HW121761   0.280   3.487   8.312
 7006SOL    HW221762   0.236   3.357   8.248
 7007SOL     OW21763   3.756   2.401   8.566
 7007SOL    HW121764   3.838   2.397   8.518
 7007SOL    HW221765   3.781   2.407   8.658
 7008SOL     OW21766   3.901   2.377   9.170
 7008SOL    HW121767   3.928   2.317   9.101
 7008SOL    HW221768   3.858   2.449   9.124
 7009SOL     OW21769   3.941   3.393   9.175
 7009SOL    HW121770   3.933   3.477   9.220
 7009SOL    HW221771   3.990   3.338   9.237
 7010SOL     OW21772   3.859   2.995   8.921
 7010SOL    HW121773   3.932   2.990   8.983
 7010SOL    HW221774   3.894   2.955   8.841
 7011SOL     OW21775   3.809   3.130   8.460
 7011SOL    HW121776   3.782   3.141   8.551
 7011SOL    HW221777   3.750   3.064   8.425
 7012SOL     OW21778   3.840   3.649   9.273
 7012SOL    HW121779   3.790   3.584   9.322
 7012SOL    HW221780   3.888   3.698   9.340
 7013SOL     OW21781   3.801   2.196   7.491
 7013SOL    HW121782   3.717   2.162   7.461
 7013SOL    HW221783   3.820   2.268   7.430
 7014SOL     OW21784   3.763   2.022   7.761
 7014SOL    HW121785   3.755   2.086   7.690
 7014SOL    HW221786   3.855   2.028   7.788
 7015SOL     OW21787   3.800   3.100   8.113
 7015SOL    HW121788   3.794   3.051   8.195
 7015SOL    HW221789   3.879   3.067   8.071
 7016SOL     OW21790   3.751   2.941   7.759
 7016SOL    HW121791   3.841   2.943   7.726
 7016SOL    HW221792   3.734   2.848   7.778
 7017SOL     OW21793   3.954   2.495   9.420
 7017SOL    HW121794   3.873   2.491   9.471
 7017SOL    HW221795   3.931   2.458   9.335
 7018SOL     OW21796   3.961   2.125  10.297
 7018SOL    HW121797   3.966   2.121  10.392
 7018SOL    HW221798   3.868   2.112  10.277
 7019SOL     OW21799   3.724   2.242   9.946
 7019SOL    HW121800   3.644   2.268   9.993
 7019SOL    HW221801   3.702   2.159   9.905
 7020SOL     OW21802   0.012   3.384  10.360
 7020SOL    HW121803   3.962   3.303  10.344
 7020SOL    HW221804   0.080   3.384  10.293
 7021SOL     OW21805   3.941   3.582   9.785
 7021SOL    HW121806   3.951   3.655   9.846
 7021SOL    HW221807   0.031   3.563   9.757
 7022SOL     OW21808   3.941   3.301   9.817
 7022SOL    HW121809   3.924   3.395   9.821
 7022SOL    HW221810   3.886   3.264   9.887
 7023SOL     OW21811   3.816   2.502   9.870
 7023SOL    HW121812   3.786   2.415   9.894
 7023SOL    HW221813   3.812   2.552   9.952
 7024SOL     OW21814   3.753   3.458   9.440
 7024SOL    HW121815   3.735   3.365   9.457
 7024SOL    HW221816   3.724   3.503   9.519
 7025SOL     OW21817   3.826   2.604  10.893
 7025SOL    HW121818   3.909   2.645  10.916
 7025SOL    HW221819   3.764   2.676  10.887
 7026SOL     OW21820   3.804   2.677  10.081
 7026SOL    HW121821   3.897   2.675  10.100
 7026SOL    HW221822   3.771   2.751  10.133
 7027SOL     OW21823   3.849   3.722  10.878
 7027SOL    HW121824   3.848   3.694  10.970
 7027SOL    HW221825   3.761   3.700  10.846
 7028SOL     OW21826   3.923   2.154  10.826
 7028SOL    HW121827   3.842   2.197  10.798
 7028SOL    HW221828   3.895   2.070  10.863
 7029SOL     OW21829   0.001   1.887   9.473
 7029SOL    HW121830   0.034   1.975   9.458
 7029SOL    HW221831   0.064   1.847   9.533
 7030SOL     OW21832   3.809   2.410  10.700
 7030SOL    HW121833   3.904   2.405  10.690
 7030SOL    HW221834   3.794   2.483  10.760
 7031SOL     OW21835   0.280   2.150   9.632
 7031SOL    HW121836   0.298   2.076   9.574
 7031SOL    HW221837   0.316   2.226   9.587
 7032SOL     OW21838   3.791   3.435  10.659
 7032SOL    HW121839   3.766   3.499  10.593
 7032SOL    HW221840   3.887   3.442  10.663
 7033SOL     OW21841   0.067   2.954   9.839
 7033SOL    HW121842   0.063   3.001   9.755
 7033SOL    HW221843   0.135   2.888   9.826
 7034SOL     OW21844   0.006   2.074  10.562
 7034SOL    HW121845   3.976   2.104  10.648
 7034SOL    HW221846   0.011   1.979  10.570
 7035SOL     OW21847   3.751   3.174  10.587
 7035SOL    HW121848   3.794   3.124  10.657
 7035SOL    HW221849   3.766   3.265  10.611
 7036SOL     OW21850   3.998   1.920   9.963
 7036SOL    HW121851   0.011   2.014   9.976
 7036SOL    HW221852   0.020   1.881  10.047
 7037SOL     OW21853   3.728   3.188   9.498
 7037SOL    HW121854   3.642   3.201   9.458
 7037SOL    HW221855   3.720   3.104   9.544
 7038SOL     OW21856   3.803   3.652  10.248
 7038SOL    HW121857   3.781   3.571  10.202
 7038SOL    HW221858   3.897   3.661  10.236
 7039SOL     OW21859   0.213   3.419  10.179
 7039SOL    HW121860   0.280   3.487  10.174
 7039SOL    HW221861   0.237   3.357  10.110
 7040SOL     OW21862   3.756   2.401  10.428
 7040SOL    HW121863   3.839   2.397  10.381
 7040SOL    HW221864   3.781   2.407  10.520
 7041SOL     OW21865   3.901   2.377  11.032
 7041SOL    HW121866   3.928   2.317  10.963
 7041SOL    HW221867   3.858   2.449  10.986
 7042SOL     OW21868   3.941   3.393  11.037
 7042SOL    HW121869   3.933   3.477  11.081
 7042SOL    HW221870   3.990   3.338  11.099
 7043SOL     OW21871   3.859   2.996  10.783
 7043SOL    HW121872   3.932   2.990  10.845
 7043SOL    HW221873   3.893   2.955  10.703
 7044SOL     OW21874   3.810   3.130  10.322
 7044SOL    HW121875   3.782   3.141  10.413
 7044SOL    HW221876   3.750   3.064  10.287
 7045SOL     OW21877   3.840   3.649  11.135
 7045SOL    HW121878   3.790   3.584  11.184
 7045SOL    HW221879   3.888   3.698  11.202
 7046SOL     OW21880   3.801   2.196   9.353
 7046SOL    HW121881   3.717   2.161   9.323
 7046SOL    HW221882   3.821   2.267   9.292
 7047SOL     OW21883   3.764   2.022   9.623
 7047SOL    HW121884   3.755   2.087   9.552
 7047SOL    HW221885   3.855   2.028   9.650
 7048SOL     OW21886   3.800   3.100   9.975
 7048SOL    HW121887   3.794   3.051  10.057
 7048SOL    HW221888   3.879   3.067   9.933
 7049SOL     OW21889   3.751   2.941   9.621
 7049SOL    HW121890   3.841   2.943   9.588
 7049SOL    HW221891   3.735   2.848   9.640
 7050SOL     OW21892   3.954   2.495  11.282
 7050SOL    HW121893   3.873   2.491  11.333
 7050SOL    HW221894   3.931   2.457  11.197
 7051SOL     OW21895   3.961   2.125  12.159
 7051SOL    HW121896   3.966   2.121  12.254
 7051SOL    HW221897   3.868   2.112  12.139
 7052SOL     OW21898   3.724   2.242  11.808
 7052SOL    HW121899   3.644   2.268  11.855
 7052SOL    HW221900   3.702   2.159  11.767
 7053SOL     OW21901   0.012   3.384  12.223
 7053SOL    HW121902   3.962   3.303  12.206
 7053SOL    HW221903   0.080   3.385  12.155
 7054SOL     OW21904   3.941   3.582  11.647
 7054SOL    HW121905   3.951   3.655  11.708
 7054SOL    HW221906   0.031   3.563  11.619
 7055SOL     OW21907   3.941   3.301  11.679
 7055SOL    HW121908   3.924   3.395  11.683
 7055SOL    HW221909   3.886   3.264  11.749
 7056SOL     OW21910   3.816   2.502  11.732
 7056SOL    HW121911   3.786   2.415  11.756
 7056SOL    HW221912   3.812   2.552  11.814
 7057SOL     OW21913   3.753   3.458  11.302
 7057SOL    HW121914   3.735   3.365  11.319
 7057SOL    HW221915   3.724   3.503  11.381
 7058SOL     OW21916   3.826   2.604  12.755
 7058SOL    HW121917   3.909   2.645  12.778
 7058SOL    HW221918   3.764   2.676  12.749
 7059SOL     OW21919   3.804   2.677  11.943
 7059SOL    HW121920   3.897   2.675  11.962
 7059SOL    HW221921   3.770   2.751  11.995
 7060SOL     OW21922   3.849   3.722  12.741
 7060SOL    HW121923   3.849   3.695  12.833
 7060SOL    HW221924   3.762   3.699  12.709
 7061SOL     OW21925   3.923   2.154  12.688
 7061SOL    HW121926   3.842   2.197  12.660
 7061SOL    HW221927   3.894   2.070  12.725
 7062SOL     OW21928   0.001   1.887  11.335
 7062SOL    HW121929   0.035   1.975  11.320
 7062SOL    HW221930   0.063   1.847  11.395
 7063SOL     OW21931   3.809   2.410  12.562
 7063SOL    HW121932   3.904   2.405  12.552
 7063SOL    HW221933   3.794   2.483  12.622
 7064SOL     OW21934   0.280   2.150  11.494
 7064SOL    HW121935   0.298   2.076  11.436
 7064SOL    HW221936   0.316   2.226  11.449
 7065SOL     OW21937   3.791   3.435  12.521
 7065SOL    HW121938   3.766   3.499  12.455
 7065SOL    HW221939   3.887   3.442  12.525
 7066SOL     OW21940   0.067   2.954  11.701
 7066SOL    HW121941   0.063   3.001  11.617
 7066SOL    HW221942   0.134   2.887  11.688
 7067SOL     OW21943   0.006   2.074  12.424
 7067SOL    HW121944   3.976   2.104  12.510
 7067SOL    HW221945   0.011   1.979  12.432
 7068SOL     OW21946   3.751   3.174  12.449
 7068SOL    HW121947   3.794   3.124  12.519
 7068SOL    HW221948   3.766   3.265  12.473
 7069SOL     OW21949   3.998   1.920  11.825
 7069SOL    HW121950   0.011   2.014  11.838
 7069SOL    HW221951   0.020   1.881  11.909
 7070SOL     OW21952   3.728   3.188  11.360
 7070SOL    HW121953   3.642   3.201  11.320
 7070SOL    HW221954   3.720   3.104  11.406
 7071SOL     OW21955   3.803   3.652  12.110
 7071SOL    HW121956   3.781   3.571  12.064
 7071SOL    HW221957   3.897   3.661  12.098
 7072SOL     OW21958   0.213   3.419  12.041
 7072SOL    HW121959   0.280   3.487  12.036
 7072SOL    HW221960   0.237   3.357  11.972
 7073SOL     OW21961   3.756   2.401  12.290
 7073SOL    HW121962   3.839   2.397  12.243
 7073SOL    HW221963   3.781   2.407  12.382
 7074SOL     OW21964   3.901   2.378  12.895
 7074SOL    HW121965   3.928   2.317  12.826
 7074SOL    HW221966   3.859   2.449  12.848
 7075SOL     OW21967   3.941   3.394  12.900
 7075SOL    HW121968   3.932   3.478  12.945
 7075SOL    HW221969   3.988   3.338  12.962
 7076SOL     OW21970   3.859   2.996  12.645
 7076SOL    HW121971   3.932   2.990  12.707
 7076SOL    HW221972   3.893   2.956  12.565
 7077SOL     OW21973   3.810   3.130  12.184
 7077SOL    HW121974   3.782   3.141  12.275
 7077SOL    HW221975   3.750   3.064  12.149
 7078SOL     OW21976   3.842   3.650  12.999
 7078SOL    HW121977   3.791   3.585  13.047
 7078SOL    HW221978   3.888   3.700  13.067
 7079SOL     OW21979   3.801   2.196  11.215
 7079SOL    HW121980   3.717   2.161  11.185
 7079SOL    HW221981   3.821   2.267  11.154
 7080SOL     OW21982   3.764   2.022  11.485
 7080SOL    HW121983   3.755   2.087  11.414
 7080SOL    HW221984   3.855   2.028  11.512
 7081SOL     OW21985   3.800   3.100  11.837
 7081SOL    HW121986   3.794   3.051  11.920
 7081SOL    HW221987   3.879   3.067  11.796
 7082SOL     OW21988   3.751   2.941  11.483
 7082SOL    HW121989   3.841   2.943  11.450
 7082SOL    HW221990   3.735   2.848  11.502
 7083SOL     OW21991   3.952   2.494  13.145
 7083SOL    HW121992   3.870   2.490  13.194
 7083SOL    HW221993   3.931   2.457  13.059
 7084SOL     OW21994   3.722   2.244  13.661
 7084SOL    HW121995   3.635   2.274  13.687
 7084SOL    HW221996   3.707   2.159  13.619
 7085SOL     OW21997   3.942   3.579  13.502
 7085SOL    HW121998   3.940   3.656  13.558
 7085SOL    HW221999   0.035   3.565  13.484
 7086SOL     OW22000   3.941   3.297  13.539
 7086SOL    HW122001   3.927   3.392  13.541
 7086SOL    HW222002   3.884   3.263  13.608
 7087SOL     OW22003   3.947   2.955   0.003
 7087SOL    HW122004   3.983   2.913   0.081
 7087SOL    HW222005   3.863   2.991   0.032
 7088SOL     OW22006   3.832   2.503  13.597
 7088SOL    HW122007   3.782   2.423  13.612
 7088SOL    HW222008   3.816   2.556  13.675
 7089SOL     OW22009   3.750   3.458  13.162
 7089SOL    HW122010   3.734   3.366  13.180
 7089SOL    HW222011   3.722   3.503  13.242
 7090SOL     OW22012   3.800   2.673  13.808
 7090SOL    HW122013   3.894   2.681  13.824
 7090SOL    HW222014   3.761   2.750  13.850
 7091SOL     OW22015   0.114   3.636  13.842
 7091SOL    HW122016   0.072   3.578   0.005
 7091SOL    HW222017   0.186   3.676  13.892
 7092SOL     OW22018   0.001   1.889  13.199
 7092SOL    HW122019   0.041   1.973  13.176
 7092SOL    HW222020   0.064   1.848  13.258
 7093SOL     OW22021   0.278   2.151  13.350
 7093SOL    HW122022   0.300   2.076  13.295
 7093SOL    HW222023   0.322   2.225  13.307
 7094SOL     OW22024   0.069   2.956  13.556
 7094SOL    HW122025   0.066   3.005  13.474
 7094SOL    HW222026   0.138   2.891  13.544
 7095SOL     OW22027   3.983   1.925  13.670
 7095SOL    HW122028   0.008   2.017  13.681
 7095SOL    HW222029   0.023   1.880  13.744
 7096SOL     OW22030   3.728   3.188  13.222
 7096SOL    HW122031   3.642   3.202  13.181
 7096SOL    HW222032   3.720   3.105  13.268
 7097SOL     OW22033   0.321   3.404   0.011
 7097SOL    HW122034   0.263   3.474   0.041
 7097SOL    HW222035   0.265   3.347  13.858
 7098SOL     OW22036   3.801   2.196  13.076
 7098SOL    HW122037   3.717   2.161  13.047
 7098SOL    HW222038   3.821   2.267  13.016
 7099SOL     OW22039   3.764   2.024  13.347
 7099SOL    HW122040   3.756   2.085  13.274
 7099SOL    HW222041   3.856   2.030  13.374
 7100SOL     OW22042   3.807   3.094  13.692
 7100SOL    HW122043   3.797   3.030  13.762
 7100SOL    HW222044   3.884   3.066  13.644
 7101SOL     OW22045   3.752   2.940  13.344
 7101SOL    HW122046   3.841   2.943  13.310
 7101SOL    HW222047   3.736   2.847  13.363
 7102SOL     OW22048   3.963   3.975   0.989
 7102SOL    HW122049   3.966   3.968   1.085
 7102SOL    HW222050   3.873   3.952   0.967
 7103SOL     OW22051   3.749   0.060   0.689
 7103SOL    HW122052   3.672   0.116   0.691
 7103SOL    HW222053   3.720   3.980   0.644
 7104SOL     OW22054   3.914   0.002   1.509
 7104SOL    HW122055   3.824   0.035   1.505
 7104SOL    HW222056   3.909   3.927   1.568
 7105SOL     OW22057   3.980   3.771   0.180
 7105SOL    HW122058   0.016   3.836   0.120
 7105SOL    HW222059   0.050   3.706   0.189
 7106SOL     OW22060   3.999   3.934   1.256
 7106SOL    HW122061   3.963   3.943   1.344
 7106SOL    HW222062   0.028   3.843   1.251
 7107SOL     OW22063   0.023   3.777   0.648
 7107SOL    HW122064   0.044   3.870   0.652
 7107SOL    HW222065   0.033   3.747   0.739
 7108SOL     OW22066   3.787   3.868   0.343
 7108SOL    HW122067   3.788   3.963   0.329
 7108SOL    HW222068   3.863   3.836   0.295
 7109SOL     OW22069   3.964   3.973   2.850
 7109SOL    HW122070   3.967   3.968   2.946
 7109SOL    HW222071   3.873   3.951   2.828
 7110SOL     OW22072   3.747   0.058   2.555
 7110SOL    HW122073   3.672   0.117   2.556
 7110SOL    HW222074   3.717   3.980   2.508
 7111SOL     OW22075   3.914   0.002   3.371
 7111SOL    HW122076   3.824   0.035   3.367
 7111SOL    HW222077   3.909   3.927   3.429
 7112SOL     OW22078   3.989   3.758   2.023
 7112SOL    HW122079   0.028   3.835   1.980
 7112SOL    HW222080   0.058   3.725   2.079
 7113SOL     OW22081   3.999   3.935   3.118
 7113SOL    HW122082   3.963   3.944   3.206
 7113SOL    HW222083   0.028   3.844   3.113
 7114SOL     OW22084   0.017   3.778   2.514
 7114SOL    HW122085   0.047   3.869   2.518
 7114SOL    HW222086   0.030   3.744   2.603
 7115SOL     OW22087   3.805   0.050   1.892
 7115SOL    HW122088   3.740   0.018   1.829
 7115SOL    HW222089   3.807   0.145   1.879
 7116SOL     OW22090   3.782   3.869   2.187
 7116SOL    HW122091   3.778   3.962   2.164
 7116SOL    HW222092   3.869   3.842   2.157
 7117SOL     OW22093   3.964   3.973   4.712
 7117SOL    HW122094   3.967   3.968   4.808
 7117SOL    HW222095   3.873   3.951   4.690
 7118SOL     OW22096   3.747   0.058   4.417
 7118SOL    HW122097   3.672   0.117   4.418
 7118SOL    HW222098   3.717   3.981   4.370
 7119SOL     OW22099   3.914   0.002   5.233
 7119SOL    HW122100   3.824   0.035   5.229
 7119SOL    HW222101   3.909   3.927   5.292
 7120SOL     OW22102   3.989   3.758   3.885
 7120SOL    HW122103   0.028   3.835   3.842
 7120SOL    HW222104   0.058   3.725   3.941
 7121SOL     OW22105   3.999   3.935   4.980
 7121SOL    HW122106   3.963   3.944   5.068
 7121SOL    HW222107   0.028   3.844   4.975
 7122SOL     OW22108   0.017   3.778   4.376
 7122SOL    HW122109   0.047   3.869   4.380
 7122SOL    HW222110   0.030   3.744   4.465
 7123SOL     OW22111   3.805   0.050   3.754
 7123SOL    HW122112   3.740   0.018   3.692
 7123SOL    HW222113   3.807   0.145   3.741
 7124SOL     OW22114   3.782   3.869   4.049
 7124SOL    HW122115   3.778   3.962   4.027
 7124SOL    HW222116   3.869   3.842   4.020
 7125SOL     OW22117   3.964   3.973   6.574
 7125SOL    HW122118   3.967   3.968   6.670
 7125SOL    HW222119   3.873   3.951   6.552
 7126SOL     OW22120   3.747   0.058   6.279
 7126SOL    HW122121   3.672   0.117   6.279
 7126SOL    HW222122   3.717   3.980   6.232
 7127SOL     OW22123   3.914   0.002   7.095
 7127SOL    HW122124   3.824   0.035   7.090
 7127SOL    HW222125   3.909   3.926   7.153
 7128SOL     OW22126   3.989   3.758   5.747
 7128SOL    HW122127   0.028   3.835   5.704
 7128SOL    HW222128   0.058   3.725   5.804
 7129SOL     OW22129   3.999   3.935   6.842
 7129SOL    HW122130   3.963   3.944   6.930
 7129SOL    HW222131   0.028   3.844   6.837
 7130SOL     OW22132   0.017   3.778   6.238
 7130SOL    HW122133   0.047   3.869   6.242
 7130SOL    HW222134   0.029   3.744   6.327
 7131SOL     OW22135   3.805   0.050   5.616
 7131SOL    HW122136   3.739   0.018   5.554
 7131SOL    HW222137   3.807   0.145   5.603
 7132SOL     OW22138   3.782   3.869   5.911
 7132SOL    HW122139   3.778   3.962   5.889
 7132SOL    HW222140   3.870   3.842   5.882
 7133SOL     OW22141   3.964   3.973   8.436
 7133SOL    HW122142   3.967   3.968   8.532
 7133SOL    HW222143   3.873   3.951   8.414
 7134SOL     OW22144   3.747   0.058   8.141
 7134SOL    HW122145   3.671   0.117   8.141
 7134SOL    HW222146   3.718   3.980   8.094
 7135SOL     OW22147   3.914   0.002   8.957
 7135SOL    HW122148   3.824   0.035   8.953
 7135SOL    HW222149   3.909   3.926   9.015
 7136SOL     OW22150   3.989   3.759   7.609
 7136SOL    HW122151   0.028   3.835   7.566
 7136SOL    HW222152   0.059   3.725   7.665
 7137SOL     OW22153   3.999   3.935   8.704
 7137SOL    HW122154   3.963   3.944   8.792
 7137SOL    HW222155   0.028   3.844   8.699
 7138SOL     OW22156   0.017   3.778   8.100
 7138SOL    HW122157   0.047   3.868   8.104
 7138SOL    HW222158   0.029   3.745   8.189
 7139SOL     OW22159   3.804   0.050   7.479
 7139SOL    HW122160   3.740   0.018   7.415
 7139SOL    HW222161   3.806   0.145   7.465
 7140SOL     OW22162   3.782   3.870   7.772
 7140SOL    HW122163   3.778   3.962   7.749
 7140SOL    HW222164   3.869   3.842   7.743
 7141SOL     OW22165   3.964   3.973  10.298
 7141SOL    HW122166   3.967   3.968  10.394
 7141SOL    HW222167   3.873   3.951  10.276
 7142SOL     OW22168   3.747   0.058  10.003
 7142SOL    HW122169   3.672   0.117  10.003
 7142SOL    HW222170   3.717   3.981   9.956
 7143SOL     OW22171   3.914   0.002  10.819
 7143SOL    HW122172   3.824   0.035  10.815
 7143SOL    HW222173   3.909   3.926  10.877
 7144SOL     OW22174   3.989   3.759   9.471
 7144SOL    HW122175   0.028   3.835   9.428
 7144SOL    HW222176   0.059   3.725   9.527
 7145SOL     OW22177   3.999   3.935  10.566
 7145SOL    HW122178   3.963   3.944  10.654
 7145SOL    HW222179   0.028   3.844  10.561
 7146SOL     OW22180   0.017   3.778   9.962
 7146SOL    HW122181   0.047   3.869   9.966
 7146SOL    HW222182   0.030   3.745  10.051
 7147SOL     OW22183   3.804   0.050   9.340
 7147SOL    HW122184   3.740   0.018   9.277
 7147SOL    HW222185   3.807   0.145   9.327
 7148SOL     OW22186   3.782   3.869   9.634
 7148SOL    HW122187   3.778   3.962   9.612
 7148SOL    HW222188   3.869   3.842   9.605
 7149SOL     OW22189   3.964   3.973  12.160
 7149SOL    HW122190   3.967   3.968  12.256
 7149SOL    HW222191   3.873   3.951  12.138
 7150SOL     OW22192   3.747   0.058  11.865
 7150SOL    HW122193   3.672   0.117  11.865
 7150SOL    HW222194   3.717   3.980  11.818
 7151SOL     OW22195   3.913   0.002  12.681
 7151SOL    HW122196   3.824   0.035  12.677
 7151SOL    HW222197   3.908   3.926  12.739
 7152SOL     OW22198   3.989   3.759  11.333
 7152SOL    HW122199   0.028   3.835  11.290
 7152SOL    HW222200   0.059   3.725  11.389
 7153SOL     OW22201   3.999   3.935  12.428
 7153SOL    HW122202   3.963   3.944  12.516
 7153SOL    HW222203   0.027   3.844  12.423
 7154SOL     OW22204   0.017   3.778  11.824
 7154SOL    HW122205   0.047   3.869  11.828
 7154SOL    HW222206   0.030   3.745  11.913
 7155SOL     OW22207   3.804   0.050  11.202
 7155SOL    HW122208   3.740   0.018  11.139
 7155SOL    HW222209   3.807   0.145  11.189
 7156SOL     OW22210   3.782   3.869  11.497
 7156SOL    HW122211   3.778   3.962  11.474
 7156SOL    HW222212   3.869   3.842  11.467
 7157SOL     OW22213   3.741   0.081  13.686
 7157SOL    HW122214   3.670   0.110  13.743
 7157SOL    HW222215   3.719   3.990  13.664
 7158SOL     OW22216   3.990   3.763  13.199
 7158SOL    HW122217   0.033   3.834  13.152
 7158SOL    HW222218   0.058   3.725  13.255
 7159SOL     OW22219   3.980   3.791  13.669
 7159SOL    HW122220   0.025   3.875  13.677
 7159SOL    HW222221   0.024   3.734  13.732
 7160SOL     OW22222   3.805   0.050  13.063
 7160SOL    HW122223   3.739   0.019  13.001
 7160SOL    HW222224   3.807   0.145  13.050
 7161SOL     OW22225   3.779   3.870  13.357
 7161SOL    HW122226   3.777   3.965  13.340
 7161SOL    HW222227   3.864   3.842  13.324
   4.00000   4.00000  13.90000
