2gCDOC_2PEG_l14
22233
    1LIG      O    1   2.174   2.099   0.035
    1LIG      C    2   2.134   2.160   0.186
    1LIG     C1    3   2.186   2.097   0.351
    1LIG     O1    4   2.139   2.152   0.502
    1LIG     C2    5   2.187   2.102   0.655
    1LIG     C3    6   2.129   2.163   0.819
    1LIG     O2    7   2.187   2.118   0.971
    1LIG     C4    8   2.129   2.151   1.125
    1LIG     C5    9   2.197   2.095   1.285
    1LIG     O3   10   2.150   2.145   1.436
    1LIG     C6   11   2.195   2.084   1.585
    1LIG     C7   12   2.147   2.147   1.749
    1LIG     O4   13   2.187   2.083   1.898
    1LIG     C8   14   2.137   2.136   2.049
    1LIG     C9   15   2.193   2.077   2.213
    1LIG     O5   16   2.146   2.135   2.363
    1LIG    C10   17   2.186   2.082   2.516
    1LIG    C11   18   2.134   2.151   2.678
    1LIG     O6   19   2.188   2.104   2.829
    1LIG    C12   20   2.132   2.143   2.982
    1LIG    C13   21   2.200   2.088   3.142
    1LIG     O7   22   2.153   2.142   3.291
    1LIG    C14   23   2.198   2.083   3.440
    1LIG    C15   24   2.149   2.147   3.602
    1LIG     O8   25   2.192   2.087   3.751
    1LIG    C16   26   2.140   2.140   3.901
    1LIG    C17   27   2.202   2.088   4.065
    1LIG     O9   28   2.149   2.141   4.214
    1LIG    C18   29   2.197   2.093   4.366
    1LIG    C19   30   2.136   2.154   4.527
    1LIG    O10   31   2.193   2.111   4.678
    1LIG    C20   32   2.134   2.144   4.831
    1LIG    C21   33   2.203   2.089   4.989
    1LIG    O11   34   2.157   2.142   5.139
    1LIG    C22   35   2.200   2.079   5.286
    1LIG    C23   36   2.155   2.144   5.450
    1LIG    O12   37   2.194   2.077   5.597
    1LIG    C24   38   2.155   2.136   5.748
    1LIG    C25   39   2.203   2.068   5.910
    1LIG    O13   40   2.154   2.123   6.059
    1LIG    C26   41   2.200   2.072   6.210
    1LIG    C27   42   2.146   2.140   6.369
    1LIG    O14   43   2.190   2.083   6.519
    1LIG    C28   44   2.148   2.141   6.669
    1LIG    C29   45   2.193   2.072   6.830
    1LIG    O15   46   2.150   2.130   6.979
    1LIG    C30   47   2.185   2.062   7.126
    1LIG    C31   48   2.131   2.108   7.295
    1LIG    O16   49   2.206   2.104   7.444
    1LIG    C32   50   2.144   2.144   7.594
    1LIG    C33   51   2.207   2.093   7.758
    1LIG    O17   52   2.154   2.145   7.908
    1LIG    C34   53   2.203   2.099   8.061
    1LIG    C35   54   2.140   2.156   8.222
    1LIG    O18   55   2.196   2.110   8.372
    1LIG    C36   56   2.142   2.158   8.521
    1LIG    C37   57   2.202   2.098   8.682
    1LIG    O19   58   2.159   2.156   8.831
    1LIG    C38   59   2.203   2.097   8.981
    1LIG    C39   60   2.149   2.159   9.143
    1LIG    O20   61   2.198   2.101   9.292
    1LIG    C40   62   2.146   2.150   9.443
    1LIG    C41   63   2.208   2.096   9.606
    1LIG    O21   64   2.154   2.147   9.756
    1LIG    C42   65   2.201   2.100   9.908
    1LIG    C43   66   2.143   2.164  10.068
    1LIG    O22   67   2.190   2.111  10.219
    1LIG    C44   68   2.142   2.164  10.368
    1LIG    C45   69   2.199   2.100  10.529
    1LIG    O23   70   2.156   2.157  10.679
    1LIG    C46   71   2.202   2.099  10.828
    1LIG    C47   72   2.149   2.160  10.992
    1LIG    O24   73   2.198   2.102  11.140
    1LIG    C48   74   2.146   2.150  11.292
    1LIG    C49   75   2.208   2.097  11.456
    1LIG    O25   76   2.154   2.147  11.606
    1LIG    C50   77   2.201   2.101  11.759
    1LIG    C51   78   2.141   2.165  11.919
    1LIG    O26   79   2.188   2.113  12.070
    1LIG    C52   80   2.138   2.166  12.220
    1LIG    C53   81   2.193   2.102  12.382
    1LIG    O27   82   2.149   2.160  12.532
    1LIG    C54   83   2.191   2.102  12.684
    1LIG    C55   84   2.137   2.165  12.847
    1LIG    O28   85   2.179   2.106  12.997
    1LIG    C56   86   2.133   2.160  13.150
    1LIG    C57   87   2.188   2.097  13.314
    1LIG    O29   88   2.146   2.154  13.467
    1LIG    C58   89   2.180   2.092  13.619
    1LIG    C59   90   2.151   2.168  13.784
    1LIG      H   91   2.025   2.163   0.190
    1LIG     H1   92   2.160   2.266   0.182
    1LIG     H2   93   2.296   2.102   0.350
    1LIG     H3   94   2.163   1.990   0.349
    1LIG     H4   95   2.296   2.115   0.658
    1LIG     H5   96   2.171   1.994   0.657
    1LIG     H6   97   2.022   2.146   0.821
    1LIG     H7   98   2.139   2.272   0.814
    1LIG     H8   99   2.024   2.121   1.126
    1LIG     H9  100   2.122   2.259   1.135
    1LIG    H10  101   2.305   2.114   1.279
    1LIG    H11  102   2.188   1.986   1.284
    1LIG    H12  103   2.304   2.082   1.586
    1LIG    H13  104   2.164   1.979   1.585
    1LIG    H14  105   2.037   2.152   1.746
    1LIG    H15  106   2.181   2.251   1.751
    1LIG    H16  107   2.029   2.122   2.052
    1LIG    H17  108   2.147   2.245   2.050
    1LIG    H18  109   2.302   2.084   2.210
    1LIG    H19  110   2.171   1.970   2.214
    1LIG    H20  111   2.296   2.082   2.521
    1LIG    H21  112   2.157   1.976   2.519
    1LIG    H22  113   2.025   2.142   2.680
    1LIG    H23  114   2.151   2.258   2.670
    1LIG    H24  115   2.026   2.118   2.984
    1LIG    H25  116   2.131   2.252   2.990
    1LIG    H26  117   2.308   2.106   3.135
    1LIG    H27  118   2.188   1.979   3.143
    1LIG    H28  119   2.307   2.081   3.441
    1LIG    H29  120   2.167   1.978   3.441
    1LIG    H30  121   2.040   2.150   3.599
    1LIG    H31  122   2.181   2.252   3.602
    1LIG    H32  123   2.034   2.119   3.906
    1LIG    H33  124   2.144   2.249   3.899
    1LIG    H34  125   2.310   2.105   4.063
    1LIG    H35  126   2.191   1.979   4.066
    1LIG    H36  127   2.306   2.108   4.370
    1LIG    H37  128   2.182   1.985   4.369
    1LIG    H38  129   2.029   2.135   4.528
    1LIG    H39  130   2.144   2.263   4.522
    1LIG    H40  131   2.029   2.114   4.831
    1LIG    H41  132   2.127   2.252   4.840
    1LIG    H42  133   2.311   2.108   4.982
    1LIG    H43  134   2.193   1.980   4.990
    1LIG    H44  135   2.309   2.073   5.287
    1LIG    H45  136   2.164   1.975   5.286
    1LIG    H46  137   2.046   2.154   5.448
    1LIG    H47  138   2.194   2.246   5.451
    1LIG    H48  139   2.046   2.140   5.753
    1LIG    H49  140   2.187   2.240   5.749
    1LIG    H50  141   2.313   2.072   5.911
    1LIG    H51  142   2.178   1.961   5.906
    1LIG    H52  143   2.309   2.079   6.213
    1LIG    H53  144   2.177   1.965   6.215
    1LIG    H54  145   2.036   2.140   6.367
    1LIG    H55  146   2.173   2.246   6.367
    1LIG    H56  147   2.039   2.146   6.670
    1LIG    H57  148   2.182   2.245   6.671
    1LIG    H58  149   2.303   2.070   6.830
    1LIG    H59  150   2.162   1.966   6.827
    1LIG    H60  151   2.292   2.041   7.126
    1LIG    H61  152   2.144   1.961   7.117
    1LIG    H62  153   2.073   2.020   7.311
    1LIG    H63  154   2.053   2.185   7.293
    1LIG    H64  155   2.039   2.115   7.593
    1LIG    H65  156   2.141   2.254   7.599
    1LIG    H66  157   2.315   2.111   7.755
    1LIG    H67  158   2.197   1.983   7.758
    1LIG    H68  159   2.311   2.118   8.065
    1LIG    H69  160   2.192   1.990   8.064
    1LIG    H70  161   2.035   2.127   8.222
    1LIG    H71  162   2.142   2.265   8.219
    1LIG    H72  163   2.034   2.142   8.522
    1LIG    H73  164   2.154   2.267   8.524
    1LIG    H74  165   2.312   2.106   8.677
    1LIG    H75  166   2.182   1.991   8.683
    1LIG    H76  167   2.313   2.102   8.984
    1LIG    H77  168   2.178   1.991   8.980
    1LIG    H78  169   2.040   2.152   9.141
    1LIG    H79  170   2.171   2.266   9.143
    1LIG    H80  171   2.040   2.125   9.448
    1LIG    H81  172   2.147   2.259   9.443
    1LIG    H82  173   2.316   2.114   9.605
    1LIG    H83  174   2.198   1.987   9.606
    1LIG    H84  175   2.310   2.113   9.911
    1LIG    H85  176   2.185   1.992   9.912
    1LIG    H86  177   2.034   2.154  10.066
    1LIG    H87  178   2.161   2.272  10.065
    1LIG    H88  179   2.033   2.155  10.370
    1LIG    H89  180   2.161   2.272  10.370
    1LIG    H90  181   2.309   2.105  10.524
    1LIG    H91  182   2.176   1.993  10.528
    1LIG    H92  183   2.311   2.104  10.831
    1LIG    H93  184   2.178   1.992  10.828
    1LIG    H94  185   2.039   2.152  10.990
    1LIG    H95  186   2.169   2.267  10.991
    1LIG    H96  187   2.040   2.123  11.297
    1LIG    H97  188   2.146   2.259  11.292
    1LIG    H98  189   2.317   2.116  11.454
    1LIG    H99  190   2.199   1.988  11.455
    1LIG   H100  191   2.310   2.116  11.762
    1LIG   H101  192   2.187   1.992  11.763
    1LIG   H102  193   2.032   2.153  11.915
    1LIG   H103  194   2.158   2.273  11.916
    1LIG   H104  195   2.029   2.156  12.221
    1LIG   H105  196   2.156   2.274  12.222
    1LIG   H106  197   2.303   2.108  12.379
    1LIG   H107  198   2.170   1.995  12.381
    1LIG   H108  199   2.300   2.105  12.687
    1LIG   H109  200   2.165   1.996  12.684
    1LIG   H110  201   2.027   2.164  12.843
    1LIG   H111  202   2.164   2.272  12.847
    1LIG   H112  203   2.024   2.153  13.152
    1LIG   H113  204   2.150   2.267  13.149
    1LIG   H114  205   2.298   2.098  13.311
    1LIG   H115  206   2.161   1.990  13.314
    1LIG   H116  207   2.287   2.071  13.619
    1LIG   H117  208   2.131   1.994  13.623
    1LIG   H118  209   2.048   2.204  13.782
    1LIG   H119  210   2.212   2.259  13.783
    2LIG      O  211   1.847   1.857   0.044
    2LIG      C  212   1.906   1.895   0.196
    2LIG     C1  213   1.839   1.846   0.360
    2LIG     O1  214   1.897   1.890   0.511
    2LIG     C2  215   1.839   1.846   0.663
    2LIG     C3  216   1.895   1.903   0.828
    2LIG     O2  217   1.847   1.847   0.978
    2LIG     C4  218   1.888   1.903   1.130
    2LIG     C5  219   1.836   1.838   1.292
    2LIG     O3  220   1.880   1.894   1.445
    2LIG     C6  221   1.833   1.840   1.596
    2LIG     C7  222   1.887   1.901   1.760
    2LIG     O4  223   1.840   1.846   1.911
    2LIG     C8  224   1.885   1.903   2.061
    2LIG     C9  225   1.830   1.843   2.225
    2LIG     O5  226   1.884   1.893   2.375
    2LIG    C10  227   1.830   1.846   2.526
    2LIG    C11  228   1.887   1.903   2.689
    2LIG     O6  229   1.838   1.848   2.838
    2LIG    C12  230   1.882   1.905   2.987
    2LIG    C13  231   1.830   1.841   3.149
    2LIG     O7  232   1.874   1.897   3.300
    2LIG    C14  233   1.829   1.842   3.450
    2LIG    C15  234   1.884   1.903   3.613
    2LIG     O8  235   1.837   1.848   3.762
    2LIG    C16  236   1.884   1.905   3.912
    2LIG    C17  237   1.829   1.845   4.074
    2LIG     O9  238   1.883   1.895   4.223
    2LIG    C18  239   1.827   1.849   4.373
    2LIG    C19  240   1.885   1.905   4.535
    2LIG    O10  241   1.835   1.851   4.683
    2LIG    C20  242   1.879   1.907   4.831
    2LIG    C21  243   1.826   1.845   4.992
    2LIG    O11  244   1.869   1.905   5.141
    2LIG    C22  245   1.826   1.850   5.292
    2LIG    C23  246   1.881   1.916   5.452
    2LIG    O12  247   1.833   1.864   5.602
    2LIG    C24  248   1.872   1.927   5.750
    2LIG    C25  249   1.820   1.863   5.910
    2LIG    O13  250   1.855   1.925   6.060
    2LIG    C26  251   1.808   1.866   6.208
    2LIG    C27  252   1.863   1.928   6.369
    2LIG    O14  253   1.809   1.879   6.518
    2LIG    C28  254   1.867   1.925   6.665
    2LIG    C29  255   1.797   1.886   6.827
    2LIG    O15  256   1.869   1.912   6.974
    2LIG    C30  257   1.802   1.882   7.121
    2LIG    C31  258   1.872   1.905   7.287
    2LIG    O16  259   1.810   1.866   7.438
    2LIG    C32  260   1.869   1.909   7.588
    2LIG    C33  261   1.812   1.851   7.752
    2LIG    O17  262   1.869   1.897   7.902
    2LIG    C34  263   1.818   1.846   8.053
    2LIG    C35  264   1.879   1.902   8.215
    2LIG    O18  265   1.833   1.848   8.366
    2LIG    C36  266   1.880   1.906   8.515
    2LIG    C37  267   1.826   1.846   8.679
    2LIG    O19  268   1.875   1.900   8.829
    2LIG    C38  269   1.833   1.845   8.982
    2LIG    C39  270   1.890   1.909   9.143
    2LIG    O20  271   1.843   1.855   9.295
    2LIG    C40  272   1.891   1.910   9.444
    2LIG    C41  273   1.835   1.851   9.607
    2LIG    O21  274   1.891   1.898   9.756
    2LIG    C42  275   1.833   1.856   9.907
    2LIG    C43  276   1.895   1.909  10.069
    2LIG    O22  277   1.844   1.855  10.218
    2LIG    C44  278   1.889   1.911  10.368
    2LIG    C45  279   1.833   1.848  10.529
    2LIG    O23  280   1.881   1.900  10.681
    2LIG    C46  281   1.838   1.844  10.832
    2LIG    C47  282   1.895   1.906  10.994
    2LIG    O24  283   1.851   1.849  11.144
    2LIG    C48  284   1.896   1.904  11.294
    2LIG    C49  285   1.840   1.843  11.457
    2LIG    O25  286   1.896   1.889  11.607
    2LIG    C50  287   1.836   1.849  11.758
    2LIG    C51  288   1.898   1.903  11.922
    2LIG    O26  289   1.847   1.849  12.072
    2LIG    C52  290   1.891   1.906  12.223
    2LIG    C53  291   1.836   1.844  12.386
    2LIG    O27  292   1.884   1.897  12.538
    2LIG    C54  293   1.842   1.842  12.692
    2LIG    C55  294   1.898   1.905  12.855
    2LIG    O28  295   1.855   1.848  13.007
    2LIG    C56  296   1.901   1.902  13.158
    2LIG    C57  297   1.844   1.843  13.323
    2LIG    O29  298   1.904   1.883  13.475
    2LIG    C58  299   1.840   1.853  13.627
    2LIG    C59  300   1.916   1.880  13.792
    2LIG      H  301   1.904   2.004   0.200
    2LIG     H1  302   2.012   1.867   0.197
    2LIG     H2  303   1.838   1.737   0.359
    2LIG     H3  304   1.734   1.877   0.358
    2LIG     H4  305   1.841   1.737   0.667
    2LIG     H5  306   1.734   1.877   0.664
    2LIG     H6  307   1.871   2.010   0.829
    2LIG     H7  308   2.005   1.898   0.827
    2LIG     H8  309   1.855   2.008   1.132
    2LIG     H9  310   1.998   1.906   1.132
    2LIG    H10  311   1.857   1.731   1.291
    2LIG    H11  312   1.727   1.847   1.288
    2LIG    H12  313   1.854   1.733   1.598
    2LIG    H13  314   1.723   1.848   1.599
    2LIG    H14  315   1.866   2.009   1.760
    2LIG    H15  316   1.997   1.894   1.759
    2LIG    H16  317   1.860   2.009   2.062
    2LIG    H17  318   1.995   1.897   2.064
    2LIG    H18  319   1.843   1.734   2.222
    2LIG    H19  320   1.722   1.859   2.225
    2LIG    H20  321   1.835   1.737   2.529
    2LIG    H21  322   1.723   1.871   2.528
    2LIG    H22  323   1.866   2.011   2.689
    2LIG    H23  324   1.996   1.895   2.687
    2LIG    H24  325   1.852   2.010   2.989
    2LIG    H25  326   1.991   1.905   2.989
    2LIG    H26  327   1.850   1.733   3.148
    2LIG    H27  328   1.721   1.850   3.145
    2LIG    H28  329   1.851   1.735   3.451
    2LIG    H29  330   1.719   1.849   3.454
    2LIG    H30  331   1.863   2.011   3.612
    2LIG    H31  332   1.994   1.896   3.610
    2LIG    H32  333   1.859   2.011   3.912
    2LIG    H33  334   1.993   1.899   3.914
    2LIG    H34  335   1.842   1.736   4.071
    2LIG    H35  336   1.720   1.861   4.074
    2LIG    H36  337   1.831   1.739   4.376
    2LIG    H37  338   1.722   1.877   4.375
    2LIG    H38  339   1.865   2.013   4.534
    2LIG    H39  340   1.994   1.896   4.533
    2LIG    H40  341   1.851   2.013   4.832
    2LIG    H41  342   1.989   1.905   4.833
    2LIG    H42  343   1.847   1.738   4.993
    2LIG    H43  344   1.717   1.853   4.987
    2LIG    H44  345   1.852   1.744   5.295
    2LIG    H45  346   1.717   1.853   5.297
    2LIG    H46  347   1.860   2.024   5.448
    2LIG    H47  348   1.990   1.908   5.451
    2LIG    H48  349   1.841   2.033   5.748
    2LIG    H49  350   1.981   1.928   5.754
    2LIG    H50  351   1.859   1.762   5.911
    2LIG    H51  352   1.710   1.853   5.905
    2LIG    H52  353   1.832   1.759   6.208
    2LIG    H53  354   1.699   1.872   6.210
    2LIG    H54  355   1.848   2.036   6.366
    2LIG    H55  356   1.972   1.913   6.370
    2LIG    H56  357   1.867   2.035   6.663
    2LIG    H57  358   1.973   1.896   6.669
    2LIG    H58  359   1.767   1.780   6.824
    2LIG    H59  360   1.701   1.940   6.831
    2LIG    H60  361   1.768   1.778   7.114
    2LIG    H61  362   1.715   1.948   7.121
    2LIG    H62  363   1.885   2.013   7.292
    2LIG    H63  364   1.971   1.858   7.283
    2LIG    H64  365   1.858   2.018   7.593
    2LIG    H65  366   1.977   1.890   7.586
    2LIG    H66  367   1.822   1.742   7.748
    2LIG    H67  368   1.704   1.872   7.753
    2LIG    H68  369   1.827   1.737   8.054
    2LIG    H69  370   1.710   1.866   8.056
    2LIG    H70  371   1.860   2.009   8.216
    2LIG    H71  372   1.988   1.892   8.211
    2LIG    H72  373   1.854   2.013   8.515
    2LIG    H73  374   1.989   1.904   8.516
    2LIG    H74  375   1.842   1.738   8.677
    2LIG    H75  376   1.717   1.858   8.677
    2LIG    H76  377   1.855   1.738   8.984
    2LIG    H77  378   1.724   1.852   8.988
    2LIG    H78  379   1.868   2.016   9.141
    2LIG    H79  380   1.999   1.901   9.141
    2LIG    H80  381   1.867   2.017   9.445
    2LIG    H81  382   2.000   1.903   9.446
    2LIG    H82  383   1.846   1.742   9.603
    2LIG    H83  384   1.727   1.868   9.608
    2LIG    H84  385   1.830   1.746   9.910
    2LIG    H85  386   1.730   1.890   9.908
    2LIG    H86  387   1.878   2.017  10.070
    2LIG    H87  388   2.003   1.897  10.066
    2LIG    H88  389   1.863   2.018  10.369
    2LIG    H89  390   1.998   1.908  10.370
    2LIG    H90  391   1.851   1.740  10.527
    2LIG    H91  392   1.724   1.858  10.527
    2LIG    H92  393   1.861   1.737  10.832
    2LIG    H93  394   1.729   1.850  10.838
    2LIG    H94  395   1.870   2.013  10.993
    2LIG    H95  396   2.004   1.901  10.990
    2LIG    H96  397   1.870   2.010  11.295
    2LIG    H97  398   2.005   1.899  11.297
    2LIG    H98  399   1.850   1.734  11.452
    2LIG    H99  400   1.732   1.861  11.458
    2LIG   H100  401   1.830   1.740  11.762
    2LIG   H101  402   1.734   1.887  11.758
    2LIG   H102  403   1.881   2.011  11.922
    2LIG   H103  404   2.006   1.890  11.918
    2LIG   H104  405   1.865   2.013  12.223
    2LIG   H105  406   2.001   1.904  12.225
    2LIG   H106  407   1.855   1.736  12.383
    2LIG   H107  408   1.727   1.853  12.383
    2LIG   H108  409   1.865   1.735  12.693
    2LIG   H109  410   1.733   1.848  12.698
    2LIG   H110  411   1.872   2.011  12.854
    2LIG   H111  412   2.007   1.902  12.850
    2LIG   H112  413   1.877   2.009  13.159
    2LIG   H113  414   2.011   1.897  13.161
    2LIG   H114  415   1.848   1.733  13.317
    2LIG   H115  416   1.737   1.867  13.325
    2LIG   H116  417   1.813   1.747  13.627
    2LIG   H117  418   1.746   1.909  13.631
    2LIG   H118  419   1.953   1.983  13.791
    2LIG   H119  420   2.006   1.817  13.791
    3MOL     C1  421   1.465   1.541   6.276
    3MOL     H1  422   1.439   1.436   6.260
    3MOL     O1  423   1.423   1.581   6.408
    3MOL     C2  424   1.447   1.720   6.444
    3MOL     H2  425   1.553   1.745   6.427
    3MOL     C3  426   1.419   1.735   6.596
    3MOL     H3  427   1.461   1.830   6.631
    3MOL     H4  428   1.471   1.654   6.649
    3MOL     O2  429   1.277   1.730   6.623
    3MOL     C4  430   1.246   1.739   6.763
    3MOL     C5  431   1.385   1.628   6.172
    3MOL     H5  432   1.280   1.597   6.176
    3MOL     O3  433   1.436   1.607   6.039
    3MOL     C6  434   1.399   1.484   5.975
    3MOL     C7  435   1.390   1.779   6.203
    3MOL     H6  436   1.490   1.816   6.179
    3MOL     O4  437   1.289   1.844   6.123
    3MOL     C8  438   1.339   1.944   6.032
    3MOL     C9  439   1.359   1.809   6.352
    3MOL     H7  440   1.253   1.787   6.369
    3MOL     O5  441   1.387   1.949   6.374
    3MOL    C10  442   1.299   2.018   6.466
    3MOL     H8  443   1.218   1.951   6.498
    3MOL     O6  444   1.375   2.058   6.582
    3MOL    C11  445   1.485   2.149   6.556
    3MOL     H9  446   1.553   2.104   6.483
    3MOL    C12  447   1.564   2.166   6.688
    3MOL    H10  448   1.667   2.198   6.665
    3MOL    H11  449   1.569   2.069   6.738
    3MOL     O7  450   1.500   2.262   6.774
    3MOL    C13  451   1.573   2.290   6.895
    3MOL    C14  452   1.237   2.143   6.399
    3MOL    H12  453   1.163   2.187   6.467
    3MOL     O8  454   1.174   2.107   6.274
    3MOL    C15  455   1.051   2.034   6.283
    3MOL    C16  456   1.345   2.250   6.370
    3MOL    H13  457   1.413   2.212   6.293
    3MOL     O9  458   1.281   2.372   6.328
    3MOL    C17  459   1.296   2.401   6.188
    3MOL    C18  460   1.428   2.281   6.497
    3MOL    H14  461   1.361   2.329   6.570
    3MOL    O10  462   1.535   2.369   6.458
    3MOL    C19  463   1.569   2.474   6.552
    3MOL    H15  464   1.493   2.480   6.631
    3MOL    O11  465   1.697   2.446   6.610
    3MOL    C20  466   1.805   2.429   6.516
    3MOL    H16  467   1.782   2.348   6.445
    3MOL    C21  468   1.928   2.388   6.598
    3MOL    H17  469   2.013   2.364   6.532
    3MOL    H18  470   1.902   2.298   6.654
    3MOL    O12  471   1.962   2.494   6.690
    3MOL    C22  472   2.066   2.461   6.783
    3MOL    C23  473   1.578   2.609   6.478
    3MOL    H19  474   1.602   2.687   6.551
    3MOL    O13  475   1.452   2.640   6.414
    3MOL    C24  476   1.345   2.671   6.506
    3MOL    C25  477   1.691   2.607   6.372
    3MOL    H20  478   1.665   2.537   6.291
    3MOL    O14  479   1.707   2.743   6.323
    3MOL    C26  480   1.669   2.761   6.186
    3MOL    C27  481   1.825   2.561   6.436
    3MOL    H21  482   1.862   2.639   6.505
    3MOL    O15  483   1.924   2.534   6.333
    3MOL    C28  484   1.998   2.650   6.289
    3MOL    H22  485   1.932   2.737   6.279
    3MOL    O16  486   2.101   2.678   6.385
    3MOL    C29  487   2.203   2.577   6.404
    3MOL    H23  488   2.156   2.484   6.439
    3MOL    C30  489   2.296   2.631   6.515
    3MOL    H24  490   2.362   2.552   6.553
    3MOL    H25  491   2.233   2.666   6.599
    3MOL    O17  492   2.372   2.740   6.461
    3MOL    C31  493   2.437   2.823   6.558
    3MOL    C32  494   2.061   2.623   6.151
    3MOL    H26  495   2.104   2.717   6.115
    3MOL    O18  496   1.957   2.577   6.063
    3MOL    C33  497   1.967   2.628   5.930
    3MOL    C34  498   2.174   2.517   6.157
    3MOL    H27  499   2.129   2.418   6.173
    3MOL    O19  500   2.246   2.523   6.032
    3MOL    C35  501   2.261   2.396   5.966
    3MOL    C36  502   2.275   2.548   6.269
    3MOL    H28  503   2.331   2.637   6.238
    3MOL    O20  504   2.362   2.433   6.281
    3MOL    C37  505   2.500   2.462   6.311
    3MOL    H29  506   2.517   2.570   6.309
    3MOL    O21  507   2.528   2.411   6.443
    3MOL    C38  508   2.506   2.269   6.461
    3MOL    H30  509   2.404   2.243   6.434
    3MOL    C39  510   2.525   2.242   6.612
    3MOL    H31  511   2.487   2.142   6.637
    3MOL    H32  512   2.466   2.314   6.670
    3MOL    O22  513   2.665   2.254   6.644
    3MOL    C40  514   2.697   2.226   6.781
    3MOL    C41  515   2.595   2.393   6.209
    3MOL    H33  516   2.697   2.429   6.229
    3MOL    O23  517   2.559   2.426   6.073
    3MOL    C42  518   2.574   2.563   6.034
    3MOL    C43  519   2.595   2.239   6.222
    3MOL    H34  520   2.503   2.199   6.178
    3MOL    O24  521   2.713   2.192   6.153
    3MOL    C44  522   2.690   2.102   6.044
    3MOL    C45  523   2.607   2.193   6.370
    3MOL    H35  524   2.709   2.217   6.401
    3MOL    O25  525   2.586   2.050   6.377
    3MOL    C46  526   2.671   1.981   6.472
    3MOL    H36  527   2.746   2.049   6.513
    3MOL    O26  528   2.591   1.932   6.581
    3MOL    C47  529   2.488   1.835   6.548
    3MOL    H37  530   2.419   1.878   6.475
    3MOL    C48  531   2.407   1.807   6.677
    3MOL    H38  532   2.314   1.755   6.651
    3MOL    H39  533   2.380   1.902   6.723
    3MOL    O27  534   2.486   1.728   6.769
    3MOL    C49  535   2.416   1.690   6.888
    3MOL    C50  536   2.746   1.862   6.406
    3MOL    H40  537   2.820   1.823   6.477
    3MOL    O28  538   2.812   1.906   6.285
    3MOL    C51  539   2.927   1.991   6.304
    3MOL    C52  540   2.649   1.746   6.370
    3MOL    H41  541   2.587   1.775   6.285
    3MOL    O29  542   2.729   1.630   6.340
    3MOL    C53  543   2.745   1.603   6.200
    3MOL    C54  544   2.555   1.709   6.488
    3MOL    H42  545   2.616   1.660   6.565
    3MOL    O30  546   2.454   1.620   6.435
    3MOL    C55  547   2.434   1.497   6.509
    3MOL    H43  548   2.520   1.478   6.574
    3MOL    O31  549   2.314   1.507   6.588
    3MOL    C56  550   2.192   1.530   6.511
    3MOL    H44  551   2.198   1.623   6.454
    3MOL    C57  552   2.074   1.538   6.610
    3MOL    H45  553   2.069   1.445   6.667
    3MOL    H46  554   1.980   1.552   6.556
    3MOL    O32  555   2.095   1.649   6.698
    3MOL    C58  556   2.006   1.644   6.809
    3MOL    C59  557   2.419   1.375   6.412
    3MOL    H47  558   2.411   1.284   6.473
    3MOL    O33  559   2.534   1.365   6.327
    3MOL    C60  560   2.654   1.319   6.392
    3MOL    C61  561   2.291   1.383   6.325
    3MOL    H48  562   2.301   1.464   6.251
    3MOL    O34  563   2.271   1.254   6.261
    3MOL    C62  564   2.315   1.245   6.124
    3MOL    C63  565   2.168   1.412   6.415
    3MOL    H49  566   2.147   1.323   6.475
    3MOL    O35  567   2.054   1.445   6.332
    3MOL    C64  568   1.969   1.333   6.300
    3MOL    H50  569   2.029   1.241   6.300
    3MOL    O36  570   1.864   1.323   6.400
    3MOL    C65  571   1.765   1.430   6.406
    3MOL    H51  572   1.813   1.527   6.426
    3MOL    C66  573   1.670   1.394   6.521
    3MOL    H52  574   1.639   1.289   6.512
    3MOL    H53  575   1.580   1.455   6.518
    3MOL    O37  576   1.735   1.415   6.647
    3MOL    C67  577   1.654   1.376   6.759
    3MOL    C68  578   1.908   1.348   6.158
    3MOL    H54  579   1.873   1.250   6.125
    3MOL    O38  580   2.012   1.397   6.070
    3MOL    C69  581   2.017   1.342   5.937
    3MOL    C70  582   1.791   1.450   6.153
    3MOL    H55  583   1.838   1.550   6.158
    3MOL    O39  584   1.718   1.431   6.031
    3MOL    C71  585   1.725   1.546   5.946
    3MOL    C72  586   1.691   1.439   6.270
    3MOL    H56  587   1.630   1.349   6.256
    3MOL    O40  588   1.609   1.559   6.265
    3MOL    H57  589   1.142   1.711   6.781
    3MOL    H58  590   1.309   1.670   6.820
    3MOL    H59  591   1.263   1.841   6.800
    3MOL    H60  592   1.702   1.402   6.853
    3MOL    H61  593   1.556   1.426   6.754
    3MOL    H62  594   1.637   1.267   6.757
    3MOL    H63  595   2.016   1.735   6.868
    3MOL    H64  596   1.902   1.634   6.773
    3MOL    H65  597   2.030   1.558   6.871
    3MOL    H66  598   2.481   1.627   6.951
    3MOL    H67  599   2.387   1.778   6.946
    3MOL    H68  600   2.326   1.633   6.863
    3MOL    H69  601   2.805   2.210   6.793
    3MOL    H70  602   2.668   2.311   6.845
    3MOL    H71  603   2.644   2.136   6.815
    3MOL    H72  604   2.480   2.911   6.508
    3MOL    H73  605   2.366   2.858   6.634
    3MOL    H74  606   2.519   2.769   6.608
    3MOL    H75  607   2.073   2.540   6.860
    3MOL    H76  608   2.044   2.366   6.834
    3MOL    H77  609   2.162   2.453   6.731
    3MOL    H78  610   1.524   2.372   6.950
    3MOL    H79  611   1.577   2.201   6.958
    3MOL    H80  612   1.676   2.322   6.871
    3MOL    H81  613   1.253   2.499   6.165
    3MOL    H82  614   1.402   2.401   6.162
    3MOL    H83  615   1.245   2.325   6.128
    3MOL    H84  616   1.012   2.016   6.182
    3MOL    H85  617   1.068   1.936   6.330
    3MOL    H86  618   0.976   2.090   6.340
    3MOL    H87  619   1.257   1.983   5.971
    3MOL    H88  620   1.385   2.027   6.087
    3MOL    H89  621   1.414   1.900   5.965
    3MOL    H90  622   1.432   1.485   5.871
    3MOL    H91  623   1.446   1.399   6.026
    3MOL    H92  624   1.290   1.471   5.977
    3MOL    H93  625   1.660   1.534   5.859
    3MOL    H94  626   1.693   1.635   6.001
    3MOL    H95  627   1.829   1.559   5.912
    3MOL    H96  628   2.084   1.403   5.875
    3MOL    H97  629   2.054   1.239   5.940
    3MOL    H98  630   1.917   1.342   5.891
    3MOL    H99  631   2.287   1.148   6.082
    3MOL   H100  632   2.268   1.324   6.064
    3MOL   H101  633   2.424   1.256   6.118
    3MOL   H102  634   2.732   1.301   6.317
    3MOL   H103  635   2.691   1.395   6.462
    3MOL   H104  636   2.636   1.226   6.446
    3MOL   H105  637   2.797   1.508   6.185
    3MOL   H106  638   2.647   1.598   6.152
    3MOL   H107  639   2.804   1.683   6.152
    3MOL   H108  640   2.972   2.016   6.207
    3MOL   H109  641   2.898   2.086   6.352
    3MOL   H110  642   3.003   1.941   6.366
    3MOL   H111  643   2.785   2.081   5.992
    3MOL   H112  644   2.650   2.007   6.081
    3MOL   H113  645   2.620   2.146   5.972
    3MOL   H114  646   2.562   2.572   5.925
    3MOL   H115  647   2.497   2.626   6.081
    3MOL   H116  648   2.673   2.602   6.061
    3MOL   H117  649   2.317   2.409   5.872
    3MOL   H118  650   2.315   2.326   6.030
    3MOL   H119  651   2.162   2.355   5.942
    3MOL   H120  652   1.885   2.591   5.867
    3MOL   H121  653   1.965   2.737   5.932
    3MOL   H122  654   2.062   2.597   5.885
    3MOL   H123  655   1.686   2.865   6.157
    3MOL   H124  656   1.730   2.697   6.120
    3MOL   H125  657   1.563   2.737   6.171
    3MOL   H126  658   1.255   2.701   6.452
    3MOL   H127  659   1.319   2.584   6.567
    3MOL   H128  660   1.374   2.754   6.573
    4MOL     C1  661   2.520   1.554   7.633
    4MOL     H1  662   2.538   1.448   7.652
    4MOL     O1  663   2.565   1.587   7.500
    4MOL     C2  664   2.549   1.726   7.462
    4MOL     H2  665   2.446   1.758   7.480
    4MOL     C3  666   2.578   1.736   7.310
    4MOL     H3  667   2.567   1.839   7.277
    4MOL     H4  668   2.506   1.674   7.256
    4MOL     O2  669   2.712   1.689   7.285
    4MOL     C4  670   2.754   1.710   7.149
    4MOL     C5  671   2.605   1.636   7.735
    4MOL     H5  672   2.705   1.593   7.735
    4MOL     O3  673   2.549   1.629   7.867
    4MOL     C6  674   2.561   1.503   7.934
    4MOL     C7  675   2.620   1.787   7.699
    4MOL     H6  676   2.528   1.838   7.730
    4MOL     O4  677   2.737   1.837   7.770
    4MOL     C8  678   2.707   1.933   7.873
    4MOL     C9  679   2.644   1.814   7.549
    4MOL     H7  680   2.748   1.789   7.524
    4MOL     O5  681   2.616   1.956   7.527
    4MOL    C10  682   2.711   2.030   7.445
    4MOL     H8  683   2.796   1.966   7.418
    4MOL     O6  684   2.647   2.074   7.325
    4MOL    C11  685   2.534   2.163   7.341
    4MOL     H9  686   2.459   2.113   7.403
    4MOL    C12  687   2.472   2.186   7.203
    4MOL    H10  688   2.367   2.213   7.220
    4MOL    H11  689   2.479   2.092   7.147
    4MOL     O7  690   2.534   2.292   7.129
    4MOL    C13  691   2.458   2.321   7.010
    4MOL    C14  692   2.763   2.156   7.519
    4MOL    H12  693   2.839   2.203   7.456
    4MOL     O8  694   2.821   2.120   7.646
    4MOL    C15  695   2.951   2.059   7.635
    4MOL    C16  696   2.650   2.261   7.544
    4MOL    H13  697   2.578   2.220   7.616
    4MOL     O9  698   2.710   2.384   7.591
    4MOL    C17  699   2.676   2.422   7.725
    4MOL    C18  700   2.576   2.294   7.412
    4MOL    H14  701   2.644   2.350   7.348
    4MOL    O10  702   2.457   2.371   7.444
    4MOL    C19  703   2.429   2.486   7.359
    4MOL    H15  704   2.508   2.499   7.285
    4MOL    O11  705   2.303   2.467   7.289
    4MOL    C20  706   2.185   2.452   7.372
    4MOL    H16  707   2.199   2.364   7.434
    4MOL    C21  708   2.064   2.426   7.280
    4MOL    H17  709   1.984   2.379   7.340
    4MOL    H18  710   2.095   2.356   7.202
    4MOL    O12  711   2.013   2.545   7.218
    4MOL    C22  712   1.904   2.513   7.130
    4MOL    C23  713   2.417   2.614   7.446
    4MOL    H19  714   2.397   2.700   7.380
    4MOL    O13  715   2.540   2.635   7.518
    4MOL    C24  716   2.652   2.676   7.436
    4MOL    C25  717   2.299   2.600   7.545
    4MOL    H20  718   2.317   2.515   7.612
    4MOL    O14  719   2.285   2.723   7.620
    4MOL    C26  720   2.342   2.720   7.752
    4MOL    C27  721   2.168   2.574   7.466
    4MOL    H21  722   2.142   2.662   7.406
    4MOL    O15  723   2.061   2.542   7.560
    4MOL    C28  724   1.988   2.655   7.612
    4MOL    H22  725   2.055   2.741   7.624
    4MOL    O16  726   1.881   2.687   7.520
    4MOL    C29  727   1.784   2.581   7.496
    4MOL    H23  728   1.836   2.492   7.460
    4MOL    C30  729   1.689   2.628   7.384
    4MOL    H24  730   1.634   2.542   7.343
    4MOL    H25  731   1.749   2.670   7.302
    4MOL    O17  732   1.597   2.726   7.434
    4MOL    C31  733   1.524   2.793   7.330
    4MOL    C32  734   1.927   2.620   7.750
    4MOL    H26  735   1.878   2.708   7.791
    4MOL    O18  736   2.035   2.577   7.837
    4MOL    C33  737   2.023   2.619   7.974
    4MOL    C34  738   1.821   2.509   7.737
    4MOL    H27  739   1.872   2.416   7.707
    4MOL    O19  740   1.755   2.494   7.863
    4MOL    C35  741   1.734   2.357   7.900
    4MOL    C36  742   1.714   2.545   7.631
    4MOL    H28  743   1.658   2.632   7.668
    4MOL    O20  744   1.627   2.430   7.615
    4MOL    C37  745   1.486   2.459   7.597
    4MOL    H29  746   1.468   2.567   7.607
    4MOL    O21  747   1.447   2.415   7.465
    4MOL    C38  748   1.467   2.273   7.440
    4MOL    H30  749   1.570   2.245   7.465
    4MOL    C39  750   1.447   2.249   7.289
    4MOL    H31  751   1.484   2.149   7.264
    4MOL    H32  752   1.505   2.323   7.233
    4MOL    O22  753   1.307   2.260   7.257
    4MOL    C40  754   1.280   2.229   7.120
    4MOL    C41  755   1.397   2.383   7.702
    4MOL    H33  756   1.294   2.422   7.694
    4MOL    O23  757   1.446   2.405   7.835
    4MOL    C42  758   1.415   2.531   7.895
    4MOL    C43  759   1.392   2.230   7.679
    4MOL    H34  760   1.486   2.187   7.713
    4MOL    O24  761   1.279   2.178   7.754
    4MOL    C44  762   1.316   2.099   7.869
    4MOL    C45  763   1.370   2.192   7.531
    4MOL    H35  764   1.266   2.218   7.505
    4MOL    O25  765   1.393   2.049   7.518
    4MOL    C46  766   1.296   1.975   7.439
    4MOL    H36  767   1.214   2.042   7.409
    4MOL    O26  768   1.360   1.923   7.322
    4MOL    C47  769   1.468   1.829   7.348
    4MOL    H37  770   1.545   1.877   7.408
    4MOL    C48  771   1.530   1.794   7.215
    4MOL    H38  772   1.626   1.748   7.237
    4MOL    H39  773   1.540   1.887   7.158
    4MOL    O27  774   1.451   1.703   7.137
    4MOL    C49  775   1.520   1.660   7.018
    4MOL    C50  776   1.236   1.855   7.517
    4MOL    H40  777   1.158   1.809   7.455
    4MOL    O28  778   1.178   1.901   7.640
    4MOL    C51  779   1.050   1.964   7.626
    4MOL    C52  780   1.340   1.744   7.549
    4MOL    H41  781   1.409   1.782   7.625
    4MOL    O29  782   1.269   1.626   7.594
    4MOL    C53  783   1.249   1.613   7.735
    4MOL    C54  784   1.419   1.703   7.423
    4MOL    H42  785   1.352   1.646   7.358
    4MOL    O30  786   1.536   1.623   7.462
    4MOL    C55  787   1.559   1.499   7.388
    4MOL    H43  788   1.475   1.480   7.320
    4MOL    O31  789   1.681   1.507   7.308
    4MOL    C56  790   1.808   1.520   7.378
    4MOL    H44  791   1.814   1.618   7.428
    4MOL    C57  792   1.926   1.507   7.278
    4MOL    H45  793   1.912   1.419   7.213
    4MOL    H46  794   2.018   1.493   7.334
    4MOL    O32  795   1.938   1.625   7.198
    4MOL    C58  796   2.068   1.639   7.137
    4MOL    C59  797   1.572   1.379   7.487
    4MOL    H47  798   1.577   1.286   7.429
    4MOL    O33  799   1.459   1.377   7.576
    4MOL    C60  800   1.336   1.329   7.518
    4MOL    C61  801   1.700   1.387   7.572
    4MOL    H48  802   1.695   1.471   7.641
    4MOL    O34  803   1.715   1.263   7.645
    4MOL    C62  804   1.672   1.268   7.782
    4MOL    C63  805   1.825   1.409   7.485
    4MOL    H49  806   1.851   1.314   7.434
    4MOL    O35  807   1.932   1.452   7.572
    4MOL    C64  808   2.019   1.345   7.616
    4MOL    H50  809   1.962   1.251   7.622
    4MOL    O36  810   2.126   1.330   7.519
    4MOL    C65  811   2.222   1.439   7.507
    4MOL    H51  812   2.171   1.532   7.479
    4MOL    C66  813   2.318   1.398   7.393
    4MOL    H52  814   2.355   1.296   7.412
    4MOL    H53  815   2.403   1.466   7.388
    4MOL    O37  816   2.247   1.402   7.268
    4MOL    C67  817   2.322   1.359   7.154
    4MOL    C68  818   2.078   1.374   7.756
    4MOL    H54  819   2.126   1.281   7.790
    4MOL    O38  820   1.972   1.412   7.846
    4MOL    C69  821   1.977   1.351   7.976
    4MOL    C70  822   2.183   1.487   7.753
    4MOL    H55  823   2.130   1.580   7.729
    4MOL    O39  824   2.246   1.495   7.883
    4MOL    C71  825   2.230   1.622   7.947
    4MOL    C72  826   2.291   1.462   7.645
    4MOL    H56  827   2.347   1.372   7.673
    4MOL    O40  828   2.377   1.580   7.642
    4MOL    H57  829   2.860   1.687   7.138
    4MOL    H58  830   2.696   1.647   7.080
    4MOL    H59  831   2.738   1.815   7.121
    4MOL    H60  832   2.264   1.375   7.062
    4MOL    H61  833   2.416   1.416   7.145
    4MOL    H62  834   2.345   1.252   7.161
    4MOL    H63  835   2.071   1.731   7.076
    4MOL    H64  836   2.146   1.646   7.213
    4MOL    H65  837   2.090   1.553   7.072
    4MOL    H66  838   1.457   1.591   6.961
    4MOL    H67  839   1.544   1.747   6.955
    4MOL    H68  840   1.613   1.609   7.044
    4MOL    H69  841   1.172   2.233   7.101
    4MOL    H70  842   1.329   2.300   7.054
    4MOL    H71  843   1.315   2.127   7.095
    4MOL    H72  844   1.448   2.860   7.374
    4MOL    H73  845   1.592   2.855   7.271
    4MOL    H74  846   1.474   2.722   7.264
    4MOL    H75  847   1.872   2.602   7.074
    4MOL    H76  848   1.933   2.436   7.058
    4MOL    H77  849   1.818   2.476   7.188
    4MOL    H78  850   2.503   2.404   6.955
    4MOL    H79  851   2.454   2.233   6.945
    4MOL    H80  852   2.355   2.348   7.036
    4MOL    H81  853   2.713   2.524   7.744
    4MOL    H82  854   2.567   2.423   7.738
    4MOL    H83  855   2.721   2.353   7.797
    4MOL    H84  856   2.989   2.034   7.735
    4MOL    H85  857   2.946   1.967   7.576
    4MOL    H86  858   3.022   2.128   7.587
    4MOL    H87  859   2.799   1.980   7.908
    4MOL    H88  860   2.641   2.011   7.835
    4MOL    H89  861   2.658   1.883   7.958
    4MOL    H90  862   2.545   1.519   8.041
    4MOL    H91  863   2.487   1.431   7.897
    4MOL    H92  864   2.661   1.460   7.921
    4MOL    H93  865   2.282   1.622   8.044
    4MOL    H94  866   2.273   1.701   7.884
    4MOL    H95  867   2.124   1.643   7.965
    4MOL    H96  868   1.897   1.392   8.039
    4MOL    H97  869   1.963   1.242   7.969
    4MOL    H98  870   2.073   1.371   8.025
    4MOL    H99  871   1.702   1.176   7.834
    4MOL   H100  872   1.718   1.353   7.834
    4MOL   H101  873   1.563   1.278   7.788
    4MOL   H102  874   1.260   1.320   7.596
    4MOL   H103  875   1.301   1.400   7.442
    4MOL   H104  876   1.351   1.230   7.473
    4MOL   H105  877   1.168   1.541   7.753
    4MOL   H106  878   1.341   1.575   7.783
    4MOL   H107  879   1.222   1.708   7.782
    4MOL   H108  880   1.007   1.981   7.725
    4MOL   H109  881   1.061   2.060   7.574
    4MOL   H110  882   0.981   1.899   7.569
    4MOL   H111  883   1.225   2.063   7.920
    4MOL   H112  884   1.375   2.011   7.837
    4MOL   H113  885   1.374   2.158   7.940
    4MOL   H114  886   1.449   2.531   7.999
    4MOL   H115  887   1.465   2.613   7.843
    4MOL   H116  888   1.307   2.548   7.895
    4MOL   H117  889   1.675   2.353   7.993
    4MOL   H118  890   1.678   2.303   7.823
    4MOL   H119  891   1.830   2.307   7.915
    4MOL   H120  892   2.108   2.582   8.033
    4MOL   H121  893   2.022   2.729   7.981
    4MOL   H122  894   1.931   2.580   8.020
    4MOL   H123  895   2.344   2.821   7.793
    4MOL   H124  896   2.282   2.656   7.818
    4MOL   H125  897   2.445   2.682   7.749
    4MOL   H126  898   2.736   2.703   7.500
    4MOL   H127  899   2.684   2.594   7.370
    4MOL   H128  900   2.625   2.762   7.374
    5SOL     OW  901   0.224   0.669   0.119
    5SOL    HW1  902   0.131   0.650   0.129
    5SOL    HW2  903   0.250   0.622   0.040
    6SOL     OW  904   0.222   0.292   0.982
    6SOL    HW1  905   0.245   0.252   1.066
    6SOL    HW2  906   0.127   0.286   0.978
    7SOL     OW  907   0.020   0.382   0.634
    7SOL    HW1  908   3.928   0.401   0.654
    7SOL    HW2  909   0.024   0.287   0.624
    8SOL     OW  910   0.587   1.297   1.206
    8SOL    HW1  911   0.501   1.296   1.163
    8SOL    HW2  912   0.599   1.388   1.234
    9SOL     OW  913   1.546   1.493   0.707
    9SOL    HW1  914   1.519   1.473   0.797
    9SOL    HW2  915   1.465   1.487   0.657
   10SOL     OW  916   1.136   0.699   0.693
   10SOL    HW1  917   1.183   0.782   0.683
   10SOL    HW2  918   1.087   0.708   0.774
   11SOL     OW  919   1.787   0.620   0.206
   11SOL    HW1  920   1.793   0.593   0.114
   11SOL    HW2  921   1.788   0.538   0.255
   12SOL     OW  922   0.744   1.135   1.048
   12SOL    HW1  923   0.686   1.173   1.114
   12SOL    HW2  924   0.782   1.210   1.003
   13SOL     OW  925   0.878   0.762   1.827
   13SOL    HW1  926   0.869   0.833   1.891
   13SOL    HW2  927   0.898   0.806   1.745
   14SOL     OW  928   0.684   0.997   0.647
   14SOL    HW1  929   0.750   0.989   0.715
   14SOL    HW2  930   0.615   1.051   0.686
   15SOL     OW  931   0.715   1.148   1.823
   15SOL    HW1  932   0.762   1.225   1.854
   15SOL    HW2  933   0.636   1.184   1.782
   16SOL     OW  934   0.354   1.396   1.080
   16SOL    HW1  935   0.273   1.371   1.035
   16SOL    HW2  936   0.398   1.455   1.018
   17SOL     OW  937   1.445   1.481   1.367
   17SOL    HW1  938   1.489   1.564   1.383
   17SOL    HW2  939   1.371   1.481   1.429
   18SOL     OW  940   0.461   0.409   1.487
   18SOL    HW1  941   0.545   0.363   1.491
   18SOL    HW2  942   0.395   0.341   1.495
   19SOL     OW  943   1.611   0.452   0.736
   19SOL    HW1  944   1.550   0.490   0.673
   19SOL    HW2  945   1.620   0.519   0.804
   20SOL     OW  946   0.222   1.712   0.472
   20SOL    HW1  947   0.244   1.789   0.525
   20SOL    HW2  948   0.288   1.711   0.402
   21SOL     OW  949   1.136   1.342   1.696
   21SOL    HW1  950   1.177   1.335   1.782
   21SOL    HW2  951   1.084   1.262   1.687
   22SOL     OW  952   0.250   1.449   0.539
   22SOL    HW1  953   0.227   1.541   0.526
   22SOL    HW2  954   0.179   1.415   0.593
   23SOL     OW  955   0.251   1.061   0.881
   23SOL    HW1  956   0.272   0.975   0.919
   23SOL    HW2  957   0.198   1.104   0.948
   24SOL     OW  958   0.606   1.797   1.423
   24SOL    HW1  959   0.523   1.779   1.467
   24SOL    HW2  960   0.630   1.885   1.452
   25SOL     OW  961   0.558   0.976   0.176
   25SOL    HW1  962   0.594   1.009   0.093
   25SOL    HW2  963   0.612   1.018   0.243
   26SOL     OW  964   1.588   0.143   1.454
   26SOL    HW1  965   1.620   0.216   1.401
   26SOL    HW2  966   1.546   0.185   1.529
   27SOL     OW  967   0.141   0.657   0.567
   27SOL    HW1  968   0.100   0.571   0.576
   27SOL    HW2  969   0.105   0.708   0.640
   28SOL     OW  970   0.040   1.592   0.143
   28SOL    HW1  971   0.035   1.497   0.155
   28SOL    HW2  972   3.989   1.628   0.215
   29SOL     OW  973   1.686   0.917   0.646
   29SOL    HW1  974   1.771   0.876   0.628
   29SOL    HW2  975   1.668   0.970   0.569
   30SOL     OW  976   1.652   1.105   0.430
   30SOL    HW1  977   1.741   1.101   0.394
   30SOL    HW2  978   1.659   1.165   0.505
   31SOL     OW  979   0.150   0.754   1.590
   31SOL    HW1  980   0.245   0.753   1.582
   31SOL    HW2  981   0.130   0.839   1.629
   32SOL     OW  982   0.612   1.388   0.739
   32SOL    HW1  983   0.567   1.304   0.746
   32SOL    HW2  984   0.600   1.415   0.648
   33SOL     OW  985   1.278   1.229   1.424
   33SOL    HW1  986   1.309   1.163   1.362
   33SOL    HW2  987   1.340   1.225   1.497
   34SOL     OW  988   0.828   0.006   0.526
   34SOL    HW1  989   0.872   0.085   0.497
   34SOL    HW2  990   0.735   0.027   0.523
   35SOL     OW  991   0.183   0.946   1.282
   35SOL    HW1  992   0.272   0.912   1.271
   35SOL    HW2  993   0.132   0.904   1.212
   36SOL     OW  994   1.527   1.006   0.206
   36SOL    HW1  995   1.460   0.948   0.242
   36SOL    HW2  996   1.573   1.040   0.283
   37SOL     OW  997   1.186   1.816   1.628
   37SOL    HW1  998   1.189   1.877   1.554
   37SOL    HW2  999   1.201   1.730   1.588
   38SOL     OW 1000   0.350   0.240   1.865
   38SOL    HW1 1001   0.394   0.324   1.849
   38SOL    HW2 1002   0.258   0.264   1.876
   39SOL     OW 1003   1.469   1.415   0.956
   39SOL    HW1 1004   1.400   1.433   1.020
   39SOL    HW2 1005   1.455   1.324   0.930
   40SOL     OW 1006   1.584   1.722   0.565
   40SOL    HW1 1007   1.581   1.696   0.473
   40SOL    HW2 1008   1.584   1.640   0.614
   41SOL     OW 1009   0.591   0.708   0.270
   41SOL    HW1 1010   0.591   0.794   0.228
   41SOL    HW2 1011   0.530   0.716   0.343
   42SOL     OW 1012   1.274   0.377   0.940
   42SOL    HW1 1013   1.187   0.338   0.949
   42SOL    HW2 1014   1.332   0.317   0.987
   43SOL     OW 1015   1.534   1.699   0.298
   43SOL    HW1 1016   1.605   1.635   0.302
   43SOL    HW2 1017   1.511   1.704   0.205
   44SOL     OW 1018   0.794   0.613   1.450
   44SOL    HW1 1019   0.766   0.586   1.537
   44SOL    HW2 1020   0.762   0.545   1.392
   45SOL     OW 1021   1.393   0.474   1.677
   45SOL    HW1 1022   1.401   0.521   1.761
   45SOL    HW2 1023   1.448   0.396   1.688
   46SOL     OW 1024   0.948   0.885   1.588
   46SOL    HW1 1025   1.004   0.818   1.548
   46SOL    HW2 1026   0.899   0.922   1.515
   47SOL     OW 1027   0.998   0.401   1.229
   47SOL    HW1 1028   0.910   0.417   1.263
   47SOL    HW2 1029   0.985   0.374   1.138
   48SOL     OW 1030   1.053   0.704   0.427
   48SOL    HW1 1031   1.073   0.696   0.521
   48SOL    HW2 1032   0.970   0.659   0.417
   49SOL     OW 1033   0.083   0.832   0.788
   49SOL    HW1 1034   0.150   0.795   0.846
   49SOL    HW2 1035   0.112   0.923   0.774
   50SOL     OW 1036   0.130   1.870   1.586
   50SOL    HW1 1037   0.139   1.832   1.673
   50SOL    HW2 1038   0.037   1.862   1.565
   51SOL     OW 1039   0.875   0.361   0.225
   51SOL    HW1 1040   0.909   0.420   0.158
   51SOL    HW2 1041   0.878   0.275   0.185
   52SOL     OW 1042   1.701   0.573   1.831
   52SOL    HW1 1043   1.667   0.648   1.782
   52SOL    HW2 1044   1.726   0.510   1.765
   53SOL     OW 1045   1.384   1.143   0.543
   53SOL    HW1 1046   1.462   1.132   0.489
   53SOL    HW2 1047   1.328   1.202   0.493
   54SOL     OW 1048   0.566   0.197   0.880
   54SOL    HW1 1049   0.569   0.222   0.972
   54SOL    HW2 1050   0.551   0.279   0.833
   55SOL     OW 1051   0.993   1.438   0.474
   55SOL    HW1 1052   0.970   1.515   0.422
   55SOL    HW2 1053   0.971   1.462   0.564
   56SOL     OW 1054   0.362   1.832   0.882
   56SOL    HW1 1055   0.419   1.756   0.891
   56SOL    HW2 1056   0.420   1.907   0.895
   57SOL     OW 1057   1.801   1.040   0.878
   57SOL    HW1 1058   1.748   1.032   0.798
   57SOL    HW2 1059   1.737   1.051   0.948
   58SOL     OW 1060   1.218   1.537   1.516
   58SOL    HW1 1061   1.205   1.466   1.579
   58SOL    HW2 1062   1.148   1.525   1.452
   59SOL     OW 1063   0.302   0.925   0.242
   59SOL    HW1 1064   0.394   0.937   0.219
   59SOL    HW2 1065   0.286   0.832   0.228
   60SOL     OW 1066   1.479   0.756   0.729
   60SOL    HW1 1067   1.479   0.715   0.815
   60SOL    HW2 1068   1.558   0.811   0.728
   61SOL     OW 1069   0.474   1.263   1.738
   61SOL    HW1 1070   0.448   1.270   1.646
   61SOL    HW2 1071   0.392   1.263   1.786
   62SOL     OW 1072   1.121   1.780   0.222
   62SOL    HW1 1073   1.057   1.735   0.277
   62SOL    HW2 1074   1.150   1.714   0.160
   63SOL     OW 1075   0.203   0.291   1.504
   63SOL    HW1 1076   0.109   0.307   1.504
   63SOL    HW2 1077   0.213   0.208   1.550
   64SOL     OW 1078   1.634   1.381   0.089
   64SOL    HW1 1079   1.599   1.458   0.046
   64SOL    HW2 1080   1.567   1.313   0.075
   65SOL     OW 1081   0.468   1.730   0.322
   65SOL    HW1 1082   0.512   1.790   0.384
   65SOL    HW2 1083   0.540   1.690   0.273
   66SOL     OW 1084   1.447   0.140   0.396
   66SOL    HW1 1085   1.395   0.064   0.421
   66SOL    HW2 1086   1.531   0.127   0.441
   67SOL     OW 1087   0.260   1.791   1.227
   67SOL    HW1 1088   0.298   1.718   1.276
   67SOL    HW2 1089   0.253   1.758   1.138
   68SOL     OW 1090   0.940   1.700   0.895
   68SOL    HW1 1091   1.019   1.651   0.918
   68SOL    HW2 1092   0.900   1.649   0.825
   69SOL     OW 1093   0.399   0.692   0.470
   69SOL    HW1 1094   0.422   0.601   0.487
   69SOL    HW2 1095   0.307   0.699   0.496
   70SOL     OW 1096   1.528   0.224   1.725
   70SOL    HW1 1097   1.519   0.248   1.817
   70SOL    HW2 1098   1.519   0.129   1.723
   71SOL     OW 1099   0.626   0.109   0.124
   71SOL    HW1 1100   0.721   0.109   0.128
   71SOL    HW2 1101   0.605   0.133   0.034
   72SOL     OW 1102   0.771   0.289   1.776
   72SOL    HW1 1103   0.853   0.240   1.774
   72SOL    HW2 1104   0.720   0.248   1.846
   73SOL     OW 1105   0.875   1.524   1.195
   73SOL    HW1 1106   0.857   1.484   1.109
   73SOL    HW2 1107   0.943   1.469   1.233
   74SOL     OW 1108   1.336   0.588   1.432
   74SOL    HW1 1109   1.368   0.559   1.517
   74SOL    HW2 1110   1.372   0.676   1.422
   75SOL     OW 1111   0.818   1.386   0.947
   75SOL    HW1 1112   0.904   1.376   0.905
   75SOL    HW2 1113   0.757   1.395   0.874
   76SOL     OW 1114   0.931   0.514   0.896
   76SOL    HW1 1115   0.906   0.505   0.805
   76SOL    HW2 1116   0.954   0.425   0.924
   77SOL     OW 1117   0.553   0.049   0.501
   77SOL    HW1 1118   0.479   0.055   0.561
   77SOL    HW2 1119   0.545   0.126   0.445
   78SOL     OW 1120   1.429   1.213   0.043
   78SOL    HW1 1121   1.447   1.133   0.091
   78SOL    HW2 1122   1.339   1.235   0.065
   79SOL     OW 1123   0.364   3.990   0.179
   79SOL    HW1 1124   0.324   0.074   0.159
   79SOL    HW2 1125   0.456   0.011   0.197
   80SOL     OW 1126   0.949   0.251   0.467
   80SOL    HW1 1127   0.915   0.290   0.386
   80SOL    HW2 1128   1.044   0.254   0.457
   81SOL     OW 1129   1.078   0.688   1.454
   81SOL    HW1 1130   1.011   0.621   1.462
   81SOL    HW2 1131   1.161   0.640   1.451
   82SOL     OW 1132   1.221   1.572   0.795
   82SOL    HW1 1133   1.230   1.641   0.728
   82SOL    HW2 1134   1.289   1.592   0.859
   83SOL     OW 1135   0.465   1.152   0.728
   83SOL    HW1 1136   0.396   1.125   0.789
   83SOL    HW2 1137   0.428   1.139   0.641
   84SOL     OW 1138   1.251   1.792   0.616
   84SOL    HW1 1139   1.306   1.853   0.568
   84SOL    HW2 1140   1.185   1.846   0.658
   85SOL     OW 1141   0.991   0.526   0.044
   85SOL    HW1 1142   0.981   0.513  13.850
   85SOL    HW2 1143   1.085   0.541   0.056
   86SOL     OW 1144   0.084   0.579   1.390
   86SOL    HW1 1145   0.173   0.560   1.361
   86SOL    HW2 1146   0.094   0.648   1.456
   87SOL     OW 1147   0.571   0.231   1.159
   87SOL    HW1 1148   0.591   0.137   1.167
   87SOL    HW2 1149   0.480   0.239   1.188
   88SOL     OW 1150   0.872   0.463   0.637
   88SOL    HW1 1151   0.828   0.516   0.571
   88SOL    HW2 1152   0.893   0.381   0.592
   89SOL     OW 1153   0.997   0.036   0.782
   89SOL    HW1 1154   0.948   0.067   0.706
   89SOL    HW2 1155   1.011   3.943   0.765
   90SOL     OW 1156   1.440   1.159   0.858
   90SOL    HW1 1157   1.369   1.096   0.856
   90SOL    HW2 1158   1.466   1.168   0.766
   91SOL     OW 1159   1.463   0.611   0.967
   91SOL    HW1 1160   1.405   0.535   0.972
   91SOL    HW2 1161   1.521   0.602   1.043
   92SOL     OW 1162   1.837   0.814   0.388
   92SOL    HW1 1163   1.894   0.762   0.444
   92SOL    HW2 1164   1.813   0.754   0.316
   93SOL     OW 1165   0.488   1.391   0.166
   93SOL    HW1 1166   0.422   1.349   0.222
   93SOL    HW2 1167   0.437   1.435   0.098
   94SOL     OW 1168   1.681   1.259   0.644
   94SOL    HW1 1169   1.774   1.256   0.664
   94SOL    HW2 1170   1.653   1.346   0.671
   95SOL     OW 1171   1.425   0.590   0.087
   95SOL    HW1 1172   1.355   0.580   0.152
   95SOL    HW2 1173   1.471   0.506   0.089
   96SOL     OW 1174   0.534   0.262   0.334
   96SOL    HW1 1175   0.569   0.213   0.259
   96SOL    HW2 1176   0.499   0.342   0.296
   97SOL     OW 1177   1.744   1.230   1.561
   97SOL    HW1 1178   1.831   1.192   1.554
   97SOL    HW2 1179   1.760   1.320   1.590
   98SOL     OW 1180   1.050   1.353   1.333
   98SOL    HW1 1181   0.973   1.320   1.381
   98SOL    HW2 1182   1.124   1.309   1.375
   99SOL     OW 1183   1.606   1.607   1.665
   99SOL    HW1 1184   1.586   1.643   1.579
   99SOL    HW2 1185   1.687   1.558   1.653
  100SOL     OW 1186   1.138   1.217   1.101
  100SOL    HW1 1187   1.074   1.250   1.164
  100SOL    HW2 1188   1.108   1.249   1.017
  101SOL     OW 1189   1.619   1.092   1.074
  101SOL    HW1 1190   1.613   1.157   1.145
  101SOL    HW2 1191   1.546   1.113   1.016
  102SOL     OW 1192   0.911   0.123   1.400
  102SOL    HW1 1193   0.931   0.090   1.312
  102SOL    HW2 1194   0.993   0.162   1.430
  103SOL     OW 1195   0.983   1.116   1.723
  103SOL    HW1 1196   0.892   1.132   1.748
  103SOL    HW2 1197   0.980   1.036   1.670
  104SOL     OW 1198   0.719   1.063   0.380
  104SOL    HW1 1199   0.703   1.041   0.471
  104SOL    HW2 1200   0.792   1.007   0.354
  105SOL     OW 1201   0.425   0.821   1.255
  105SOL    HW1 1202   0.494   0.827   1.321
  105SOL    HW2 1203   0.391   0.732   1.263
  106SOL     OW 1204   1.266   0.374   1.280
  106SOL    HW1 1205   1.298   0.453   1.324
  106SOL    HW2 1206   1.177   0.397   1.251
  107SOL     OW 1207   0.063   1.578   1.340
  107SOL    HW1 1208   0.066   1.598   1.247
  107SOL    HW2 1209   0.155   1.576   1.367
  108SOL     OW 1210   0.354   1.099   0.480
  108SOL    HW1 1211   0.342   1.175   0.422
  108SOL    HW2 1212   0.371   1.026   0.420
  109SOL     OW 1213   0.554   0.523   0.855
  109SOL    HW1 1214   0.565   0.584   0.781
  109SOL    HW2 1215   0.620   0.552   0.919
  110SOL     OW 1216   1.239   1.337   0.400
  110SOL    HW1 1217   1.289   1.416   0.422
  110SOL    HW2 1218   1.150   1.356   0.431
  111SOL     OW 1219   1.284   1.464   1.148
  111SOL    HW1 1220   1.338   1.464   1.227
  111SOL    HW2 1221   1.230   1.385   1.156
  112SOL     OW 1222   1.568   0.640   0.494
  112SOL    HW1 1223   1.526   0.691   0.562
  112SOL    HW2 1224   1.605   0.705   0.434
  113SOL     OW 1225   0.345   1.529   1.316
  113SOL    HW1 1226   0.337   1.476   1.237
  113SOL    HW2 1227   0.439   1.544   1.325
  114SOL     OW 1228   0.424   0.734   1.602
  114SOL    HW1 1229   0.489   0.778   1.547
  114SOL    HW2 1230   0.458   0.645   1.613
  115SOL     OW 1231   1.610   0.784   1.690
  115SOL    HW1 1232   1.524   0.825   1.682
  115SOL    HW2 1233   1.662   0.824   1.620
  116SOL     OW 1234   1.001   0.148   1.784
  116SOL    HW1 1235   1.065   0.213   1.753
  116SOL    HW2 1236   0.995   0.085   1.712
  117SOL     OW 1237   0.491   0.037   1.761
  117SOL    HW1 1238   0.489   0.054   1.666
  117SOL    HW2 1239   0.426   0.098   1.797
  118SOL     OW 1240   0.587   0.877   1.033
  118SOL    HW1 1241   0.622   0.966   1.038
  118SOL    HW2 1242   0.531   0.869   1.110
  119SOL     OW 1243   1.340   0.858   1.019
  119SOL    HW1 1244   1.254   0.840   0.982
  119SOL    HW2 1245   1.388   0.776   1.009
  120SOL     OW 1246   1.218   0.556   0.263
  120SOL    HW1 1247   1.225   0.475   0.314
  120SOL    HW2 1248   1.159   0.612   0.314
  121SOL     OW 1249   0.309   0.211   1.236
  121SOL    HW1 1250   0.265   0.248   1.313
  121SOL    HW2 1251   0.296   0.116   1.245
  122SOL     OW 1252   0.070   1.304   1.280
  122SOL    HW1 1253   0.095   1.258   1.360
  122SOL    HW2 1254   0.056   1.395   1.307
  123SOL     OW 1255   0.721   0.632   1.047
  123SOL    HW1 1256   0.797   0.621   0.990
  123SOL    HW2 1257   0.690   0.721   1.029
  124SOL     OW 1258   1.742   0.960   1.861
  124SOL    HW1 1259   1.698   0.893   1.809
  124SOL    HW2 1260   1.682   0.979   1.933
  125SOL     OW 1261   0.338   0.052   0.669
  125SOL    HW1 1262   0.313   0.144   0.673
  125SOL    HW2 1263   0.296   0.011   0.744
  126SOL     OW 1264   1.576   0.394   0.391
  126SOL    HW1 1265   1.532   0.337   0.453
  126SOL    HW2 1266   1.566   0.482   0.427
  127SOL     OW 1267   1.032   0.760   0.957
  127SOL    HW1 1268   1.020   0.776   1.050
  127SOL    HW2 1269   1.004   0.669   0.944
  128SOL     OW 1270   0.978   1.566   1.722
  128SOL    HW1 1271   0.963   1.610   1.638
  128SOL    HW2 1272   1.020   1.483   1.699
  129SOL     OW 1273   1.849   1.484   1.601
  129SOL    HW1 1274   1.881   1.503   1.513
  129SOL    HW2 1275   1.923   1.503   1.658
  130SOL     OW 1276   0.359   0.923   1.796
  130SOL    HW1 1277   0.435   0.943   1.850
  130SOL    HW2 1278   0.389   0.854   1.737
  131SOL     OW 1279   1.516   0.281   0.143
  131SOL    HW1 1280   1.463   0.202   0.148
  131SOL    HW2 1281   1.529   0.306   0.235
  132SOL     OW 1282   1.284   0.832   0.057
  132SOL    HW1 1283   1.331   0.749   0.060
  132SOL    HW2 1284   1.301   0.866  13.869
  133SOL     OW 1285   1.070   1.342   0.857
  133SOL    HW1 1286   1.075   1.269   0.795
  133SOL    HW2 1287   1.128   1.409   0.822
  134SOL     OW 1288   0.314   0.800   0.950
  134SOL    HW1 1289   0.408   0.815   0.945
  134SOL    HW2 1290   0.307   0.710   0.983
  135SOL     OW 1291   0.343   0.529   1.018
  135SOL    HW1 1292   0.297   0.446   1.001
  135SOL    HW2 1293   0.417   0.529   0.958
  136SOL     OW 1294   1.135   0.378   1.701
  136SOL    HW1 1295   1.087   0.432   1.764
  136SOL    HW2 1296   1.222   0.419   1.696
  137SOL     OW 1297   1.152   0.225   1.483
  137SOL    HW1 1298   1.143   0.277   1.562
  137SOL    HW2 1299   1.183   0.287   1.416
  138SOL     OW 1300   0.019   1.320   0.195
  138SOL    HW1 1301   3.925   1.335   0.185
  138SOL    HW2 1302   0.027   1.225   0.207
  139SOL     OW 1303   0.081   1.797   0.884
  139SOL    HW1 1304   0.096   1.703   0.878
  139SOL    HW2 1305   0.169   1.835   0.894
  140SOL     OW 1306   0.491   1.571   0.906
  140SOL    HW1 1307   0.559   1.633   0.932
  140SOL    HW2 1308   0.535   1.509   0.849
  141SOL     OW 1309   0.968   0.785   1.220
  141SOL    HW1 1310   1.026   0.769   1.295
  141SOL    HW2 1311   0.886   0.743   1.245
  142SOL     OW 1312   0.033   0.589   1.110
  142SOL    HW1 1313   0.078   0.520   1.061
  142SOL    HW2 1314   0.061   0.575   1.201
  143SOL     OW 1315   0.210   0.512   1.722
  143SOL    HW1 1316   0.251   0.466   1.649
  143SOL    HW2 1317   0.173   0.591   1.683
  144SOL     OW 1318   1.381   0.931   1.654
  144SOL    HW1 1319   1.402   1.025   1.650
  144SOL    HW2 1320   1.377   0.903   1.563
  145SOL     OW 1321   0.815   0.581   0.382
  145SOL    HW1 1322   0.825   0.503   0.327
  145SOL    HW2 1323   0.740   0.627   0.344
  146SOL     OW 1324   1.638   0.602   1.177
  146SOL    HW1 1325   1.629   0.541   1.251
  146SOL    HW2 1326   1.726   0.587   1.144
  147SOL     OW 1327   0.302   1.542   1.717
  147SOL    HW1 1328   0.258   1.611   1.767
  147SOL    HW2 1329   0.277   1.461   1.760
  148SOL     OW 1330   0.723   0.447   1.247
  148SOL    HW1 1331   0.668   0.372   1.226
  148SOL    HW2 1332   0.708   0.509   1.175
  149SOL     OW 1333   0.921   1.678   1.472
  149SOL    HW1 1334   0.896   1.637   1.389
  149SOL    HW2 1335   0.915   1.772   1.456
  150SOL     OW 1336   0.416   0.487   0.226
  150SOL    HW1 1337   0.494   0.542   0.229
  150SOL    HW2 1338   0.344   0.548   0.211
  151SOL     OW 1339   0.151   1.132   1.478
  151SOL    HW1 1340   0.152   1.083   1.560
  151SOL    HW2 1341   0.168   1.066   1.410
  152SOL     OW 1342   1.317   1.042   1.218
  152SOL    HW1 1343   1.337   0.979   1.149
  152SOL    HW2 1344   1.254   1.102   1.178
  153SOL     OW 1345   1.320   0.860   0.328
  153SOL    HW1 1346   1.250   0.825   0.383
  153SOL    HW2 1347   1.293   0.842   0.239
  154SOL     OW 1348   1.246   1.736   1.100
  154SOL    HW1 1349   1.331   1.759   1.062
  154SOL    HW2 1350   1.253   1.644   1.122
  155SOL     OW 1351   0.082   1.218   1.025
  155SOL    HW1 1352   0.090   1.242   1.117
  155SOL    HW2 1353   3.989   1.230   1.005
  156SOL     OW 1354   0.681   1.672   1.743
  156SOL    HW1 1355   0.619   1.744   1.730
  156SOL    HW2 1356   0.752   1.690   1.681
  157SOL     OW 1357   0.900   0.105   0.128
  157SOL    HW1 1358   0.941   0.094   0.042
  157SOL    HW2 1359   0.911   0.020   0.171
  158SOL     OW 1360   1.703   0.119   0.499
  158SOL    HW1 1361   1.782   0.127   0.447
  158SOL    HW2 1362   1.690   0.024   0.509
  159SOL     OW 1363   1.353   1.572   0.471
  159SOL    HW1 1364   1.408   1.615   0.405
  159SOL    HW2 1365   1.315   1.644   0.521
  160SOL     OW 1366   0.180   1.758   1.834
  160SOL    HW1 1367   0.124   1.704   1.890
  160SOL    HW2 1368   0.217   1.823   1.894
  161SOL     OW 1369   1.276   0.931   0.672
  161SOL    HW1 1370   1.350   0.872   0.687
  161SOL    HW2 1371   1.312   1.001   0.618
  162SOL     OW 1372   0.799   1.276   1.421
  162SOL    HW1 1373   0.771   1.320   1.501
  162SOL    HW2 1374   0.725   1.287   1.361
  163SOL     OW 1375   0.671   1.589   0.193
  163SOL    HW1 1376   0.669   1.623   0.103
  163SOL    HW2 1377   0.624   1.506   0.188
  164SOL     OW 1378   1.569   1.716   1.414
  164SOL    HW1 1379   1.621   1.710   1.334
  164SOL    HW2 1380   1.555   1.810   1.427
  165SOL     OW 1381   1.840   0.180   0.960
  165SOL    HW1 1382   1.873   0.123   0.891
  165SOL    HW2 1383   1.749   0.197   0.936
  166SOL     OW 1384   0.276   0.318   0.714
  166SOL    HW1 1385   0.191   0.352   0.687
  166SOL    HW2 1386   0.268   0.307   0.809
  167SOL     OW 1387   1.213   1.597   0.034
  167SOL    HW1 1388   1.205   1.506   0.061
  167SOL    HW2 1389   1.172   1.601  13.848
  168SOL     OW 1390   0.823   1.006   1.377
  168SOL    HW1 1391   0.866   0.998   1.292
  168SOL    HW2 1392   0.818   1.100   1.393
  169SOL     OW 1393   0.923   0.912   0.290
  169SOL    HW1 1394   0.991   0.954   0.239
  169SOL    HW2 1395   0.969   0.842   0.338
  170SOL     OW 1396   1.474   1.667   0.038
  170SOL    HW1 1397   1.382   1.638   0.039
  170SOL    HW2 1398   1.503   1.652  13.848
  171SOL     OW 1399   0.374   1.301   1.492
  171SOL    HW1 1400   0.358   1.382   1.444
  171SOL    HW2 1401   0.297   1.247   1.475
  172SOL     OW 1402   1.612   1.282   1.275
  172SOL    HW1 1403   1.673   1.271   1.348
  172SOL    HW2 1404   1.546   1.342   1.309
  173SOL     OW 1405   1.064   1.112   0.714
  173SOL    HW1 1406   0.991   1.061   0.749
  173SOL    HW2 1407   1.128   1.046   0.688
  174SOL     OW 1408   1.017   0.251   0.971
  174SOL    HW1 1409   1.007   0.201   0.891
  174SOL    HW2 1410   1.017   0.186   1.041
  175SOL     OW 1411   0.612   1.483   0.484
  175SOL    HW1 1412   0.658   1.436   0.415
  175SOL    HW2 1413   0.537   1.522   0.440
  176SOL     OW 1414   1.722   0.396   1.369
  176SOL    HW1 1415   1.796   0.456   1.375
  176SOL    HW2 1416   1.755   0.324   1.314
  177SOL     OW 1417   0.269   1.308   0.314
  177SOL    HW1 1418   0.188   1.331   0.269
  177SOL    HW2 1419   0.269   1.361   0.393
  178SOL     OW 1420   0.112   0.997   1.719
  178SOL    HW1 1421   0.053   0.992   1.795
  178SOL    HW2 1422   0.199   0.980   1.755
  179SOL     OW 1423   0.695   0.264   1.507
  179SOL    HW1 1424   0.762   0.210   1.465
  179SOL    HW2 1425   0.724   0.270   1.599
  180SOL     OW 1426   0.070   0.360   0.034
  180SOL    HW1 1427   3.985   0.380   0.071
  180SOL    HW2 1428   0.058   0.371  13.839
  181SOL     OW 1429   1.422   0.855   1.394
  181SOL    HW1 1430   1.372   0.916   1.340
  181SOL    HW2 1431   1.511   0.858   1.358
  182SOL     OW 1432   0.053   0.207   0.318
  182SOL    HW1 1433   0.094   0.280   0.272
  182SOL    HW2 1434   0.126   0.161   0.360
  183SOL     OW 1435   1.186   1.342   0.123
  183SOL    HW1 1436   1.091   1.337   0.111
  183SOL    HW2 1437   1.200   1.328   0.216
  184SOL     OW 1438   0.624   0.827   1.438
  184SOL    HW1 1439   0.681   0.903   1.423
  184SOL    HW2 1440   0.684   0.753   1.445
  185SOL     OW 1441   1.496   1.791   0.988
  185SOL    HW1 1442   1.516   1.867   0.932
  185SOL    HW2 1443   1.578   1.742   0.992
  186SOL     OW 1444   0.720   0.558   1.705
  186SOL    HW1 1445   0.766   0.618   1.763
  186SOL    HW2 1446   0.739   0.471   1.739
  187SOL     OW 1447   1.471   1.191   1.628
  187SOL    HW1 1448   1.461   1.207   1.721
  187SOL    HW2 1449   1.564   1.208   1.610
  188SOL     OW 1450   0.376   1.746   1.554
  188SOL    HW1 1451   0.289   1.785   1.543
  188SOL    HW2 1452   0.360   1.663   1.597
  189SOL     OW 1453   1.661   0.879   1.255
  189SOL    HW1 1454   1.659   0.793   1.211
  189SOL    HW2 1455   1.651   0.942   1.184
  190SOL     OW 1456   1.232   0.336   0.427
  190SOL    HW1 1457   1.293   0.262   0.424
  190SOL    HW2 1458   1.246   0.375   0.513
  191SOL     OW 1459   0.585   0.734   0.676
  191SOL    HW1 1460   0.625   0.820   0.660
  191SOL    HW2 1461   0.521   0.724   0.606
  192SOL     OW 1462   1.745   0.384   1.643
  192SOL    HW1 1463   1.731   0.390   1.549
  192SOL    HW2 1464   1.688   0.314   1.672
  193SOL     OW 1465   1.749   0.933   1.509
  193SOL    HW1 1466   1.732   1.026   1.522
  193SOL    HW2 1467   1.729   0.918   1.417
  194SOL     OW 1468   0.908   1.400   0.078
  194SOL    HW1 1469   0.853   1.377   0.153
  194SOL    HW2 1470   0.854   1.381   0.001
  195SOL     OW 1471   0.663   1.781   0.936
  195SOL    HW1 1472   0.646   1.873   0.919
  195SOL    HW2 1473   0.759   1.773   0.931
  196SOL     OW 1474   0.870   0.971   0.853
  196SOL    HW1 1475   0.921   0.899   0.889
  196SOL    HW2 1476   0.830   1.013   0.929
  197SOL     OW 1477   1.094   1.020   0.113
  197SOL    HW1 1478   1.087   1.063   0.028
  197SOL    HW2 1479   1.167   0.959   0.102
  198SOL     OW 1480   1.849   1.513   0.838
  198SOL    HW1 1481   1.773   1.552   0.796
  198SOL    HW2 1482   1.830   1.517   0.931
  199SOL     OW 1483   0.232   1.304   1.857
  199SOL    HW1 1484   0.154   1.258   1.828
  199SOL    HW2 1485   0.219   1.317   1.951
  200SOL     OW 1486   0.125   1.298   0.740
  200SOL    HW1 1487   0.132   1.248   0.822
  200SOL    HW2 1488   0.106   1.232   0.673
  201SOL     OW 1489   0.686   1.410   1.631
  201SOL    HW1 1490   0.607   1.367   1.664
  201SOL    HW2 1491   0.682   1.498   1.669
  202SOL     OW 1492   1.808   0.184   1.233
  202SOL    HW1 1493   1.811   0.090   1.252
  202SOL    HW2 1494   1.825   0.190   1.139
  203SOL     OW 1495   0.447   0.438   0.536
  203SOL    HW1 1496   0.480   0.364   0.485
  203SOL    HW2 1497   0.394   0.397   0.605
  204SOL     OW 1498   1.700   1.500   1.091
  204SOL    HW1 1499   1.620   1.472   1.045
  204SOL    HW2 1500   1.712   1.434   1.159
  205SOL     OW 1501   0.337   0.563   1.294
  205SOL    HW1 1502   0.392   0.506   1.348
  205SOL    HW2 1503   0.352   0.532   1.205
  206SOL     OW 1504   0.832   1.582   0.674
  206SOL    HW1 1505   0.814   1.652   0.612
  206SOL    HW2 1506   0.756   1.523   0.667
  207SOL     OW 1507   1.457   0.258   1.110
  207SOL    HW1 1508   1.478   0.172   1.146
  207SOL    HW2 1509   1.403   0.299   1.177
  208SOL     OW 1510   0.999   0.023   1.143
  208SOL    HW1 1511   0.915   0.012   1.099
  208SOL    HW2 1512   1.034   3.934   1.150
  209SOL     OW 1513   0.785   1.324   0.320
  209SOL    HW1 1514   0.756   1.235   0.338
  209SOL    HW2 1515   0.861   1.336   0.376
  210SOL     OW 1516   0.621   1.560   1.288
  210SOL    HW1 1517   0.621   1.643   1.336
  210SOL    HW2 1518   0.709   1.553   1.252
  211SOL     OW 1519   1.315   0.068   0.129
  211SOL    HW1 1520   1.328   3.976   0.106
  211SOL    HW2 1521   1.261   0.066   0.207
  212SOL     OW 1522   1.275   0.452   0.678
  212SOL    HW1 1523   1.230   0.536   0.671
  212SOL    HW2 1524   1.280   0.436   0.772
  213SOL     OW 1525   1.585   0.209   0.869
  213SOL    HW1 1526   1.535   0.235   0.946
  213SOL    HW2 1527   1.587   0.287   0.814
  214SOL     OW 1528   0.044   1.024   0.260
  214SOL    HW1 1529   0.137   1.002   0.257
  214SOL    HW2 1530   0.003   0.949   0.302
  215SOL     OW 1531   0.897   1.660   0.342
  215SOL    HW1 1532   0.819   1.633   0.294
  215SOL    HW2 1533   0.868   1.732   0.398
  216SOL     OW 1534   0.232   0.633   1.976
  216SOL    HW1 1535   0.138   0.637   1.996
  216SOL    HW2 1536   0.235   0.601   1.886
  217SOL     OW 1537   0.223   0.292   2.843
  217SOL    HW1 1538   0.245   0.252   2.927
  217SOL    HW2 1539   0.127   0.285   2.838
  218SOL     OW 1540   0.020   0.383   2.499
  218SOL    HW1 1541   3.928   0.401   2.519
  218SOL    HW2 1542   0.023   0.289   2.485
  219SOL     OW 1543   0.587   1.297   3.068
  219SOL    HW1 1544   0.501   1.296   3.025
  219SOL    HW2 1545   0.599   1.388   3.096
  220SOL     OW 1546   1.552   1.505   2.568
  220SOL    HW1 1547   1.523   1.482   2.657
  220SOL    HW2 1548   1.474   1.495   2.514
  221SOL     OW 1549   1.134   0.700   2.553
  221SOL    HW1 1550   1.182   0.783   2.543
  221SOL    HW2 1551   1.086   0.710   2.635
  222SOL     OW 1552   1.785   0.618   2.081
  222SOL    HW1 1553   1.754   0.610   1.990
  222SOL    HW2 1554   1.756   0.537   2.123
  223SOL     OW 1555   0.744   1.135   2.910
  223SOL    HW1 1556   0.686   1.173   2.976
  223SOL    HW2 1557   0.782   1.210   2.865
  224SOL     OW 1558   0.878   0.762   3.689
  224SOL    HW1 1559   0.869   0.833   3.753
  224SOL    HW2 1560   0.898   0.806   3.607
  225SOL     OW 1561   0.685   0.998   2.506
  225SOL    HW1 1562   0.752   0.990   2.574
  225SOL    HW2 1563   0.616   1.052   2.546
  226SOL     OW 1564   0.714   1.148   3.685
  226SOL    HW1 1565   0.763   1.225   3.716
  226SOL    HW2 1566   0.636   1.184   3.644
  227SOL     OW 1567   0.354   1.396   2.942
  227SOL    HW1 1568   0.273   1.370   2.897
  227SOL    HW2 1569   0.397   1.455   2.880
  228SOL     OW 1570   1.444   1.481   3.229
  228SOL    HW1 1571   1.489   1.565   3.244
  228SOL    HW2 1572   1.371   1.481   3.291
  229SOL     OW 1573   0.461   0.409   3.349
  229SOL    HW1 1574   0.544   0.362   3.353
  229SOL    HW2 1575   0.395   0.341   3.357
  230SOL     OW 1576   1.611   0.451   2.599
  230SOL    HW1 1577   1.549   0.483   2.534
  230SOL    HW2 1578   1.616   0.521   2.664
  231SOL     OW 1579   0.218   1.723   2.316
  231SOL    HW1 1580   0.241   1.795   2.375
  231SOL    HW2 1581   0.293   1.714   2.258
  232SOL     OW 1582   1.136   1.342   3.558
  232SOL    HW1 1583   1.177   1.335   3.644
  232SOL    HW2 1584   1.084   1.262   3.549
  233SOL     OW 1585   0.258   1.456   2.396
  233SOL    HW1 1586   0.220   1.543   2.384
  233SOL    HW2 1587   0.196   1.410   2.452
  234SOL     OW 1588   0.250   1.063   2.744
  234SOL    HW1 1589   0.271   0.977   2.782
  234SOL    HW2 1590   0.197   1.106   2.811
  235SOL     OW 1591   0.606   1.797   3.284
  235SOL    HW1 1592   0.523   1.779   3.329
  235SOL    HW2 1593   0.630   1.885   3.313
  236SOL     OW 1594   0.572   0.989   2.004
  236SOL    HW1 1595   0.623   1.031   1.935
  236SOL    HW2 1596   0.612   1.019   2.086
  237SOL     OW 1597   1.588   0.143   3.316
  237SOL    HW1 1598   1.620   0.216   3.263
  237SOL    HW2 1599   1.546   0.185   3.391
  238SOL     OW 1600   0.144   0.655   2.431
  238SOL    HW1 1601   0.101   0.569   2.436
  238SOL    HW2 1602   0.105   0.705   2.502
  239SOL     OW 1603   0.043   1.584   1.995
  239SOL    HW1 1604   0.044   1.495   2.030
  239SOL    HW2 1605   3.953   1.615   2.010
  240SOL     OW 1606   1.687   0.917   2.506
  240SOL    HW1 1607   1.772   0.877   2.488
  240SOL    HW2 1608   1.669   0.971   2.429
  241SOL     OW 1609   1.652   1.105   2.292
  241SOL    HW1 1610   1.739   1.104   2.252
  241SOL    HW2 1611   1.660   1.166   2.365
  242SOL     OW 1612   0.150   0.754   3.452
  242SOL    HW1 1613   0.245   0.753   3.444
  242SOL    HW2 1614   0.130   0.839   3.491
  243SOL     OW 1615   0.613   1.389   2.600
  243SOL    HW1 1616   0.568   1.305   2.607
  243SOL    HW2 1617   0.599   1.416   2.509
  244SOL     OW 1618   1.278   1.229   3.286
  244SOL    HW1 1619   1.309   1.163   3.224
  244SOL    HW2 1620   1.340   1.225   3.359
  245SOL     OW 1621   0.826   0.008   2.382
  245SOL    HW1 1622   0.870   0.088   2.354
  245SOL    HW2 1623   0.732   0.030   2.378
  246SOL     OW 1624   0.183   0.946   3.144
  246SOL    HW1 1625   0.271   0.912   3.133
  246SOL    HW2 1626   0.132   0.906   3.074
  247SOL     OW 1627   1.533   1.001   2.064
  247SOL    HW1 1628   1.464   0.944   2.097
  247SOL    HW2 1629   1.576   1.034   2.142
  248SOL     OW 1630   1.186   1.816   3.490
  248SOL    HW1 1631   1.189   1.877   3.416
  248SOL    HW2 1632   1.201   1.730   3.450
  249SOL     OW 1633   0.350   0.240   3.727
  249SOL    HW1 1634   0.394   0.324   3.711
  249SOL    HW2 1635   0.258   0.264   3.737
  250SOL     OW 1636   1.470   1.418   2.814
  250SOL    HW1 1637   1.402   1.435   2.879
  250SOL    HW2 1638   1.457   1.326   2.789
  251SOL     OW 1639   1.577   1.728   2.404
  251SOL    HW1 1640   1.581   1.684   2.319
  251SOL    HW2 1641   1.582   1.657   2.468
  252SOL     OW 1642   0.596   0.714   2.133
  252SOL    HW1 1643   0.600   0.800   2.090
  252SOL    HW2 1644   0.532   0.726   2.204
  253SOL     OW 1645   1.274   0.377   2.803
  253SOL    HW1 1646   1.187   0.338   2.812
  253SOL    HW2 1647   1.332   0.317   2.851
  254SOL     OW 1648   1.560   1.647   2.148
  254SOL    HW1 1649   1.645   1.684   2.122
  254SOL    HW2 1650   1.515   1.629   2.065
  255SOL     OW 1651   0.794   0.613   3.312
  255SOL    HW1 1652   0.766   0.586   3.399
  255SOL    HW2 1653   0.761   0.544   3.254
  256SOL     OW 1654   1.393   0.474   3.539
  256SOL    HW1 1655   1.401   0.521   3.623
  256SOL    HW2 1656   1.448   0.396   3.550
  257SOL     OW 1657   0.948   0.885   3.450
  257SOL    HW1 1658   1.004   0.818   3.410
  257SOL    HW2 1659   0.899   0.922   3.377
  258SOL     OW 1660   0.998   0.401   3.092
  258SOL    HW1 1661   0.910   0.417   3.125
  258SOL    HW2 1662   0.984   0.374   3.001
  259SOL     OW 1663   1.054   0.702   2.285
  259SOL    HW1 1664   1.074   0.696   2.379
  259SOL    HW2 1665   0.971   0.656   2.275
  260SOL     OW 1666   0.083   0.834   2.650
  260SOL    HW1 1667   0.150   0.796   2.708
  260SOL    HW2 1668   0.113   0.923   2.636
  261SOL     OW 1669   0.130   1.870   3.448
  261SOL    HW1 1670   0.139   1.832   3.535
  261SOL    HW2 1671   0.037   1.862   3.427
  262SOL     OW 1672   0.894   0.352   2.062
  262SOL    HW1 1673   0.937   0.413   2.002
  262SOL    HW2 1674   0.888   0.270   2.013
  263SOL     OW 1675   1.701   0.574   3.693
  263SOL    HW1 1676   1.667   0.648   3.644
  263SOL    HW2 1677   1.726   0.510   3.627
  264SOL     OW 1678   1.382   1.141   2.399
  264SOL    HW1 1679   1.463   1.133   2.349
  264SOL    HW2 1680   1.327   1.200   2.348
  265SOL     OW 1681   0.565   0.195   2.741
  265SOL    HW1 1682   0.569   0.221   2.833
  265SOL    HW2 1683   0.548   0.277   2.694
  266SOL     OW 1684   0.991   1.440   2.328
  266SOL    HW1 1685   0.967   1.518   2.278
  266SOL    HW2 1686   0.972   1.463   2.419
  267SOL     OW 1687   0.362   1.832   2.738
  267SOL    HW1 1688   0.419   1.756   2.750
  267SOL    HW2 1689   0.419   1.908   2.753
  268SOL     OW 1690   1.801   1.041   2.739
  268SOL    HW1 1691   1.749   1.035   2.659
  268SOL    HW2 1692   1.737   1.052   2.809
  269SOL     OW 1693   1.218   1.537   3.378
  269SOL    HW1 1694   1.205   1.466   3.441
  269SOL    HW2 1695   1.148   1.525   3.313
  270SOL     OW 1696   0.310   0.949   2.105
  270SOL    HW1 1697   0.392   0.970   2.062
  270SOL    HW2 1698   0.298   0.855   2.090
  271SOL     OW 1699   1.480   0.755   2.588
  271SOL    HW1 1700   1.480   0.715   2.676
  271SOL    HW2 1701   1.558   0.810   2.587
  272SOL     OW 1702   0.474   1.263   3.600
  272SOL    HW1 1703   0.448   1.269   3.508
  272SOL    HW2 1704   0.391   1.263   3.648
  273SOL     OW 1705   1.125   1.777   2.089
  273SOL    HW1 1706   1.049   1.740   2.133
  273SOL    HW2 1707   1.147   1.713   2.021
  274SOL     OW 1708   0.203   0.291   3.365
  274SOL    HW1 1709   0.109   0.308   3.366
  274SOL    HW2 1710   0.213   0.208   3.413
  275SOL     OW 1711   1.628   1.385   1.947
  275SOL    HW1 1712   1.581   1.466   1.928
  275SOL    HW2 1713   1.564   1.315   1.929
  276SOL     OW 1714   0.465   1.739   2.176
  276SOL    HW1 1715   0.510   1.794   2.240
  276SOL    HW2 1716   0.535   1.700   2.124
  277SOL     OW 1717   1.448   0.178   2.271
  277SOL    HW1 1718   1.391   0.109   2.238
  277SOL    HW2 1719   1.514   0.133   2.324
  278SOL     OW 1720   0.260   1.791   3.090
  278SOL    HW1 1721   0.298   1.718   3.139
  278SOL    HW2 1722   0.253   1.758   3.000
  279SOL     OW 1723   0.941   1.700   2.757
  279SOL    HW1 1724   1.021   1.652   2.778
  279SOL    HW2 1725   0.900   1.649   2.687
  280SOL     OW 1726   0.400   0.695   2.331
  280SOL    HW1 1727   0.424   0.603   2.348
  280SOL    HW2 1728   0.308   0.700   2.357
  281SOL     OW 1729   1.528   0.224   3.587
  281SOL    HW1 1730   1.519   0.248   3.679
  281SOL    HW2 1731   1.519   0.129   3.585
  282SOL     OW 1732   0.648   0.124   1.967
  282SOL    HW1 1733   0.667   0.037   2.004
  282SOL    HW2 1734   0.588   0.107   1.895
  283SOL     OW 1735   0.771   0.289   3.638
  283SOL    HW1 1736   0.853   0.240   3.636
  283SOL    HW2 1737   0.720   0.248   3.708
  284SOL     OW 1738   0.875   1.524   3.057
  284SOL    HW1 1739   0.858   1.485   2.971
  284SOL    HW2 1740   0.943   1.469   3.095
  285SOL     OW 1741   1.336   0.588   3.294
  285SOL    HW1 1742   1.368   0.559   3.379
  285SOL    HW2 1743   1.372   0.676   3.284
  286SOL     OW 1744   0.818   1.386   2.809
  286SOL    HW1 1745   0.904   1.376   2.768
  286SOL    HW2 1746   0.757   1.395   2.736
  287SOL     OW 1747   0.931   0.514   2.758
  287SOL    HW1 1748   0.906   0.504   2.666
  287SOL    HW2 1749   0.955   0.425   2.786
  288SOL     OW 1750   0.549   0.054   2.350
  288SOL    HW1 1751   0.476   0.061   2.412
  288SOL    HW2 1752   0.548   0.137   2.302
  289SOL     OW 1753   1.429   1.200   1.901
  289SOL    HW1 1754   1.458   1.125   1.953
  289SOL    HW2 1755   1.343   1.222   1.937
  290SOL     OW 1756   0.360   0.027   2.064
  290SOL    HW1 1757   0.353   0.091   1.994
  290SOL    HW2 1758   0.449   0.037   2.097
  291SOL     OW 1759   0.948   0.253   2.318
  291SOL    HW1 1760   0.921   0.290   2.234
  291SOL    HW2 1761   1.043   0.261   2.319
  292SOL     OW 1762   1.078   0.688   3.316
  292SOL    HW1 1763   1.011   0.621   3.324
  292SOL    HW2 1764   1.161   0.640   3.313
  293SOL     OW 1765   1.218   1.572   2.658
  293SOL    HW1 1766   1.229   1.638   2.589
  293SOL    HW2 1767   1.288   1.591   2.720
  294SOL     OW 1768   0.467   1.152   2.591
  294SOL    HW1 1769   0.398   1.125   2.651
  294SOL    HW2 1770   0.429   1.138   2.504
  295SOL     OW 1771   1.252   1.787   2.478
  295SOL    HW1 1772   1.305   1.849   2.426
  295SOL    HW2 1773   1.186   1.842   2.520
  296SOL     OW 1774   1.021   0.535   1.895
  296SOL    HW1 1775   0.978   0.619   1.875
  296SOL    HW2 1776   1.085   0.557   1.963
  297SOL     OW 1777   0.084   0.579   3.253
  297SOL    HW1 1778   0.173   0.560   3.223
  297SOL    HW2 1779   0.094   0.648   3.318
  298SOL     OW 1780   0.571   0.230   3.020
  298SOL    HW1 1781   0.591   0.137   3.029
  298SOL    HW2 1782   0.480   0.239   3.049
  299SOL     OW 1783   0.871   0.460   2.498
  299SOL    HW1 1784   0.823   0.515   2.435
  299SOL    HW2 1785   0.893   0.381   2.449
  300SOL     OW 1786   0.998   0.035   2.646
  300SOL    HW1 1787   0.954   0.068   2.568
  300SOL    HW2 1788   1.011   3.941   2.629
  301SOL     OW 1789   1.442   1.160   2.720
  301SOL    HW1 1790   1.370   1.098   2.716
  301SOL    HW2 1791   1.472   1.169   2.630
  302SOL     OW 1792   1.464   0.611   2.828
  302SOL    HW1 1793   1.406   0.535   2.834
  302SOL    HW2 1794   1.521   0.603   2.905
  303SOL     OW 1795   1.839   0.816   2.254
  303SOL    HW1 1796   1.898   0.767   2.310
  303SOL    HW2 1797   1.817   0.756   2.183
  304SOL     OW 1798   0.487   1.425   2.019
  304SOL    HW1 1799   0.411   1.395   2.068
  304SOL    HW2 1800   0.479   1.383   1.933
  305SOL     OW 1801   1.678   1.259   2.510
  305SOL    HW1 1802   1.772   1.255   2.524
  305SOL    HW2 1803   1.654   1.349   2.532
  306SOL     OW 1804   1.395   0.580   1.929
  306SOL    HW1 1805   1.332   0.559   1.998
  306SOL    HW2 1806   1.481   0.562   1.968
  307SOL     OW 1807   0.553   0.269   2.179
  307SOL    HW1 1808   0.606   0.229   2.109
  307SOL    HW2 1809   0.525   0.353   2.142
  308SOL     OW 1810   1.744   1.231   3.424
  308SOL    HW1 1811   1.831   1.193   3.415
  308SOL    HW2 1812   1.760   1.321   3.453
  309SOL     OW 1813   1.050   1.353   3.195
  309SOL    HW1 1814   0.974   1.321   3.243
  309SOL    HW2 1815   1.125   1.309   3.237
  310SOL     OW 1816   1.605   1.608   3.527
  310SOL    HW1 1817   1.585   1.643   3.440
  310SOL    HW2 1818   1.687   1.559   3.514
  311SOL     OW 1819   1.138   1.217   2.964
  311SOL    HW1 1820   1.075   1.250   3.027
  311SOL    HW2 1821   1.108   1.249   2.879
  312SOL     OW 1822   1.619   1.092   2.937
  312SOL    HW1 1823   1.613   1.157   3.007
  312SOL    HW2 1824   1.547   1.113   2.878
  313SOL     OW 1825   0.911   0.123   3.262
  313SOL    HW1 1826   0.931   0.090   3.174
  313SOL    HW2 1827   0.993   0.163   3.292
  314SOL     OW 1828   0.983   1.116   3.585
  314SOL    HW1 1829   0.892   1.132   3.610
  314SOL    HW2 1830   0.980   1.037   3.532
  315SOL     OW 1831   0.708   1.063   2.233
  315SOL    HW1 1832   0.695   1.043   2.326
  315SOL    HW2 1833   0.784   1.009   2.208
  316SOL     OW 1834   0.425   0.821   3.117
  316SOL    HW1 1835   0.494   0.827   3.183
  316SOL    HW2 1836   0.391   0.732   3.126
  317SOL     OW 1837   1.266   0.374   3.142
  317SOL    HW1 1838   1.298   0.453   3.186
  317SOL    HW2 1839   1.177   0.397   3.113
  318SOL     OW 1840   0.063   1.578   3.203
  318SOL    HW1 1841   0.067   1.600   3.110
  318SOL    HW2 1842   0.155   1.576   3.230
  319SOL     OW 1843   0.359   1.105   2.340
  319SOL    HW1 1844   0.356   1.185   2.287
  319SOL    HW2 1845   0.359   1.034   2.276
  320SOL     OW 1846   0.554   0.525   2.716
  320SOL    HW1 1847   0.565   0.586   2.643
  320SOL    HW2 1848   0.619   0.553   2.780
  321SOL     OW 1849   1.234   1.335   2.250
  321SOL    HW1 1850   1.287   1.409   2.280
  321SOL    HW2 1851   1.146   1.354   2.283
  322SOL     OW 1852   1.286   1.463   3.008
  322SOL    HW1 1853   1.339   1.463   3.088
  322SOL    HW2 1854   1.232   1.385   3.016
  323SOL     OW 1855   1.570   0.637   2.353
  323SOL    HW1 1856   1.524   0.685   2.422
  323SOL    HW2 1857   1.618   0.704   2.306
  324SOL     OW 1858   0.345   1.529   3.178
  324SOL    HW1 1859   0.337   1.476   3.099
  324SOL    HW2 1860   0.439   1.544   3.187
  325SOL     OW 1861   0.425   0.734   3.464
  325SOL    HW1 1862   0.489   0.778   3.408
  325SOL    HW2 1863   0.459   0.645   3.475
  326SOL     OW 1864   1.610   0.784   3.552
  326SOL    HW1 1865   1.524   0.825   3.544
  326SOL    HW2 1866   1.662   0.824   3.482
  327SOL     OW 1867   1.001   0.148   3.646
  327SOL    HW1 1868   1.065   0.213   3.615
  327SOL    HW2 1869   0.995   0.085   3.574
  328SOL     OW 1870   0.491   0.037   3.623
  328SOL    HW1 1871   0.489   0.054   3.528
  328SOL    HW2 1872   0.426   0.098   3.659
  329SOL     OW 1873   0.587   0.877   2.895
  329SOL    HW1 1874   0.622   0.966   2.900
  329SOL    HW2 1875   0.531   0.869   2.972
  330SOL     OW 1876   1.340   0.857   2.881
  330SOL    HW1 1877   1.254   0.840   2.844
  330SOL    HW2 1878   1.388   0.775   2.871
  331SOL     OW 1879   1.196   0.541   2.114
  331SOL    HW1 1880   1.205   0.462   2.168
  331SOL    HW2 1881   1.154   0.604   2.172
  332SOL     OW 1882   0.309   0.211   3.098
  332SOL    HW1 1883   0.265   0.248   3.175
  332SOL    HW2 1884   0.296   0.116   3.107
  333SOL     OW 1885   0.069   1.305   3.142
  333SOL    HW1 1886   0.095   1.259   3.222
  333SOL    HW2 1887   0.056   1.396   3.170
  334SOL     OW 1888   0.720   0.632   2.909
  334SOL    HW1 1889   0.797   0.622   2.852
  334SOL    HW2 1890   0.690   0.721   2.892
  335SOL     OW 1891   1.742   0.960   3.723
  335SOL    HW1 1892   1.698   0.893   3.671
  335SOL    HW2 1893   1.682   0.979   3.795
  336SOL     OW 1894   0.339   0.052   2.527
  336SOL    HW1 1895   0.308   0.143   2.528
  336SOL    HW2 1896   0.306   0.015   2.609
  337SOL     OW 1897   1.612   0.400   2.235
  337SOL    HW1 1898   1.562   0.332   2.280
  337SOL    HW2 1899   1.591   0.480   2.283
  338SOL     OW 1900   1.032   0.760   2.818
  338SOL    HW1 1901   1.020   0.776   2.912
  338SOL    HW2 1902   1.004   0.669   2.806
  339SOL     OW 1903   0.978   1.566   3.584
  339SOL    HW1 1904   0.963   1.609   3.500
  339SOL    HW2 1905   1.020   1.483   3.561
  340SOL     OW 1906   1.849   1.485   3.464
  340SOL    HW1 1907   1.881   1.503   3.376
  340SOL    HW2 1908   1.923   1.504   3.521
  341SOL     OW 1909   0.359   0.923   3.658
  341SOL    HW1 1910   0.435   0.943   3.712
  341SOL    HW2 1911   0.389   0.854   3.599
  342SOL     OW 1912   1.497   0.269   1.992
  342SOL    HW1 1913   1.427   0.205   2.004
  342SOL    HW2 1914   1.510   0.308   2.078
  343SOL     OW 1915   1.284   0.827   1.887
  343SOL    HW1 1916   1.326   0.741   1.892
  343SOL    HW2 1917   1.316   0.866   1.806
  344SOL     OW 1918   1.070   1.341   2.720
  344SOL    HW1 1919   1.076   1.269   2.657
  344SOL    HW2 1920   1.127   1.409   2.685
  345SOL     OW 1921   0.314   0.800   2.812
  345SOL    HW1 1922   0.408   0.816   2.807
  345SOL    HW2 1923   0.306   0.711   2.845
  346SOL     OW 1924   0.342   0.529   2.880
  346SOL    HW1 1925   0.297   0.446   2.862
  346SOL    HW2 1926   0.416   0.529   2.819
  347SOL     OW 1927   1.135   0.378   3.564
  347SOL    HW1 1928   1.087   0.432   3.626
  347SOL    HW2 1929   1.222   0.419   3.558
  348SOL     OW 1930   1.152   0.225   3.345
  348SOL    HW1 1931   1.143   0.277   3.424
  348SOL    HW2 1932   1.183   0.286   3.278
  349SOL     OW 1933   0.003   1.311   2.045
  349SOL    HW1 1934   3.909   1.328   2.047
  349SOL    HW2 1935   0.010   1.217   2.064
  350SOL     OW 1936   0.082   1.797   2.746
  350SOL    HW1 1937   0.097   1.703   2.741
  350SOL    HW2 1938   0.170   1.835   2.754
  351SOL     OW 1939   0.490   1.571   2.768
  351SOL    HW1 1940   0.558   1.633   2.794
  351SOL    HW2 1941   0.535   1.509   2.711
  352SOL     OW 1942   0.968   0.785   3.082
  352SOL    HW1 1943   1.026   0.769   3.156
  352SOL    HW2 1944   0.886   0.743   3.107
  353SOL     OW 1945   0.033   0.588   2.973
  353SOL    HW1 1946   0.082   0.522   2.923
  353SOL    HW2 1947   0.061   0.575   3.063
  354SOL     OW 1948   0.210   0.512   3.584
  354SOL    HW1 1949   0.251   0.466   3.511
  354SOL    HW2 1950   0.173   0.591   3.545
  355SOL     OW 1951   1.381   0.931   3.516
  355SOL    HW1 1952   1.402   1.025   3.512
  355SOL    HW2 1953   1.377   0.903   3.425
  356SOL     OW 1954   0.820   0.572   2.230
  356SOL    HW1 1955   0.826   0.497   2.171
  356SOL    HW2 1956   0.745   0.621   2.197
  357SOL     OW 1957   1.638   0.602   3.039
  357SOL    HW1 1958   1.629   0.541   3.113
  357SOL    HW2 1959   1.726   0.587   3.006
  358SOL     OW 1960   0.302   1.543   3.579
  358SOL    HW1 1961   0.258   1.611   3.629
  358SOL    HW2 1962   0.277   1.461   3.622
  359SOL     OW 1963   0.723   0.447   3.109
  359SOL    HW1 1964   0.668   0.372   3.088
  359SOL    HW2 1965   0.708   0.509   3.037
  360SOL     OW 1966   0.921   1.678   3.334
  360SOL    HW1 1967   0.896   1.637   3.251
  360SOL    HW2 1968   0.914   1.772   3.317
  361SOL     OW 1969   0.449   0.493   2.062
  361SOL    HW1 1970   0.513   0.562   2.080
  361SOL    HW2 1971   0.370   0.540   2.037
  362SOL     OW 1972   0.151   1.132   3.340
  362SOL    HW1 1973   0.152   1.083   3.422
  362SOL    HW2 1974   0.167   1.067   3.272
  363SOL     OW 1975   1.317   1.042   3.080
  363SOL    HW1 1976   1.337   0.979   3.011
  363SOL    HW2 1977   1.254   1.102   3.040
  364SOL     OW 1978   1.319   0.856   2.163
  364SOL    HW1 1979   1.245   0.828   2.216
  364SOL    HW2 1980   1.290   0.844   2.073
  365SOL     OW 1981   1.247   1.736   2.962
  365SOL    HW1 1982   1.332   1.759   2.924
  365SOL    HW2 1983   1.254   1.643   2.984
  366SOL     OW 1984   0.082   1.218   2.888
  366SOL    HW1 1985   0.088   1.243   2.980
  366SOL    HW2 1986   3.989   1.231   2.866
  367SOL     OW 1987   0.681   1.672   3.605
  367SOL    HW1 1988   0.619   1.744   3.592
  367SOL    HW2 1989   0.752   1.690   3.543
  368SOL     OW 1990   1.719   0.121   2.357
  368SOL    HW1 1991   1.795   0.133   2.300
  368SOL    HW2 1992   1.705   0.026   2.358
  369SOL     OW 1993   1.360   1.556   2.339
  369SOL    HW1 1994   1.419   1.589   2.271
  369SOL    HW2 1995   1.322   1.635   2.378
  370SOL     OW 1996   0.180   1.757   3.696
  370SOL    HW1 1997   0.124   1.704   3.752
  370SOL    HW2 1998   0.217   1.823   3.756
  371SOL     OW 1999   1.277   0.931   2.533
  371SOL    HW1 2000   1.351   0.872   2.547
  371SOL    HW2 2001   1.313   1.002   2.479
  372SOL     OW 2002   0.799   1.276   3.283
  372SOL    HW1 2003   0.771   1.320   3.363
  372SOL    HW2 2004   0.726   1.287   3.223
  373SOL     OW 2005   0.670   1.627   2.018
  373SOL    HW1 2006   0.682   1.640   1.924
  373SOL    HW2 2007   0.614   1.550   2.025
  374SOL     OW 2008   1.568   1.716   3.276
  374SOL    HW1 2009   1.622   1.710   3.197
  374SOL    HW2 2010   1.553   1.810   3.287
  375SOL     OW 2011   1.840   0.180   2.823
  375SOL    HW1 2012   1.872   0.122   2.754
  375SOL    HW2 2013   1.749   0.198   2.799
  376SOL     OW 2014   0.278   0.320   2.574
  376SOL    HW1 2015   0.192   0.354   2.546
  376SOL    HW2 2016   0.268   0.308   2.669
  377SOL     OW 2017   1.198   1.598   1.894
  377SOL    HW1 2018   1.189   1.507   1.922
  377SOL    HW2 2019   1.130   1.610   1.828
  378SOL     OW 2020   0.823   1.006   3.239
  378SOL    HW1 2021   0.866   0.999   3.153
  378SOL    HW2 2022   0.818   1.100   3.255
  379SOL     OW 2023   0.915   0.911   2.153
  379SOL    HW1 2024   0.975   0.945   2.087
  379SOL    HW2 2025   0.966   0.844   2.199
  380SOL     OW 2026   1.472   1.621   1.897
  380SOL    HW1 2027   1.378   1.615   1.879
  380SOL    HW2 2028   1.513   1.623   1.811
  381SOL     OW 2029   0.374   1.301   3.354
  381SOL    HW1 2030   0.358   1.382   3.306
  381SOL    HW2 2031   0.297   1.247   3.337
  382SOL     OW 2032   1.612   1.282   3.137
  382SOL    HW1 2033   1.674   1.271   3.209
  382SOL    HW2 2034   1.546   1.342   3.171
  383SOL     OW 2035   1.064   1.112   2.575
  383SOL    HW1 2036   0.991   1.062   2.611
  383SOL    HW2 2037   1.129   1.047   2.550
  384SOL     OW 2038   1.016   0.252   2.835
  384SOL    HW1 2039   1.007   0.201   2.754
  384SOL    HW2 2040   1.017   0.186   2.904
  385SOL     OW 2041   0.608   1.487   2.345
  385SOL    HW1 2042   0.657   1.438   2.278
  385SOL    HW2 2043   0.528   1.515   2.301
  386SOL     OW 2044   1.722   0.396   3.231
  386SOL    HW1 2045   1.796   0.457   3.237
  386SOL    HW2 2046   1.755   0.324   3.176
  387SOL     OW 2047   0.256   1.340   2.155
  387SOL    HW1 2048   0.162   1.340   2.139
  387SOL    HW2 2049   0.266   1.382   2.240
  388SOL     OW 2050   0.112   0.997   3.581
  388SOL    HW1 2051   0.053   0.992   3.657
  388SOL    HW2 2052   0.199   0.980   3.617
  389SOL     OW 2053   0.695   0.264   3.369
  389SOL    HW1 2054   0.762   0.210   3.327
  389SOL    HW2 2055   0.724   0.270   3.461
  390SOL     OW 2056   0.089   0.310   1.881
  390SOL    HW1 2057   3.993   0.313   1.876
  390SOL    HW2 2058   0.118   0.393   1.843
  391SOL     OW 2059   1.422   0.855   3.256
  391SOL    HW1 2060   1.372   0.916   3.202
  391SOL    HW2 2061   1.511   0.858   3.220
  392SOL     OW 2062   0.032   0.180   2.143
  392SOL    HW1 2063   0.037   0.220   2.056
  392SOL    HW2 2064   0.105   0.218   2.191
  393SOL     OW 2065   1.175   1.331   1.978
  393SOL    HW1 2066   1.084   1.302   1.977
  393SOL    HW2 2067   1.200   1.329   2.071
  394SOL     OW 2068   0.624   0.827   3.300
  394SOL    HW1 2069   0.681   0.903   3.285
  394SOL    HW2 2070   0.684   0.753   3.307
  395SOL     OW 2071   1.497   1.792   2.849
  395SOL    HW1 2072   1.516   1.868   2.794
  395SOL    HW2 2073   1.580   1.744   2.855
  396SOL     OW 2074   0.720   0.559   3.566
  396SOL    HW1 2075   0.766   0.618   3.625
  396SOL    HW2 2076   0.739   0.471   3.601
  397SOL     OW 2077   1.471   1.191   3.490
  397SOL    HW1 2078   1.461   1.207   3.583
  397SOL    HW2 2079   1.564   1.208   3.472
  398SOL     OW 2080   0.375   1.747   3.416
  398SOL    HW1 2081   0.288   1.785   3.406
  398SOL    HW2 2082   0.360   1.663   3.459
  399SOL     OW 2083   1.661   0.879   3.117
  399SOL    HW1 2084   1.659   0.794   3.073
  399SOL    HW2 2085   1.651   0.942   3.046
  400SOL     OW 2086   1.221   0.341   2.300
  400SOL    HW1 2087   1.291   0.276   2.293
  400SOL    HW2 2088   1.237   0.385   2.384
  401SOL     OW 2089   0.588   0.735   2.536
  401SOL    HW1 2090   0.626   0.821   2.521
  401SOL    HW2 2091   0.522   0.726   2.467
  402SOL     OW 2092   1.745   0.384   3.505
  402SOL    HW1 2093   1.731   0.390   3.411
  402SOL    HW2 2094   1.687   0.314   3.534
  403SOL     OW 2095   1.749   0.933   3.371
  403SOL    HW1 2096   1.732   1.026   3.385
  403SOL    HW2 2097   1.729   0.918   3.279
  404SOL     OW 2098   0.866   1.363   1.909
  404SOL    HW1 2099   0.827   1.388   1.993
  404SOL    HW2 2100   0.877   1.446   1.862
  405SOL     OW 2101   0.663   1.781   2.798
  405SOL    HW1 2102   0.645   1.873   2.781
  405SOL    HW2 2103   0.758   1.773   2.793
  406SOL     OW 2104   0.870   0.972   2.714
  406SOL    HW1 2105   0.921   0.899   2.751
  406SOL    HW2 2106   0.830   1.014   2.790
  407SOL     OW 2107   1.075   0.989   1.951
  407SOL    HW1 2108   1.054   1.041   1.874
  407SOL    HW2 2109   1.149   0.935   1.924
  408SOL     OW 2110   1.847   1.518   2.700
  408SOL    HW1 2111   1.766   1.545   2.658
  408SOL    HW2 2112   1.829   1.522   2.794
  409SOL     OW 2113   0.232   1.305   3.719
  409SOL    HW1 2114   0.154   1.258   3.690
  409SOL    HW2 2115   0.219   1.317   3.813
  410SOL     OW 2116   0.138   1.294   2.590
  410SOL    HW1 2117   0.149   1.238   2.667
  410SOL    HW2 2118   0.107   1.234   2.522
  411SOL     OW 2119   0.686   1.410   3.493
  411SOL    HW1 2120   0.607   1.367   3.526
  411SOL    HW2 2121   0.683   1.498   3.531
  412SOL     OW 2122   1.808   0.184   3.095
  412SOL    HW1 2123   1.811   0.090   3.114
  412SOL    HW2 2124   1.825   0.190   3.001
  413SOL     OW 2125   0.448   0.439   2.392
  413SOL    HW1 2126   0.481   0.363   2.345
  413SOL    HW2 2127   0.393   0.402   2.462
  414SOL     OW 2128   1.699   1.500   2.953
  414SOL    HW1 2129   1.620   1.473   2.907
  414SOL    HW2 2130   1.711   1.434   3.021
  415SOL     OW 2131   0.337   0.562   3.156
  415SOL    HW1 2132   0.392   0.505   3.210
  415SOL    HW2 2133   0.352   0.532   3.067
  416SOL     OW 2134   0.832   1.582   2.535
  416SOL    HW1 2135   0.813   1.652   2.472
  416SOL    HW2 2136   0.756   1.524   2.530
  417SOL     OW 2137   1.458   0.258   2.972
  417SOL    HW1 2138   1.479   0.172   3.009
  417SOL    HW2 2139   1.403   0.300   3.039
  418SOL     OW 2140   0.998   0.023   3.006
  418SOL    HW1 2141   0.915   0.011   2.961
  418SOL    HW2 2142   1.035   3.935   3.013
  419SOL     OW 2143   0.774   1.333   2.182
  419SOL    HW1 2144   0.749   1.241   2.192
  419SOL    HW2 2145   0.854   1.342   2.234
  420SOL     OW 2146   0.621   1.560   3.150
  420SOL    HW1 2147   0.621   1.643   3.198
  420SOL    HW2 2148   0.709   1.553   3.114
  421SOL     OW 2149   1.304   0.072   2.031
  421SOL    HW1 2150   1.312   3.982   1.999
  421SOL    HW2 2151   1.225   0.070   2.086
  422SOL     OW 2152   1.275   0.456   2.544
  422SOL    HW1 2153   1.231   0.540   2.538
  422SOL    HW2 2154   1.279   0.438   2.638
  423SOL     OW 2155   1.585   0.209   2.731
  423SOL    HW1 2156   1.535   0.235   2.808
  423SOL    HW2 2157   1.588   0.287   2.676
  424SOL     OW 2158   0.047   1.043   2.110
  424SOL    HW1 2159   0.141   1.029   2.103
  424SOL    HW2 2160   0.010   0.955   2.123
  425SOL     OW 2161   0.891   1.663   2.198
  425SOL    HW1 2162   0.815   1.648   2.142
  425SOL    HW2 2163   0.864   1.734   2.256
  426SOL     OW 2164   0.231   0.633   3.838
  426SOL    HW1 2165   0.138   0.637   3.858
  426SOL    HW2 2166   0.235   0.601   3.748
  427SOL     OW 2167   0.223   0.292   4.705
  427SOL    HW1 2168   0.245   0.252   4.789
  427SOL    HW2 2169   0.127   0.285   4.700
  428SOL     OW 2170   0.020   0.383   4.361
  428SOL    HW1 2171   3.928   0.401   4.381
  428SOL    HW2 2172   0.023   0.289   4.347
  429SOL     OW 2173   0.586   1.297   4.929
  429SOL    HW1 2174   0.501   1.296   4.887
  429SOL    HW2 2175   0.599   1.388   4.958
  430SOL     OW 2176   1.549   1.505   4.430
  430SOL    HW1 2177   1.522   1.482   4.519
  430SOL    HW2 2178   1.470   1.493   4.377
  431SOL     OW 2179   1.134   0.700   4.415
  431SOL    HW1 2180   1.182   0.783   4.405
  431SOL    HW2 2181   1.086   0.711   4.497
  432SOL     OW 2182   1.785   0.618   3.943
  432SOL    HW1 2183   1.754   0.610   3.852
  432SOL    HW2 2184   1.756   0.537   3.985
  433SOL     OW 2185   0.744   1.134   4.772
  433SOL    HW1 2186   0.686   1.173   4.838
  433SOL    HW2 2187   0.782   1.210   4.727
  434SOL     OW 2188   0.878   0.762   5.551
  434SOL    HW1 2189   0.866   0.833   5.614
  434SOL    HW2 2190   0.898   0.806   5.468
  435SOL     OW 2191   0.684   0.998   4.368
  435SOL    HW1 2192   0.752   0.990   4.436
  435SOL    HW2 2193   0.616   1.052   4.408
  436SOL     OW 2194   0.716   1.149   5.548
  436SOL    HW1 2195   0.764   1.226   5.579
  436SOL    HW2 2196   0.637   1.186   5.507
  437SOL     OW 2197   0.354   1.396   4.804
  437SOL    HW1 2198   0.273   1.370   4.759
  437SOL    HW2 2199   0.397   1.455   4.742
  438SOL     OW 2200   1.446   1.482   5.091
  438SOL    HW1 2201   1.491   1.566   5.103
  438SOL    HW2 2202   1.373   1.485   5.153
  439SOL     OW 2203   0.461   0.410   5.212
  439SOL    HW1 2204   0.544   0.363   5.216
  439SOL    HW2 2205   0.394   0.341   5.220
  440SOL     OW 2206   1.611   0.451   4.461
  440SOL    HW1 2207   1.549   0.483   4.395
  440SOL    HW2 2208   1.616   0.521   4.526
  441SOL     OW 2209   0.218   1.723   4.178
  441SOL    HW1 2210   0.241   1.795   4.237
  441SOL    HW2 2211   0.293   1.714   4.120
  442SOL     OW 2212   1.135   1.342   5.415
  442SOL    HW1 2213   1.179   1.335   5.500
  442SOL    HW2 2214   1.084   1.261   5.408
  443SOL     OW 2215   0.258   1.456   4.258
  443SOL    HW1 2216   0.221   1.543   4.246
  443SOL    HW2 2217   0.195   1.410   4.314
  444SOL     OW 2218   0.250   1.063   4.606
  444SOL    HW1 2219   0.271   0.977   4.644
  444SOL    HW2 2220   0.197   1.106   4.673
  445SOL     OW 2221   0.605   1.797   5.144
  445SOL    HW1 2222   0.522   1.779   5.190
  445SOL    HW2 2223   0.630   1.885   5.174
  446SOL     OW 2224   0.572   0.989   3.866
  446SOL    HW1 2225   0.623   1.031   3.797
  446SOL    HW2 2226   0.612   1.019   3.948
  447SOL     OW 2227   1.588   0.143   5.178
  447SOL    HW1 2228   1.620   0.216   5.125
  447SOL    HW2 2229   1.546   0.186   5.253
  448SOL     OW 2230   0.144   0.655   4.293
  448SOL    HW1 2231   0.101   0.569   4.298
  448SOL    HW2 2232   0.105   0.705   4.364
  449SOL     OW 2233   0.043   1.584   3.857
  449SOL    HW1 2234   0.044   1.495   3.892
  449SOL    HW2 2235   3.953   1.615   3.872
  450SOL     OW 2236   1.686   0.916   4.367
  450SOL    HW1 2237   1.772   0.878   4.350
  450SOL    HW2 2238   1.668   0.971   4.291
  451SOL     OW 2239   1.653   1.105   4.155
  451SOL    HW1 2240   1.739   1.104   4.115
  451SOL    HW2 2241   1.660   1.166   4.228
  452SOL     OW 2242   0.150   0.754   5.314
  452SOL    HW1 2243   0.245   0.753   5.306
  452SOL    HW2 2244   0.130   0.839   5.353
  453SOL     OW 2245   0.612   1.389   4.462
  453SOL    HW1 2246   0.568   1.305   4.469
  453SOL    HW2 2247   0.599   1.416   4.371
  454SOL     OW 2248   1.278   1.229   5.148
  454SOL    HW1 2249   1.309   1.163   5.086
  454SOL    HW2 2250   1.340   1.225   5.221
  455SOL     OW 2251   0.826   0.008   4.243
  455SOL    HW1 2252   0.870   0.088   4.216
  455SOL    HW2 2253   0.732   0.030   4.240
  456SOL     OW 2254   0.183   0.946   5.007
  456SOL    HW1 2255   0.271   0.912   4.996
  456SOL    HW2 2256   0.132   0.906   4.936
  457SOL     OW 2257   1.533   1.001   3.926
  457SOL    HW1 2258   1.464   0.944   3.959
  457SOL    HW2 2259   1.576   1.035   4.005
  458SOL     OW 2260   1.177   1.812   5.349
  458SOL    HW1 2261   1.187   1.875   5.278
  458SOL    HW2 2262   1.200   1.728   5.309
  459SOL     OW 2263   0.350   0.240   5.589
  459SOL    HW1 2264   0.394   0.324   5.572
  459SOL    HW2 2265   0.258   0.264   5.599
  460SOL     OW 2266   1.470   1.418   4.677
  460SOL    HW1 2267   1.402   1.435   4.742
  460SOL    HW2 2268   1.457   1.326   4.652
  461SOL     OW 2269   1.573   1.727   4.265
  461SOL    HW1 2270   1.578   1.682   4.180
  461SOL    HW2 2271   1.577   1.657   4.330
  462SOL     OW 2272   0.596   0.714   3.995
  462SOL    HW1 2273   0.601   0.800   3.952
  462SOL    HW2 2274   0.532   0.726   4.066
  463SOL     OW 2275   1.274   0.377   4.666
  463SOL    HW1 2276   1.187   0.338   4.674
  463SOL    HW2 2277   1.332   0.317   4.713
  464SOL     OW 2278   1.559   1.645   4.010
  464SOL    HW1 2279   1.641   1.686   3.985
  464SOL    HW2 2280   1.515   1.626   3.927
  465SOL     OW 2281   0.794   0.613   5.174
  465SOL    HW1 2282   0.766   0.586   5.261
  465SOL    HW2 2283   0.761   0.545   5.115
  466SOL     OW 2284   1.393   0.474   5.401
  466SOL    HW1 2285   1.401   0.521   5.484
  466SOL    HW2 2286   1.448   0.397   5.412
  467SOL     OW 2287   0.948   0.885   5.312
  467SOL    HW1 2288   1.003   0.818   5.272
  467SOL    HW2 2289   0.899   0.923   5.239
  468SOL     OW 2290   0.998   0.401   4.954
  468SOL    HW1 2291   0.910   0.417   4.987
  468SOL    HW2 2292   0.985   0.375   4.863
  469SOL     OW 2293   1.054   0.702   4.147
  469SOL    HW1 2294   1.074   0.696   4.241
  469SOL    HW2 2295   0.971   0.656   4.137
  470SOL     OW 2296   0.083   0.834   4.512
  470SOL    HW1 2297   0.150   0.796   4.570
  470SOL    HW2 2298   0.112   0.923   4.497
  471SOL     OW 2299   0.130   1.870   5.310
  471SOL    HW1 2300   0.139   1.832   5.397
  471SOL    HW2 2301   0.037   1.862   5.289
  472SOL     OW 2302   0.894   0.352   3.924
  472SOL    HW1 2303   0.937   0.413   3.864
  472SOL    HW2 2304   0.889   0.270   3.875
  473SOL     OW 2305   1.698   0.573   5.553
  473SOL    HW1 2306   1.665   0.647   5.503
  473SOL    HW2 2307   1.725   0.509   5.486
  474SOL     OW 2308   1.382   1.140   4.261
  474SOL    HW1 2309   1.463   1.134   4.211
  474SOL    HW2 2310   1.327   1.199   4.210
  475SOL     OW 2311   0.565   0.195   4.603
  475SOL    HW1 2312   0.569   0.221   4.695
  475SOL    HW2 2313   0.548   0.277   4.556
  476SOL     OW 2314   0.990   1.439   4.190
  476SOL    HW1 2315   0.967   1.518   4.140
  476SOL    HW2 2316   0.973   1.463   4.281
  477SOL     OW 2317   0.362   1.832   4.601
  477SOL    HW1 2318   0.419   1.756   4.612
  477SOL    HW2 2319   0.419   1.908   4.615
  478SOL     OW 2320   1.801   1.041   4.602
  478SOL    HW1 2321   1.749   1.036   4.522
  478SOL    HW2 2322   1.737   1.052   4.672
  479SOL     OW 2323   1.218   1.537   5.237
  479SOL    HW1 2324   1.205   1.466   5.300
  479SOL    HW2 2325   1.148   1.526   5.173
  480SOL     OW 2326   0.310   0.949   3.967
  480SOL    HW1 2327   0.392   0.970   3.924
  480SOL    HW2 2328   0.298   0.855   3.952
  481SOL     OW 2329   1.480   0.754   4.450
  481SOL    HW1 2330   1.480   0.715   4.538
  481SOL    HW2 2331   1.558   0.810   4.449
  482SOL     OW 2332   0.474   1.263   5.462
  482SOL    HW1 2333   0.449   1.269   5.370
  482SOL    HW2 2334   0.391   1.262   5.510
  483SOL     OW 2335   1.125   1.777   3.951
  483SOL    HW1 2336   1.049   1.740   3.995
  483SOL    HW2 2337   1.146   1.714   3.883
  484SOL     OW 2338   0.203   0.291   5.228
  484SOL    HW1 2339   0.109   0.308   5.228
  484SOL    HW2 2340   0.213   0.207   5.274
  485SOL     OW 2341   1.628   1.384   3.808
  485SOL    HW1 2342   1.581   1.465   3.789
  485SOL    HW2 2343   1.564   1.315   3.791
  486SOL     OW 2344   0.465   1.739   4.038
  486SOL    HW1 2345   0.510   1.794   4.102
  486SOL    HW2 2346   0.535   1.700   3.986
  487SOL     OW 2347   1.448   0.178   4.133
  487SOL    HW1 2348   1.391   0.109   4.100
  487SOL    HW2 2349   1.514   0.133   4.186
  488SOL     OW 2350   0.259   1.791   4.952
  488SOL    HW1 2351   0.298   1.719   5.001
  488SOL    HW2 2352   0.254   1.758   4.862
  489SOL     OW 2353   0.941   1.700   4.619
  489SOL    HW1 2354   1.021   1.652   4.640
  489SOL    HW2 2355   0.900   1.649   4.549
  490SOL     OW 2356   0.400   0.695   4.193
  490SOL    HW1 2357   0.424   0.603   4.210
  490SOL    HW2 2358   0.308   0.700   4.219
  491SOL     OW 2359   1.528   0.224   5.449
  491SOL    HW1 2360   1.519   0.248   5.541
  491SOL    HW2 2361   1.519   0.129   5.447
  492SOL     OW 2362   0.648   0.124   3.829
  492SOL    HW1 2363   0.667   0.037   3.866
  492SOL    HW2 2364   0.588   0.107   3.757
  493SOL     OW 2365   0.771   0.289   5.500
  493SOL    HW1 2366   0.853   0.240   5.498
  493SOL    HW2 2367   0.720   0.248   5.570
  494SOL     OW 2368   0.875   1.523   4.919
  494SOL    HW1 2369   0.857   1.484   4.833
  494SOL    HW2 2370   0.943   1.468   4.957
  495SOL     OW 2371   1.336   0.588   5.156
  495SOL    HW1 2372   1.368   0.559   5.241
  495SOL    HW2 2373   1.372   0.676   5.146
  496SOL     OW 2374   0.818   1.386   4.671
  496SOL    HW1 2375   0.904   1.376   4.630
  496SOL    HW2 2376   0.757   1.395   4.598
  497SOL     OW 2377   0.931   0.514   4.620
  497SOL    HW1 2378   0.906   0.504   4.528
  497SOL    HW2 2379   0.955   0.425   4.648
  498SOL     OW 2380   0.549   0.054   4.212
  498SOL    HW1 2381   0.476   0.061   4.274
  498SOL    HW2 2382   0.548   0.137   4.164
  499SOL     OW 2383   1.429   1.200   3.763
  499SOL    HW1 2384   1.458   1.125   3.815
  499SOL    HW2 2385   1.343   1.222   3.799
  500SOL     OW 2386   0.360   0.027   3.926
  500SOL    HW1 2387   0.352   0.091   3.856
  500SOL    HW2 2388   0.449   0.037   3.959
  501SOL     OW 2389   0.948   0.253   4.180
  501SOL    HW1 2390   0.921   0.290   4.096
  501SOL    HW2 2391   1.043   0.261   4.181
  502SOL     OW 2392   1.078   0.688   5.179
  502SOL    HW1 2393   1.011   0.620   5.185
  502SOL    HW2 2394   1.161   0.640   5.175
  503SOL     OW 2395   1.219   1.572   4.520
  503SOL    HW1 2396   1.229   1.638   4.451
  503SOL    HW2 2397   1.288   1.592   4.583
  504SOL     OW 2398   0.467   1.152   4.453
  504SOL    HW1 2399   0.398   1.125   4.513
  504SOL    HW2 2400   0.429   1.137   4.366
  505SOL     OW 2401   1.251   1.787   4.340
  505SOL    HW1 2402   1.305   1.848   4.289
  505SOL    HW2 2403   1.186   1.842   4.382
  506SOL     OW 2404   1.021   0.535   3.757
  506SOL    HW1 2405   0.978   0.619   3.737
  506SOL    HW2 2406   1.085   0.557   3.825
  507SOL     OW 2407   0.084   0.579   5.115
  507SOL    HW1 2408   0.173   0.560   5.085
  507SOL    HW2 2409   0.094   0.648   5.180
  508SOL     OW 2410   0.571   0.230   4.882
  508SOL    HW1 2411   0.591   0.137   4.891
  508SOL    HW2 2412   0.480   0.239   4.911
  509SOL     OW 2413   0.871   0.460   4.360
  509SOL    HW1 2414   0.823   0.515   4.297
  509SOL    HW2 2415   0.893   0.381   4.311
  510SOL     OW 2416   0.998   0.035   4.508
  510SOL    HW1 2417   0.954   0.068   4.430
  510SOL    HW2 2418   1.011   3.941   4.491
  511SOL     OW 2419   1.443   1.160   4.583
  511SOL    HW1 2420   1.370   1.098   4.577
  511SOL    HW2 2421   1.473   1.169   4.492
  512SOL     OW 2422   1.464   0.611   4.691
  512SOL    HW1 2423   1.406   0.535   4.696
  512SOL    HW2 2424   1.521   0.603   4.767
  513SOL     OW 2425   1.839   0.816   4.116
  513SOL    HW1 2426   1.898   0.767   4.172
  513SOL    HW2 2427   1.817   0.756   4.045
  514SOL     OW 2428   0.487   1.425   3.881
  514SOL    HW1 2429   0.411   1.395   3.930
  514SOL    HW2 2430   0.479   1.383   3.795
  515SOL     OW 2431   1.678   1.259   4.373
  515SOL    HW1 2432   1.773   1.255   4.387
  515SOL    HW2 2433   1.654   1.349   4.395
  516SOL     OW 2434   1.395   0.580   3.791
  516SOL    HW1 2435   1.332   0.559   3.860
  516SOL    HW2 2436   1.481   0.563   3.830
  517SOL     OW 2437   0.553   0.269   4.040
  517SOL    HW1 2438   0.606   0.229   3.971
  517SOL    HW2 2439   0.525   0.353   4.004
  518SOL     OW 2440   1.743   1.233   5.284
  518SOL    HW1 2441   1.831   1.196   5.276
  518SOL    HW2 2442   1.757   1.323   5.314
  519SOL     OW 2443   1.050   1.352   5.056
  519SOL    HW1 2444   0.974   1.320   5.105
  519SOL    HW2 2445   1.125   1.309   5.098
  520SOL     OW 2446   1.601   1.614   5.387
  520SOL    HW1 2447   1.584   1.647   5.299
  520SOL    HW2 2448   1.683   1.565   5.378
  521SOL     OW 2449   1.138   1.216   4.826
  521SOL    HW1 2450   1.075   1.250   4.889
  521SOL    HW2 2451   1.108   1.249   4.741
  522SOL     OW 2452   1.619   1.092   4.799
  522SOL    HW1 2453   1.613   1.157   4.869
  522SOL    HW2 2454   1.547   1.113   4.740
  523SOL     OW 2455   0.911   0.123   5.124
  523SOL    HW1 2456   0.931   0.090   5.036
  523SOL    HW2 2457   0.993   0.163   5.154
  524SOL     OW 2458   0.984   1.115   5.448
  524SOL    HW1 2459   0.892   1.131   5.473
  524SOL    HW2 2460   0.981   1.036   5.394
  525SOL     OW 2461   0.708   1.063   4.095
  525SOL    HW1 2462   0.695   1.043   4.188
  525SOL    HW2 2463   0.784   1.009   4.070
  526SOL     OW 2464   0.425   0.821   4.979
  526SOL    HW1 2465   0.494   0.827   5.046
  526SOL    HW2 2466   0.391   0.732   4.988
  527SOL     OW 2467   1.266   0.374   5.005
  527SOL    HW1 2468   1.298   0.453   5.048
  527SOL    HW2 2469   1.177   0.397   4.975
  528SOL     OW 2470   0.064   1.578   5.065
  528SOL    HW1 2471   0.067   1.600   4.972
  528SOL    HW2 2472   0.155   1.576   5.092
  529SOL     OW 2473   0.359   1.105   4.202
  529SOL    HW1 2474   0.356   1.185   4.150
  529SOL    HW2 2475   0.359   1.034   4.138
  530SOL     OW 2476   0.554   0.526   4.578
  530SOL    HW1 2477   0.565   0.586   4.505
  530SOL    HW2 2478   0.619   0.553   4.642
  531SOL     OW 2479   1.233   1.333   4.111
  531SOL    HW1 2480   1.286   1.408   4.141
  531SOL    HW2 2481   1.145   1.352   4.144
  532SOL     OW 2482   1.286   1.463   4.871
  532SOL    HW1 2483   1.340   1.464   4.950
  532SOL    HW2 2484   1.232   1.385   4.880
  533SOL     OW 2485   1.570   0.637   4.215
  533SOL    HW1 2486   1.524   0.685   4.284
  533SOL    HW2 2487   1.618   0.704   4.168
  534SOL     OW 2488   0.345   1.529   5.040
  534SOL    HW1 2489   0.337   1.476   4.961
  534SOL    HW2 2490   0.439   1.544   5.049
  535SOL     OW 2491   0.425   0.734   5.326
  535SOL    HW1 2492   0.489   0.778   5.270
  535SOL    HW2 2493   0.458   0.645   5.336
  536SOL     OW 2494   1.608   0.783   5.411
  536SOL    HW1 2495   1.523   0.826   5.404
  536SOL    HW2 2496   1.661   0.824   5.342
  537SOL     OW 2497   1.001   0.148   5.508
  537SOL    HW1 2498   1.065   0.213   5.477
  537SOL    HW2 2499   0.995   0.085   5.436
  538SOL     OW 2500   0.491   0.037   5.485
  538SOL    HW1 2501   0.489   0.054   5.391
  538SOL    HW2 2502   0.426   0.098   5.521
  539SOL     OW 2503   0.587   0.877   4.757
  539SOL    HW1 2504   0.622   0.966   4.761
  539SOL    HW2 2505   0.530   0.870   4.834
  540SOL     OW 2506   1.341   0.857   4.743
  540SOL    HW1 2507   1.254   0.840   4.706
  540SOL    HW2 2508   1.388   0.775   4.733
  541SOL     OW 2509   1.196   0.541   3.976
  541SOL    HW1 2510   1.205   0.461   4.030
  541SOL    HW2 2511   1.154   0.604   4.034
  542SOL     OW 2512   0.309   0.211   4.960
  542SOL    HW1 2513   0.265   0.248   5.036
  542SOL    HW2 2514   0.296   0.116   4.969
  543SOL     OW 2515   0.068   1.305   5.005
  543SOL    HW1 2516   0.095   1.259   5.084
  543SOL    HW2 2517   0.056   1.396   5.032
  544SOL     OW 2518   0.721   0.632   4.771
  544SOL    HW1 2519   0.797   0.622   4.714
  544SOL    HW2 2520   0.690   0.721   4.754
  545SOL     OW 2521   1.746   0.958   5.579
  545SOL    HW1 2522   1.698   0.891   5.530
  545SOL    HW2 2523   1.689   0.980   5.652
  546SOL     OW 2524   0.339   0.052   4.389
  546SOL    HW1 2525   0.308   0.143   4.390
  546SOL    HW2 2526   0.306   0.015   4.471
  547SOL     OW 2527   1.612   0.400   4.097
  547SOL    HW1 2528   1.561   0.332   4.142
  547SOL    HW2 2529   1.591   0.480   4.145
  548SOL     OW 2530   1.032   0.760   4.680
  548SOL    HW1 2531   1.020   0.776   4.774
  548SOL    HW2 2532   1.004   0.669   4.668
  549SOL     OW 2533   0.976   1.564   5.445
  549SOL    HW1 2534   0.962   1.609   5.361
  549SOL    HW2 2535   1.021   1.483   5.421
  550SOL     OW 2536   1.846   1.489   5.324
  550SOL    HW1 2537   1.882   1.509   5.238
  550SOL    HW2 2538   1.917   1.507   5.385
  551SOL     OW 2539   0.359   0.923   5.520
  551SOL    HW1 2540   0.435   0.943   5.574
  551SOL    HW2 2541   0.389   0.854   5.461
  552SOL     OW 2542   1.498   0.269   3.854
  552SOL    HW1 2543   1.427   0.205   3.866
  552SOL    HW2 2544   1.510   0.309   3.940
  553SOL     OW 2545   1.284   0.827   3.749
  553SOL    HW1 2546   1.326   0.741   3.754
  553SOL    HW2 2547   1.316   0.866   3.668
  554SOL     OW 2548   1.070   1.341   4.583
  554SOL    HW1 2549   1.076   1.269   4.520
  554SOL    HW2 2550   1.127   1.409   4.547
  555SOL     OW 2551   0.314   0.800   4.674
  555SOL    HW1 2552   0.408   0.816   4.669
  555SOL    HW2 2553   0.306   0.711   4.706
  556SOL     OW 2554   0.342   0.529   4.742
  556SOL    HW1 2555   0.297   0.446   4.724
  556SOL    HW2 2556   0.416   0.529   4.681
  557SOL     OW 2557   1.135   0.378   5.426
  557SOL    HW1 2558   1.087   0.432   5.488
  557SOL    HW2 2559   1.222   0.419   5.420
  558SOL     OW 2560   1.152   0.224   5.207
  558SOL    HW1 2561   1.143   0.277   5.286
  558SOL    HW2 2562   1.183   0.286   5.141
  559SOL     OW 2563   0.003   1.311   3.907
  559SOL    HW1 2564   3.909   1.328   3.909
  559SOL    HW2 2565   0.010   1.217   3.926
  560SOL     OW 2566   0.082   1.797   4.608
  560SOL    HW1 2567   0.097   1.703   4.602
  560SOL    HW2 2568   0.170   1.835   4.616
  561SOL     OW 2569   0.490   1.571   4.630
  561SOL    HW1 2570   0.558   1.633   4.656
  561SOL    HW2 2571   0.535   1.509   4.573
  562SOL     OW 2572   0.968   0.785   4.944
  562SOL    HW1 2573   1.027   0.769   5.018
  562SOL    HW2 2574   0.886   0.743   4.969
  563SOL     OW 2575   0.033   0.588   4.835
  563SOL    HW1 2576   0.082   0.522   4.785
  563SOL    HW2 2577   0.061   0.574   4.925
  564SOL     OW 2578   0.210   0.512   5.446
  564SOL    HW1 2579   0.251   0.466   5.373
  564SOL    HW2 2580   0.173   0.591   5.407
  565SOL     OW 2581   1.381   0.933   5.379
  565SOL    HW1 2582   1.403   1.026   5.375
  565SOL    HW2 2583   1.375   0.905   5.288
  566SOL     OW 2584   0.820   0.572   4.092
  566SOL    HW1 2585   0.826   0.497   4.033
  566SOL    HW2 2586   0.745   0.621   4.059
  567SOL     OW 2587   1.638   0.602   4.901
  567SOL    HW1 2588   1.629   0.541   4.975
  567SOL    HW2 2589   1.726   0.587   4.868
  568SOL     OW 2590   0.302   1.542   5.441
  568SOL    HW1 2591   0.258   1.611   5.491
  568SOL    HW2 2592   0.277   1.461   5.484
  569SOL     OW 2593   0.723   0.447   4.971
  569SOL    HW1 2594   0.668   0.372   4.950
  569SOL    HW2 2595   0.708   0.509   4.899
  570SOL     OW 2596   0.919   1.677   5.195
  570SOL    HW1 2597   0.894   1.638   5.111
  570SOL    HW2 2598   0.915   1.772   5.180
  571SOL     OW 2599   0.449   0.493   3.924
  571SOL    HW1 2600   0.513   0.562   3.942
  571SOL    HW2 2601   0.370   0.540   3.899
  572SOL     OW 2602   0.151   1.133   5.202
  572SOL    HW1 2603   0.152   1.083   5.284
  572SOL    HW2 2604   0.167   1.067   5.134
  573SOL     OW 2605   1.317   1.042   4.942
  573SOL    HW1 2606   1.338   0.979   4.873
  573SOL    HW2 2607   1.254   1.101   4.902
  574SOL     OW 2608   1.319   0.856   4.025
  574SOL    HW1 2609   1.245   0.828   4.078
  574SOL    HW2 2610   1.290   0.844   3.935
  575SOL     OW 2611   1.246   1.736   4.823
  575SOL    HW1 2612   1.331   1.759   4.786
  575SOL    HW2 2613   1.254   1.643   4.845
  576SOL     OW 2614   0.082   1.218   4.750
  576SOL    HW1 2615   0.088   1.242   4.843
  576SOL    HW2 2616   3.989   1.230   4.728
  577SOL     OW 2617   0.681   1.671   5.466
  577SOL    HW1 2618   0.620   1.744   5.454
  577SOL    HW2 2619   0.753   1.690   5.406
  578SOL     OW 2620   1.719   0.121   4.219
  578SOL    HW1 2621   1.795   0.133   4.162
  578SOL    HW2 2622   1.705   0.026   4.220
  579SOL     OW 2623   1.356   1.555   4.199
  579SOL    HW1 2624   1.417   1.588   4.133
  579SOL    HW2 2625   1.320   1.634   4.239
  580SOL     OW 2626   0.180   1.757   5.558
  580SOL    HW1 2627   0.124   1.704   5.614
  580SOL    HW2 2628   0.218   1.822   5.617
  581SOL     OW 2629   1.277   0.931   4.395
  581SOL    HW1 2630   1.351   0.872   4.409
  581SOL    HW2 2631   1.313   1.001   4.341
  582SOL     OW 2632   0.799   1.276   5.146
  582SOL    HW1 2633   0.772   1.320   5.227
  582SOL    HW2 2634   0.726   1.288   5.086
  583SOL     OW 2635   0.670   1.627   3.880
  583SOL    HW1 2636   0.682   1.640   3.786
  583SOL    HW2 2637   0.614   1.550   3.886
  584SOL     OW 2638   1.570   1.718   5.131
  584SOL    HW1 2639   1.627   1.713   5.055
  584SOL    HW2 2640   1.553   1.811   5.142
  585SOL     OW 2641   1.840   0.180   4.685
  585SOL    HW1 2642   1.872   0.122   4.616
  585SOL    HW2 2643   1.749   0.198   4.661
  586SOL     OW 2644   0.278   0.320   4.436
  586SOL    HW1 2645   0.192   0.353   4.408
  586SOL    HW2 2646   0.268   0.308   4.531
  587SOL     OW 2647   1.198   1.598   3.756
  587SOL    HW1 2648   1.189   1.507   3.784
  587SOL    HW2 2649   1.130   1.610   3.690
  588SOL     OW 2650   0.823   1.006   5.101
  588SOL    HW1 2651   0.865   0.999   5.015
  588SOL    HW2 2652   0.818   1.100   5.117
  589SOL     OW 2653   0.915   0.911   4.015
  589SOL    HW1 2654   0.975   0.944   3.949
  589SOL    HW2 2655   0.966   0.844   4.062
  590SOL     OW 2656   1.472   1.620   3.759
  590SOL    HW1 2657   1.378   1.615   3.741
  590SOL    HW2 2658   1.513   1.623   3.672
  591SOL     OW 2659   0.374   1.301   5.216
  591SOL    HW1 2660   0.358   1.382   5.168
  591SOL    HW2 2661   0.297   1.247   5.199
  592SOL     OW 2662   1.611   1.282   5.000
  592SOL    HW1 2663   1.674   1.272   5.072
  592SOL    HW2 2664   1.546   1.343   5.033
  593SOL     OW 2665   1.064   1.113   4.437
  593SOL    HW1 2666   0.991   1.062   4.473
  593SOL    HW2 2667   1.129   1.047   4.412
  594SOL     OW 2668   1.016   0.252   4.697
  594SOL    HW1 2669   1.007   0.201   4.616
  594SOL    HW2 2670   1.017   0.186   4.766
  595SOL     OW 2671   0.608   1.486   4.207
  595SOL    HW1 2672   0.657   1.438   4.140
  595SOL    HW2 2673   0.529   1.515   4.163
  596SOL     OW 2674   1.723   0.396   5.093
  596SOL    HW1 2675   1.796   0.457   5.099
  596SOL    HW2 2676   1.755   0.325   5.038
  597SOL     OW 2677   0.256   1.340   4.017
  597SOL    HW1 2678   0.162   1.340   4.001
  597SOL    HW2 2679   0.266   1.382   4.102
  598SOL     OW 2680   0.112   0.997   5.443
  598SOL    HW1 2681   0.053   0.992   5.519
  598SOL    HW2 2682   0.199   0.980   5.479
  599SOL     OW 2683   0.695   0.263   5.232
  599SOL    HW1 2684   0.762   0.210   5.189
  599SOL    HW2 2685   0.724   0.270   5.323
  600SOL     OW 2686   0.089   0.310   3.743
  600SOL    HW1 2687   3.993   0.313   3.738
  600SOL    HW2 2688   0.118   0.393   3.705
  601SOL     OW 2689   1.422   0.855   5.119
  601SOL    HW1 2690   1.372   0.916   5.065
  601SOL    HW2 2691   1.510   0.858   5.083
  602SOL     OW 2692   0.032   0.180   4.005
  602SOL    HW1 2693   0.037   0.220   3.918
  602SOL    HW2 2694   0.105   0.218   4.053
  603SOL     OW 2695   1.175   1.331   3.840
  603SOL    HW1 2696   1.083   1.302   3.839
  603SOL    HW2 2697   1.199   1.328   3.932
  604SOL     OW 2698   0.624   0.827   5.162
  604SOL    HW1 2699   0.681   0.903   5.147
  604SOL    HW2 2700   0.684   0.753   5.169
  605SOL     OW 2701   1.496   1.791   4.710
  605SOL    HW1 2702   1.516   1.868   4.655
  605SOL    HW2 2703   1.579   1.743   4.713
  606SOL     OW 2704   0.720   0.558   5.428
  606SOL    HW1 2705   0.766   0.618   5.487
  606SOL    HW2 2706   0.739   0.471   5.463
  607SOL     OW 2707   1.473   1.192   5.354
  607SOL    HW1 2708   1.465   1.214   5.446
  607SOL    HW2 2709   1.564   1.209   5.332
  608SOL     OW 2710   0.375   1.746   5.278
  608SOL    HW1 2711   0.288   1.785   5.268
  608SOL    HW2 2712   0.359   1.663   5.321
  609SOL     OW 2713   1.661   0.879   4.980
  609SOL    HW1 2714   1.659   0.794   4.936
  609SOL    HW2 2715   1.651   0.943   4.909
  610SOL     OW 2716   1.221   0.341   4.162
  610SOL    HW1 2717   1.291   0.276   4.155
  610SOL    HW2 2718   1.237   0.385   4.246
  611SOL     OW 2719   0.588   0.735   4.398
  611SOL    HW1 2720   0.626   0.821   4.383
  611SOL    HW2 2721   0.522   0.726   4.329
  612SOL     OW 2722   1.746   0.383   5.367
  612SOL    HW1 2723   1.731   0.390   5.273
  612SOL    HW2 2724   1.688   0.313   5.396
  613SOL     OW 2725   1.752   0.933   5.234
  613SOL    HW1 2726   1.734   1.026   5.248
  613SOL    HW2 2727   1.731   0.918   5.141
  614SOL     OW 2728   0.866   1.363   3.771
  614SOL    HW1 2729   0.827   1.388   3.855
  614SOL    HW2 2730   0.877   1.446   3.724
  615SOL     OW 2731   0.663   1.780   4.660
  615SOL    HW1 2732   0.645   1.873   4.643
  615SOL    HW2 2733   0.758   1.773   4.656
  616SOL     OW 2734   0.870   0.972   4.576
  616SOL    HW1 2735   0.921   0.899   4.613
  616SOL    HW2 2736   0.830   1.014   4.652
  617SOL     OW 2737   1.075   0.989   3.813
  617SOL    HW1 2738   1.054   1.041   3.736
  617SOL    HW2 2739   1.149   0.934   3.786
  618SOL     OW 2740   1.848   1.515   4.560
  618SOL    HW1 2741   1.770   1.552   4.519
  618SOL    HW2 2742   1.830   1.519   4.654
  619SOL     OW 2743   0.232   1.304   5.581
  619SOL    HW1 2744   0.154   1.258   5.551
  619SOL    HW2 2745   0.218   1.317   5.675
  620SOL     OW 2746   0.137   1.293   4.452
  620SOL    HW1 2747   0.150   1.237   4.529
  620SOL    HW2 2748   0.107   1.234   4.384
  621SOL     OW 2749   0.687   1.408   5.359
  621SOL    HW1 2750   0.606   1.367   5.390
  621SOL    HW2 2751   0.684   1.497   5.393
  622SOL     OW 2752   1.808   0.184   4.957
  622SOL    HW1 2753   1.811   0.090   4.976
  622SOL    HW2 2754   1.825   0.190   4.863
  623SOL     OW 2755   0.448   0.439   4.254
  623SOL    HW1 2756   0.481   0.363   4.207
  623SOL    HW2 2757   0.393   0.402   4.324
  624SOL     OW 2758   1.701   1.501   4.814
  624SOL    HW1 2759   1.621   1.473   4.769
  624SOL    HW2 2760   1.713   1.435   4.883
  625SOL     OW 2761   0.337   0.562   5.018
  625SOL    HW1 2762   0.392   0.505   5.072
  625SOL    HW2 2763   0.352   0.532   4.929
  626SOL     OW 2764   0.832   1.582   4.398
  626SOL    HW1 2765   0.814   1.652   4.334
  626SOL    HW2 2766   0.756   1.524   4.391
  627SOL     OW 2767   1.458   0.258   4.834
  627SOL    HW1 2768   1.479   0.172   4.871
  627SOL    HW2 2769   1.403   0.299   4.901
  628SOL     OW 2770   0.998   0.023   4.868
  628SOL    HW1 2771   0.914   0.011   4.823
  628SOL    HW2 2772   1.035   3.935   4.875
  629SOL     OW 2773   0.773   1.333   4.044
  629SOL    HW1 2774   0.749   1.241   4.054
  629SOL    HW2 2775   0.853   1.343   4.096
  630SOL     OW 2776   0.621   1.559   5.013
  630SOL    HW1 2777   0.621   1.643   5.059
  630SOL    HW2 2778   0.709   1.552   4.976
  631SOL     OW 2779   1.304   0.071   3.894
  631SOL    HW1 2780   1.312   3.982   3.861
  631SOL    HW2 2781   1.225   0.070   3.948
  632SOL     OW 2782   1.275   0.456   4.406
  632SOL    HW1 2783   1.231   0.540   4.400
  632SOL    HW2 2784   1.279   0.438   4.500
  633SOL     OW 2785   1.585   0.209   4.593
  633SOL    HW1 2786   1.535   0.235   4.670
  633SOL    HW2 2787   1.588   0.287   4.538
  634SOL     OW 2788   0.047   1.043   3.972
  634SOL    HW1 2789   0.141   1.029   3.965
  634SOL    HW2 2790   0.010   0.956   3.985
  635SOL     OW 2791   0.891   1.663   4.060
  635SOL    HW1 2792   0.815   1.648   4.004
  635SOL    HW2 2793   0.864   1.734   4.118
  636SOL     OW 2794   0.232   0.633   5.700
  636SOL    HW1 2795   0.138   0.637   5.720
  636SOL    HW2 2796   0.235   0.601   5.610
  637SOL     OW 2797   0.222   0.292   6.567
  637SOL    HW1 2798   0.245   0.252   6.651
  637SOL    HW2 2799   0.127   0.285   6.562
  638SOL     OW 2800   0.020   0.383   6.223
  638SOL    HW1 2801   3.928   0.401   6.243
  638SOL    HW2 2802   0.023   0.289   6.209
  639SOL     OW 2803   0.587   1.297   6.792
  639SOL    HW1 2804   0.501   1.297   6.749
  639SOL    HW2 2805   0.599   1.388   6.820
  640SOL     OW 2806   1.133   0.697   6.277
  640SOL    HW1 2807   1.181   0.779   6.265
  640SOL    HW2 2808   1.086   0.709   6.360
  641SOL     OW 2809   1.791   0.612   5.799
  641SOL    HW1 2810   1.757   0.608   5.710
  641SOL    HW2 2811   1.762   0.530   5.840
  642SOL     OW 2812   0.743   1.136   6.633
  642SOL    HW1 2813   0.686   1.174   6.699
  642SOL    HW2 2814   0.781   1.211   6.588
  643SOL     OW 2815   0.877   0.761   7.413
  643SOL    HW1 2816   0.877   0.832   7.477
  643SOL    HW2 2817   0.896   0.805   7.329
  644SOL     OW 2818   0.684   0.998   6.230
  644SOL    HW1 2819   0.751   0.990   6.298
  644SOL    HW2 2820   0.616   1.052   6.270
  645SOL     OW 2821   0.710   1.146   7.405
  645SOL    HW1 2822   0.756   1.224   7.436
  645SOL    HW2 2823   0.630   1.179   7.364
  646SOL     OW 2824   0.353   1.396   6.666
  646SOL    HW1 2825   0.273   1.370   6.621
  646SOL    HW2 2826   0.398   1.455   6.605
  647SOL     OW 2827   0.461   0.409   7.074
  647SOL    HW1 2828   0.544   0.363   7.078
  647SOL    HW2 2829   0.395   0.340   7.081
  648SOL     OW 2830   1.611   0.451   6.323
  648SOL    HW1 2831   1.548   0.483   6.259
  648SOL    HW2 2832   1.617   0.521   6.388
  649SOL     OW 2833   0.217   1.723   6.040
  649SOL    HW1 2834   0.241   1.795   6.099
  649SOL    HW2 2835   0.293   1.714   5.983
  650SOL     OW 2836   1.121   1.343   7.272
  650SOL    HW1 2837   1.143   1.348   7.365
  650SOL    HW2 2838   1.071   1.262   7.264
  651SOL     OW 2839   0.257   1.456   6.120
  651SOL    HW1 2840   0.220   1.543   6.108
  651SOL    HW2 2841   0.193   1.410   6.175
  652SOL     OW 2842   0.250   1.063   6.468
  652SOL    HW1 2843   0.271   0.978   6.505
  652SOL    HW2 2844   0.197   1.106   6.535
  653SOL     OW 2845   0.601   1.802   7.003
  653SOL    HW1 2846   0.521   1.780   7.050
  653SOL    HW2 2847   0.625   1.889   7.035
  654SOL     OW 2848   0.572   0.989   5.728
  654SOL    HW1 2849   0.623   1.032   5.660
  654SOL    HW2 2850   0.612   1.019   5.810
  655SOL     OW 2851   1.588   0.143   7.040
  655SOL    HW1 2852   1.621   0.216   6.987
  655SOL    HW2 2853   1.546   0.185   7.115
  656SOL     OW 2854   0.144   0.655   6.155
  656SOL    HW1 2855   0.102   0.569   6.160
  656SOL    HW2 2856   0.105   0.705   6.226
  657SOL     OW 2857   0.043   1.585   5.720
  657SOL    HW1 2858   0.044   1.495   5.754
  657SOL    HW2 2859   3.953   1.614   5.734
  658SOL     OW 2860   1.685   0.927   6.221
  658SOL    HW1 2861   1.767   0.881   6.202
  658SOL    HW2 2862   1.671   0.984   6.145
  659SOL     OW 2863   1.656   1.129   6.008
  659SOL    HW1 2864   1.736   1.102   5.964
  659SOL    HW2 2865   1.668   1.223   6.024
  660SOL     OW 2866   0.150   0.754   7.176
  660SOL    HW1 2867   0.245   0.753   7.168
  660SOL    HW2 2868   0.131   0.839   7.215
  661SOL     OW 2869   0.614   1.390   6.326
  661SOL    HW1 2870   0.569   1.306   6.331
  661SOL    HW2 2871   0.603   1.418   6.235
  662SOL     OW 2872   1.294   1.248   6.994
  662SOL    HW1 2873   1.314   1.172   6.939
  662SOL    HW2 2874   1.347   1.236   7.072
  663SOL     OW 2875   0.826   0.007   6.105
  663SOL    HW1 2876   0.870   0.087   6.078
  663SOL    HW2 2877   0.732   0.029   6.102
  664SOL     OW 2878   0.183   0.946   6.868
  664SOL    HW1 2879   0.272   0.912   6.857
  664SOL    HW2 2880   0.133   0.906   6.797
  665SOL     OW 2881   1.531   1.004   5.784
  665SOL    HW1 2882   1.462   0.948   5.819
  665SOL    HW2 2883   1.578   1.036   5.861
  666SOL     OW 2884   1.158   1.820   7.153
  666SOL    HW1 2885   1.246   1.837   7.185
  666SOL    HW2 2886   1.158   1.727   7.130
  667SOL     OW 2887   0.350   0.240   7.451
  667SOL    HW1 2888   0.394   0.323   7.435
  667SOL    HW2 2889   0.258   0.264   7.462
  668SOL     OW 2890   0.596   0.715   5.857
  668SOL    HW1 2891   0.600   0.800   5.814
  668SOL    HW2 2892   0.532   0.726   5.928
  669SOL     OW 2893   1.274   0.377   6.527
  669SOL    HW1 2894   1.187   0.337   6.536
  669SOL    HW2 2895   1.332   0.317   6.575
  670SOL     OW 2896   0.795   0.613   7.036
  670SOL    HW1 2897   0.766   0.586   7.123
  670SOL    HW2 2898   0.761   0.545   6.978
  671SOL     OW 2899   1.392   0.473   7.263
  671SOL    HW1 2900   1.401   0.520   7.347
  671SOL    HW2 2901   1.448   0.396   7.274
  672SOL     OW 2902   0.947   0.884   7.173
  672SOL    HW1 2903   1.003   0.817   7.134
  672SOL    HW2 2904   0.898   0.921   7.100
  673SOL     OW 2905   0.998   0.400   6.816
  673SOL    HW1 2906   0.910   0.418   6.849
  673SOL    HW2 2907   0.984   0.375   6.725
  674SOL     OW 2908   1.054   0.701   6.009
  674SOL    HW1 2909   1.073   0.694   6.103
  674SOL    HW2 2910   0.971   0.656   5.998
  675SOL     OW 2911   0.083   0.833   6.375
  675SOL    HW1 2912   0.150   0.796   6.432
  675SOL    HW2 2913   0.112   0.923   6.359
  676SOL     OW 2914   0.130   1.870   7.172
  676SOL    HW1 2915   0.139   1.832   7.259
  676SOL    HW2 2916   0.037   1.862   7.151
  677SOL     OW 2917   0.894   0.352   5.786
  677SOL    HW1 2918   0.937   0.413   5.726
  677SOL    HW2 2919   0.888   0.271   5.737
  678SOL     OW 2920   1.701   0.572   7.417
  678SOL    HW1 2921   1.666   0.646   7.368
  678SOL    HW2 2922   1.727   0.508   7.350
  679SOL     OW 2923   1.395   1.140   6.135
  679SOL    HW1 2924   1.474   1.130   6.083
  679SOL    HW2 2925   1.332   1.183   6.076
  680SOL     OW 2926   0.565   0.195   6.465
  680SOL    HW1 2927   0.569   0.221   6.557
  680SOL    HW2 2928   0.548   0.277   6.418
  681SOL     OW 2929   1.000   1.436   6.040
  681SOL    HW1 2930   0.975   1.514   5.992
  681SOL    HW2 2931   0.985   1.458   6.132
  682SOL     OW 2932   0.362   1.834   6.463
  682SOL    HW1 2933   0.419   1.757   6.474
  682SOL    HW2 2934   0.420   1.909   6.477
  683SOL     OW 2935   1.759   0.990   6.483
  683SOL    HW1 2936   1.714   0.995   6.399
  683SOL    HW2 2937   1.772   1.082   6.509
  684SOL     OW 2938   1.189   1.547   7.093
  684SOL    HW1 2939   1.188   1.471   7.152
  684SOL    HW2 2940   1.149   1.515   7.012
  685SOL     OW 2941   0.310   0.949   5.829
  685SOL    HW1 2942   0.392   0.971   5.786
  685SOL    HW2 2943   0.298   0.855   5.813
  686SOL     OW 2944   1.484   0.754   6.315
  686SOL    HW1 2945   1.482   0.715   6.402
  686SOL    HW2 2946   1.560   0.812   6.317
  687SOL     OW 2947   0.471   1.261   7.324
  687SOL    HW1 2948   0.446   1.268   7.232
  687SOL    HW2 2949   0.389   1.265   7.372
  688SOL     OW 2950   1.121   1.791   5.800
  688SOL    HW1 2951   1.051   1.747   5.848
  688SOL    HW2 2952   1.152   1.725   5.737
  689SOL     OW 2953   0.203   0.290   7.088
  689SOL    HW1 2954   0.109   0.307   7.089
  689SOL    HW2 2955   0.213   0.208   7.136
  690SOL     OW 2956   1.654   1.406   5.648
  690SOL    HW1 2957   1.595   1.481   5.647
  690SOL    HW2 2958   1.597   1.330   5.643
  691SOL     OW 2959   0.465   1.737   5.899
  691SOL    HW1 2960   0.508   1.793   5.964
  691SOL    HW2 2961   0.537   1.699   5.848
  692SOL     OW 2962   1.448   0.178   5.995
  692SOL    HW1 2963   1.392   0.109   5.959
  692SOL    HW2 2964   1.513   0.132   6.047
  693SOL     OW 2965   0.260   1.790   6.814
  693SOL    HW1 2966   0.299   1.718   6.862
  693SOL    HW2 2967   0.254   1.758   6.723
  694SOL     OW 2968   0.933   1.717   6.495
  694SOL    HW1 2969   1.008   1.664   6.523
  694SOL    HW2 2970   0.903   1.675   6.414
  695SOL     OW 2971   0.400   0.694   6.055
  695SOL    HW1 2972   0.424   0.603   6.072
  695SOL    HW2 2973   0.308   0.700   6.081
  696SOL     OW 2974   1.529   0.224   7.310
  696SOL    HW1 2975   1.519   0.248   7.403
  696SOL    HW2 2976   1.520   0.129   7.309
  697SOL     OW 2977   0.648   0.124   5.691
  697SOL    HW1 2978   0.667   0.037   5.728
  697SOL    HW2 2979   0.588   0.107   5.619
  698SOL     OW 2980   0.771   0.289   7.362
  698SOL    HW1 2981   0.853   0.240   7.360
  698SOL    HW2 2982   0.720   0.249   7.432
  699SOL     OW 2983   0.876   1.524   6.781
  699SOL    HW1 2984   0.858   1.486   6.696
  699SOL    HW2 2985   0.943   1.467   6.820
  700SOL     OW 2986   1.336   0.587   7.018
  700SOL    HW1 2987   1.368   0.558   7.104
  700SOL    HW2 2988   1.373   0.674   7.007
  701SOL     OW 2989   0.821   1.387   6.532
  701SOL    HW1 2990   0.906   1.378   6.488
  701SOL    HW2 2991   0.758   1.397   6.460
  702SOL     OW 2992   0.931   0.514   6.482
  702SOL    HW1 2993   0.906   0.504   6.390
  702SOL    HW2 2994   0.955   0.425   6.510
  703SOL     OW 2995   0.549   0.054   6.074
  703SOL    HW1 2996   0.476   0.061   6.136
  703SOL    HW2 2997   0.548   0.137   6.026
  704SOL     OW 2998   1.440   1.214   5.629
  704SOL    HW1 2999   1.469   1.136   5.676
  704SOL    HW2 3000   1.351   1.230   5.660
  705SOL     OW 3001   0.360   0.027   5.788
  705SOL    HW1 3002   0.352   0.092   5.717
  705SOL    HW2 3003   0.449   0.037   5.821
  706SOL     OW 3004   0.948   0.253   6.042
  706SOL    HW1 3005   0.921   0.289   5.958
  706SOL    HW2 3006   1.043   0.261   6.043
  707SOL     OW 3007   1.079   0.688   7.040
  707SOL    HW1 3008   1.011   0.620   7.047
  707SOL    HW2 3009   1.161   0.639   7.037
  708SOL     OW 3010   0.467   1.152   6.314
  708SOL    HW1 3011   0.398   1.126   6.375
  708SOL    HW2 3012   0.429   1.138   6.228
  709SOL     OW 3013   1.021   0.536   5.619
  709SOL    HW1 3014   0.978   0.619   5.599
  709SOL    HW2 3015   1.086   0.558   5.687
  710SOL     OW 3016   0.084   0.579   6.977
  710SOL    HW1 3017   0.173   0.560   6.947
  710SOL    HW2 3018   0.095   0.648   7.042
  711SOL     OW 3019   0.571   0.230   6.744
  711SOL    HW1 3020   0.591   0.137   6.753
  711SOL    HW2 3021   0.480   0.239   6.773
  712SOL     OW 3022   0.871   0.460   6.222
  712SOL    HW1 3023   0.823   0.514   6.159
  712SOL    HW2 3024   0.893   0.381   6.172
  713SOL     OW 3025   0.998   0.035   6.370
  713SOL    HW1 3026   0.954   0.068   6.292
  713SOL    HW2 3027   1.011   3.941   6.352
  714SOL     OW 3028   1.447   1.157   6.409
  714SOL    HW1 3029   1.394   1.090   6.450
  714SOL    HW2 3030   1.424   1.152   6.316
  715SOL     OW 3031   1.464   0.610   6.554
  715SOL    HW1 3032   1.406   0.535   6.560
  715SOL    HW2 3033   1.521   0.602   6.631
  716SOL     OW 3034   1.824   0.798   5.989
  716SOL    HW1 3035   1.891   0.753   6.040
  716SOL    HW2 3036   1.811   0.741   5.912
  717SOL     OW 3037   0.487   1.423   5.741
  717SOL    HW1 3038   0.411   1.394   5.791
  717SOL    HW2 3039   0.476   1.382   5.655
  718SOL     OW 3040   1.395   0.580   5.653
  718SOL    HW1 3041   1.333   0.559   5.722
  718SOL    HW2 3042   1.481   0.561   5.691
  719SOL     OW 3043   0.553   0.269   5.903
  719SOL    HW1 3044   0.606   0.229   5.833
  719SOL    HW2 3045   0.526   0.353   5.866
  720SOL     OW 3046   1.738   1.221   7.161
  720SOL    HW1 3047   1.829   1.196   7.143
  720SOL    HW2 3048   1.744   1.313   7.189
  721SOL     OW 3049   1.046   1.349   6.917
  721SOL    HW1 3050   0.971   1.319   6.968
  721SOL    HW2 3051   1.122   1.309   6.960
  722SOL     OW 3052   1.124   1.204   6.690
  722SOL    HW1 3053   1.076   1.253   6.757
  722SOL    HW2 3054   1.090   1.237   6.607
  723SOL     OW 3055   0.911   0.123   6.986
  723SOL    HW1 3056   0.931   0.090   6.898
  723SOL    HW2 3057   0.993   0.162   7.016
  724SOL     OW 3058   0.979   1.114   7.309
  724SOL    HW1 3059   0.888   1.131   7.335
  724SOL    HW2 3060   0.974   1.034   7.256
  725SOL     OW 3061   0.708   1.062   5.958
  725SOL    HW1 3062   0.695   1.042   6.050
  725SOL    HW2 3063   0.784   1.009   5.933
  726SOL     OW 3064   0.425   0.821   6.841
  726SOL    HW1 3065   0.494   0.827   6.907
  726SOL    HW2 3066   0.391   0.732   6.850
  727SOL     OW 3067   1.265   0.373   6.866
  727SOL    HW1 3068   1.297   0.452   6.910
  727SOL    HW2 3069   1.177   0.396   6.837
  728SOL     OW 3070   0.064   1.577   6.927
  728SOL    HW1 3071   0.068   1.600   6.834
  728SOL    HW2 3072   0.156   1.576   6.955
  729SOL     OW 3073   0.358   1.105   6.064
  729SOL    HW1 3074   0.356   1.185   6.012
  729SOL    HW2 3075   0.359   1.034   5.999
  730SOL     OW 3076   0.554   0.525   6.440
  730SOL    HW1 3077   0.565   0.586   6.367
  730SOL    HW2 3078   0.619   0.553   6.504
  731SOL     OW 3079   1.302   1.414   6.755
  731SOL    HW1 3080   1.310   1.386   6.846
  731SOL    HW2 3081   1.259   1.341   6.710
  732SOL     OW 3082   1.572   0.639   6.078
  732SOL    HW1 3083   1.527   0.686   6.148
  732SOL    HW2 3084   1.632   0.703   6.040
  733SOL     OW 3085   0.346   1.529   6.902
  733SOL    HW1 3086   0.337   1.476   6.823
  733SOL    HW2 3087   0.440   1.544   6.912
  734SOL     OW 3088   0.425   0.734   7.188
  734SOL    HW1 3089   0.489   0.778   7.132
  734SOL    HW2 3090   0.460   0.645   7.199
  735SOL     OW 3091   1.605   0.778   7.273
  735SOL    HW1 3092   1.519   0.820   7.270
  735SOL    HW2 3093   1.655   0.819   7.203
  736SOL     OW 3094   1.002   0.148   7.370
  736SOL    HW1 3095   1.064   0.213   7.339
  736SOL    HW2 3096   0.995   0.085   7.298
  737SOL     OW 3097   0.491   0.037   7.347
  737SOL    HW1 3098   0.489   0.054   7.253
  737SOL    HW2 3099   0.427   0.097   7.383
  738SOL     OW 3100   0.587   0.877   6.619
  738SOL    HW1 3101   0.622   0.966   6.623
  738SOL    HW2 3102   0.531   0.870   6.696
  739SOL     OW 3103   1.342   0.858   6.605
  739SOL    HW1 3104   1.254   0.838   6.572
  739SOL    HW2 3105   1.390   0.776   6.596
  740SOL     OW 3106   1.197   0.541   5.839
  740SOL    HW1 3107   1.206   0.461   5.892
  740SOL    HW2 3108   1.153   0.603   5.897
  741SOL     OW 3109   0.309   0.210   6.822
  741SOL    HW1 3110   0.265   0.248   6.899
  741SOL    HW2 3111   0.296   0.116   6.830
  742SOL     OW 3112   0.064   1.305   6.867
  742SOL    HW1 3113   0.093   1.259   6.946
  742SOL    HW2 3114   0.055   1.396   6.894
  743SOL     OW 3115   0.720   0.632   6.633
  743SOL    HW1 3116   0.797   0.621   6.576
  743SOL    HW2 3117   0.690   0.721   6.616
  744SOL     OW 3118   1.741   0.959   7.436
  744SOL    HW1 3119   1.699   0.890   7.384
  744SOL    HW2 3120   1.682   0.973   7.509
  745SOL     OW 3121   0.339   0.052   6.251
  745SOL    HW1 3122   0.308   0.143   6.252
  745SOL    HW2 3123   0.306   0.015   6.333
  746SOL     OW 3124   1.610   0.401   5.959
  746SOL    HW1 3125   1.560   0.333   6.005
  746SOL    HW2 3126   1.590   0.482   6.007
  747SOL     OW 3127   1.033   0.760   6.542
  747SOL    HW1 3128   1.020   0.776   6.636
  747SOL    HW2 3129   1.004   0.669   6.530
  748SOL     OW 3130   0.955   1.566   7.294
  748SOL    HW1 3131   0.946   1.606   7.208
  748SOL    HW2 3132   1.014   1.492   7.281
  749SOL     OW 3133   0.359   0.923   7.382
  749SOL    HW1 3134   0.435   0.944   7.436
  749SOL    HW2 3135   0.390   0.854   7.323
  750SOL     OW 3136   1.497   0.270   5.716
  750SOL    HW1 3137   1.427   0.206   5.728
  750SOL    HW2 3138   1.509   0.309   5.802
  751SOL     OW 3139   1.286   0.828   5.613
  751SOL    HW1 3140   1.327   0.742   5.618
  751SOL    HW2 3141   1.318   0.866   5.532
  752SOL     OW 3142   1.072   1.332   6.440
  752SOL    HW1 3143   1.070   1.256   6.381
  752SOL    HW2 3144   1.159   1.371   6.426
  753SOL     OW 3145   0.314   0.801   6.536
  753SOL    HW1 3146   0.408   0.817   6.531
  753SOL    HW2 3147   0.306   0.711   6.568
  754SOL     OW 3148   0.342   0.529   6.604
  754SOL    HW1 3149   0.297   0.446   6.586
  754SOL    HW2 3150   0.416   0.529   6.543
  755SOL     OW 3151   1.135   0.378   7.288
  755SOL    HW1 3152   1.087   0.433   7.350
  755SOL    HW2 3153   1.222   0.419   7.283
  756SOL     OW 3154   1.152   0.225   7.069
  756SOL    HW1 3155   1.143   0.277   7.148
  756SOL    HW2 3156   1.183   0.286   7.003
  757SOL     OW 3157   0.003   1.311   5.769
  757SOL    HW1 3158   3.909   1.329   5.771
  757SOL    HW2 3159   0.010   1.218   5.788
  758SOL     OW 3160   0.082   1.797   6.470
  758SOL    HW1 3161   0.097   1.703   6.464
  758SOL    HW2 3162   0.170   1.835   6.478
  759SOL     OW 3163   0.489   1.571   6.493
  759SOL    HW1 3164   0.557   1.633   6.519
  759SOL    HW2 3165   0.535   1.509   6.435
  760SOL     OW 3166   0.969   0.784   6.806
  760SOL    HW1 3167   1.027   0.768   6.880
  760SOL    HW2 3168   0.886   0.744   6.831
  761SOL     OW 3169   0.033   0.588   6.697
  761SOL    HW1 3170   0.082   0.523   6.647
  761SOL    HW2 3171   0.061   0.575   6.787
  762SOL     OW 3172   0.210   0.512   7.308
  762SOL    HW1 3173   0.252   0.467   7.235
  762SOL    HW2 3174   0.174   0.592   7.269
  763SOL     OW 3175   1.377   0.927   7.237
  763SOL    HW1 3176   1.399   1.020   7.229
  763SOL    HW2 3177   1.375   0.895   7.147
  764SOL     OW 3178   0.820   0.573   5.953
  764SOL    HW1 3179   0.826   0.497   5.895
  764SOL    HW2 3180   0.745   0.622   5.920
  765SOL     OW 3181   1.638   0.599   6.766
  765SOL    HW1 3182   1.629   0.537   6.839
  765SOL    HW2 3183   1.725   0.583   6.731
  766SOL     OW 3184   0.298   1.542   7.300
  766SOL    HW1 3185   0.256   1.611   7.352
  766SOL    HW2 3186   0.277   1.461   7.346
  767SOL     OW 3187   0.723   0.447   6.833
  767SOL    HW1 3188   0.668   0.372   6.812
  767SOL    HW2 3189   0.708   0.509   6.761
  768SOL     OW 3190   0.903   1.677   7.047
  768SOL    HW1 3191   0.888   1.637   6.962
  768SOL    HW2 3192   0.900   1.771   7.030
  769SOL     OW 3193   0.449   0.493   5.787
  769SOL    HW1 3194   0.513   0.562   5.805
  769SOL    HW2 3195   0.370   0.539   5.761
  770SOL     OW 3196   0.149   1.132   7.063
  770SOL    HW1 3197   0.151   1.083   7.146
  770SOL    HW2 3198   0.166   1.066   6.996
  771SOL     OW 3199   1.314   1.042   6.805
  771SOL    HW1 3200   1.341   0.981   6.736
  771SOL    HW2 3201   1.246   1.095   6.766
  772SOL     OW 3202   1.313   0.867   5.890
  772SOL    HW1 3203   1.244   0.826   5.942
  772SOL    HW2 3204   1.288   0.851   5.799
  773SOL     OW 3205   0.081   1.217   6.613
  773SOL    HW1 3206   0.087   1.242   6.706
  773SOL    HW2 3207   3.989   1.230   6.590
  774SOL     OW 3208   0.681   1.670   7.334
  774SOL    HW1 3209   0.626   1.744   7.306
  774SOL    HW2 3210   0.759   1.677   7.279
  775SOL     OW 3211   1.719   0.121   6.080
  775SOL    HW1 3212   1.795   0.133   6.023
  775SOL    HW2 3213   1.705   0.026   6.081
  776SOL     OW 3214   0.179   1.757   7.420
  776SOL    HW1 3215   0.123   1.703   7.476
  776SOL    HW2 3216   0.217   1.822   7.480
  777SOL     OW 3217   1.279   0.923   6.253
  777SOL    HW1 3218   1.352   0.865   6.273
  777SOL    HW2 3219   1.318   0.995   6.203
  778SOL     OW 3220   0.797   1.273   7.008
  778SOL    HW1 3221   0.768   1.319   7.086
  778SOL    HW2 3222   0.725   1.285   6.945
  779SOL     OW 3223   0.669   1.623   5.740
  779SOL    HW1 3224   0.680   1.638   5.646
  779SOL    HW2 3225   0.612   1.547   5.746
  780SOL     OW 3226   1.839   0.180   6.547
  780SOL    HW1 3227   1.871   0.122   6.478
  780SOL    HW2 3228   1.748   0.198   6.523
  781SOL     OW 3229   0.278   0.320   6.298
  781SOL    HW1 3230   0.193   0.353   6.270
  781SOL    HW2 3231   0.268   0.308   6.393
  782SOL     OW 3232   1.202   1.602   5.616
  782SOL    HW1 3233   1.188   1.511   5.641
  782SOL    HW2 3234   1.137   1.620   5.549
  783SOL     OW 3235   0.824   1.005   6.962
  783SOL    HW1 3236   0.867   1.000   6.876
  783SOL    HW2 3237   0.817   1.099   6.980
  784SOL     OW 3238   0.917   0.912   5.879
  784SOL    HW1 3239   0.976   0.945   5.811
  784SOL    HW2 3240   0.967   0.844   5.924
  785SOL     OW 3241   1.479   1.622   5.629
  785SOL    HW1 3242   1.385   1.618   5.615
  785SOL    HW2 3243   1.516   1.629   5.541
  786SOL     OW 3244   0.372   1.299   7.078
  786SOL    HW1 3245   0.358   1.381   7.030
  786SOL    HW2 3246   0.294   1.247   7.060
  787SOL     OW 3247   1.067   1.104   6.298
  787SOL    HW1 3248   0.992   1.056   6.333
  787SOL    HW2 3249   1.131   1.035   6.276
  788SOL     OW 3250   1.016   0.252   6.558
  788SOL    HW1 3251   1.007   0.201   6.478
  788SOL    HW2 3252   1.017   0.186   6.628
  789SOL     OW 3253   0.610   1.486   6.071
  789SOL    HW1 3254   0.659   1.438   6.004
  789SOL    HW2 3255   0.532   1.518   6.026
  790SOL     OW 3256   1.722   0.395   6.955
  790SOL    HW1 3257   1.795   0.457   6.962
  790SOL    HW2 3258   1.755   0.324   6.901
  791SOL     OW 3259   0.256   1.339   5.879
  791SOL    HW1 3260   0.162   1.340   5.863
  791SOL    HW2 3261   0.267   1.382   5.964
  792SOL     OW 3262   0.112   0.997   7.306
  792SOL    HW1 3263   0.054   0.991   7.382
  792SOL    HW2 3264   0.200   0.980   7.341
  793SOL     OW 3265   0.695   0.263   7.093
  793SOL    HW1 3266   0.762   0.210   7.051
  793SOL    HW2 3267   0.724   0.270   7.185
  794SOL     OW 3268   0.089   0.310   5.605
  794SOL    HW1 3269   3.993   0.313   5.600
  794SOL    HW2 3270   0.118   0.393   5.567
  795SOL     OW 3271   1.422   0.852   6.978
  795SOL    HW1 3272   1.371   0.914   6.925
  795SOL    HW2 3273   1.511   0.857   6.943
  796SOL     OW 3274   0.032   0.180   5.867
  796SOL    HW1 3275   0.037   0.220   5.780
  796SOL    HW2 3276   0.105   0.218   5.915
  797SOL     OW 3277   1.157   1.337   5.700
  797SOL    HW1 3278   1.065   1.318   5.679
  797SOL    HW2 3279   1.158   1.344   5.796
  798SOL     OW 3280   0.625   0.827   7.024
  798SOL    HW1 3281   0.681   0.903   7.009
  798SOL    HW2 3282   0.685   0.753   7.031
  799SOL     OW 3283   0.718   0.559   7.290
  799SOL    HW1 3284   0.764   0.620   7.349
  799SOL    HW2 3285   0.739   0.472   7.325
  800SOL     OW 3286   1.470   1.186   7.207
  800SOL    HW1 3287   1.473   1.200   7.302
  800SOL    HW2 3288   1.561   1.190   7.179
  801SOL     OW 3289   0.377   1.748   7.142
  801SOL    HW1 3290   0.289   1.785   7.131
  801SOL    HW2 3291   0.361   1.663   7.184
  802SOL     OW 3292   1.660   0.872   6.830
  802SOL    HW1 3293   1.657   0.780   6.805
  802SOL    HW2 3294   1.677   0.919   6.748
  803SOL     OW 3295   1.221   0.341   6.024
  803SOL    HW1 3296   1.291   0.276   6.017
  803SOL    HW2 3297   1.237   0.384   6.108
  804SOL     OW 3298   0.588   0.735   6.260
  804SOL    HW1 3299   0.626   0.821   6.245
  804SOL    HW2 3300   0.522   0.726   6.191
  805SOL     OW 3301   1.747   0.382   7.229
  805SOL    HW1 3302   1.731   0.390   7.135
  805SOL    HW2 3303   1.687   0.313   7.258
  806SOL     OW 3304   1.733   0.929   7.093
  806SOL    HW1 3305   1.741   1.023   7.107
  806SOL    HW2 3306   1.724   0.920   6.998
  807SOL     OW 3307   0.876   1.364   5.636
  807SOL    HW1 3308   0.830   1.389   5.716
  807SOL    HW2 3309   0.880   1.444   5.584
  808SOL     OW 3310   0.659   1.782   6.523
  808SOL    HW1 3311   0.644   1.875   6.504
  808SOL    HW2 3312   0.755   1.772   6.519
  809SOL     OW 3313   0.870   0.972   6.439
  809SOL    HW1 3314   0.920   0.899   6.476
  809SOL    HW2 3315   0.829   1.014   6.514
  810SOL     OW 3316   1.076   0.990   5.677
  810SOL    HW1 3317   1.055   1.042   5.600
  810SOL    HW2 3318   1.150   0.935   5.649
  811SOL     OW 3319   0.231   1.306   7.444
  811SOL    HW1 3320   0.153   1.257   7.417
  811SOL    HW2 3321   0.221   1.318   7.538
  812SOL     OW 3322   0.136   1.293   6.315
  812SOL    HW1 3323   0.151   1.236   6.390
  812SOL    HW2 3324   0.106   1.234   6.246
  813SOL     OW 3325   0.677   1.411   7.209
  813SOL    HW1 3326   0.602   1.366   7.248
  813SOL    HW2 3327   0.682   1.495   7.254
  814SOL     OW 3328   1.808   0.183   6.820
  814SOL    HW1 3329   1.812   0.090   6.838
  814SOL    HW2 3330   1.825   0.190   6.726
  815SOL     OW 3331   0.449   0.439   6.117
  815SOL    HW1 3332   0.481   0.363   6.069
  815SOL    HW2 3333   0.393   0.402   6.186
  816SOL     OW 3334   0.337   0.562   6.880
  816SOL    HW1 3335   0.392   0.505   6.934
  816SOL    HW2 3336   0.352   0.532   6.791
  817SOL     OW 3337   0.840   1.593   6.260
  817SOL    HW1 3338   0.823   1.665   6.199
  817SOL    HW2 3339   0.765   1.535   6.250
  818SOL     OW 3340   1.458   0.258   6.696
  818SOL    HW1 3341   1.480   0.173   6.733
  818SOL    HW2 3342   1.403   0.300   6.763
  819SOL     OW 3343   0.998   0.023   6.730
  819SOL    HW1 3344   0.915   0.011   6.684
  819SOL    HW2 3345   1.035   3.935   6.737
  820SOL     OW 3346   0.774   1.333   5.907
  820SOL    HW1 3347   0.750   1.241   5.918
  820SOL    HW2 3348   0.856   1.342   5.954
  821SOL     OW 3349   0.621   1.561   6.872
  821SOL    HW1 3350   0.621   1.644   6.920
  821SOL    HW2 3351   0.709   1.553   6.837
  822SOL     OW 3352   1.304   0.072   5.757
  822SOL    HW1 3353   1.313   3.982   5.723
  822SOL    HW2 3354   1.224   0.070   5.809
  823SOL     OW 3355   1.276   0.456   6.268
  823SOL    HW1 3356   1.230   0.539   6.262
  823SOL    HW2 3357   1.280   0.437   6.362
  824SOL     OW 3358   1.585   0.209   6.455
  824SOL    HW1 3359   1.535   0.235   6.532
  824SOL    HW2 3360   1.587   0.287   6.400
  825SOL     OW 3361   0.047   1.043   5.834
  825SOL    HW1 3362   0.141   1.029   5.826
  825SOL    HW2 3363   0.010   0.956   5.847
  826SOL     OW 3364   0.895   1.653   5.908
  826SOL    HW1 3365   0.820   1.635   5.851
  826SOL    HW2 3366   0.863   1.716   5.972
  827SOL     OW 3367   0.231   0.632   7.562
  827SOL    HW1 3368   0.138   0.636   7.582
  827SOL    HW2 3369   0.235   0.601   7.472
  828SOL     OW 3370   0.222   0.292   8.429
  828SOL    HW1 3371   0.245   0.252   8.513
  828SOL    HW2 3372   0.127   0.286   8.424
  829SOL     OW 3373   0.020   0.384   8.085
  829SOL    HW1 3374   3.928   0.401   8.105
  829SOL    HW2 3375   0.023   0.289   8.071
  830SOL     OW 3376   0.587   1.297   8.654
  830SOL    HW1 3377   0.501   1.297   8.611
  830SOL    HW2 3378   0.599   1.388   8.682
  831SOL     OW 3379   1.527   1.481   8.153
  831SOL    HW1 3380   1.526   1.467   8.247
  831SOL    HW2 3381   1.435   1.500   8.131
  832SOL     OW 3382   1.131   0.695   8.140
  832SOL    HW1 3383   1.179   0.777   8.129
  832SOL    HW2 3384   1.082   0.707   8.221
  833SOL     OW 3385   1.792   0.616   7.664
  833SOL    HW1 3386   1.759   0.610   7.575
  833SOL    HW2 3387   1.761   0.536   7.707
  834SOL     OW 3388   0.744   1.135   8.497
  834SOL    HW1 3389   0.686   1.174   8.562
  834SOL    HW2 3390   0.782   1.209   8.450
  835SOL     OW 3391   0.878   0.762   9.275
  835SOL    HW1 3392   0.869   0.833   9.338
  835SOL    HW2 3393   0.898   0.806   9.192
  836SOL     OW 3394   0.684   0.998   8.093
  836SOL    HW1 3395   0.751   0.990   8.160
  836SOL    HW2 3396   0.616   1.052   8.133
  837SOL     OW 3397   0.714   1.148   9.271
  837SOL    HW1 3398   0.763   1.225   9.302
  837SOL    HW2 3399   0.636   1.184   9.230
  838SOL     OW 3400   0.354   1.396   8.528
  838SOL    HW1 3401   0.274   1.370   8.482
  838SOL    HW2 3402   0.398   1.455   8.466
  839SOL     OW 3403   1.445   1.485   8.815
  839SOL    HW1 3404   1.490   1.570   8.822
  839SOL    HW2 3405   1.374   1.490   8.879
  840SOL     OW 3406   0.461   0.410   8.937
  840SOL    HW1 3407   0.544   0.363   8.940
  840SOL    HW2 3408   0.394   0.341   8.943
  841SOL     OW 3409   1.611   0.451   8.184
  841SOL    HW1 3410   1.550   0.483   8.118
  841SOL    HW2 3411   1.615   0.522   8.249
  842SOL     OW 3412   0.217   1.723   7.903
  842SOL    HW1 3413   0.241   1.794   7.962
  842SOL    HW2 3414   0.292   1.714   7.844
  843SOL     OW 3415   1.136   1.342   9.144
  843SOL    HW1 3416   1.178   1.335   9.230
  843SOL    HW2 3417   1.085   1.262   9.134
  844SOL     OW 3418   0.255   1.455   7.982
  844SOL    HW1 3419   0.221   1.543   7.969
  844SOL    HW2 3420   0.189   1.411   8.036
  845SOL     OW 3421   0.248   1.064   8.330
  845SOL    HW1 3422   0.270   0.978   8.367
  845SOL    HW2 3423   0.195   1.106   8.397
  846SOL     OW 3424   0.605   1.797   8.870
  846SOL    HW1 3425   0.523   1.779   8.915
  846SOL    HW2 3426   0.630   1.885   8.899
  847SOL     OW 3427   0.571   0.989   7.590
  847SOL    HW1 3428   0.622   1.031   7.521
  847SOL    HW2 3429   0.612   1.019   7.671
  848SOL     OW 3430   1.588   0.143   8.902
  848SOL    HW1 3431   1.620   0.216   8.849
  848SOL    HW2 3432   1.546   0.185   8.977
  849SOL     OW 3433   0.143   0.654   8.017
  849SOL    HW1 3434   0.102   0.568   8.023
  849SOL    HW2 3435   0.105   0.705   8.088
  850SOL     OW 3436   0.042   1.585   7.582
  850SOL    HW1 3437   0.044   1.495   7.614
  850SOL    HW2 3438   3.952   1.614   7.596
  851SOL     OW 3439   1.693   0.918   8.099
  851SOL    HW1 3440   1.774   0.870   8.084
  851SOL    HW2 3441   1.689   0.980   8.026
  852SOL     OW 3442   0.150   0.754   9.038
  852SOL    HW1 3443   0.245   0.753   9.030
  852SOL    HW2 3444   0.131   0.840   9.077
  853SOL     OW 3445   0.611   1.388   8.188
  853SOL    HW1 3446   0.566   1.304   8.194
  853SOL    HW2 3447   0.599   1.415   8.097
  854SOL     OW 3448   1.278   1.229   8.872
  854SOL    HW1 3449   1.309   1.163   8.810
  854SOL    HW2 3450   1.340   1.226   8.944
  855SOL     OW 3451   0.826   0.008   7.967
  855SOL    HW1 3452   0.870   0.088   7.940
  855SOL    HW2 3453   0.732   0.030   7.964
  856SOL     OW 3454   0.182   0.946   8.730
  856SOL    HW1 3455   0.271   0.912   8.720
  856SOL    HW2 3456   0.133   0.906   8.659
  857SOL     OW 3457   1.548   0.978   7.629
  857SOL    HW1 3458   1.473   0.938   7.674
  857SOL    HW2 3459   1.576   1.049   7.687
  858SOL     OW 3460   1.186   1.816   9.076
  858SOL    HW1 3461   1.188   1.877   9.002
  858SOL    HW2 3462   1.201   1.730   9.036
  859SOL     OW 3463   0.350   0.240   9.313
  859SOL    HW1 3464   0.394   0.324   9.296
  859SOL    HW2 3465   0.258   0.264   9.323
  860SOL     OW 3466   1.480   1.415   8.413
  860SOL    HW1 3467   1.408   1.435   8.473
  860SOL    HW2 3468   1.464   1.325   8.386
  861SOL     OW 3469   1.515   1.713   8.000
  861SOL    HW1 3470   1.539   1.695   7.909
  861SOL    HW2 3471   1.552   1.640   8.049
  862SOL     OW 3472   0.596   0.714   7.719
  862SOL    HW1 3473   0.602   0.799   7.676
  862SOL    HW2 3474   0.533   0.727   7.789
  863SOL     OW 3475   1.274   0.377   8.390
  863SOL    HW1 3476   1.187   0.338   8.399
  863SOL    HW2 3477   1.332   0.317   8.437
  864SOL     OW 3478   1.580   1.648   7.747
  864SOL    HW1 3479   1.669   1.656   7.713
  864SOL    HW2 3480   1.528   1.617   7.672
  865SOL     OW 3481   0.794   0.613   8.898
  865SOL    HW1 3482   0.766   0.586   8.985
  865SOL    HW2 3483   0.761   0.544   8.840
  866SOL     OW 3484   1.393   0.474   9.125
  866SOL    HW1 3485   1.401   0.521   9.209
  866SOL    HW2 3486   1.448   0.397   9.136
  867SOL     OW 3487   0.948   0.885   9.036
  867SOL    HW1 3488   1.003   0.818   8.996
  867SOL    HW2 3489   0.899   0.922   8.963
  868SOL     OW 3490   0.998   0.401   8.678
  868SOL    HW1 3491   0.909   0.417   8.711
  868SOL    HW2 3492   0.985   0.375   8.586
  869SOL     OW 3493   1.053   0.700   7.872
  869SOL    HW1 3494   1.072   0.693   7.965
  869SOL    HW2 3495   0.970   0.654   7.861
  870SOL     OW 3496   0.083   0.832   8.237
  870SOL    HW1 3497   0.150   0.796   8.294
  870SOL    HW2 3498   0.112   0.922   8.219
  871SOL     OW 3499   0.130   1.870   9.034
  871SOL    HW1 3500   0.139   1.832   9.121
  871SOL    HW2 3501   0.037   1.862   9.014
  872SOL     OW 3502   0.895   0.353   7.648
  872SOL    HW1 3503   0.937   0.414   7.589
  872SOL    HW2 3504   0.890   0.271   7.598
  873SOL     OW 3505   1.701   0.574   9.279
  873SOL    HW1 3506   1.667   0.648   9.230
  873SOL    HW2 3507   1.726   0.510   9.213
  874SOL     OW 3508   1.396   1.134   8.012
  874SOL    HW1 3509   1.483   1.159   7.980
  874SOL    HW2 3510   1.336   1.196   7.970
  875SOL     OW 3511   0.565   0.195   8.327
  875SOL    HW1 3512   0.569   0.221   8.419
  875SOL    HW2 3513   0.548   0.277   8.280
  876SOL     OW 3514   1.000   1.436   7.919
  876SOL    HW1 3515   0.961   1.509   7.872
  876SOL    HW2 3516   0.982   1.455   8.012
  877SOL     OW 3517   0.362   1.833   8.325
  877SOL    HW1 3518   0.420   1.757   8.335
  877SOL    HW2 3519   0.420   1.908   8.339
  878SOL     OW 3520   1.803   1.052   8.329
  878SOL    HW1 3521   1.750   1.044   8.250
  878SOL    HW2 3522   1.740   1.057   8.400
  879SOL     OW 3523   1.219   1.538   8.964
  879SOL    HW1 3524   1.206   1.467   9.026
  879SOL    HW2 3525   1.151   1.524   8.897
  880SOL     OW 3526   0.310   0.949   7.690
  880SOL    HW1 3527   0.393   0.971   7.648
  880SOL    HW2 3528   0.299   0.855   7.674
  881SOL     OW 3529   1.484   0.753   8.175
  881SOL    HW1 3530   1.483   0.715   8.263
  881SOL    HW2 3531   1.560   0.811   8.175
  882SOL     OW 3532   0.474   1.264   9.187
  882SOL    HW1 3533   0.448   1.270   9.095
  882SOL    HW2 3534   0.391   1.264   9.235
  883SOL     OW 3535   0.203   0.290   8.951
  883SOL    HW1 3536   0.109   0.307   8.952
  883SOL    HW2 3537   0.213   0.208   8.998
  884SOL     OW 3538   0.462   1.741   7.761
  884SOL    HW1 3539   0.508   1.793   7.826
  884SOL    HW2 3540   0.531   1.700   7.709
  885SOL     OW 3541   1.448   0.179   7.857
  885SOL    HW1 3542   1.393   0.110   7.820
  885SOL    HW2 3543   1.513   0.133   7.909
  886SOL     OW 3544   0.258   1.791   8.676
  886SOL    HW1 3545   0.298   1.718   8.724
  886SOL    HW2 3546   0.255   1.760   8.585
  887SOL     OW 3547   0.939   1.700   8.341
  887SOL    HW1 3548   1.016   1.648   8.365
  887SOL    HW2 3549   0.899   1.652   8.268
  888SOL     OW 3550   0.400   0.695   7.918
  888SOL    HW1 3551   0.424   0.604   7.933
  888SOL    HW2 3552   0.308   0.700   7.943
  889SOL     OW 3553   1.528   0.224   9.173
  889SOL    HW1 3554   1.519   0.248   9.265
  889SOL    HW2 3555   1.519   0.129   9.171
  890SOL     OW 3556   0.648   0.123   7.554
  890SOL    HW1 3557   0.667   0.037   7.590
  890SOL    HW2 3558   0.588   0.107   7.481
  891SOL     OW 3559   0.771   0.289   9.224
  891SOL    HW1 3560   0.853   0.240   9.222
  891SOL    HW2 3561   0.720   0.248   9.294
  892SOL     OW 3562   0.875   1.523   8.643
  892SOL    HW1 3563   0.858   1.484   8.557
  892SOL    HW2 3564   0.943   1.468   8.681
  893SOL     OW 3565   1.336   0.588   8.880
  893SOL    HW1 3566   1.368   0.559   8.965
  893SOL    HW2 3567   1.372   0.676   8.869
  894SOL     OW 3568   0.819   1.385   8.395
  894SOL    HW1 3569   0.904   1.376   8.353
  894SOL    HW2 3570   0.757   1.395   8.322
  895SOL     OW 3571   0.931   0.513   8.344
  895SOL    HW1 3572   0.905   0.504   8.252
  895SOL    HW2 3573   0.954   0.425   8.371
  896SOL     OW 3574   0.549   0.054   7.936
  896SOL    HW1 3575   0.476   0.061   7.998
  896SOL    HW2 3576   0.548   0.137   7.888
  897SOL     OW 3577   0.360   0.027   7.649
  897SOL    HW1 3578   0.352   0.092   7.580
  897SOL    HW2 3579   0.449   0.037   7.682
  898SOL     OW 3580   0.948   0.253   7.904
  898SOL    HW1 3581   0.921   0.290   7.820
  898SOL    HW2 3582   1.043   0.261   7.905
  899SOL     OW 3583   1.078   0.688   8.903
  899SOL    HW1 3584   1.011   0.620   8.910
  899SOL    HW2 3585   1.161   0.640   8.898
  900SOL     OW 3586   1.231   1.557   8.242
  900SOL    HW1 3587   1.226   1.628   8.177
  900SOL    HW2 3588   1.285   1.593   8.312
  901SOL     OW 3589   0.466   1.151   8.177
  901SOL    HW1 3590   0.396   1.124   8.238
  901SOL    HW2 3591   0.428   1.136   8.090
  902SOL     OW 3592   1.250   1.773   8.083
  902SOL    HW1 3593   1.339   1.783   8.048
  902SOL    HW2 3594   1.219   1.862   8.097
  903SOL     OW 3595   1.021   0.536   7.482
  903SOL    HW1 3596   0.978   0.619   7.461
  903SOL    HW2 3597   1.086   0.558   7.548
  904SOL     OW 3598   0.084   0.579   8.839
  904SOL    HW1 3599   0.173   0.560   8.809
  904SOL    HW2 3600   0.095   0.648   8.904
  905SOL     OW 3601   0.571   0.230   8.606
  905SOL    HW1 3602   0.591   0.137   8.614
  905SOL    HW2 3603   0.480   0.239   8.635
  906SOL     OW 3604   0.870   0.459   8.084
  906SOL    HW1 3605   0.824   0.514   8.021
  906SOL    HW2 3606   0.893   0.380   8.035
  907SOL     OW 3607   0.998   0.034   8.233
  907SOL    HW1 3608   0.956   0.068   8.154
  907SOL    HW2 3609   1.011   3.941   8.215
  908SOL     OW 3610   1.443   1.160   8.314
  908SOL    HW1 3611   1.367   1.102   8.308
  908SOL    HW2 3612   1.476   1.166   8.225
  909SOL     OW 3613   1.464   0.611   8.415
  909SOL    HW1 3614   1.405   0.535   8.420
  909SOL    HW2 3615   1.521   0.602   8.491
  910SOL     OW 3616   1.830   0.813   7.846
  910SOL    HW1 3617   1.892   0.763   7.898
  910SOL    HW2 3618   1.813   0.758   7.770
  911SOL     OW 3619   0.487   1.428   7.609
  911SOL    HW1 3620   0.410   1.396   7.654
  911SOL    HW2 3621   0.488   1.380   7.526
  912SOL     OW 3622   1.668   1.247   8.114
  912SOL    HW1 3623   1.757   1.266   8.143
  912SOL    HW2 3624   1.622   1.331   8.118
  913SOL     OW 3625   1.395   0.579   7.514
  913SOL    HW1 3626   1.333   0.559   7.585
  913SOL    HW2 3627   1.481   0.569   7.554
  914SOL     OW 3628   0.553   0.269   7.765
  914SOL    HW1 3629   0.606   0.229   7.696
  914SOL    HW2 3630   0.525   0.353   7.728
  915SOL     OW 3631   1.745   1.235   9.009
  915SOL    HW1 3632   1.833   1.198   9.000
  915SOL    HW2 3633   1.760   1.324   9.040
  916SOL     OW 3634   1.050   1.354   8.782
  916SOL    HW1 3635   0.974   1.321   8.830
  916SOL    HW2 3636   1.125   1.310   8.823
  917SOL     OW 3637   1.601   1.622   9.104
  917SOL    HW1 3638   1.583   1.653   9.015
  917SOL    HW2 3639   1.683   1.573   9.097
  918SOL     OW 3640   1.139   1.218   8.550
  918SOL    HW1 3641   1.074   1.251   8.612
  918SOL    HW2 3642   1.109   1.250   8.465
  919SOL     OW 3643   1.618   1.090   8.525
  919SOL    HW1 3644   1.612   1.156   8.595
  919SOL    HW2 3645   1.547   1.111   8.465
  920SOL     OW 3646   0.911   0.123   8.848
  920SOL    HW1 3647   0.931   0.090   8.760
  920SOL    HW2 3648   0.993   0.163   8.878
  921SOL     OW 3649   0.983   1.116   9.172
  921SOL    HW1 3650   0.892   1.132   9.196
  921SOL    HW2 3651   0.980   1.037   9.118
  922SOL     OW 3652   0.706   1.060   7.820
  922SOL    HW1 3653   0.693   1.042   7.913
  922SOL    HW2 3654   0.782   1.008   7.795
  923SOL     OW 3655   0.425   0.821   8.703
  923SOL    HW1 3656   0.494   0.827   8.770
  923SOL    HW2 3657   0.391   0.732   8.712
  924SOL     OW 3658   1.265   0.373   8.729
  924SOL    HW1 3659   1.298   0.453   8.772
  924SOL    HW2 3660   1.178   0.396   8.699
  925SOL     OW 3661   0.064   1.577   8.789
  925SOL    HW1 3662   0.068   1.602   8.697
  925SOL    HW2 3663   0.156   1.575   8.817
  926SOL     OW 3664   0.355   1.103   7.927
  926SOL    HW1 3665   0.359   1.184   7.876
  926SOL    HW2 3666   0.358   1.033   7.862
  927SOL     OW 3667   0.553   0.526   8.302
  927SOL    HW1 3668   0.564   0.586   8.229
  927SOL    HW2 3669   0.619   0.553   8.367
  928SOL     OW 3670   1.253   1.327   7.890
  928SOL    HW1 3671   1.290   1.403   7.845
  928SOL    HW2 3672   1.161   1.348   7.901
  929SOL     OW 3673   1.285   1.464   8.596
  929SOL    HW1 3674   1.338   1.464   8.675
  929SOL    HW2 3675   1.232   1.385   8.602
  930SOL     OW 3676   1.573   0.638   7.939
  930SOL    HW1 3677   1.526   0.685   8.008
  930SOL    HW2 3678   1.622   0.705   7.892
  931SOL     OW 3679   0.346   1.529   8.764
  931SOL    HW1 3680   0.337   1.476   8.684
  931SOL    HW2 3681   0.440   1.544   8.773
  932SOL     OW 3682   0.425   0.734   9.050
  932SOL    HW1 3683   0.489   0.778   8.994
  932SOL    HW2 3684   0.459   0.645   9.061
  933SOL     OW 3685   1.610   0.785   9.137
  933SOL    HW1 3686   1.524   0.826   9.130
  933SOL    HW2 3687   1.662   0.825   9.068
  934SOL     OW 3688   1.002   0.148   9.232
  934SOL    HW1 3689   1.065   0.213   9.201
  934SOL    HW2 3690   0.995   0.085   9.160
  935SOL     OW 3691   0.491   0.037   9.209
  935SOL    HW1 3692   0.489   0.054   9.115
  935SOL    HW2 3693   0.426   0.098   9.245
  936SOL     OW 3694   0.587   0.877   8.481
  936SOL    HW1 3695   0.623   0.966   8.485
  936SOL    HW2 3696   0.530   0.870   8.558
  937SOL     OW 3697   1.341   0.857   8.468
  937SOL    HW1 3698   1.255   0.841   8.428
  937SOL    HW2 3699   1.388   0.774   8.457
  938SOL     OW 3700   1.197   0.541   7.701
  938SOL    HW1 3701   1.205   0.462   7.754
  938SOL    HW2 3702   1.155   0.604   7.758
  939SOL     OW 3703   0.309   0.210   8.684
  939SOL    HW1 3704   0.265   0.247   8.761
  939SOL    HW2 3705   0.296   0.116   8.692
  940SOL     OW 3706   0.063   1.304   8.730
  940SOL    HW1 3707   0.093   1.259   8.809
  940SOL    HW2 3708   0.055   1.396   8.757
  941SOL     OW 3709   0.721   0.632   8.495
  941SOL    HW1 3710   0.797   0.621   8.438
  941SOL    HW2 3711   0.690   0.721   8.478
  942SOL     OW 3712   1.742   0.959   9.310
  942SOL    HW1 3713   1.698   0.893   9.257
  942SOL    HW2 3714   1.681   0.978   9.381
  943SOL     OW 3715   0.339   0.052   8.113
  943SOL    HW1 3716   0.308   0.143   8.114
  943SOL    HW2 3717   0.306   0.015   8.195
  944SOL     OW 3718   1.612   0.400   7.821
  944SOL    HW1 3719   1.560   0.333   7.866
  944SOL    HW2 3720   1.591   0.481   7.868
  945SOL     OW 3721   1.030   0.760   8.405
  945SOL    HW1 3722   1.019   0.776   8.498
  945SOL    HW2 3723   1.003   0.669   8.393
  946SOL     OW 3724   0.980   1.566   9.171
  946SOL    HW1 3725   0.963   1.610   9.087
  946SOL    HW2 3726   1.022   1.484   9.148
  947SOL     OW 3727   1.842   1.491   9.059
  947SOL    HW1 3728   1.877   1.512   8.972
  947SOL    HW2 3729   1.914   1.511   9.119
  948SOL     OW 3730   0.359   0.923   9.244
  948SOL    HW1 3731   0.435   0.943   9.298
  948SOL    HW2 3732   0.389   0.854   9.184
  949SOL     OW 3733   1.498   0.267   7.577
  949SOL    HW1 3734   1.428   0.204   7.591
  949SOL    HW2 3735   1.509   0.310   7.663
  950SOL     OW 3736   1.281   0.825   7.472
  950SOL    HW1 3737   1.325   0.740   7.479
  950SOL    HW2 3738   1.314   0.864   7.391
  951SOL     OW 3739   1.070   1.340   8.306
  951SOL    HW1 3740   1.076   1.268   8.244
  951SOL    HW2 3741   1.131   1.406   8.272
  952SOL     OW 3742   0.314   0.801   8.398
  952SOL    HW1 3743   0.408   0.817   8.392
  952SOL    HW2 3744   0.306   0.711   8.430
  953SOL     OW 3745   0.341   0.529   8.466
  953SOL    HW1 3746   0.297   0.446   8.448
  953SOL    HW2 3747   0.416   0.530   8.405
  954SOL     OW 3748   1.135   0.378   9.150
  954SOL    HW1 3749   1.087   0.432   9.212
  954SOL    HW2 3750   1.222   0.419   9.144
  955SOL     OW 3751   1.152   0.224   8.931
  955SOL    HW1 3752   1.143   0.277   9.010
  955SOL    HW2 3753   1.183   0.286   8.865
  956SOL     OW 3754   0.002   1.312   7.632
  956SOL    HW1 3755   3.908   1.329   7.633
  956SOL    HW2 3756   0.010   1.218   7.650
  957SOL     OW 3757   0.082   1.797   8.332
  957SOL    HW1 3758   0.098   1.703   8.326
  957SOL    HW2 3759   0.170   1.835   8.340
  958SOL     OW 3760   0.490   1.572   8.355
  958SOL    HW1 3761   0.559   1.633   8.381
  958SOL    HW2 3762   0.534   1.510   8.297
  959SOL     OW 3763   0.968   0.785   8.669
  959SOL    HW1 3764   1.027   0.769   8.743
  959SOL    HW2 3765   0.886   0.743   8.694
  960SOL     OW 3766   0.033   0.588   8.559
  960SOL    HW1 3767   0.082   0.523   8.508
  960SOL    HW2 3768   0.061   0.574   8.649
  961SOL     OW 3769   0.210   0.512   9.170
  961SOL    HW1 3770   0.252   0.467   9.097
  961SOL    HW2 3771   0.173   0.591   9.131
  962SOL     OW 3772   1.381   0.932   9.102
  962SOL    HW1 3773   1.402   1.025   9.097
  962SOL    HW2 3774   1.376   0.903   9.011
  963SOL     OW 3775   0.818   0.570   7.817
  963SOL    HW1 3776   0.826   0.496   7.757
  963SOL    HW2 3777   0.744   0.621   7.783
  964SOL     OW 3778   1.637   0.601   8.626
  964SOL    HW1 3779   1.629   0.541   8.699
  964SOL    HW2 3780   1.726   0.586   8.592
  965SOL     OW 3781   0.302   1.543   9.164
  965SOL    HW1 3782   0.257   1.611   9.215
  965SOL    HW2 3783   0.277   1.461   9.209
  966SOL     OW 3784   0.723   0.447   8.695
  966SOL    HW1 3785   0.668   0.372   8.673
  966SOL    HW2 3786   0.708   0.509   8.623
  967SOL     OW 3787   0.919   1.679   8.922
  967SOL    HW1 3788   0.896   1.637   8.839
  967SOL    HW2 3789   0.913   1.773   8.904
  968SOL     OW 3790   0.449   0.493   7.648
  968SOL    HW1 3791   0.513   0.562   7.667
  968SOL    HW2 3792   0.370   0.540   7.623
  969SOL     OW 3793   0.151   1.133   8.925
  969SOL    HW1 3794   0.152   1.083   9.007
  969SOL    HW2 3795   0.168   1.067   8.858
  970SOL     OW 3796   1.316   1.041   8.667
  970SOL    HW1 3797   1.337   0.979   8.598
  970SOL    HW2 3798   1.254   1.102   8.626
  971SOL     OW 3799   1.323   0.863   7.747
  971SOL    HW1 3800   1.249   0.837   7.801
  971SOL    HW2 3801   1.293   0.851   7.657
  972SOL     OW 3802   1.245   1.736   8.547
  972SOL    HW1 3803   1.329   1.758   8.509
  972SOL    HW2 3804   1.253   1.643   8.571
  973SOL     OW 3805   0.081   1.217   8.477
  973SOL    HW1 3806   0.085   1.242   8.569
  973SOL    HW2 3807   3.989   1.230   8.453
  974SOL     OW 3808   0.682   1.672   9.191
  974SOL    HW1 3809   0.620   1.744   9.178
  974SOL    HW2 3810   0.752   1.690   9.128
  975SOL     OW 3811   1.719   0.121   7.943
  975SOL    HW1 3812   1.795   0.133   7.886
  975SOL    HW2 3813   1.705   0.026   7.944
  976SOL     OW 3814   0.179   1.757   9.282
  976SOL    HW1 3815   0.123   1.704   9.338
  976SOL    HW2 3816   0.217   1.822   9.341
  977SOL     OW 3817   1.276   0.922   8.122
  977SOL    HW1 3818   1.350   0.863   8.138
  977SOL    HW2 3819   1.315   0.996   8.074
  978SOL     OW 3820   0.799   1.275   8.870
  978SOL    HW1 3821   0.771   1.320   8.950
  978SOL    HW2 3822   0.726   1.287   8.809
  979SOL     OW 3823   0.666   1.633   7.605
  979SOL    HW1 3824   0.680   1.644   7.511
  979SOL    HW2 3825   0.614   1.554   7.613
  980SOL     OW 3826   1.569   1.723   8.842
  980SOL    HW1 3827   1.624   1.717   8.764
  980SOL    HW2 3828   1.554   1.817   8.854
  981SOL     OW 3829   1.840   0.180   8.409
  981SOL    HW1 3830   1.872   0.122   8.339
  981SOL    HW2 3831   1.749   0.198   8.385
  982SOL     OW 3832   0.278   0.320   8.160
  982SOL    HW1 3833   0.193   0.353   8.132
  982SOL    HW2 3834   0.268   0.308   8.255
  983SOL     OW 3835   0.823   1.006   8.825
  983SOL    HW1 3836   0.866   0.998   8.739
  983SOL    HW2 3837   0.818   1.100   8.841
  984SOL     OW 3838   0.913   0.909   7.744
  984SOL    HW1 3839   0.971   0.941   7.674
  984SOL    HW2 3840   0.965   0.842   7.789
  985SOL     OW 3841   0.374   1.301   8.941
  985SOL    HW1 3842   0.359   1.381   8.892
  985SOL    HW2 3843   0.297   1.247   8.923
  986SOL     OW 3844   1.603   1.279   8.725
  986SOL    HW1 3845   1.665   1.266   8.796
  986SOL    HW2 3846   1.541   1.344   8.759
  987SOL     OW 3847   1.065   1.110   8.164
  987SOL    HW1 3848   0.991   1.061   8.198
  987SOL    HW2 3849   1.127   1.043   8.135
  988SOL     OW 3850   1.016   0.252   8.421
  988SOL    HW1 3851   1.007   0.201   8.340
  988SOL    HW2 3852   1.017   0.186   8.490
  989SOL     OW 3853   0.605   1.478   7.933
  989SOL    HW1 3854   0.660   1.435   7.867
  989SOL    HW2 3855   0.529   1.509   7.883
  990SOL     OW 3856   1.723   0.396   8.817
  990SOL    HW1 3857   1.796   0.457   8.823
  990SOL    HW2 3858   1.755   0.324   8.762
  991SOL     OW 3859   0.255   1.340   7.740
  991SOL    HW1 3860   0.161   1.340   7.724
  991SOL    HW2 3861   0.266   1.382   7.825
  992SOL     OW 3862   0.112   0.997   9.167
  992SOL    HW1 3863   0.054   0.991   9.243
  992SOL    HW2 3864   0.199   0.981   9.203
  993SOL     OW 3865   0.695   0.264   8.956
  993SOL    HW1 3866   0.762   0.210   8.913
  993SOL    HW2 3867   0.724   0.270   9.047
  994SOL     OW 3868   0.089   0.309   7.466
  994SOL    HW1 3869   3.993   0.313   7.461
  994SOL    HW2 3870   0.118   0.392   7.428
  995SOL     OW 3871   1.422   0.855   8.842
  995SOL    HW1 3872   1.372   0.916   8.789
  995SOL    HW2 3873   1.510   0.858   8.806
  996SOL     OW 3874   0.032   0.180   7.729
  996SOL    HW1 3875   0.037   0.219   7.642
  996SOL    HW2 3876   0.105   0.218   7.777
  997SOL     OW 3877   0.624   0.827   8.886
  997SOL    HW1 3878   0.681   0.903   8.871
  997SOL    HW2 3879   0.684   0.753   8.893
  998SOL     OW 3880   1.493   1.786   8.433
  998SOL    HW1 3881   1.511   1.866   8.384
  998SOL    HW2 3882   1.574   1.736   8.428
  999SOL     OW 3883   0.719   0.558   9.153
  999SOL    HW1 3884   0.765   0.618   9.211
  999SOL    HW2 3885   0.739   0.471   9.187
 1000SOL     OW 3886   1.472   1.191   9.075
 1000SOL    HW1 3887   1.462   1.208   9.169
 1000SOL    HW2 3888   1.564   1.210   9.058
 1001SOL     OW 3889   0.375   1.747   9.002
 1001SOL    HW1 3890   0.288   1.785   8.992
 1001SOL    HW2 3891   0.360   1.663   9.045
 1002SOL     OW 3892   1.661   0.878   8.704
 1002SOL    HW1 3893   1.658   0.794   8.659
 1002SOL    HW2 3894   1.650   0.943   8.635
 1003SOL     OW 3895   1.220   0.341   7.886
 1003SOL    HW1 3896   1.290   0.276   7.879
 1003SOL    HW2 3897   1.236   0.384   7.970
 1004SOL     OW 3898   0.587   0.735   8.123
 1004SOL    HW1 3899   0.626   0.821   8.108
 1004SOL    HW2 3900   0.522   0.726   8.053
 1005SOL     OW 3901   1.745   0.384   9.092
 1005SOL    HW1 3902   1.731   0.390   8.997
 1005SOL    HW2 3903   1.687   0.314   9.120
 1006SOL     OW 3904   1.752   0.933   8.958
 1006SOL    HW1 3905   1.735   1.026   8.971
 1006SOL    HW2 3906   1.730   0.917   8.866
 1007SOL     OW 3907   0.841   1.370   7.480
 1007SOL    HW1 3908   0.828   1.396   7.571
 1007SOL    HW2 3909   0.869   1.450   7.436
 1008SOL     OW 3910   0.663   1.781   8.387
 1008SOL    HW1 3911   0.646   1.873   8.366
 1008SOL    HW2 3912   0.758   1.772   8.377
 1009SOL     OW 3913   0.869   0.971   8.301
 1009SOL    HW1 3914   0.920   0.898   8.337
 1009SOL    HW2 3915   0.830   1.013   8.377
 1010SOL     OW 3916   1.065   0.978   7.534
 1010SOL    HW1 3917   1.049   1.037   7.461
 1010SOL    HW2 3918   1.142   0.928   7.508
 1011SOL     OW 3919   1.836   1.500   8.275
 1011SOL    HW1 3920   1.802   1.590   8.271
 1011SOL    HW2 3921   1.842   1.481   8.369
 1012SOL     OW 3922   0.232   1.305   9.305
 1012SOL    HW1 3923   0.155   1.256   9.276
 1012SOL    HW2 3924   0.218   1.317   9.399
 1013SOL     OW 3925   0.134   1.292   8.178
 1013SOL    HW1 3926   0.153   1.233   8.251
 1013SOL    HW2 3927   0.105   1.233   8.108
 1014SOL     OW 3928   0.686   1.410   9.080
 1014SOL    HW1 3929   0.606   1.367   9.113
 1014SOL    HW2 3930   0.683   1.498   9.117
 1015SOL     OW 3931   1.809   0.184   8.681
 1015SOL    HW1 3932   1.812   0.090   8.700
 1015SOL    HW2 3933   1.825   0.190   8.587
 1016SOL     OW 3934   0.448   0.439   7.978
 1016SOL    HW1 3935   0.483   0.363   7.931
 1016SOL    HW2 3936   0.393   0.402   8.047
 1017SOL     OW 3937   1.703   1.504   8.552
 1017SOL    HW1 3938   1.626   1.480   8.500
 1017SOL    HW2 3939   1.715   1.430   8.612
 1018SOL     OW 3940   0.337   0.562   8.742
 1018SOL    HW1 3941   0.392   0.505   8.796
 1018SOL    HW2 3942   0.352   0.532   8.653
 1019SOL     OW 3943   0.831   1.580   8.121
 1019SOL    HW1 3944   0.827   1.633   8.042
 1019SOL    HW2 3945   0.754   1.523   8.116
 1020SOL     OW 3946   1.458   0.258   8.559
 1020SOL    HW1 3947   1.478   0.171   8.594
 1020SOL    HW2 3948   1.403   0.299   8.626
 1021SOL     OW 3949   0.998   0.023   8.592
 1021SOL    HW1 3950   0.914   0.011   8.546
 1021SOL    HW2 3951   1.034   3.934   8.598
 1022SOL     OW 3952   0.776   1.331   7.770
 1022SOL    HW1 3953   0.750   1.239   7.778
 1022SOL    HW2 3954   0.860   1.337   7.816
 1023SOL     OW 3955   0.621   1.560   8.737
 1023SOL    HW1 3956   0.621   1.643   8.784
 1023SOL    HW2 3957   0.709   1.553   8.699
 1024SOL     OW 3958   1.305   0.071   7.621
 1024SOL    HW1 3959   1.311   3.982   7.585
 1024SOL    HW2 3960   1.225   0.070   7.674
 1025SOL     OW 3961   1.275   0.455   8.130
 1025SOL    HW1 3962   1.229   0.538   8.124
 1025SOL    HW2 3963   1.280   0.437   8.224
 1026SOL     OW 3964   1.585   0.209   8.317
 1026SOL    HW1 3965   1.536   0.236   8.395
 1026SOL    HW2 3966   1.587   0.287   8.262
 1027SOL     OW 3967   0.047   1.044   7.695
 1027SOL    HW1 3968   0.142   1.030   7.687
 1027SOL    HW2 3969   0.012   0.956   7.711
 1028SOL     OW 3970   0.864   1.645   7.813
 1028SOL    HW1 3971   0.801   1.643   7.741
 1028SOL    HW2 3972   0.856   1.734   7.849
 1029SOL     OW 3973   0.231   0.633   9.424
 1029SOL    HW1 3974   0.138   0.637   9.444
 1029SOL    HW2 3975   0.235   0.601   9.334
 1030SOL     OW 3976   0.222   0.292  10.291
 1030SOL    HW1 3977   0.245   0.252  10.375
 1030SOL    HW2 3978   0.127   0.285  10.286
 1031SOL     OW 3979   0.020   0.384   9.947
 1031SOL    HW1 3980   3.928   0.401   9.967
 1031SOL    HW2 3981   0.023   0.289   9.933
 1032SOL     OW 3982   0.587   1.297  10.516
 1032SOL    HW1 3983   0.501   1.296  10.473
 1032SOL    HW2 3984   0.599   1.388  10.544
 1033SOL     OW 3985   1.539   1.502  10.015
 1033SOL    HW1 3986   1.517   1.477  10.105
 1033SOL    HW2 3987   1.459   1.483   9.965
 1034SOL     OW 3988   1.134   0.700  10.001
 1034SOL    HW1 3989   1.182   0.783   9.990
 1034SOL    HW2 3990   1.086   0.711  10.083
 1035SOL     OW 3991   1.785   0.618   9.528
 1035SOL    HW1 3992   1.754   0.611   9.438
 1035SOL    HW2 3993   1.756   0.536   9.570
 1036SOL     OW 3994   0.744   1.135  10.358
 1036SOL    HW1 3995   0.686   1.173  10.424
 1036SOL    HW2 3996   0.782   1.210  10.313
 1037SOL     OW 3997   0.878   0.762  11.137
 1037SOL    HW1 3998   0.869   0.833  11.201
 1037SOL    HW2 3999   0.898   0.806  11.055
 1038SOL     OW 4000   0.684   0.998   9.954
 1038SOL    HW1 4001   0.752   0.990  10.022
 1038SOL    HW2 4002   0.616   1.052   9.994
 1039SOL     OW 4003   0.714   1.148  11.133
 1039SOL    HW1 4004   0.763   1.224  11.164
 1039SOL    HW2 4005   0.636   1.184  11.092
 1040SOL     OW 4006   0.354   1.396  10.390
 1040SOL    HW1 4007   0.273   1.370  10.345
 1040SOL    HW2 4008   0.397   1.455  10.328
 1041SOL     OW 4009   1.446   1.486  10.677
 1041SOL    HW1 4010   1.490   1.571  10.682
 1041SOL    HW2 4011   1.375   1.492  10.741
 1042SOL     OW 4012   0.461   0.409  10.798
 1042SOL    HW1 4013   0.544   0.363  10.802
 1042SOL    HW2 4014   0.395   0.341  10.805
 1043SOL     OW 4015   1.611   0.451  10.047
 1043SOL    HW1 4016   1.549   0.483   9.981
 1043SOL    HW2 4017   1.616   0.521  10.112
 1044SOL     OW 4018   0.218   1.723   9.764
 1044SOL    HW1 4019   0.242   1.795   9.823
 1044SOL    HW2 4020   0.293   1.714   9.706
 1045SOL     OW 4021   1.136   1.343  11.005
 1045SOL    HW1 4022   1.178   1.335  11.091
 1045SOL    HW2 4023   1.085   1.262  10.996
 1046SOL     OW 4024   0.258   1.456   9.844
 1046SOL    HW1 4025   0.220   1.543   9.832
 1046SOL    HW2 4026   0.195   1.410   9.900
 1047SOL     OW 4027   0.250   1.063  10.192
 1047SOL    HW1 4028   0.271   0.977  10.229
 1047SOL    HW2 4029   0.197   1.106  10.259
 1048SOL     OW 4030   0.606   1.797  10.732
 1048SOL    HW1 4031   0.523   1.779  10.777
 1048SOL    HW2 4032   0.630   1.885  10.761
 1049SOL     OW 4033   0.572   0.989   9.452
 1049SOL    HW1 4034   0.623   1.031   9.384
 1049SOL    HW2 4035   0.612   1.019   9.534
 1050SOL     OW 4036   1.588   0.143  10.764
 1050SOL    HW1 4037   1.620   0.216  10.711
 1050SOL    HW2 4038   1.546   0.185  10.839
 1051SOL     OW 4039   0.144   0.655   9.879
 1051SOL    HW1 4040   0.101   0.569   9.884
 1051SOL    HW2 4041   0.105   0.705   9.950
 1052SOL     OW 4042   0.043   1.584   9.444
 1052SOL    HW1 4043   0.044   1.495   9.477
 1052SOL    HW2 4044   3.953   1.615   9.459
 1053SOL     OW 4045   1.687   0.916   9.954
 1053SOL    HW1 4046   1.772   0.877   9.936
 1053SOL    HW2 4047   1.668   0.971   9.877
 1054SOL     OW 4048   1.653   1.105   9.741
 1054SOL    HW1 4049   1.740   1.104   9.701
 1054SOL    HW2 4050   1.661   1.166   9.814
 1055SOL     OW 4051   0.150   0.754  10.900
 1055SOL    HW1 4052   0.245   0.753  10.892
 1055SOL    HW2 4053   0.131   0.839  10.939
 1056SOL     OW 4054   0.612   1.389  10.048
 1056SOL    HW1 4055   0.568   1.305  10.055
 1056SOL    HW2 4056   0.599   1.416   9.957
 1057SOL     OW 4057   1.278   1.229  10.734
 1057SOL    HW1 4058   1.309   1.163  10.672
 1057SOL    HW2 4059   1.340   1.226  10.806
 1058SOL     OW 4060   0.826   0.008   9.830
 1058SOL    HW1 4061   0.870   0.088   9.802
 1058SOL    HW2 4062   0.732   0.030   9.826
 1059SOL     OW 4063   0.183   0.946  10.592
 1059SOL    HW1 4064   0.271   0.912  10.581
 1059SOL    HW2 4065   0.133   0.906  10.521
 1060SOL     OW 4066   1.533   1.001   9.512
 1060SOL    HW1 4067   1.464   0.944   9.545
 1060SOL    HW2 4068   1.576   1.035   9.591
 1061SOL     OW 4069   1.186   1.816  10.938
 1061SOL    HW1 4070   1.188   1.877  10.864
 1061SOL    HW2 4071   1.201   1.730  10.899
 1062SOL     OW 4072   0.350   0.240  11.175
 1062SOL    HW1 4073   0.394   0.324  11.159
 1062SOL    HW2 4074   0.258   0.264  11.185
 1063SOL     OW 4075   1.471   1.418  10.266
 1063SOL    HW1 4076   1.403   1.435  10.331
 1063SOL    HW2 4077   1.459   1.327  10.241
 1064SOL     OW 4078   1.562   1.729   9.862
 1064SOL    HW1 4079   1.569   1.684   9.777
 1064SOL    HW2 4080   1.564   1.658   9.926
 1065SOL     OW 4081   0.596   0.714   9.581
 1065SOL    HW1 4082   0.601   0.799   9.538
 1065SOL    HW2 4083   0.532   0.727   9.652
 1066SOL     OW 4084   1.274   0.377  10.252
 1066SOL    HW1 4085   1.187   0.338  10.260
 1066SOL    HW2 4086   1.332   0.317  10.299
 1067SOL     OW 4087   1.554   1.648   9.603
 1067SOL    HW1 4088   1.638   1.689   9.584
 1067SOL    HW2 4089   1.516   1.628   9.518
 1068SOL     OW 4090   0.794   0.613  10.760
 1068SOL    HW1 4091   0.766   0.586  10.847
 1068SOL    HW2 4092   0.761   0.544  10.702
 1069SOL     OW 4093   1.393   0.474  10.987
 1069SOL    HW1 4094   1.401   0.521  11.071
 1069SOL    HW2 4095   1.448   0.397  10.998
 1070SOL     OW 4096   0.948   0.885  10.898
 1070SOL    HW1 4097   1.004   0.818  10.858
 1070SOL    HW2 4098   0.899   0.922  10.825
 1071SOL     OW 4099   0.998   0.401  10.540
 1071SOL    HW1 4100   0.910   0.417  10.573
 1071SOL    HW2 4101   0.985   0.375  10.449
 1072SOL     OW 4102   1.054   0.702   9.733
 1072SOL    HW1 4103   1.074   0.696   9.827
 1072SOL    HW2 4104   0.971   0.655   9.723
 1073SOL     OW 4105   0.083   0.833  10.099
 1073SOL    HW1 4106   0.150   0.796  10.156
 1073SOL    HW2 4107   0.112   0.923  10.083
 1074SOL     OW 4108   0.130   1.870  10.896
 1074SOL    HW1 4109   0.139   1.832  10.983
 1074SOL    HW2 4110   0.037   1.862  10.875
 1075SOL     OW 4111   0.894   0.352   9.510
 1075SOL    HW1 4112   0.937   0.414   9.450
 1075SOL    HW2 4113   0.888   0.271   9.461
 1076SOL     OW 4114   1.701   0.574  11.141
 1076SOL    HW1 4115   1.667   0.648  11.092
 1076SOL    HW2 4116   1.726   0.510  11.074
 1077SOL     OW 4117   1.382   1.141   9.847
 1077SOL    HW1 4118   1.463   1.134   9.797
 1077SOL    HW2 4119   1.326   1.198   9.795
 1078SOL     OW 4120   0.565   0.195  10.189
 1078SOL    HW1 4121   0.569   0.221  10.281
 1078SOL    HW2 4122   0.548   0.277  10.142
 1079SOL     OW 4123   0.990   1.439   9.776
 1079SOL    HW1 4124   0.966   1.517   9.726
 1079SOL    HW2 4125   0.973   1.462   9.867
 1080SOL     OW 4126   0.362   1.832  10.187
 1080SOL    HW1 4127   0.419   1.756  10.198
 1080SOL    HW2 4128   0.420   1.908  10.201
 1081SOL     OW 4129   1.803   1.042  10.189
 1081SOL    HW1 4130   1.751   1.038  10.108
 1081SOL    HW2 4131   1.738   1.052  10.259
 1082SOL     OW 4132   1.219   1.538  10.826
 1082SOL    HW1 4133   1.207   1.467  10.888
 1082SOL    HW2 4134   1.151   1.525  10.760
 1083SOL     OW 4135   0.310   0.949   9.553
 1083SOL    HW1 4136   0.392   0.970   9.510
 1083SOL    HW2 4137   0.298   0.855   9.537
 1084SOL     OW 4138   1.480   0.755  10.036
 1084SOL    HW1 4139   1.480   0.715  10.124
 1084SOL    HW2 4140   1.558   0.810  10.035
 1085SOL     OW 4141   0.474   1.263  11.048
 1085SOL    HW1 4142   0.448   1.270  10.956
 1085SOL    HW2 4143   0.391   1.264  11.096
 1086SOL     OW 4144   1.126   1.777   9.538
 1086SOL    HW1 4145   1.049   1.740   9.581
 1086SOL    HW2 4146   1.148   1.714   9.470
 1087SOL     OW 4147   0.203   0.290  10.813
 1087SOL    HW1 4148   0.109   0.307  10.814
 1087SOL    HW2 4149   0.213   0.208  10.860
 1088SOL     OW 4150   1.627   1.384   9.399
 1088SOL    HW1 4151   1.583   1.466   9.377
 1088SOL    HW2 4152   1.563   1.316   9.380
 1089SOL     OW 4153   0.465   1.739   9.624
 1089SOL    HW1 4154   0.510   1.793   9.688
 1089SOL    HW2 4155   0.535   1.700   9.572
 1090SOL     OW 4156   1.448   0.178   9.719
 1090SOL    HW1 4157   1.392   0.109   9.684
 1090SOL    HW2 4158   1.513   0.133   9.772
 1091SOL     OW 4159   0.260   1.791  10.538
 1091SOL    HW1 4160   0.298   1.718  10.587
 1091SOL    HW2 4161   0.253   1.758  10.448
 1092SOL     OW 4162   0.940   1.700  10.205
 1092SOL    HW1 4163   1.020   1.652  10.227
 1092SOL    HW2 4164   0.900   1.650  10.135
 1093SOL     OW 4165   0.400   0.695   9.779
 1093SOL    HW1 4166   0.424   0.603   9.796
 1093SOL    HW2 4167   0.308   0.700   9.805
 1094SOL     OW 4168   1.528   0.224  11.035
 1094SOL    HW1 4169   1.519   0.248  11.127
 1094SOL    HW2 4170   1.519   0.129  11.033
 1095SOL     OW 4171   0.648   0.124   9.416
 1095SOL    HW1 4172   0.667   0.037   9.452
 1095SOL    HW2 4173   0.588   0.107   9.343
 1096SOL     OW 4174   0.771   0.289  11.086
 1096SOL    HW1 4175   0.853   0.240  11.084
 1096SOL    HW2 4176   0.720   0.248  11.156
 1097SOL     OW 4177   0.875   1.524  10.505
 1097SOL    HW1 4178   0.858   1.484  10.419
 1097SOL    HW2 4179   0.943   1.469  10.543
 1098SOL     OW 4180   1.336   0.588  10.742
 1098SOL    HW1 4181   1.368   0.559  10.827
 1098SOL    HW2 4182   1.372   0.676  10.732
 1099SOL     OW 4183   0.818   1.386  10.257
 1099SOL    HW1 4184   0.904   1.376  10.216
 1099SOL    HW2 4185   0.757   1.395  10.184
 1100SOL     OW 4186   0.931   0.514  10.206
 1100SOL    HW1 4187   0.906   0.504  10.114
 1100SOL    HW2 4188   0.955   0.425  10.234
 1101SOL     OW 4189   0.549   0.054   9.798
 1101SOL    HW1 4190   0.476   0.061   9.860
 1101SOL    HW2 4191   0.548   0.137   9.750
 1102SOL     OW 4192   1.429   1.201   9.349
 1102SOL    HW1 4193   1.458   1.126   9.401
 1102SOL    HW2 4194   1.342   1.222   9.384
 1103SOL     OW 4195   0.359   0.027   9.512
 1103SOL    HW1 4196   0.352   0.092   9.441
 1103SOL    HW2 4197   0.449   0.037   9.544
 1104SOL     OW 4198   0.948   0.253   9.766
 1104SOL    HW1 4199   0.921   0.290   9.682
 1104SOL    HW2 4200   1.043   0.261   9.767
 1105SOL     OW 4201   1.078   0.688  10.765
 1105SOL    HW1 4202   1.011   0.620  10.772
 1105SOL    HW2 4203   1.161   0.640  10.761
 1106SOL     OW 4204   1.219   1.572  10.105
 1106SOL    HW1 4205   1.228   1.638  10.037
 1106SOL    HW2 4206   1.288   1.593  10.168
 1107SOL     OW 4207   0.467   1.152  10.039
 1107SOL    HW1 4208   0.397   1.125  10.099
 1107SOL    HW2 4209   0.429   1.137   9.952
 1108SOL     OW 4210   1.249   1.787   9.926
 1108SOL    HW1 4211   1.304   1.848   9.877
 1108SOL    HW2 4212   1.183   1.842   9.967
 1109SOL     OW 4213   1.021   0.536   9.343
 1109SOL    HW1 4214   0.978   0.619   9.323
 1109SOL    HW2 4215   1.085   0.557   9.411
 1110SOL     OW 4216   0.084   0.579  10.701
 1110SOL    HW1 4217   0.173   0.560  10.671
 1110SOL    HW2 4218   0.094   0.648  10.766
 1111SOL     OW 4219   0.571   0.230  10.468
 1111SOL    HW1 4220   0.591   0.137  10.477
 1111SOL    HW2 4221   0.480   0.239  10.497
 1112SOL     OW 4222   0.871   0.460   9.946
 1112SOL    HW1 4223   0.823   0.515   9.883
 1112SOL    HW2 4224   0.893   0.381   9.897
 1113SOL     OW 4225   0.998   0.034  10.094
 1113SOL    HW1 4226   0.954   0.068  10.016
 1113SOL    HW2 4227   1.011   3.941  10.077
 1114SOL     OW 4228   1.443   1.161  10.169
 1114SOL    HW1 4229   1.370   1.099  10.164
 1114SOL    HW2 4230   1.474   1.170  10.079
 1115SOL     OW 4231   1.464   0.611  10.276
 1115SOL    HW1 4232   1.406   0.535  10.282
 1115SOL    HW2 4233   1.521   0.603  10.353
 1116SOL     OW 4234   1.839   0.816   9.702
 1116SOL    HW1 4235   1.898   0.766   9.758
 1116SOL    HW2 4236   1.817   0.756   9.631
 1117SOL     OW 4237   0.487   1.425   9.467
 1117SOL    HW1 4238   0.411   1.395   9.515
 1117SOL    HW2 4239   0.480   1.382   9.382
 1118SOL     OW 4240   1.679   1.260   9.960
 1118SOL    HW1 4241   1.774   1.255   9.973
 1118SOL    HW2 4242   1.656   1.350   9.982
 1119SOL     OW 4243   1.395   0.580   9.377
 1119SOL    HW1 4244   1.332   0.559   9.446
 1119SOL    HW2 4245   1.481   0.563   9.416
 1120SOL     OW 4246   0.553   0.269   9.627
 1120SOL    HW1 4247   0.606   0.229   9.557
 1120SOL    HW2 4248   0.525   0.353   9.590
 1121SOL     OW 4249   1.745   1.236  10.871
 1121SOL    HW1 4250   1.833   1.199  10.862
 1121SOL    HW2 4251   1.760   1.326  10.902
 1122SOL     OW 4252   1.050   1.353  10.643
 1122SOL    HW1 4253   0.974   1.321  10.691
 1122SOL    HW2 4254   1.125   1.309  10.684
 1123SOL     OW 4255   1.600   1.624  10.965
 1123SOL    HW1 4256   1.582   1.653  10.876
 1123SOL    HW2 4257   1.683   1.576  10.959
 1124SOL     OW 4258   1.138   1.217  10.412
 1124SOL    HW1 4259   1.074   1.250  10.475
 1124SOL    HW2 4260   1.108   1.249  10.327
 1125SOL     OW 4261   1.619   1.091  10.385
 1125SOL    HW1 4262   1.613   1.156  10.455
 1125SOL    HW2 4263   1.547   1.112  10.326
 1126SOL     OW 4264   0.911   0.123  10.710
 1126SOL    HW1 4265   0.931   0.090  10.622
 1126SOL    HW2 4266   0.993   0.163  10.740
 1127SOL     OW 4267   0.983   1.116  11.033
 1127SOL    HW1 4268   0.892   1.132  11.058
 1127SOL    HW2 4269   0.980   1.037  10.980
 1128SOL     OW 4270   0.708   1.062   9.681
 1128SOL    HW1 4271   0.695   1.042   9.774
 1128SOL    HW2 4272   0.784   1.009   9.656
 1129SOL     OW 4273   0.425   0.821  10.565
 1129SOL    HW1 4274   0.494   0.827  10.632
 1129SOL    HW2 4275   0.391   0.732  10.574
 1130SOL     OW 4276   1.266   0.374  10.591
 1130SOL    HW1 4277   1.298   0.453  10.634
 1130SOL    HW2 4278   1.177   0.397  10.561
 1131SOL     OW 4279   0.064   1.578  10.651
 1131SOL    HW1 4280   0.067   1.600  10.558
 1131SOL    HW2 4281   0.155   1.576  10.678
 1132SOL     OW 4282   0.358   1.105   9.788
 1132SOL    HW1 4283   0.356   1.185   9.735
 1132SOL    HW2 4284   0.359   1.034   9.724
 1133SOL     OW 4285   0.554   0.526  10.164
 1133SOL    HW1 4286   0.565   0.586  10.091
 1133SOL    HW2 4287   0.619   0.553  10.228
 1134SOL     OW 4288   1.231   1.330   9.697
 1134SOL    HW1 4289   1.283   1.406   9.725
 1134SOL    HW2 4290   1.143   1.348   9.730
 1135SOL     OW 4291   1.285   1.464  10.458
 1135SOL    HW1 4292   1.339   1.464  10.537
 1135SOL    HW2 4293   1.231   1.385  10.466
 1136SOL     OW 4294   1.570   0.637   9.801
 1136SOL    HW1 4295   1.524   0.685   9.870
 1136SOL    HW2 4296   1.618   0.704   9.753
 1137SOL     OW 4297   0.345   1.529  10.626
 1137SOL    HW1 4298   0.337   1.476  10.547
 1137SOL    HW2 4299   0.439   1.544  10.635
 1138SOL     OW 4300   0.425   0.734  10.912
 1138SOL    HW1 4301   0.489   0.778  10.856
 1138SOL    HW2 4302   0.459   0.645  10.923
 1139SOL     OW 4303   1.610   0.784  10.999
 1139SOL    HW1 4304   1.524   0.826  10.991
 1139SOL    HW2 4305   1.662   0.825  10.929
 1140SOL     OW 4306   1.001   0.148  11.094
 1140SOL    HW1 4307   1.064   0.213  11.063
 1140SOL    HW2 4308   0.995   0.085  11.022
 1141SOL     OW 4309   0.491   0.037  11.071
 1141SOL    HW1 4310   0.489   0.054  10.977
 1141SOL    HW2 4311   0.426   0.098  11.107
 1142SOL     OW 4312   0.587   0.877  10.343
 1142SOL    HW1 4313   0.623   0.966  10.348
 1142SOL    HW2 4314   0.531   0.870  10.420
 1143SOL     OW 4315   1.341   0.857  10.329
 1143SOL    HW1 4316   1.254   0.840  10.291
 1143SOL    HW2 4317   1.388   0.775  10.318
 1144SOL     OW 4318   1.197   0.541   9.562
 1144SOL    HW1 4319   1.205   0.461   9.616
 1144SOL    HW2 4320   1.154   0.604   9.620
 1145SOL     OW 4321   0.309   0.211  10.546
 1145SOL    HW1 4322   0.265   0.248  10.623
 1145SOL    HW2 4323   0.296   0.116  10.555
 1146SOL     OW 4324   0.067   1.305  10.591
 1146SOL    HW1 4325   0.094   1.259  10.670
 1146SOL    HW2 4326   0.055   1.396  10.618
 1147SOL     OW 4327   0.721   0.632  10.357
 1147SOL    HW1 4328   0.797   0.621  10.300
 1147SOL    HW2 4329   0.690   0.721  10.340
 1148SOL     OW 4330   1.743   0.959  11.171
 1148SOL    HW1 4331   1.698   0.893  11.119
 1148SOL    HW2 4332   1.683   0.978  11.242
 1149SOL     OW 4333   0.339   0.052   9.975
 1149SOL    HW1 4334   0.308   0.143   9.976
 1149SOL    HW2 4335   0.306   0.015  10.057
 1150SOL     OW 4336   1.612   0.400   9.683
 1150SOL    HW1 4337   1.561   0.332   9.728
 1150SOL    HW2 4338   1.591   0.480   9.731
 1151SOL     OW 4339   1.032   0.760  10.266
 1151SOL    HW1 4340   1.020   0.776  10.360
 1151SOL    HW2 4341   1.004   0.669  10.254
 1152SOL     OW 4342   0.980   1.567  11.033
 1152SOL    HW1 4343   0.964   1.610  10.949
 1152SOL    HW2 4344   1.022   1.484  11.010
 1153SOL     OW 4345   1.844   1.494  10.916
 1153SOL    HW1 4346   1.877   1.514  10.829
 1153SOL    HW2 4347   1.917   1.513  10.975
 1154SOL     OW 4348   0.359   0.923  11.106
 1154SOL    HW1 4349   0.435   0.943  11.160
 1154SOL    HW2 4350   0.389   0.854  11.047
 1155SOL     OW 4351   1.498   0.269   9.440
 1155SOL    HW1 4352   1.427   0.205   9.452
 1155SOL    HW2 4353   1.510   0.309   9.526
 1156SOL     OW 4354   1.284   0.827   9.335
 1156SOL    HW1 4355   1.326   0.741   9.339
 1156SOL    HW2 4356   1.316   0.866   9.254
 1157SOL     OW 4357   1.070   1.341  10.168
 1157SOL    HW1 4358   1.076   1.269  10.106
 1157SOL    HW2 4359   1.127   1.409  10.133
 1158SOL     OW 4360   0.314   0.801  10.260
 1158SOL    HW1 4361   0.408   0.816  10.255
 1158SOL    HW2 4362   0.306   0.711  10.292
 1159SOL     OW 4363   0.342   0.529  10.328
 1159SOL    HW1 4364   0.297   0.446  10.310
 1159SOL    HW2 4365   0.416   0.529  10.267
 1160SOL     OW 4366   1.135   0.378  11.012
 1160SOL    HW1 4367   1.087   0.432  11.074
 1160SOL    HW2 4368   1.222   0.419  11.006
 1161SOL     OW 4369   1.152   0.225  10.793
 1161SOL    HW1 4370   1.143   0.277  10.872
 1161SOL    HW2 4371   1.183   0.286  10.727
 1162SOL     OW 4372   0.003   1.311   9.493
 1162SOL    HW1 4373   3.909   1.329   9.495
 1162SOL    HW2 4374   0.010   1.217   9.512
 1163SOL     OW 4375   0.082   1.797  10.194
 1163SOL    HW1 4376   0.097   1.703  10.188
 1163SOL    HW2 4377   0.170   1.835  10.202
 1164SOL     OW 4378   0.490   1.571  10.216
 1164SOL    HW1 4379   0.558   1.633  10.243
 1164SOL    HW2 4380   0.535   1.509  10.159
 1165SOL     OW 4381   0.968   0.785  10.530
 1165SOL    HW1 4382   1.027   0.769  10.604
 1165SOL    HW2 4383   0.886   0.743  10.555
 1166SOL     OW 4384   0.033   0.588  10.421
 1166SOL    HW1 4385   0.082   0.523  10.371
 1166SOL    HW2 4386   0.061   0.575  10.511
 1167SOL     OW 4387   0.210   0.512  11.032
 1167SOL    HW1 4388   0.251   0.466  10.959
 1167SOL    HW2 4389   0.173   0.591  10.993
 1168SOL     OW 4390   1.381   0.932  10.964
 1168SOL    HW1 4391   1.402   1.025  10.960
 1168SOL    HW2 4392   1.377   0.904  10.873
 1169SOL     OW 4393   0.819   0.572   9.678
 1169SOL    HW1 4394   0.827   0.497   9.619
 1169SOL    HW2 4395   0.745   0.621   9.645
 1170SOL     OW 4396   1.638   0.602  10.487
 1170SOL    HW1 4397   1.629   0.541  10.561
 1170SOL    HW2 4398   1.726   0.586  10.454
 1171SOL     OW 4399   0.302   1.543  11.027
 1171SOL    HW1 4400   0.258   1.611  11.077
 1171SOL    HW2 4401   0.277   1.461  11.070
 1172SOL     OW 4402   0.723   0.447  10.557
 1172SOL    HW1 4403   0.668   0.372  10.536
 1172SOL    HW2 4404   0.708   0.509  10.485
 1173SOL     OW 4405   0.920   1.679  10.784
 1173SOL    HW1 4406   0.896   1.637  10.701
 1173SOL    HW2 4407   0.914   1.773  10.766
 1174SOL     OW 4408   0.449   0.493   9.511
 1174SOL    HW1 4409   0.513   0.562   9.529
 1174SOL    HW2 4410   0.370   0.540   9.485
 1175SOL     OW 4411   0.151   1.132  10.788
 1175SOL    HW1 4412   0.152   1.083  10.870
 1175SOL    HW2 4413   0.167   1.067  10.720
 1176SOL     OW 4414   1.316   1.041  10.528
 1176SOL    HW1 4415   1.337   0.979  10.459
 1176SOL    HW2 4416   1.254   1.101  10.488
 1177SOL     OW 4417   1.319   0.856   9.611
 1177SOL    HW1 4418   1.245   0.828   9.664
 1177SOL    HW2 4419   1.290   0.844   9.520
 1178SOL     OW 4420   1.245   1.736  10.411
 1178SOL    HW1 4421   1.329   1.759  10.373
 1178SOL    HW2 4422   1.253   1.644  10.433
 1179SOL     OW 4423   0.082   1.218  10.337
 1179SOL    HW1 4424   0.087   1.242  10.429
 1179SOL    HW2 4425   3.989   1.231  10.314
 1180SOL     OW 4426   0.682   1.672  11.053
 1180SOL    HW1 4427   0.620   1.744  11.040
 1180SOL    HW2 4428   0.752   1.690  10.991
 1181SOL     OW 4429   1.719   0.121   9.805
 1181SOL    HW1 4430   1.795   0.133   9.748
 1181SOL    HW2 4431   1.705   0.026   9.806
 1182SOL     OW 4432   1.351   1.554   9.781
 1182SOL    HW1 4433   1.414   1.586   9.717
 1182SOL    HW2 4434   1.316   1.633   9.823
 1183SOL     OW 4435   0.180   1.757  11.144
 1183SOL    HW1 4436   0.124   1.704  11.200
 1183SOL    HW2 4437   0.217   1.822  11.204
 1184SOL     OW 4438   1.277   0.931   9.981
 1184SOL    HW1 4439   1.351   0.872   9.996
 1184SOL    HW2 4440   1.313   1.002   9.927
 1185SOL     OW 4441   0.799   1.276  10.731
 1185SOL    HW1 4442   0.771   1.320  10.811
 1185SOL    HW2 4443   0.726   1.287  10.671
 1186SOL     OW 4444   0.670   1.627   9.466
 1186SOL    HW1 4445   0.682   1.641   9.372
 1186SOL    HW2 4446   0.614   1.550   9.472
 1187SOL     OW 4447   1.569   1.725  10.698
 1187SOL    HW1 4448   1.626   1.721  10.621
 1187SOL    HW2 4449   1.553   1.818  10.712
 1188SOL     OW 4450   1.840   0.180  10.271
 1188SOL    HW1 4451   1.872   0.122  10.202
 1188SOL    HW2 4452   1.749   0.198  10.247
 1189SOL     OW 4453   0.278   0.320  10.022
 1189SOL    HW1 4454   0.193   0.353   9.994
 1189SOL    HW2 4455   0.268   0.308  10.117
 1190SOL     OW 4456   1.203   1.598   9.343
 1190SOL    HW1 4457   1.193   1.507   9.370
 1190SOL    HW2 4458   1.136   1.611   9.276
 1191SOL     OW 4459   0.823   1.006  10.687
 1191SOL    HW1 4460   0.866   0.999  10.601
 1191SOL    HW2 4461   0.818   1.100  10.703
 1192SOL     OW 4462   0.915   0.911   9.602
 1192SOL    HW1 4463   0.975   0.944   9.535
 1192SOL    HW2 4464   0.966   0.844   9.648
 1193SOL     OW 4465   1.479   1.623   9.345
 1193SOL    HW1 4466   1.385   1.615   9.329
 1193SOL    HW2 4467   1.518   1.630   9.258
 1194SOL     OW 4468   0.374   1.301  10.802
 1194SOL    HW1 4469   0.358   1.382  10.754
 1194SOL    HW2 4470   0.297   1.247  10.785
 1195SOL     OW 4471   1.602   1.280  10.584
 1195SOL    HW1 4472   1.667   1.267  10.653
 1195SOL    HW2 4473   1.541   1.345  10.621
 1196SOL     OW 4474   1.064   1.113  10.024
 1196SOL    HW1 4475   0.991   1.062  10.059
 1196SOL    HW2 4476   1.129   1.047   9.998
 1197SOL     OW 4477   1.016   0.252  10.283
 1197SOL    HW1 4478   1.007   0.201  10.202
 1197SOL    HW2 4479   1.017   0.186  10.352
 1198SOL     OW 4480   0.608   1.487   9.793
 1198SOL    HW1 4481   0.657   1.438   9.727
 1198SOL    HW2 4482   0.529   1.516   9.748
 1199SOL     OW 4483   1.722   0.396  10.679
 1199SOL    HW1 4484   1.796   0.457  10.685
 1199SOL    HW2 4485   1.755   0.324  10.624
 1200SOL     OW 4486   0.256   1.340   9.603
 1200SOL    HW1 4487   0.162   1.340   9.587
 1200SOL    HW2 4488   0.267   1.382   9.688
 1201SOL     OW 4489   0.112   0.997  11.029
 1201SOL    HW1 4490   0.053   0.991  11.105
 1201SOL    HW2 4491   0.199   0.980  11.065
 1202SOL     OW 4492   0.695   0.264  10.817
 1202SOL    HW1 4493   0.762   0.210  10.775
 1202SOL    HW2 4494   0.724   0.270  10.909
 1203SOL     OW 4495   0.089   0.310   9.329
 1203SOL    HW1 4496   3.993   0.313   9.324
 1203SOL    HW2 4497   0.118   0.393   9.290
 1204SOL     OW 4498   1.422   0.855  10.704
 1204SOL    HW1 4499   1.372   0.916  10.651
 1204SOL    HW2 4500   1.511   0.858  10.668
 1205SOL     OW 4501   0.032   0.180   9.591
 1205SOL    HW1 4502   0.037   0.220   9.504
 1205SOL    HW2 4503   0.105   0.218   9.639
 1206SOL     OW 4504   1.175   1.331   9.425
 1206SOL    HW1 4505   1.083   1.303   9.423
 1206SOL    HW2 4506   1.199   1.327   9.518
 1207SOL     OW 4507   0.624   0.827  10.748
 1207SOL    HW1 4508   0.681   0.903  10.733
 1207SOL    HW2 4509   0.684   0.753  10.755
 1208SOL     OW 4510   1.493   1.791  10.296
 1208SOL    HW1 4511   1.516   1.867  10.242
 1208SOL    HW2 4512   1.570   1.734  10.289
 1209SOL     OW 4513   0.719   0.559  11.015
 1209SOL    HW1 4514   0.765   0.619  11.073
 1209SOL    HW2 4515   0.739   0.471  11.049
 1210SOL     OW 4516   1.472   1.192  10.938
 1210SOL    HW1 4517   1.463   1.209  11.032
 1210SOL    HW2 4518   1.564   1.210  10.920
 1211SOL     OW 4519   0.376   1.747  10.864
 1211SOL    HW1 4520   0.288   1.785  10.854
 1211SOL    HW2 4521   0.360   1.663  10.907
 1212SOL     OW 4522   1.661   0.879  10.566
 1212SOL    HW1 4523   1.659   0.794  10.522
 1212SOL    HW2 4524   1.651   0.943  10.496
 1213SOL     OW 4525   1.221   0.341   9.748
 1213SOL    HW1 4526   1.291   0.276   9.741
 1213SOL    HW2 4527   1.236   0.385   9.832
 1214SOL     OW 4528   0.587   0.735   9.984
 1214SOL    HW1 4529   0.626   0.821   9.969
 1214SOL    HW2 4530   0.522   0.726   9.915
 1215SOL     OW 4531   1.745   0.384  10.953
 1215SOL    HW1 4532   1.731   0.390  10.859
 1215SOL    HW2 4533   1.687   0.314  10.982
 1216SOL     OW 4534   1.752   0.933  10.820
 1216SOL    HW1 4535   1.735   1.026  10.833
 1216SOL    HW2 4536   1.731   0.918  10.728
 1217SOL     OW 4537   0.866   1.363   9.357
 1217SOL    HW1 4538   0.827   1.390   9.440
 1217SOL    HW2 4539   0.878   1.445   9.309
 1218SOL     OW 4540   0.663   1.781  10.247
 1218SOL    HW1 4541   0.645   1.873  10.229
 1218SOL    HW2 4542   0.758   1.773  10.241
 1219SOL     OW 4543   0.870   0.972  10.162
 1219SOL    HW1 4544   0.921   0.899  10.199
 1219SOL    HW2 4545   0.830   1.013  10.238
 1220SOL     OW 4546   1.075   0.988   9.399
 1220SOL    HW1 4547   1.054   1.041   9.322
 1220SOL    HW2 4548   1.149   0.934   9.372
 1221SOL     OW 4549   1.852   1.509  10.137
 1221SOL    HW1 4550   1.795   1.583  10.116
 1221SOL    HW2 4551   1.842   1.497  10.232
 1222SOL     OW 4552   0.232   1.305  11.168
 1222SOL    HW1 4553   0.154   1.257  11.138
 1222SOL    HW2 4554   0.219   1.317  11.261
 1223SOL     OW 4555   0.137   1.293  10.038
 1223SOL    HW1 4556   0.150   1.237  10.115
 1223SOL    HW2 4557   0.106   1.234   9.970
 1224SOL     OW 4558   0.685   1.410  10.941
 1224SOL    HW1 4559   0.607   1.367  10.975
 1224SOL    HW2 4560   0.683   1.498  10.979
 1225SOL     OW 4561   1.808   0.184  10.543
 1225SOL    HW1 4562   1.812   0.090  10.562
 1225SOL    HW2 4563   1.825   0.190  10.449
 1226SOL     OW 4564   0.449   0.439   9.841
 1226SOL    HW1 4565   0.482   0.363   9.793
 1226SOL    HW2 4566   0.393   0.402   9.910
 1227SOL     OW 4567   1.700   1.503  10.405
 1227SOL    HW1 4568   1.622   1.478  10.355
 1227SOL    HW2 4569   1.712   1.432  10.468
 1228SOL     OW 4570   0.337   0.562  10.604
 1228SOL    HW1 4571   0.392   0.505  10.658
 1228SOL    HW2 4572   0.352   0.532  10.515
 1229SOL     OW 4573   0.832   1.583   9.984
 1229SOL    HW1 4574   0.814   1.652   9.920
 1229SOL    HW2 4575   0.756   1.524   9.977
 1230SOL     OW 4576   1.458   0.258  10.420
 1230SOL    HW1 4577   1.479   0.172  10.457
 1230SOL    HW2 4578   1.403   0.300  10.487
 1231SOL     OW 4579   0.998   0.023  10.454
 1231SOL    HW1 4580   0.915   0.011  10.408
 1231SOL    HW2 4581   1.034   3.935  10.460
 1232SOL     OW 4582   0.772   1.333   9.631
 1232SOL    HW1 4583   0.749   1.241   9.640
 1232SOL    HW2 4584   0.853   1.343   9.681
 1233SOL     OW 4585   0.621   1.560  10.598
 1233SOL    HW1 4586   0.621   1.643  10.646
 1233SOL    HW2 4587   0.709   1.553  10.562
 1234SOL     OW 4588   1.304   0.072   9.481
 1234SOL    HW1 4589   1.311   3.982   9.447
 1234SOL    HW2 4590   1.225   0.070   9.534
 1235SOL     OW 4591   1.275   0.456   9.992
 1235SOL    HW1 4592   1.231   0.540   9.986
 1235SOL    HW2 4593   1.279   0.438  10.086
 1236SOL     OW 4594   1.585   0.209  10.179
 1236SOL    HW1 4595   1.535   0.235  10.257
 1236SOL    HW2 4596   1.588   0.287  10.124
 1237SOL     OW 4597   0.047   1.043   9.558
 1237SOL    HW1 4598   0.141   1.029   9.550
 1237SOL    HW2 4599   0.010   0.956   9.571
 1238SOL     OW 4600   0.891   1.663   9.646
 1238SOL    HW1 4601   0.815   1.648   9.590
 1238SOL    HW2 4602   0.864   1.734   9.704
 1239SOL     OW 4603   0.231   0.633  11.286
 1239SOL    HW1 4604   0.138   0.637  11.306
 1239SOL    HW2 4605   0.235   0.601  11.196
 1240SOL     OW 4606   0.222   0.292  12.153
 1240SOL    HW1 4607   0.245   0.252  12.237
 1240SOL    HW2 4608   0.127   0.285  12.148
 1241SOL     OW 4609   0.020   0.383  11.809
 1241SOL    HW1 4610   3.928   0.401  11.829
 1241SOL    HW2 4611   0.023   0.289  11.795
 1242SOL     OW 4612   0.586   1.297  12.378
 1242SOL    HW1 4613   0.501   1.297  12.335
 1242SOL    HW2 4614   0.599   1.388  12.406
 1243SOL     OW 4615   1.537   1.501  11.874
 1243SOL    HW1 4616   1.516   1.477  11.964
 1243SOL    HW2 4617   1.456   1.482  11.825
 1244SOL     OW 4618   1.134   0.700  11.863
 1244SOL    HW1 4619   1.182   0.783  11.852
 1244SOL    HW2 4620   1.086   0.711  11.945
 1245SOL     OW 4621   1.786   0.617  11.390
 1245SOL    HW1 4622   1.755   0.610  11.300
 1245SOL    HW2 4623   1.756   0.536  11.432
 1246SOL     OW 4624   0.744   1.134  12.220
 1246SOL    HW1 4625   0.686   1.173  12.286
 1246SOL    HW2 4626   0.782   1.209  12.175
 1247SOL     OW 4627   0.878   0.762  12.998
 1247SOL    HW1 4628   0.870   0.834  13.061
 1247SOL    HW2 4629   0.898   0.805  12.915
 1248SOL     OW 4630   0.684   0.998  11.816
 1248SOL    HW1 4631   0.752   0.990  11.884
 1248SOL    HW2 4632   0.616   1.052  11.856
 1249SOL     OW 4633   0.715   1.148  12.994
 1249SOL    HW1 4634   0.763   1.225  13.025
 1249SOL    HW2 4635   0.636   1.185  12.953
 1250SOL     OW 4636   0.354   1.396  12.252
 1250SOL    HW1 4637   0.273   1.370  12.207
 1250SOL    HW2 4638   0.397   1.455  12.190
 1251SOL     OW 4639   1.447   1.487  12.539
 1251SOL    HW1 4640   1.490   1.572  12.543
 1251SOL    HW2 4641   1.376   1.493  12.603
 1252SOL     OW 4642   0.461   0.410  12.661
 1252SOL    HW1 4643   0.544   0.363  12.664
 1252SOL    HW2 4644   0.394   0.341  12.668
 1253SOL     OW 4645   1.611   0.451  11.909
 1253SOL    HW1 4646   1.549   0.484  11.843
 1253SOL    HW2 4647   1.616   0.521  11.974
 1254SOL     OW 4648   0.218   1.723  11.626
 1254SOL    HW1 4649   0.241   1.795  11.685
 1254SOL    HW2 4650   0.293   1.714  11.568
 1255SOL     OW 4651   1.136   1.342  12.866
 1255SOL    HW1 4652   1.177   1.335  12.952
 1255SOL    HW2 4653   1.085   1.262  12.857
 1256SOL     OW 4654   0.258   1.456  11.706
 1256SOL    HW1 4655   0.220   1.543  11.694
 1256SOL    HW2 4656   0.195   1.410  11.762
 1257SOL     OW 4657   0.250   1.063  12.054
 1257SOL    HW1 4658   0.271   0.977  12.091
 1257SOL    HW2 4659   0.197   1.106  12.121
 1258SOL     OW 4660   0.605   1.797  12.594
 1258SOL    HW1 4661   0.523   1.779  12.639
 1258SOL    HW2 4662   0.630   1.885  12.623
 1259SOL     OW 4663   0.572   0.989  11.314
 1259SOL    HW1 4664   0.623   1.031  11.245
 1259SOL    HW2 4665   0.612   1.019  11.396
 1260SOL     OW 4666   1.587   0.143  12.626
 1260SOL    HW1 4667   1.620   0.216  12.573
 1260SOL    HW2 4668   1.546   0.185  12.701
 1261SOL     OW 4669   0.144   0.655  11.741
 1261SOL    HW1 4670   0.101   0.569  11.746
 1261SOL    HW2 4671   0.105   0.705  11.812
 1262SOL     OW 4672   0.043   1.584  11.305
 1262SOL    HW1 4673   0.044   1.495  11.340
 1262SOL    HW2 4674   3.953   1.615  11.320
 1263SOL     OW 4675   1.686   0.915  11.815
 1263SOL    HW1 4676   1.772   0.877  11.797
 1263SOL    HW2 4677   1.668   0.970  11.739
 1264SOL     OW 4678   1.652   1.105  11.604
 1264SOL    HW1 4679   1.738   1.104  11.563
 1264SOL    HW2 4680   1.660   1.166  11.677
 1265SOL     OW 4681   0.150   0.754  12.762
 1265SOL    HW1 4682   0.245   0.753  12.754
 1265SOL    HW2 4683   0.130   0.839  12.801
 1266SOL     OW 4684   0.612   1.389  11.910
 1266SOL    HW1 4685   0.567   1.305  11.917
 1266SOL    HW2 4686   0.599   1.416  11.819
 1267SOL     OW 4687   1.278   1.229  12.596
 1267SOL    HW1 4688   1.309   1.163  12.534
 1267SOL    HW2 4689   1.340   1.226  12.668
 1268SOL     OW 4690   0.826   0.008  11.691
 1268SOL    HW1 4691   0.870   0.088  11.664
 1268SOL    HW2 4692   0.732   0.030  11.688
 1269SOL     OW 4693   0.183   0.946  12.454
 1269SOL    HW1 4694   0.271   0.912  12.444
 1269SOL    HW2 4695   0.133   0.906  12.383
 1270SOL     OW 4696   1.533   1.002  11.374
 1270SOL    HW1 4697   1.464   0.944  11.406
 1270SOL    HW2 4698   1.576   1.035  11.452
 1271SOL     OW 4699   1.184   1.815  12.800
 1271SOL    HW1 4700   1.188   1.877  12.727
 1271SOL    HW2 4701   1.201   1.730  12.760
 1272SOL     OW 4702   0.349   0.242  13.033
 1272SOL    HW1 4703   0.393   0.325  13.016
 1272SOL    HW2 4704   0.257   0.266  13.044
 1273SOL     OW 4705   1.471   1.419  12.127
 1273SOL    HW1 4706   1.403   1.435  12.192
 1273SOL    HW2 4707   1.459   1.327  12.103
 1274SOL     OW 4708   1.553   1.736  11.727
 1274SOL    HW1 4709   1.571   1.698  11.641
 1274SOL    HW2 4710   1.559   1.662  11.787
 1275SOL     OW 4711   0.596   0.714  11.443
 1275SOL    HW1 4712   0.601   0.799  11.400
 1275SOL    HW2 4713   0.532   0.727  11.514
 1276SOL     OW 4714   1.274   0.377  12.114
 1276SOL    HW1 4715   1.187   0.337  12.122
 1276SOL    HW2 4716   1.332   0.317  12.161
 1277SOL     OW 4717   1.568   1.642  11.471
 1277SOL    HW1 4718   1.657   1.608  11.456
 1277SOL    HW2 4719   1.528   1.644  11.384
 1278SOL     OW 4720   0.794   0.613  12.622
 1278SOL    HW1 4721   0.765   0.586  12.709
 1278SOL    HW2 4722   0.761   0.545  12.564
 1279SOL     OW 4723   1.393   0.475  12.850
 1279SOL    HW1 4724   1.401   0.521  12.934
 1279SOL    HW2 4725   1.448   0.397  12.860
 1280SOL     OW 4726   0.948   0.885  12.760
 1280SOL    HW1 4727   1.004   0.818  12.720
 1280SOL    HW2 4728   0.899   0.922  12.687
 1281SOL     OW 4729   0.998   0.401  12.402
 1281SOL    HW1 4730   0.910   0.417  12.435
 1281SOL    HW2 4731   0.985   0.375  12.311
 1282SOL     OW 4732   1.054   0.702  11.595
 1282SOL    HW1 4733   1.074   0.696  11.689
 1282SOL    HW2 4734   0.971   0.655  11.585
 1283SOL     OW 4735   0.083   0.833  11.961
 1283SOL    HW1 4736   0.150   0.796  12.018
 1283SOL    HW2 4737   0.112   0.923  11.945
 1284SOL     OW 4738   0.130   1.870  12.758
 1284SOL    HW1 4739   0.139   1.832  12.846
 1284SOL    HW2 4740   0.037   1.862  12.738
 1285SOL     OW 4741   0.894   0.352  11.372
 1285SOL    HW1 4742   0.937   0.414  11.312
 1285SOL    HW2 4743   0.889   0.271  11.323
 1286SOL     OW 4744   1.700   0.575  13.001
 1286SOL    HW1 4745   1.667   0.649  12.951
 1286SOL    HW2 4746   1.725   0.511  12.935
 1287SOL     OW 4747   1.382   1.141  11.709
 1287SOL    HW1 4748   1.463   1.133  11.659
 1287SOL    HW2 4749   1.326   1.199  11.657
 1288SOL     OW 4750   0.565   0.195  12.051
 1288SOL    HW1 4751   0.569   0.221  12.143
 1288SOL    HW2 4752   0.548   0.277  12.004
 1289SOL     OW 4753   0.990   1.438  11.638
 1289SOL    HW1 4754   0.967   1.517  11.588
 1289SOL    HW2 4755   0.973   1.462  11.729
 1290SOL     OW 4756   0.362   1.832  12.049
 1290SOL    HW1 4757   0.419   1.756  12.060
 1290SOL    HW2 4758   0.420   1.908  12.063
 1291SOL     OW 4759   1.803   1.042  12.051
 1291SOL    HW1 4760   1.751   1.040  11.970
 1291SOL    HW2 4761   1.738   1.052  12.121
 1292SOL     OW 4762   1.220   1.538  12.687
 1292SOL    HW1 4763   1.207   1.467  12.750
 1292SOL    HW2 4764   1.152   1.526  12.622
 1293SOL     OW 4765   0.310   0.949  11.415
 1293SOL    HW1 4766   0.392   0.970  11.372
 1293SOL    HW2 4767   0.298   0.855  11.399
 1294SOL     OW 4768   1.480   0.754  11.898
 1294SOL    HW1 4769   1.480   0.715  11.986
 1294SOL    HW2 4770   1.558   0.809  11.897
 1295SOL     OW 4771   0.474   1.263  12.910
 1295SOL    HW1 4772   0.448   1.269  12.818
 1295SOL    HW2 4773   0.391   1.263  12.958
 1296SOL     OW 4774   1.125   1.778  11.398
 1296SOL    HW1 4775   1.049   1.740  11.443
 1296SOL    HW2 4776   1.148   1.714  11.331
 1297SOL     OW 4777   0.203   0.291  12.676
 1297SOL    HW1 4778   0.109   0.307  12.676
 1297SOL    HW2 4779   0.213   0.207  12.722
 1298SOL     OW 4780   1.633   1.389  11.265
 1298SOL    HW1 4781   1.587   1.469  11.241
 1298SOL    HW2 4782   1.570   1.319  11.245
 1299SOL     OW 4783   0.465   1.739  11.486
 1299SOL    HW1 4784   0.510   1.793  11.550
 1299SOL    HW2 4785   0.535   1.700  11.434
 1300SOL     OW 4786   1.448   0.179  11.581
 1300SOL    HW1 4787   1.392   0.109  11.547
 1300SOL    HW2 4788   1.514   0.133  11.634
 1301SOL     OW 4789   0.259   1.791  12.400
 1301SOL    HW1 4790   0.298   1.718  12.449
 1301SOL    HW2 4791   0.254   1.758  12.310
 1302SOL     OW 4792   0.940   1.700  12.067
 1302SOL    HW1 4793   1.020   1.652  12.088
 1302SOL    HW2 4794   0.900   1.650  11.997
 1303SOL     OW 4795   0.400   0.695  11.641
 1303SOL    HW1 4796   0.424   0.603  11.658
 1303SOL    HW2 4797   0.308   0.700  11.667
 1304SOL     OW 4798   1.528   0.225  12.896
 1304SOL    HW1 4799   1.520   0.249  12.988
 1304SOL    HW2 4800   1.520   0.129  12.896
 1305SOL     OW 4801   0.648   0.124  11.277
 1305SOL    HW1 4802   0.667   0.037  11.314
 1305SOL    HW2 4803   0.588   0.107  11.205
 1306SOL     OW 4804   0.771   0.289  12.947
 1306SOL    HW1 4805   0.853   0.240  12.946
 1306SOL    HW2 4806   0.720   0.249  13.018
 1307SOL     OW 4807   0.875   1.523  12.367
 1307SOL    HW1 4808   0.858   1.484  12.281
 1307SOL    HW2 4809   0.943   1.469  12.405
 1308SOL     OW 4810   1.336   0.588  12.605
 1308SOL    HW1 4811   1.368   0.559  12.690
 1308SOL    HW2 4812   1.372   0.676  12.594
 1309SOL     OW 4813   0.818   1.386  12.119
 1309SOL    HW1 4814   0.904   1.376  12.078
 1309SOL    HW2 4815   0.757   1.395  12.046
 1310SOL     OW 4816   0.931   0.514  12.068
 1310SOL    HW1 4817   0.906   0.504  11.976
 1310SOL    HW2 4818   0.955   0.425  12.096
 1311SOL     OW 4819   0.549   0.054  11.660
 1311SOL    HW1 4820   0.476   0.061  11.722
 1311SOL    HW2 4821   0.548   0.137  11.612
 1312SOL     OW 4822   1.432   1.204  11.212
 1312SOL    HW1 4823   1.461   1.128  11.263
 1312SOL    HW2 4824   1.346   1.225  11.247
 1313SOL     OW 4825   0.360   0.027  11.374
 1313SOL    HW1 4826   0.352   0.091  11.303
 1313SOL    HW2 4827   0.449   0.037  11.407
 1314SOL     OW 4828   0.948   0.253  11.628
 1314SOL    HW1 4829   0.921   0.290  11.544
 1314SOL    HW2 4830   1.043   0.261  11.629
 1315SOL     OW 4831   1.078   0.688  12.627
 1315SOL    HW1 4832   1.011   0.620  12.633
 1315SOL    HW2 4833   1.161   0.640  12.622
 1316SOL     OW 4834   1.219   1.572  11.967
 1316SOL    HW1 4835   1.227   1.638  11.898
 1316SOL    HW2 4836   1.288   1.593  12.029
 1317SOL     OW 4837   0.467   1.152  11.901
 1317SOL    HW1 4838   0.397   1.125  11.961
 1317SOL    HW2 4839   0.429   1.137  11.814
 1318SOL     OW 4840   1.247   1.786  11.788
 1318SOL    HW1 4841   1.305   1.846  11.741
 1318SOL    HW2 4842   1.182   1.844  11.829
 1319SOL     OW 4843   1.021   0.535  11.205
 1319SOL    HW1 4844   0.978   0.619  11.185
 1319SOL    HW2 4845   1.085   0.557  11.273
 1320SOL     OW 4846   0.084   0.579  12.563
 1320SOL    HW1 4847   0.173   0.560  12.533
 1320SOL    HW2 4848   0.095   0.648  12.628
 1321SOL     OW 4849   0.571   0.230  12.330
 1321SOL    HW1 4850   0.591   0.137  12.339
 1321SOL    HW2 4851   0.480   0.238  12.359
 1322SOL     OW 4852   0.871   0.460  11.808
 1322SOL    HW1 4853   0.824   0.515  11.745
 1322SOL    HW2 4854   0.893   0.381  11.759
 1323SOL     OW 4855   0.998   0.035  11.956
 1323SOL    HW1 4856   0.954   0.068  11.878
 1323SOL    HW2 4857   1.011   3.941  11.939
 1324SOL     OW 4858   1.444   1.161  12.031
 1324SOL    HW1 4859   1.370   1.100  12.025
 1324SOL    HW2 4860   1.476   1.170  11.942
 1325SOL     OW 4861   1.464   0.611  12.139
 1325SOL    HW1 4862   1.406   0.535  12.144
 1325SOL    HW2 4863   1.521   0.603  12.215
 1326SOL     OW 4864   1.839   0.815  11.565
 1326SOL    HW1 4865   1.899   0.765  11.621
 1326SOL    HW2 4866   1.818   0.755  11.493
 1327SOL     OW 4867   0.487   1.425  11.329
 1327SOL    HW1 4868   0.411   1.395  11.378
 1327SOL    HW2 4869   0.480   1.382  11.244
 1328SOL     OW 4870   1.679   1.258  11.824
 1328SOL    HW1 4871   1.774   1.255  11.836
 1328SOL    HW2 4872   1.655   1.349  11.844
 1329SOL     OW 4873   1.395   0.580  11.239
 1329SOL    HW1 4874   1.332   0.559  11.308
 1329SOL    HW2 4875   1.481   0.563  11.278
 1330SOL     OW 4876   0.553   0.269  11.489
 1330SOL    HW1 4877   0.606   0.229  11.419
 1330SOL    HW2 4878   0.525   0.353  11.452
 1331SOL     OW 4879   1.745   1.236  12.734
 1331SOL    HW1 4880   1.833   1.200  12.724
 1331SOL    HW2 4881   1.760   1.326  12.763
 1332SOL     OW 4882   1.050   1.353  12.505
 1332SOL    HW1 4883   0.974   1.321  12.554
 1332SOL    HW2 4884   1.125   1.309  12.546
 1333SOL     OW 4885   1.600   1.624  12.828
 1333SOL    HW1 4886   1.581   1.654  12.739
 1333SOL    HW2 4887   1.683   1.577  12.820
 1334SOL     OW 4888   1.138   1.216  12.274
 1334SOL    HW1 4889   1.074   1.250  12.337
 1334SOL    HW2 4890   1.108   1.249  12.189
 1335SOL     OW 4891   1.619   1.091  12.247
 1335SOL    HW1 4892   1.612   1.156  12.316
 1335SOL    HW2 4893   1.547   1.112  12.187
 1336SOL     OW 4894   0.911   0.123  12.572
 1336SOL    HW1 4895   0.931   0.090  12.484
 1336SOL    HW2 4896   0.993   0.162  12.602
 1337SOL     OW 4897   0.984   1.115  12.896
 1337SOL    HW1 4898   0.893   1.132  12.920
 1337SOL    HW2 4899   0.980   1.036  12.842
 1338SOL     OW 4900   0.708   1.062  11.543
 1338SOL    HW1 4901   0.695   1.042  11.636
 1338SOL    HW2 4902   0.784   1.009  11.518
 1339SOL     OW 4903   0.425   0.821  12.427
 1339SOL    HW1 4904   0.494   0.827  12.494
 1339SOL    HW2 4905   0.391   0.732  12.436
 1340SOL     OW 4906   1.266   0.374  12.453
 1340SOL    HW1 4907   1.298   0.453  12.496
 1340SOL    HW2 4908   1.177   0.397  12.423
 1341SOL     OW 4909   0.064   1.577  12.513
 1341SOL    HW1 4910   0.067   1.600  12.420
 1341SOL    HW2 4911   0.155   1.576  12.540
 1342SOL     OW 4912   0.358   1.105  11.650
 1342SOL    HW1 4913   0.356   1.185  11.598
 1342SOL    HW2 4914   0.359   1.034  11.586
 1343SOL     OW 4915   0.554   0.526  12.026
 1343SOL    HW1 4916   0.565   0.586  11.953
 1343SOL    HW2 4917   0.619   0.553  12.090
 1344SOL     OW 4918   1.231   1.330  11.559
 1344SOL    HW1 4919   1.283   1.406  11.585
 1344SOL    HW2 4920   1.143   1.349  11.592
 1345SOL     OW 4921   1.285   1.463  12.320
 1345SOL    HW1 4922   1.339   1.464  12.399
 1345SOL    HW2 4923   1.232   1.385  12.328
 1346SOL     OW 4924   1.570   0.637  11.663
 1346SOL    HW1 4925   1.524   0.685  11.732
 1346SOL    HW2 4926   1.619   0.705  11.616
 1347SOL     OW 4927   0.345   1.529  12.488
 1347SOL    HW1 4928   0.337   1.476  12.409
 1347SOL    HW2 4929   0.440   1.544  12.497
 1348SOL     OW 4930   0.425   0.734  12.774
 1348SOL    HW1 4931   0.489   0.778  12.719
 1348SOL    HW2 4932   0.459   0.645  12.785
 1349SOL     OW 4933   1.610   0.785  12.860
 1349SOL    HW1 4934   1.524   0.827  12.853
 1349SOL    HW2 4935   1.662   0.826  12.790
 1350SOL     OW 4936   1.003   0.149  12.957
 1350SOL    HW1 4937   1.064   0.214  12.925
 1350SOL    HW2 4938   0.995   0.085  12.886
 1351SOL     OW 4939   0.490   0.037  12.933
 1351SOL    HW1 4940   0.489   0.053  12.839
 1351SOL    HW2 4941   0.426   0.098  12.968
 1352SOL     OW 4942   0.587   0.877  12.205
 1352SOL    HW1 4943   0.623   0.966  12.209
 1352SOL    HW2 4944   0.531   0.870  12.282
 1353SOL     OW 4945   1.341   0.857  12.191
 1353SOL    HW1 4946   1.255   0.840  12.153
 1353SOL    HW2 4947   1.389   0.775  12.181
 1354SOL     OW 4948   1.196   0.541  11.424
 1354SOL    HW1 4949   1.205   0.461  11.478
 1354SOL    HW2 4950   1.154   0.604  11.482
 1355SOL     OW 4951   0.309   0.211  12.408
 1355SOL    HW1 4952   0.265   0.248  12.484
 1355SOL    HW2 4953   0.296   0.116  12.416
 1356SOL     OW 4954   0.067   1.305  12.453
 1356SOL    HW1 4955   0.094   1.259  12.532
 1356SOL    HW2 4956   0.055   1.396  12.480
 1357SOL     OW 4957   0.721   0.632  12.219
 1357SOL    HW1 4958   0.797   0.621  12.162
 1357SOL    HW2 4959   0.690   0.721  12.202
 1358SOL     OW 4960   1.743   0.959  13.033
 1358SOL    HW1 4961   1.699   0.892  12.980
 1358SOL    HW2 4962   1.681   0.977  13.104
 1359SOL     OW 4963   0.339   0.052  11.837
 1359SOL    HW1 4964   0.308   0.143  11.838
 1359SOL    HW2 4965   0.306   0.015  11.919
 1360SOL     OW 4966   1.612   0.400  11.545
 1360SOL    HW1 4967   1.561   0.332  11.590
 1360SOL    HW2 4968   1.591   0.481  11.593
 1361SOL     OW 4969   1.032   0.760  12.128
 1361SOL    HW1 4970   1.020   0.776  12.222
 1361SOL    HW2 4971   1.004   0.669  12.116
 1362SOL     OW 4972   0.980   1.567  12.895
 1362SOL    HW1 4973   0.964   1.610  12.811
 1362SOL    HW2 4974   1.023   1.484  12.871
 1363SOL     OW 4975   1.844   1.494  12.777
 1363SOL    HW1 4976   1.877   1.514  12.689
 1363SOL    HW2 4977   1.918   1.514  12.835
 1364SOL     OW 4978   0.359   0.922  12.969
 1364SOL    HW1 4979   0.436   0.943  13.022
 1364SOL    HW2 4980   0.389   0.854  12.909
 1365SOL     OW 4981   1.498   0.269  11.302
 1365SOL    HW1 4982   1.427   0.205  11.314
 1365SOL    HW2 4983   1.510   0.309  11.388
 1366SOL     OW 4984   1.284   0.827  11.197
 1366SOL    HW1 4985   1.326   0.741  11.201
 1366SOL    HW2 4986   1.316   0.866  11.116
 1367SOL     OW 4987   1.070   1.341  12.031
 1367SOL    HW1 4988   1.076   1.270  11.968
 1367SOL    HW2 4989   1.127   1.409  11.995
 1368SOL     OW 4990   0.314   0.801  12.122
 1368SOL    HW1 4991   0.408   0.816  12.117
 1368SOL    HW2 4992   0.306   0.711  12.154
 1369SOL     OW 4993   0.342   0.529  12.190
 1369SOL    HW1 4994   0.297   0.446  12.172
 1369SOL    HW2 4995   0.416   0.529  12.129
 1370SOL     OW 4996   1.136   0.378  12.874
 1370SOL    HW1 4997   1.087   0.433  12.936
 1370SOL    HW2 4998   1.222   0.419  12.868
 1371SOL     OW 4999   1.152   0.224  12.655
 1371SOL    HW1 5000   1.143   0.277  12.734
 1371SOL    HW2 5001   1.183   0.286  12.589
 1372SOL     OW 5002   0.003   1.311  11.355
 1372SOL    HW1 5003   3.909   1.329  11.357
 1372SOL    HW2 5004   0.010   1.217  11.374
 1373SOL     OW 5005   0.082   1.797  12.056
 1373SOL    HW1 5006   0.097   1.703  12.050
 1373SOL    HW2 5007   0.170   1.835  12.064
 1374SOL     OW 5008   0.490   1.571  12.078
 1374SOL    HW1 5009   0.558   1.633  12.105
 1374SOL    HW2 5010   0.535   1.509  12.021
 1375SOL     OW 5011   0.968   0.785  12.392
 1375SOL    HW1 5012   1.027   0.769  12.466
 1375SOL    HW2 5013   0.886   0.743  12.417
 1376SOL     OW 5014   0.033   0.588  12.283
 1376SOL    HW1 5015   0.082   0.522  12.233
 1376SOL    HW2 5016   0.061   0.574  12.373
 1377SOL     OW 5017   0.211   0.513  12.894
 1377SOL    HW1 5018   0.251   0.466  12.821
 1377SOL    HW2 5019   0.173   0.592  12.854
 1378SOL     OW 5020   1.381   0.932  12.826
 1378SOL    HW1 5021   1.402   1.025  12.821
 1378SOL    HW2 5022   1.376   0.904  12.735
 1379SOL     OW 5023   0.819   0.572  11.540
 1379SOL    HW1 5024   0.826   0.496  11.481
 1379SOL    HW2 5025   0.745   0.621  11.507
 1380SOL     OW 5026   1.638   0.602  12.350
 1380SOL    HW1 5027   1.629   0.541  12.423
 1380SOL    HW2 5028   1.726   0.587  12.316
 1381SOL     OW 5029   0.302   1.543  12.889
 1381SOL    HW1 5030   0.257   1.611  12.938
 1381SOL    HW2 5031   0.277   1.461  12.932
 1382SOL     OW 5032   0.723   0.447  12.419
 1382SOL    HW1 5033   0.668   0.372  12.398
 1382SOL    HW2 5034   0.708   0.509  12.347
 1383SOL     OW 5035   0.919   1.679  12.646
 1383SOL    HW1 5036   0.895   1.637  12.563
 1383SOL    HW2 5037   0.914   1.773  12.628
 1384SOL     OW 5038   0.449   0.493  11.372
 1384SOL    HW1 5039   0.513   0.562  11.390
 1384SOL    HW2 5040   0.370   0.540  11.347
 1385SOL     OW 5041   0.151   1.132  12.650
 1385SOL    HW1 5042   0.152   1.083  12.732
 1385SOL    HW2 5043   0.167   1.067  12.582
 1386SOL     OW 5044   1.316   1.041  12.390
 1386SOL    HW1 5045   1.337   0.979  12.321
 1386SOL    HW2 5046   1.253   1.101  12.350
 1387SOL     OW 5047   1.319   0.856  11.473
 1387SOL    HW1 5048   1.245   0.828  11.526
 1387SOL    HW2 5049   1.290   0.844  11.382
 1388SOL     OW 5050   1.244   1.736  12.273
 1388SOL    HW1 5051   1.329   1.759  12.235
 1388SOL    HW2 5052   1.252   1.643  12.295
 1389SOL     OW 5053   0.081   1.217  12.199
 1389SOL    HW1 5054   0.087   1.242  12.291
 1389SOL    HW2 5055   3.989   1.230  12.176
 1390SOL     OW 5056   0.682   1.672  12.914
 1390SOL    HW1 5057   0.620   1.744  12.902
 1390SOL    HW2 5058   0.752   1.690  12.852
 1391SOL     OW 5059   1.719   0.121  11.667
 1391SOL    HW1 5060   1.795   0.133  11.610
 1391SOL    HW2 5061   1.705   0.026  11.668
 1392SOL     OW 5062   1.351   1.555  11.640
 1392SOL    HW1 5063   1.419   1.587  11.581
 1392SOL    HW2 5064   1.317   1.634  11.683
 1393SOL     OW 5065   0.179   1.757  13.006
 1393SOL    HW1 5066   0.123   1.704  13.062
 1393SOL    HW2 5067   0.219   1.821  13.065
 1394SOL     OW 5068   1.277   0.931  11.843
 1394SOL    HW1 5069   1.351   0.872  11.857
 1394SOL    HW2 5070   1.313   1.002  11.789
 1395SOL     OW 5071   0.799   1.275  12.594
 1395SOL    HW1 5072   0.771   1.320  12.674
 1395SOL    HW2 5073   0.726   1.287  12.533
 1396SOL     OW 5074   0.670   1.627  11.328
 1396SOL    HW1 5075   0.682   1.641  11.235
 1396SOL    HW2 5076   0.614   1.550  11.334
 1397SOL     OW 5077   1.568   1.727  12.560
 1397SOL    HW1 5078   1.626   1.725  12.483
 1397SOL    HW2 5079   1.552   1.820  12.576
 1398SOL     OW 5080   1.840   0.180  12.133
 1398SOL    HW1 5081   1.872   0.122  12.064
 1398SOL    HW2 5082   1.749   0.198  12.109
 1399SOL     OW 5083   0.278   0.320  11.884
 1399SOL    HW1 5084   0.192   0.353  11.856
 1399SOL    HW2 5085   0.268   0.308  11.979
 1400SOL     OW 5086   1.205   1.598  11.205
 1400SOL    HW1 5087   1.194   1.507  11.232
 1400SOL    HW2 5088   1.137   1.611  11.138
 1401SOL     OW 5089   0.823   1.006  12.549
 1401SOL    HW1 5090   0.866   0.999  12.463
 1401SOL    HW2 5091   0.818   1.100  12.565
 1402SOL     OW 5092   0.915   0.911  11.464
 1402SOL    HW1 5093   0.975   0.944  11.397
 1402SOL    HW2 5094   0.966   0.844  11.510
 1403SOL     OW 5095   1.481   1.629  11.212
 1403SOL    HW1 5096   1.387   1.618  11.196
 1403SOL    HW2 5097   1.520   1.635  11.125
 1404SOL     OW 5098   0.374   1.301  12.664
 1404SOL    HW1 5099   0.358   1.382  12.615
 1404SOL    HW2 5100   0.297   1.247  12.647
 1405SOL     OW 5101   1.601   1.280  12.445
 1405SOL    HW1 5102   1.668   1.268  12.513
 1405SOL    HW2 5103   1.541   1.345  12.483
 1406SOL     OW 5104   1.064   1.113  11.886
 1406SOL    HW1 5105   0.991   1.062  11.921
 1406SOL    HW2 5106   1.129   1.047  11.860
 1407SOL     OW 5107   1.016   0.252  12.145
 1407SOL    HW1 5108   1.007   0.201  12.064
 1407SOL    HW2 5109   1.017   0.186  12.214
 1408SOL     OW 5110   0.608   1.486  11.655
 1408SOL    HW1 5111   0.657   1.438  11.588
 1408SOL    HW2 5112   0.529   1.515  11.610
 1409SOL     OW 5113   1.722   0.396  12.541
 1409SOL    HW1 5114   1.796   0.457  12.547
 1409SOL    HW2 5115   1.755   0.324  12.486
 1410SOL     OW 5116   0.256   1.340  11.465
 1410SOL    HW1 5117   0.162   1.340  11.449
 1410SOL    HW2 5118   0.266   1.382  11.550
 1411SOL     OW 5119   0.112   0.997  12.891
 1411SOL    HW1 5120   0.053   0.993  12.967
 1411SOL    HW2 5121   0.199   0.980  12.928
 1412SOL     OW 5122   0.695   0.263  12.679
 1412SOL    HW1 5123   0.762   0.210  12.637
 1412SOL    HW2 5124   0.723   0.270  12.770
 1413SOL     OW 5125   0.089   0.310  11.191
 1413SOL    HW1 5126   3.993   0.313  11.186
 1413SOL    HW2 5127   0.118   0.393  11.152
 1414SOL     OW 5128   1.422   0.855  12.566
 1414SOL    HW1 5129   1.372   0.916  12.513
 1414SOL    HW2 5130   1.510   0.858  12.530
 1415SOL     OW 5131   0.032   0.180  11.453
 1415SOL    HW1 5132   0.037   0.220  11.366
 1415SOL    HW2 5133   0.105   0.218  11.501
 1416SOL     OW 5134   1.175   1.331  11.287
 1416SOL    HW1 5135   1.084   1.302  11.285
 1416SOL    HW2 5136   1.199   1.327  11.380
 1417SOL     OW 5137   0.624   0.827  12.610
 1417SOL    HW1 5138   0.681   0.903  12.595
 1417SOL    HW2 5139   0.684   0.753  12.617
 1418SOL     OW 5140   1.492   1.790  12.157
 1418SOL    HW1 5141   1.515   1.866  12.103
 1418SOL    HW2 5142   1.568   1.732  12.149
 1419SOL     OW 5143   0.719   0.559  12.877
 1419SOL    HW1 5144   0.765   0.618  12.935
 1419SOL    HW2 5145   0.739   0.471  12.911
 1420SOL     OW 5146   1.473   1.192  12.800
 1420SOL    HW1 5147   1.463   1.209  12.893
 1420SOL    HW2 5148   1.565   1.210  12.781
 1421SOL     OW 5149   0.375   1.747  12.726
 1421SOL    HW1 5150   0.288   1.785  12.716
 1421SOL    HW2 5151   0.360   1.663  12.769
 1422SOL     OW 5152   1.661   0.879  12.428
 1422SOL    HW1 5153   1.659   0.794  12.384
 1422SOL    HW2 5154   1.651   0.943  12.358
 1423SOL     OW 5155   1.221   0.341  11.610
 1423SOL    HW1 5156   1.291   0.276  11.603
 1423SOL    HW2 5157   1.236   0.385  11.694
 1424SOL     OW 5158   0.587   0.735  11.846
 1424SOL    HW1 5159   0.626   0.821  11.831
 1424SOL    HW2 5160   0.522   0.726  11.777
 1425SOL     OW 5161   1.746   0.384  12.815
 1425SOL    HW1 5162   1.731   0.390  12.721
 1425SOL    HW2 5163   1.688   0.314  12.844
 1426SOL     OW 5164   1.752   0.934  12.681
 1426SOL    HW1 5165   1.735   1.027  12.695
 1426SOL    HW2 5166   1.731   0.918  12.589
 1427SOL     OW 5167   0.866   1.363  11.219
 1427SOL    HW1 5168   0.827   1.389  11.302
 1427SOL    HW2 5169   0.878   1.446  11.172
 1428SOL     OW 5170   0.663   1.781  12.109
 1428SOL    HW1 5171   0.645   1.873  12.091
 1428SOL    HW2 5172   0.758   1.773  12.103
 1429SOL     OW 5173   0.870   0.971  12.024
 1429SOL    HW1 5174   0.921   0.899  12.061
 1429SOL    HW2 5175   0.830   1.013  12.100
 1430SOL     OW 5176   1.074   0.988  11.261
 1430SOL    HW1 5177   1.054   1.041  11.184
 1430SOL    HW2 5178   1.148   0.934  11.234
 1431SOL     OW 5179   1.852   1.511  12.001
 1431SOL    HW1 5180   1.811   1.596  11.986
 1431SOL    HW2 5181   1.838   1.493  12.095
 1432SOL     OW 5182   0.233   1.304  13.030
 1432SOL    HW1 5183   0.153   1.260  13.001
 1432SOL    HW2 5184   0.220   1.317  13.124
 1433SOL     OW 5185   0.137   1.293  11.901
 1433SOL    HW1 5186   0.150   1.237  11.977
 1433SOL    HW2 5187   0.106   1.234  11.832
 1434SOL     OW 5188   0.686   1.410  12.804
 1434SOL    HW1 5189   0.606   1.367  12.836
 1434SOL    HW2 5190   0.683   1.498  12.841
 1435SOL     OW 5191   1.808   0.184  12.405
 1435SOL    HW1 5192   1.812   0.090  12.424
 1435SOL    HW2 5193   1.825   0.190  12.311
 1436SOL     OW 5194   0.448   0.439  11.703
 1436SOL    HW1 5195   0.482   0.363  11.655
 1436SOL    HW2 5196   0.393   0.402  11.771
 1437SOL     OW 5197   1.701   1.501  12.265
 1437SOL    HW1 5198   1.623   1.477  12.215
 1437SOL    HW2 5199   1.711   1.431  12.329
 1438SOL     OW 5200   0.337   0.562  12.466
 1438SOL    HW1 5201   0.392   0.505  12.520
 1438SOL    HW2 5202   0.352   0.532  12.377
 1439SOL     OW 5203   0.832   1.583  11.846
 1439SOL    HW1 5204   0.814   1.652  11.782
 1439SOL    HW2 5205   0.756   1.524  11.839
 1440SOL     OW 5206   1.458   0.258  12.282
 1440SOL    HW1 5207   1.479   0.172  12.319
 1440SOL    HW2 5208   1.403   0.300  12.349
 1441SOL     OW 5209   0.998   0.023  12.316
 1441SOL    HW1 5210   0.915   0.011  12.271
 1441SOL    HW2 5211   1.035   3.935  12.323
 1442SOL     OW 5212   0.773   1.333  11.492
 1442SOL    HW1 5213   0.749   1.241  11.502
 1442SOL    HW2 5214   0.853   1.343  11.543
 1443SOL     OW 5215   0.621   1.560  12.460
 1443SOL    HW1 5216   0.621   1.643  12.508
 1443SOL    HW2 5217   0.709   1.553  12.424
 1444SOL     OW 5218   1.304   0.071  11.342
 1444SOL    HW1 5219   1.312   3.982  11.309
 1444SOL    HW2 5220   1.225   0.070  11.396
 1445SOL     OW 5221   1.275   0.456  11.854
 1445SOL    HW1 5222   1.231   0.540  11.848
 1445SOL    HW2 5223   1.279   0.438  11.948
 1446SOL     OW 5224   1.585   0.209  12.041
 1446SOL    HW1 5225   1.535   0.235  12.119
 1446SOL    HW2 5226   1.588   0.287  11.986
 1447SOL     OW 5227   0.047   1.043  11.420
 1447SOL    HW1 5228   0.141   1.029  11.412
 1447SOL    HW2 5229   0.010   0.956  11.433
 1448SOL     OW 5230   0.891   1.662  11.508
 1448SOL    HW1 5231   0.815   1.648  11.452
 1448SOL    HW2 5232   0.864   1.734  11.566
 1449SOL     OW 5233   0.229   0.633  13.149
 1449SOL    HW1 5234   0.135   0.636  13.168
 1449SOL    HW2 5235   0.233   0.601  13.058
 1450SOL     OW 5236   0.290   0.255   0.136
 1450SOL    HW1 5237   0.340   0.329   0.172
 1450SOL    HW2 5238   0.209   0.295   0.104
 1451SOL     OW 5239   0.023   0.375  13.665
 1451SOL    HW1 5240   3.937   0.403  13.635
 1451SOL    HW2 5241   0.027   0.282  13.644
 1452SOL     OW 5242   1.498   1.470  13.723
 1452SOL    HW1 5243   1.457   1.392  13.762
 1452SOL    HW2 5244   1.446   1.488  13.645
 1453SOL     OW 5245   1.135   0.696  13.724
 1453SOL    HW1 5246   1.186   0.775  13.708
 1453SOL    HW2 5247   1.075   0.719  13.794
 1454SOL     OW 5248   1.792   0.616  13.248
 1454SOL    HW1 5249   1.758   0.611  13.159
 1454SOL    HW2 5250   1.765   0.533  13.288
 1455SOL     OW 5251   0.690   1.012  13.670
 1455SOL    HW1 5252   0.739   0.994  13.751
 1455SOL    HW2 5253   0.615   1.064  13.699
 1456SOL     OW 5254   1.606   0.448  13.746
 1456SOL    HW1 5255   1.516   0.465  13.718
 1456SOL    HW2 5256   1.636   0.532  13.783
 1457SOL     OW 5257   0.217   1.714  13.483
 1457SOL    HW1 5258   0.237   1.786  13.543
 1457SOL    HW2 5259   0.293   1.708  13.425
 1458SOL     OW 5260   0.254   1.447  13.571
 1458SOL    HW1 5261   0.226   1.537  13.559
 1458SOL    HW2 5262   0.190   1.410  13.631
 1459SOL     OW 5263   0.259   1.070   0.011
 1459SOL    HW1 5264   0.274   1.037   0.099
 1459SOL    HW2 5265   0.219   1.156   0.024
 1460SOL     OW 5266   0.571   0.989  13.173
 1460SOL    HW1 5267   0.622   1.031  13.104
 1460SOL    HW2 5268   0.611   1.019  13.255
 1461SOL     OW 5269   0.150   0.661  13.609
 1461SOL    HW1 5270   0.092   0.586  13.600
 1461SOL    HW2 5271   0.104   0.721  13.667
 1462SOL     OW 5272   0.043   1.586  13.168
 1462SOL    HW1 5273   0.043   1.496  13.202
 1462SOL    HW2 5274   3.955   1.618  13.186
 1463SOL     OW 5275   1.684   0.916  13.664
 1463SOL    HW1 5276   1.768   0.879  13.637
 1463SOL    HW2 5277   1.660   0.975  13.592
 1464SOL     OW 5278   1.650   1.102  13.455
 1464SOL    HW1 5279   1.736   1.100  13.414
 1464SOL    HW2 5280   1.659   1.165  13.527
 1465SOL     OW 5281   0.618   1.385  13.757
 1465SOL    HW1 5282   0.566   1.307  13.776
 1465SOL    HW2 5283   0.585   1.417  13.674
 1466SOL     OW 5284   0.827   0.009  13.548
 1466SOL    HW1 5285   0.869   0.091  13.521
 1466SOL    HW2 5286   0.733   0.027  13.542
 1467SOL     OW 5287   1.530   0.999  13.231
 1467SOL    HW1 5288   1.461   0.941  13.265
 1467SOL    HW2 5289   1.572   1.033  13.310
 1468SOL     OW 5290   1.566   1.731  13.598
 1468SOL    HW1 5291   1.574   1.706  13.506
 1468SOL    HW2 5292   1.569   1.648  13.645
 1469SOL     OW 5293   0.594   0.716  13.300
 1469SOL    HW1 5294   0.598   0.801  13.256
 1469SOL    HW2 5295   0.531   0.728  13.371
 1470SOL     OW 5296   1.228   0.340   0.046
 1470SOL    HW1 5297   1.142   0.333   0.089
 1470SOL    HW2 5298   1.286   0.288   0.100
 1471SOL     OW 5299   1.568   1.652  13.335
 1471SOL    HW1 5300   1.655   1.614  13.322
 1471SOL    HW2 5301   1.529   1.654  13.248
 1472SOL     OW 5302   1.053   0.698  13.456
 1472SOL    HW1 5303   1.071   0.685  13.549
 1472SOL    HW2 5304   0.970   0.653  13.441
 1473SOL     OW 5305   0.075   0.849  13.807
 1473SOL    HW1 5306   0.148   0.825  13.864
 1473SOL    HW2 5307   0.080   0.944  13.800
 1474SOL     OW 5308   0.895   0.351  13.232
 1474SOL    HW1 5309   0.937   0.412  13.172
 1474SOL    HW2 5310   0.890   0.269  13.182
 1475SOL     OW 5311   1.365   1.133  13.546
 1475SOL    HW1 5312   1.453   1.134  13.510
 1475SOL    HW2 5313   1.318   1.200  13.497
 1476SOL     OW 5314   0.988   1.436  13.497
 1476SOL    HW1 5315   0.967   1.515  13.447
 1476SOL    HW2 5316   0.954   1.454  13.585
 1477SOL     OW 5317   0.418   1.795  13.852
 1477SOL    HW1 5318   0.400   1.703  13.873
 1477SOL    HW2 5319   0.503   1.811  13.893
 1478SOL     OW 5320   1.782   1.033   0.004
 1478SOL    HW1 5321   1.731   1.035  13.823
 1478SOL    HW2 5322   1.715   1.028   0.074
 1479SOL     OW 5323   0.310   0.949  13.276
 1479SOL    HW1 5324   0.392   0.971  13.232
 1479SOL    HW2 5325   0.298   0.855  13.261
 1480SOL     OW 5326   1.498   0.733  13.754
 1480SOL    HW1 5327   1.489   0.700  13.843
 1480SOL    HW2 5328   1.567   0.800  13.761
 1481SOL     OW 5329   1.125   1.777  13.261
 1481SOL    HW1 5330   1.049   1.741  13.305
 1481SOL    HW2 5331   1.147   1.713  13.194
 1482SOL     OW 5332   1.631   1.390  13.131
 1482SOL    HW1 5333   1.587   1.471  13.105
 1482SOL    HW2 5334   1.569   1.320  13.109
 1483SOL     OW 5335   0.465   1.738  13.346
 1483SOL    HW1 5336   0.508   1.791  13.413
 1483SOL    HW2 5337   0.537   1.701  13.295
 1484SOL     OW 5338   1.433   0.174  13.441
 1484SOL    HW1 5339   1.390   0.118  13.376
 1484SOL    HW2 5340   1.522   0.138  13.449
 1485SOL     OW 5341   0.909   1.684   0.009
 1485SOL    HW1 5342   0.929   1.615   0.072
 1485SOL    HW2 5343   0.878   1.638  13.831
 1486SOL     OW 5344   0.401   0.697  13.499
 1486SOL    HW1 5345   0.427   0.606  13.513
 1486SOL    HW2 5346   0.310   0.701  13.530
 1487SOL     OW 5347   0.648   0.125  13.139
 1487SOL    HW1 5348   0.668   0.038  13.175
 1487SOL    HW2 5349   0.589   0.107  13.066
 1488SOL     OW 5350   0.555   0.052  13.519
 1488SOL    HW1 5351   0.479   0.055  13.576
 1488SOL    HW2 5352   0.552   0.134  13.470
 1489SOL     OW 5353   1.433   1.204  13.074
 1489SOL    HW1 5354   1.460   1.127  13.124
 1489SOL    HW2 5355   1.345   1.225  13.107
 1490SOL     OW 5356   0.360   0.036  13.235
 1490SOL    HW1 5357   0.355   0.099  13.164
 1490SOL    HW2 5358   0.452   0.034  13.260
 1491SOL     OW 5359   0.946   0.255  13.490
 1491SOL    HW1 5360   0.920   0.291  13.405
 1491SOL    HW2 5361   1.042   0.263  13.491
 1492SOL     OW 5362   0.469   1.146  13.755
 1492SOL    HW1 5363   0.401   1.118  13.816
 1492SOL    HW2 5364   0.429   1.136  13.668
 1493SOL     OW 5365   1.252   1.787  13.634
 1493SOL    HW1 5366   1.299   1.859  13.590
 1493SOL    HW2 5367   1.182   1.831  13.683
 1494SOL     OW 5368   1.021   0.535  13.067
 1494SOL    HW1 5369   0.979   0.619  13.047
 1494SOL    HW2 5370   1.085   0.557  13.135
 1495SOL     OW 5371   0.907   0.473  13.675
 1495SOL    HW1 5372   0.837   0.520  13.630
 1495SOL    HW2 5373   0.917   0.391  13.625
 1496SOL     OW 5374   1.004   0.035  13.788
 1496SOL    HW1 5375   0.969   0.060  13.703
 1496SOL    HW2 5376   1.028   3.943  13.778
 1497SOL     OW 5377   1.840   0.815  13.422
 1497SOL    HW1 5378   1.901   0.766  13.477
 1497SOL    HW2 5379   1.818   0.755  13.350
 1498SOL     OW 5380   0.487   1.425  13.191
 1498SOL    HW1 5381   0.410   1.395  13.240
 1498SOL    HW2 5382   0.479   1.384  13.106
 1499SOL     OW 5383   1.686   1.261  13.662
 1499SOL    HW1 5384   1.779   1.259  13.688
 1499SOL    HW2 5385   1.652   1.341  13.702
 1500SOL     OW 5386   1.395   0.580  13.102
 1500SOL    HW1 5387   1.333   0.557  13.172
 1500SOL    HW2 5388   1.481   0.560  13.139
 1501SOL     OW 5389   0.559   0.272  13.350
 1501SOL    HW1 5390   0.609   0.229  13.281
 1501SOL    HW2 5391   0.527   0.353  13.310
 1502SOL     OW 5392   0.709   1.065  13.399
 1502SOL    HW1 5393   0.696   1.049  13.492
 1502SOL    HW2 5394   0.785   1.012  13.376
 1503SOL     OW 5395   0.360   1.105  13.507
 1503SOL    HW1 5396   0.357   1.187  13.458
 1503SOL    HW2 5397   0.358   1.037  13.440
 1504SOL     OW 5398   0.560   0.543  13.865
 1504SOL    HW1 5399   0.571   0.608  13.795
 1504SOL    HW2 5400   0.630   0.562   0.027
 1505SOL     OW 5401   1.230   1.341  13.415
 1505SOL    HW1 5402   1.283   1.416  13.442
 1505SOL    HW2 5403   1.143   1.359  13.449
 1506SOL     OW 5404   1.581   0.642  13.508
 1506SOL    HW1 5405   1.542   0.680  13.587
 1506SOL    HW2 5406   1.625   0.716  13.466
 1507SOL     OW 5407   1.197   0.534  13.289
 1507SOL    HW1 5408   1.204   0.455  13.342
 1507SOL    HW2 5409   1.154   0.598  13.346
 1508SOL     OW 5410   0.343   0.048  13.681
 1508SOL    HW1 5411   0.319   0.140  13.694
 1508SOL    HW2 5412   0.279   3.999  13.732
 1509SOL     OW 5413   1.598   0.398  13.403
 1509SOL    HW1 5414   1.550   0.336  13.458
 1509SOL    HW2 5415   1.586   0.483  13.446
 1510SOL     OW 5416   1.497   0.278  13.161
 1510SOL    HW1 5417   1.429   0.213  13.179
 1510SOL    HW2 5418   1.514   0.318  13.246
 1511SOL     OW 5419   1.283   0.826  13.058
 1511SOL    HW1 5420   1.326   0.741  13.063
 1511SOL    HW2 5421   1.316   0.865  12.977
 1512SOL     OW 5422   0.002   1.312  13.214
 1512SOL    HW1 5423   3.908   1.329  13.217
 1512SOL    HW2 5424   0.009   1.218  13.232
 1513SOL     OW 5425   0.820   0.575  13.392
 1513SOL    HW1 5426   0.824   0.496  13.337
 1513SOL    HW2 5427   0.743   0.622  13.360
 1514SOL     OW 5428   0.447   0.492  13.233
 1514SOL    HW1 5429   0.511   0.561  13.250
 1514SOL    HW2 5430   0.367   0.538  13.209
 1515SOL     OW 5431   1.319   0.851  13.334
 1515SOL    HW1 5432   1.243   0.825  13.386
 1515SOL    HW2 5433   1.290   0.840  13.243
 1516SOL     OW 5434   1.691   0.099  13.442
 1516SOL    HW1 5435   1.781   0.125  13.425
 1516SOL    HW2 5436   1.698   0.026  13.504
 1517SOL     OW 5437   1.355   1.562  13.504
 1517SOL    HW1 5438   1.414   1.599  13.438
 1517SOL    HW2 5439   1.315   1.638  13.545
 1518SOL     OW 5440   1.294   0.912  13.684
 1518SOL    HW1 5441   1.371   0.857  13.674
 1518SOL    HW2 5442   1.316   0.993  13.639
 1519SOL     OW 5443   0.670   1.627  13.189
 1519SOL    HW1 5444   0.682   1.640  13.095
 1519SOL    HW2 5445   0.614   1.550  13.195
 1520SOL     OW 5446   1.812   0.185   0.068
 1520SOL    HW1 5447   1.853   0.099   0.060
 1520SOL    HW2 5448   1.728   0.176   0.023
 1521SOL     OW 5449   0.295   0.311  13.730
 1521SOL    HW1 5450   0.212   0.351  13.705
 1521SOL    HW2 5451   0.301   0.327  13.825
 1522SOL     OW 5452   1.205   1.599  13.067
 1522SOL    HW1 5453   1.194   1.507  13.092
 1522SOL    HW2 5454   1.139   1.613  12.999
 1523SOL     OW 5455   0.920   0.915  13.333
 1523SOL    HW1 5456   0.978   0.945  13.262
 1523SOL    HW2 5457   0.967   0.842  13.373
 1524SOL     OW 5458   1.482   1.631  13.075
 1524SOL    HW1 5459   1.388   1.619  13.059
 1524SOL    HW2 5460   1.521   1.637  12.988
 1525SOL     OW 5461   1.050   1.089  13.755
 1525SOL    HW1 5462   0.965   1.060  13.722
 1525SOL    HW2 5463   1.113   1.062  13.688
 1526SOL     OW 5464   0.600   1.494  13.500
 1526SOL    HW1 5465   0.649   1.442  13.437
 1526SOL    HW2 5466   0.522   1.523  13.454
 1527SOL     OW 5467   0.254   1.339  13.326
 1527SOL    HW1 5468   0.160   1.341  13.309
 1527SOL    HW2 5469   0.263   1.379  13.412
 1528SOL     OW 5470   0.088   0.312  13.051
 1528SOL    HW1 5471   3.992   0.315  13.045
 1528SOL    HW2 5472   0.117   0.395  13.012
 1529SOL     OW 5473   0.040   0.183  13.300
 1529SOL    HW1 5474   0.045   0.225  13.214
 1529SOL    HW2 5475   0.113   0.220  13.349
 1530SOL     OW 5476   1.174   1.330  13.145
 1530SOL    HW1 5477   1.082   1.305  13.144
 1530SOL    HW2 5478   1.198   1.330  13.238
 1531SOL     OW 5479   1.217   0.335  13.480
 1531SOL    HW1 5480   1.287   0.270  13.470
 1531SOL    HW2 5481   1.242   0.384  13.559
 1532SOL     OW 5482   0.596   0.749  13.689
 1532SOL    HW1 5483   0.630   0.837  13.672
 1532SOL    HW2 5484   0.527   0.737  13.624
 1533SOL     OW 5485   0.868   1.363  13.080
 1533SOL    HW1 5486   0.828   1.388  13.163
 1533SOL    HW2 5487   0.879   1.446  13.033
 1534SOL     OW 5488   0.669   1.854   0.056
 1534SOL    HW1 5489   0.684   1.947   0.038
 1534SOL    HW2 5490   0.757   1.817   0.065
 1535SOL     OW 5491   0.816   0.968   0.006
 1535SOL    HW1 5492   0.826   0.883   0.048
 1535SOL    HW2 5493   0.876   1.025   0.054
 1536SOL     OW 5494   1.073   0.985  13.123
 1536SOL    HW1 5495   1.053   1.040  13.046
 1536SOL    HW2 5496   1.147   0.932  13.096
 1537SOL     OW 5497   0.117   1.285  13.771
 1537SOL    HW1 5498   0.044   1.257  13.826
 1537SOL    HW2 5499   0.113   1.228  13.695
 1538SOL     OW 5500   0.460   0.443  13.553
 1538SOL    HW1 5501   0.501   0.371  13.505
 1538SOL    HW2 5502   0.412   0.400  13.624
 1539SOL     OW 5503   1.711   1.504   0.321
 1539SOL    HW1 5504   1.684   1.447   0.250
 1539SOL    HW2 5505   1.777   1.454   0.369
 1540SOL     OW 5506   0.821   1.550  13.696
 1540SOL    HW1 5507   0.782   1.603  13.626
 1540SOL    HW2 5508   0.752   1.488  13.720
 1541SOL     OW 5509   0.771   1.335  13.348
 1541SOL    HW1 5510   0.747   1.243  13.359
 1541SOL    HW2 5511   0.850   1.345  13.401
 1542SOL     OW 5512   1.308   0.074  13.213
 1542SOL    HW1 5513   1.327   3.988  13.176
 1542SOL    HW2 5514   1.217   0.067  13.243
 1543SOL     OW 5515   1.294   0.460  13.713
 1543SOL    HW1 5516   1.246   0.542  13.710
 1543SOL    HW2 5517   1.278   0.427  13.802
 1544SOL     OW 5518   0.047   1.044  13.275
 1544SOL    HW1 5519   0.141   1.029  13.268
 1544SOL    HW2 5520   0.010   0.957  13.292
 1545SOL     OW 5521   0.891   1.662  13.371
 1545SOL    HW1 5522   0.815   1.648  13.315
 1545SOL    HW2 5523   0.866   1.732  13.430
 1546SOL     OW 5524   0.226   2.527   0.121
 1546SOL    HW1 5525   0.131   2.513   0.132
 1546SOL    HW2 5526   0.247   2.484   0.039
 1547SOL     OW 5527   0.230   2.135   0.987
 1547SOL    HW1 5528   0.251   2.099   1.073
 1547SOL    HW2 5529   0.134   2.128   0.981
 1548SOL     OW 5530   0.005   2.216   0.624
 1548SOL    HW1 5531   3.917   2.236   0.655
 1548SOL    HW2 5532   3.994   2.191   0.533
 1549SOL     OW 5533   0.583   3.157   1.202
 1549SOL    HW1 5534   0.498   3.159   1.159
 1549SOL    HW2 5535   0.597   3.247   1.232
 1550SOL     OW 5536   1.572   3.371   0.709
 1550SOL    HW1 5537   1.526   3.346   0.790
 1550SOL    HW2 5538   1.503   3.373   0.642
 1551SOL     OW 5539   1.136   2.559   0.696
 1551SOL    HW1 5540   1.183   2.642   0.684
 1551SOL    HW2 5541   1.087   2.571   0.777
 1552SOL     OW 5542   1.780   2.454   0.230
 1552SOL    HW1 5543   1.800   2.402   0.151
 1552SOL    HW2 5544   1.728   2.395   0.284
 1553SOL     OW 5545   0.743   2.996   1.048
 1553SOL    HW1 5546   0.684   3.034   1.112
 1553SOL    HW2 5547   0.782   3.071   1.003
 1554SOL     OW 5548   0.878   2.620   1.825
 1554SOL    HW1 5549   0.870   2.690   1.890
 1554SOL    HW2 5550   0.898   2.666   1.744
 1555SOL     OW 5551   0.683   2.857   0.647
 1555SOL    HW1 5552   0.751   2.850   0.715
 1555SOL    HW2 5553   0.616   2.912   0.686
 1556SOL     OW 5554   0.715   3.011   1.823
 1556SOL    HW1 5555   0.763   3.087   1.855
 1556SOL    HW2 5556   0.636   3.047   1.783
 1557SOL     OW 5557   0.351   3.260   1.079
 1557SOL    HW1 5558   0.270   3.243   1.031
 1557SOL    HW2 5559   0.402   3.317   1.021
 1558SOL     OW 5560   1.459   3.365   1.363
 1558SOL    HW1 5561   1.513   3.443   1.373
 1558SOL    HW2 5562   1.389   3.376   1.427
 1559SOL     OW 5563   0.451   2.253   1.479
 1559SOL    HW1 5564   0.526   2.195   1.485
 1559SOL    HW2 5565   0.375   2.197   1.496
 1560SOL     OW 5566   1.596   2.289   0.731
 1560SOL    HW1 5567   1.510   2.306   0.692
 1560SOL    HW2 5568   1.618   2.370   0.778
 1561SOL     OW 5569   0.219   3.574   0.470
 1561SOL    HW1 5570   0.211   3.658   0.515
 1561SOL    HW2 5571   0.297   3.583   0.415
 1562SOL     OW 5572   1.138   3.204   1.695
 1562SOL    HW1 5573   1.179   3.196   1.781
 1562SOL    HW2 5574   1.086   3.124   1.686
 1563SOL     OW 5575   0.246   3.311   0.542
 1563SOL    HW1 5576   0.224   3.402   0.525
 1563SOL    HW2 5577   0.173   3.277   0.594
 1564SOL     OW 5578   0.252   2.924   0.881
 1564SOL    HW1 5579   0.273   2.839   0.919
 1564SOL    HW2 5580   0.198   2.968   0.947
 1565SOL     OW 5581   0.607   3.648   1.425
 1565SOL    HW1 5582   0.525   3.635   1.472
 1565SOL    HW2 5583   0.635   3.737   1.448
 1566SOL     OW 5584   0.559   2.839   0.175
 1566SOL    HW1 5585   0.597   2.869   0.092
 1566SOL    HW2 5586   0.613   2.880   0.243
 1567SOL     OW 5587   1.557   1.996   1.447
 1567SOL    HW1 5588   1.581   2.079   1.406
 1567SOL    HW2 5589   1.550   2.016   1.540
 1568SOL     OW 5590   0.142   2.528   0.569
 1568SOL    HW1 5591   0.088   2.450   0.572
 1568SOL    HW2 5592   0.111   2.581   0.643
 1569SOL     OW 5593   1.841   3.594   0.333
 1569SOL    HW1 5594   1.906   3.564   0.397
 1569SOL    HW2 5595   1.857   3.688   0.325
 1570SOL     OW 5596   0.035   3.462   0.125
 1570SOL    HW1 5597   0.042   3.373   0.159
 1570SOL    HW2 5598   3.941   3.480   0.122
 1571SOL     OW 5599   1.689   2.780   0.646
 1571SOL    HW1 5600   1.767   2.734   0.616
 1571SOL    HW2 5601   1.664   2.836   0.572
 1572SOL     OW 5602   1.650   2.964   0.434
 1572SOL    HW1 5603   1.738   2.964   0.394
 1572SOL    HW2 5604   1.656   3.030   0.503
 1573SOL     OW 5605   0.148   2.612   1.591
 1573SOL    HW1 5606   0.244   2.611   1.584
 1573SOL    HW2 5607   0.128   2.698   1.628
 1574SOL     OW 5608   0.619   3.248   0.735
 1574SOL    HW1 5609   0.571   3.166   0.744
 1574SOL    HW2 5610   0.604   3.276   0.645
 1575SOL     OW 5611   1.283   3.096   1.420
 1575SOL    HW1 5612   1.314   3.028   1.360
 1575SOL    HW2 5613   1.343   3.091   1.494
 1576SOL     OW 5614   0.828   1.865   0.519
 1576SOL    HW1 5615   0.867   1.948   0.493
 1576SOL    HW2 5616   0.734   1.882   0.521
 1577SOL     OW 5617   0.183   2.809   1.284
 1577SOL    HW1 5618   0.271   2.774   1.273
 1577SOL    HW2 5619   0.134   2.776   1.209
 1578SOL     OW 5620   1.526   2.869   0.207
 1578SOL    HW1 5621   1.459   2.810   0.241
 1578SOL    HW2 5622   1.571   2.903   0.284
 1579SOL     OW 5623   1.230   3.671   1.631
 1579SOL    HW1 5624   1.200   3.732   1.564
 1579SOL    HW2 5625   1.228   3.585   1.587
 1580SOL     OW 5626   0.346   2.109   1.823
 1580SOL    HW1 5627   0.379   2.199   1.831
 1580SOL    HW2 5628   0.254   2.115   1.846
 1581SOL     OW 5629   1.465   3.280   0.945
 1581SOL    HW1 5630   1.399   3.296   1.013
 1581SOL    HW2 5631   1.452   3.189   0.920
 1582SOL     OW 5632   1.659   3.601   0.590
 1582SOL    HW1 5633   1.639   3.577   0.500
 1582SOL    HW2 5634   1.636   3.524   0.642
 1583SOL     OW 5635   0.596   2.573   0.273
 1583SOL    HW1 5636   0.594   2.658   0.229
 1583SOL    HW2 5637   0.533   2.581   0.344
 1584SOL     OW 5638   1.281   2.233   0.936
 1584SOL    HW1 5639   1.193   2.198   0.946
 1584SOL    HW2 5640   1.336   2.177   0.991
 1585SOL     OW 5641   1.563   3.585   0.318
 1585SOL    HW1 5642   1.659   3.584   0.313
 1585SOL    HW2 5643   1.535   3.563   0.229
 1586SOL     OW 5644   0.791   2.479   1.447
 1586SOL    HW1 5645   0.765   2.452   1.535
 1586SOL    HW2 5646   0.759   2.409   1.389
 1587SOL     OW 5647   1.392   2.335   1.677
 1587SOL    HW1 5648   1.395   2.381   1.761
 1587SOL    HW2 5649   1.450   2.259   1.689
 1588SOL     OW 5650   0.948   2.746   1.587
 1588SOL    HW1 5651   1.004   2.679   1.548
 1588SOL    HW2 5652   0.900   2.783   1.514
 1589SOL     OW 5653   0.997   2.269   1.230
 1589SOL    HW1 5654   0.907   2.286   1.257
 1589SOL    HW2 5655   0.988   2.228   1.143
 1590SOL     OW 5656   1.056   2.562   0.428
 1590SOL    HW1 5657   1.075   2.555   0.521
 1590SOL    HW2 5658   0.971   2.518   0.417
 1591SOL     OW 5659   0.084   2.696   0.789
 1591SOL    HW1 5660   0.153   2.664   0.846
 1591SOL    HW2 5661   0.108   2.786   0.770
 1592SOL     OW 5662   0.127   3.720   1.586
 1592SOL    HW1 5663   0.137   3.688   1.676
 1592SOL    HW2 5664   0.035   3.707   1.566
 1593SOL     OW 5665   0.869   2.224   0.217
 1593SOL    HW1 5666   0.906   2.288   0.156
 1593SOL    HW2 5667   0.888   2.139   0.178
 1594SOL     OW 5668   1.669   2.447   1.833
 1594SOL    HW1 5669   1.646   2.521   1.777
 1594SOL    HW2 5670   1.706   2.382   1.773
 1595SOL     OW 5671   1.382   3.004   0.543
 1595SOL    HW1 5672   1.461   2.994   0.489
 1595SOL    HW2 5673   1.329   3.068   0.495
 1596SOL     OW 5674   0.550   2.039   0.899
 1596SOL    HW1 5675   0.557   2.070   0.990
 1596SOL    HW2 5676   0.547   2.119   0.847
 1597SOL     OW 5677   0.998   3.305   0.474
 1597SOL    HW1 5678   0.971   3.381   0.422
 1597SOL    HW2 5679   0.973   3.327   0.563
 1598SOL     OW 5680   0.361   3.675   0.870
 1598SOL    HW1 5681   0.446   3.634   0.884
 1598SOL    HW2 5682   0.377   3.769   0.879
 1599SOL     OW 5683   1.801   2.906   0.875
 1599SOL    HW1 5684   1.749   2.893   0.796
 1599SOL    HW2 5685   1.737   2.917   0.945
 1600SOL     OW 5686   1.226   3.401   1.512
 1600SOL    HW1 5687   1.215   3.329   1.573
 1600SOL    HW2 5688   1.154   3.392   1.450
 1601SOL     OW 5689   0.303   2.787   0.242
 1601SOL    HW1 5690   0.395   2.800   0.218
 1601SOL    HW2 5691   0.288   2.694   0.230
 1602SOL     OW 5692   1.483   2.610   0.719
 1602SOL    HW1 5693   1.480   2.572   0.807
 1602SOL    HW2 5694   1.560   2.667   0.720
 1603SOL     OW 5695   0.474   3.124   1.737
 1603SOL    HW1 5696   0.448   3.131   1.645
 1603SOL    HW2 5697   0.391   3.124   1.785
 1604SOL     OW 5698   1.128   3.640   0.227
 1604SOL    HW1 5699   1.062   3.596   0.281
 1604SOL    HW2 5700   1.156   3.574   0.164
 1605SOL     OW 5701   0.203   2.127   1.509
 1605SOL    HW1 5702   0.113   2.161   1.506
 1605SOL    HW2 5703   0.194   2.038   1.543
 1606SOL     OW 5704   1.638   3.239   0.094
 1606SOL    HW1 5705   1.613   3.320   0.050
 1606SOL    HW2 5706   1.568   3.178   0.074
 1607SOL     OW 5707   0.459   3.607   0.324
 1607SOL    HW1 5708   0.499   3.667   0.388
 1607SOL    HW2 5709   0.533   3.568   0.278
 1608SOL     OW 5710   1.405   1.960   0.438
 1608SOL    HW1 5711   1.392   1.944   0.345
 1608SOL    HW2 5712   1.481   1.906   0.461
 1609SOL     OW 5713   0.264   3.659   1.218
 1609SOL    HW1 5714   0.298   3.586   1.269
 1609SOL    HW2 5715   0.257   3.625   1.129
 1610SOL     OW 5716   0.940   3.567   0.897
 1610SOL    HW1 5717   1.019   3.518   0.919
 1610SOL    HW2 5718   0.899   3.516   0.827
 1611SOL     OW 5719   0.401   2.555   0.472
 1611SOL    HW1 5720   0.421   2.463   0.488
 1611SOL    HW2 5721   0.309   2.564   0.498
 1612SOL     OW 5722   1.522   2.078   1.721
 1612SOL    HW1 5723   1.537   2.098   1.813
 1612SOL    HW2 5724   1.449   2.016   1.721
 1613SOL     OW 5725   0.765   2.141   1.755
 1613SOL    HW1 5726   0.847   2.093   1.750
 1613SOL    HW2 5727   0.719   2.105   1.831
 1614SOL     OW 5728   0.875   3.383   1.194
 1614SOL    HW1 5729   0.857   3.345   1.109
 1614SOL    HW2 5730   0.944   3.328   1.231
 1615SOL     OW 5731   1.338   2.451   1.433
 1615SOL    HW1 5732   1.369   2.421   1.518
 1615SOL    HW2 5733   1.375   2.540   1.425
 1616SOL     OW 5734   0.820   3.247   0.947
 1616SOL    HW1 5735   0.906   3.237   0.906
 1616SOL    HW2 5736   0.759   3.254   0.874
 1617SOL     OW 5737   0.930   2.372   0.899
 1617SOL    HW1 5738   0.904   2.363   0.807
 1617SOL    HW2 5739   0.959   2.284   0.924
 1618SOL     OW 5740   0.562   1.919   0.498
 1618SOL    HW1 5741   0.482   1.917   0.550
 1618SOL    HW2 5742   0.554   1.998   0.444
 1619SOL     OW 5743   1.431   3.078   0.042
 1619SOL    HW1 5744   1.449   2.998   0.091
 1619SOL    HW2 5745   1.340   3.099   0.065
 1620SOL     OW 5746   0.258   1.879   0.211
 1620SOL    HW1 5747   0.292   1.963   0.177
 1620SOL    HW2 5748   0.337   1.830   0.234
 1621SOL     OW 5749   0.946   2.110   0.460
 1621SOL    HW1 5750   0.915   2.151   0.379
 1621SOL    HW2 5751   1.040   2.129   0.461
 1622SOL     OW 5752   1.080   2.548   1.455
 1622SOL    HW1 5753   1.016   2.478   1.460
 1622SOL    HW2 5754   1.165   2.503   1.450
 1623SOL     OW 5755   1.216   3.437   0.796
 1623SOL    HW1 5756   1.231   3.501   0.726
 1623SOL    HW2 5757   1.288   3.451   0.857
 1624SOL     OW 5758   0.467   3.015   0.727
 1624SOL    HW1 5759   0.398   2.989   0.788
 1624SOL    HW2 5760   0.428   3.001   0.641
 1625SOL     OW 5761   1.263   3.653   0.611
 1625SOL    HW1 5762   1.314   3.718   0.563
 1625SOL    HW2 5763   1.187   3.702   0.644
 1626SOL     OW 5764   0.994   2.397   0.044
 1626SOL    HW1 5765   0.978   2.373  13.853
 1626SOL    HW2 5766   1.086   2.376   0.059
 1627SOL     OW 5767   0.086   2.439   1.388
 1627SOL    HW1 5768   0.176   2.425   1.358
 1627SOL    HW2 5769   0.093   2.506   1.455
 1628SOL     OW 5770   0.567   2.089   1.172
 1628SOL    HW1 5771   0.608   2.016   1.219
 1628SOL    HW2 5772   0.475   2.085   1.198
 1629SOL     OW 5773   0.867   2.319   0.639
 1629SOL    HW1 5774   0.827   2.376   0.573
 1629SOL    HW2 5775   0.889   2.239   0.591
 1630SOL     OW 5776   1.019   1.917   0.746
 1630SOL    HW1 5777   0.959   1.912   0.672
 1630SOL    HW2 5778   0.994   1.843   0.802
 1631SOL     OW 5779   1.440   3.021   0.857
 1631SOL    HW1 5780   1.368   2.958   0.855
 1631SOL    HW2 5781   1.466   3.030   0.765
 1632SOL     OW 5782   1.461   2.474   0.965
 1632SOL    HW1 5783   1.404   2.397   0.966
 1632SOL    HW2 5784   1.518   2.463   1.041
 1633SOL     OW 5785   1.844   2.668   0.385
 1633SOL    HW1 5786   1.902   2.620   0.443
 1633SOL    HW2 5787   1.816   2.604   0.320
 1634SOL     OW 5788   0.487   3.257   0.167
 1634SOL    HW1 5789   0.420   3.215   0.219
 1634SOL    HW2 5790   0.439   3.303   0.098
 1635SOL     OW 5791   1.679   3.120   0.650
 1635SOL    HW1 5792   1.774   3.122   0.661
 1635SOL    HW2 5793   1.652   3.212   0.658
 1636SOL     OW 5794   1.422   2.443   0.088
 1636SOL    HW1 5795   1.353   2.439   0.153
 1636SOL    HW2 5796   1.465   2.358   0.092
 1637SOL     OW 5797   0.537   2.129   0.330
 1637SOL    HW1 5798   0.593   2.103   0.256
 1637SOL    HW2 5799   0.492   2.208   0.299
 1638SOL     OW 5800   1.746   3.106   1.556
 1638SOL    HW1 5801   1.834   3.068   1.549
 1638SOL    HW2 5802   1.761   3.195   1.586
 1639SOL     OW 5803   1.052   3.213   1.330
 1639SOL    HW1 5804   0.976   3.182   1.379
 1639SOL    HW2 5805   1.127   3.172   1.373
 1640SOL     OW 5806   1.611   3.491   1.660
 1640SOL    HW1 5807   1.600   3.525   1.571
 1640SOL    HW2 5808   1.692   3.441   1.657
 1641SOL     OW 5809   1.137   3.074   1.101
 1641SOL    HW1 5810   1.077   3.112   1.165
 1641SOL    HW2 5811   1.109   3.110   1.017
 1642SOL     OW 5812   1.620   2.957   1.075
 1642SOL    HW1 5813   1.613   3.021   1.146
 1642SOL    HW2 5814   1.547   2.977   1.017
 1643SOL     OW 5815   0.918   1.954   1.389
 1643SOL    HW1 5816   0.941   1.935   1.298
 1643SOL    HW2 5817   0.997   1.993   1.427
 1644SOL     OW 5818   0.984   2.977   1.722
 1644SOL    HW1 5819   0.893   2.994   1.748
 1644SOL    HW2 5820   0.980   2.898   1.669
 1645SOL     OW 5821   0.719   2.923   0.380
 1645SOL    HW1 5822   0.704   2.901   0.472
 1645SOL    HW2 5823   0.793   2.869   0.354
 1646SOL     OW 5824   0.424   2.682   1.254
 1646SOL    HW1 5825   0.492   2.691   1.321
 1646SOL    HW2 5826   0.392   2.593   1.265
 1647SOL     OW 5827   1.264   2.235   1.284
 1647SOL    HW1 5828   1.295   2.313   1.328
 1647SOL    HW2 5829   1.173   2.255   1.260
 1648SOL     OW 5830   0.064   3.440   1.338
 1648SOL    HW1 5831   0.066   3.456   1.244
 1648SOL    HW2 5832   0.156   3.439   1.364
 1649SOL     OW 5833   0.353   2.961   0.479
 1649SOL    HW1 5834   0.343   3.038   0.423
 1649SOL    HW2 5835   0.372   2.889   0.419
 1650SOL     OW 5836   0.545   2.389   0.862
 1650SOL    HW1 5837   0.557   2.447   0.786
 1650SOL    HW2 5838   0.613   2.416   0.924
 1651SOL     OW 5839   1.247   3.210   0.403
 1651SOL    HW1 5840   1.303   3.283   0.430
 1651SOL    HW2 5841   1.160   3.234   0.434
 1652SOL     OW 5842   1.292   3.323   1.150
 1652SOL    HW1 5843   1.347   3.329   1.228
 1652SOL    HW2 5844   1.236   3.247   1.166
 1653SOL     OW 5845   1.572   2.492   0.478
 1653SOL    HW1 5846   1.525   2.529   0.553
 1653SOL    HW2 5847   1.595   2.568   0.424
 1654SOL     OW 5848   0.345   3.394   1.314
 1654SOL    HW1 5849   0.336   3.341   1.235
 1654SOL    HW2 5850   0.439   3.407   1.324
 1655SOL     OW 5851   0.424   2.598   1.604
 1655SOL    HW1 5852   0.487   2.642   1.547
 1655SOL    HW2 5853   0.463   2.512   1.621
 1656SOL     OW 5854   1.608   2.656   1.678
 1656SOL    HW1 5855   1.522   2.697   1.673
 1656SOL    HW2 5856   1.660   2.700   1.611
 1657SOL     OW 5857   0.997   1.998   1.753
 1657SOL    HW1 5858   1.056   2.071   1.733
 1657SOL    HW2 5859   1.047   1.920   1.729
 1658SOL     OW 5860   0.496   1.894   1.749
 1658SOL    HW1 5861   0.450   1.844   1.681
 1658SOL    HW2 5862   0.444   1.974   1.759
 1659SOL     OW 5863   0.587   2.737   1.034
 1659SOL    HW1 5864   0.624   2.826   1.036
 1659SOL    HW2 5865   0.531   2.732   1.111
 1660SOL     OW 5866   1.342   2.720   1.018
 1660SOL    HW1 5867   1.255   2.704   0.981
 1660SOL    HW2 5868   1.388   2.637   1.006
 1661SOL     OW 5869   1.222   2.402   0.272
 1661SOL    HW1 5870   1.223   2.323   0.326
 1661SOL    HW2 5871   1.164   2.462   0.318
 1662SOL     OW 5872   0.308   2.057   1.246
 1662SOL    HW1 5873   0.262   2.091   1.322
 1662SOL    HW2 5874   0.289   1.963   1.245
 1663SOL     OW 5875   0.066   3.165   1.281
 1663SOL    HW1 5876   0.094   3.121   1.361
 1663SOL    HW2 5877   0.055   3.256   1.306
 1664SOL     OW 5878   0.719   2.491   1.050
 1664SOL    HW1 5879   0.796   2.479   0.995
 1664SOL    HW2 5880   0.691   2.580   1.033
 1665SOL     OW 5881   1.741   2.822   1.860
 1665SOL    HW1 5882   1.697   2.756   1.806
 1665SOL    HW2 5883   1.680   2.839   1.931
 1666SOL     OW 5884   0.321   1.919   0.625
 1666SOL    HW1 5885   0.294   2.009   0.641
 1666SOL    HW2 5886   0.326   1.879   0.712
 1667SOL     OW 5887   1.622   2.247   0.380
 1667SOL    HW1 5888   1.616   2.185   0.453
 1667SOL    HW2 5889   1.598   2.331   0.418
 1668SOL     OW 5890   1.030   2.620   0.957
 1668SOL    HW1 5891   1.019   2.636   1.051
 1668SOL    HW2 5892   1.002   2.529   0.946
 1669SOL     OW 5893   0.987   3.430   1.725
 1669SOL    HW1 5894   0.965   3.469   1.640
 1669SOL    HW2 5895   1.028   3.347   1.703
 1670SOL     OW 5896   1.850   3.362   1.602
 1670SOL    HW1 5897   1.873   3.391   1.514
 1670SOL    HW2 5898   1.930   3.375   1.653
 1671SOL     OW 5899   0.358   2.786   1.798
 1671SOL    HW1 5900   0.435   2.807   1.851
 1671SOL    HW2 5901   0.388   2.718   1.738
 1672SOL     OW 5902   1.507   2.175   0.142
 1672SOL    HW1 5903   1.486   2.082   0.149
 1672SOL    HW2 5904   1.550   2.197   0.225
 1673SOL     OW 5905   1.288   2.689   0.056
 1673SOL    HW1 5906   1.336   2.606   0.057
 1673SOL    HW2 5907   1.305   2.725  13.869
 1674SOL     OW 5908   1.071   3.203   0.858
 1674SOL    HW1 5909   1.077   3.131   0.795
 1674SOL    HW2 5910   1.127   3.271   0.822
 1675SOL     OW 5911   0.314   2.661   0.949
 1675SOL    HW1 5912   0.408   2.678   0.944
 1675SOL    HW2 5913   0.307   2.570   0.980
 1676SOL     OW 5914   0.325   2.384   1.015
 1676SOL    HW1 5915   0.290   2.296   1.001
 1676SOL    HW2 5916   0.402   2.389   0.958
 1677SOL     OW 5917   1.135   2.233   1.687
 1677SOL    HW1 5918   1.088   2.287   1.750
 1677SOL    HW2 5919   1.222   2.273   1.682
 1678SOL     OW 5920   1.159   2.058   1.473
 1678SOL    HW1 5921   1.148   2.121   1.544
 1678SOL    HW2 5922   1.204   2.108   1.404
 1679SOL     OW 5923   0.018   3.187   0.195
 1679SOL    HW1 5924   3.924   3.204   0.187
 1679SOL    HW2 5925   0.024   3.092   0.207
 1680SOL     OW 5926   0.075   3.664   0.894
 1680SOL    HW1 5927   0.101   3.572   0.883
 1680SOL    HW2 5928   0.157   3.712   0.901
 1681SOL     OW 5929   0.506   3.418   0.920
 1681SOL    HW1 5930   0.569   3.489   0.935
 1681SOL    HW2 5931   0.548   3.362   0.855
 1682SOL     OW 5932   0.969   2.647   1.222
 1682SOL    HW1 5933   1.029   2.630   1.294
 1682SOL    HW2 5934   0.886   2.608   1.250
 1683SOL     OW 5935   0.039   2.430   1.108
 1683SOL    HW1 5936   0.123   2.407   1.067
 1683SOL    HW2 5937   0.057   2.426   1.202
 1684SOL     OW 5938   0.206   2.371   1.728
 1684SOL    HW1 5939   0.239   2.318   1.656
 1684SOL    HW2 5940   0.167   2.447   1.685
 1685SOL     OW 5941   1.375   2.797   1.654
 1685SOL    HW1 5942   1.398   2.890   1.650
 1685SOL    HW2 5943   1.370   2.769   1.563
 1686SOL     OW 5944   0.815   2.439   0.384
 1686SOL    HW1 5945   0.823   2.364   0.325
 1686SOL    HW2 5946   0.742   2.490   0.348
 1687SOL     OW 5947   1.636   2.462   1.178
 1687SOL    HW1 5948   1.625   2.409   1.256
 1687SOL    HW2 5949   1.722   2.438   1.144
 1688SOL     OW 5950   0.303   3.405   1.719
 1688SOL    HW1 5951   0.257   3.473   1.767
 1688SOL    HW2 5952   0.277   3.323   1.762
 1689SOL     OW 5953   0.719   2.307   1.250
 1689SOL    HW1 5954   0.662   2.234   1.226
 1689SOL    HW2 5955   0.708   2.371   1.180
 1690SOL     OW 5956   0.924   3.530   1.472
 1690SOL    HW1 5957   0.896   3.488   1.391
 1690SOL    HW2 5958   0.916   3.624   1.455
 1691SOL     OW 5959   0.417   2.355   0.232
 1691SOL    HW1 5960   0.496   2.409   0.228
 1691SOL    HW2 5961   0.346   2.416   0.212
 1692SOL     OW 5962   0.151   2.995   1.480
 1692SOL    HW1 5963   0.151   2.946   1.562
 1692SOL    HW2 5964   0.168   2.929   1.412
 1693SOL     OW 5965   1.318   2.904   1.217
 1693SOL    HW1 5966   1.338   2.840   1.148
 1693SOL    HW2 5967   1.254   2.962   1.178
 1694SOL     OW 5968   1.321   2.719   0.327
 1694SOL    HW1 5969   1.249   2.685   0.380
 1694SOL    HW2 5970   1.295   2.701   0.237
 1695SOL     OW 5971   1.779   3.592   1.157
 1695SOL    HW1 5972   1.841   3.621   1.090
 1695SOL    HW2 5973   1.754   3.504   1.130
 1696SOL     OW 5974   1.246   3.593   1.102
 1696SOL    HW1 5975   1.329   3.617   1.062
 1696SOL    HW2 5976   1.255   3.500   1.123
 1697SOL     OW 5977   0.079   3.074   1.027
 1697SOL    HW1 5978   0.088   3.101   1.118
 1697SOL    HW2 5979   3.986   3.089   1.006
 1698SOL     OW 5980   0.682   3.531   1.743
 1698SOL    HW1 5981   0.621   3.605   1.746
 1698SOL    HW2 5982   0.743   3.553   1.673
 1699SOL     OW 5983   0.946   1.982   0.120
 1699SOL    HW1 5984   0.973   1.967   0.030
 1699SOL    HW2 5985   0.993   1.915   0.170
 1700SOL     OW 5986   1.392   3.433   0.493
 1700SOL    HW1 5987   1.452   3.469   0.428
 1700SOL    HW2 5988   1.343   3.510   0.524
 1701SOL     OW 5989   0.175   3.617   1.836
 1701SOL    HW1 5990   0.121   3.563   1.894
 1701SOL    HW2 5991   0.218   3.678   1.895
 1702SOL     OW 5992   1.279   2.790   0.671
 1702SOL    HW1 5993   1.353   2.730   0.680
 1702SOL    HW2 5994   1.313   2.862   0.617
 1703SOL     OW 5995   0.800   3.138   1.422
 1703SOL    HW1 5996   0.773   3.182   1.503
 1703SOL    HW2 5997   0.727   3.152   1.362
 1704SOL     OW 5998   0.668   3.458   0.197
 1704SOL    HW1 5999   0.659   3.501   0.112
 1704SOL    HW2 6000   0.623   3.375   0.187
 1705SOL     OW 6001   1.619   3.589   1.391
 1705SOL    HW1 6002   1.673   3.592   1.312
 1705SOL    HW2 6003   1.603   3.681   1.412
 1706SOL     OW 6004   0.262   2.170   0.714
 1706SOL    HW1 6005   0.175   2.200   0.689
 1706SOL    HW2 6006   0.258   2.162   0.809
 1707SOL     OW 6007   1.220   3.457   0.039
 1707SOL    HW1 6008   1.210   3.365   0.064
 1707SOL    HW2 6009   1.173   3.464  13.856
 1708SOL     OW 6010   0.823   2.869   1.377
 1708SOL    HW1 6011   0.866   2.862   1.292
 1708SOL    HW2 6012   0.818   2.963   1.394
 1709SOL     OW 6013   0.925   2.774   0.294
 1709SOL    HW1 6014   0.992   2.815   0.239
 1709SOL    HW2 6015   0.971   2.703   0.339
 1710SOL     OW 6016   1.478   3.529   0.062
 1710SOL    HW1 6017   1.388   3.498   0.060
 1710SOL    HW2 6018   1.514   3.503  13.877
 1711SOL     OW 6019   0.374   3.163   1.491
 1711SOL    HW1 6020   0.358   3.244   1.443
 1711SOL    HW2 6021   0.297   3.110   1.475
 1712SOL     OW 6022   1.606   3.147   1.278
 1712SOL    HW1 6023   1.667   3.132   1.350
 1712SOL    HW2 6024   1.546   3.214   1.311
 1713SOL     OW 6025   1.064   2.973   0.714
 1713SOL    HW1 6026   0.991   2.923   0.749
 1713SOL    HW2 6027   1.128   2.907   0.687
 1714SOL     OW 6028   1.027   2.105   0.966
 1714SOL    HW1 6029   1.024   2.059   0.882
 1714SOL    HW2 6030   1.021   2.036   1.032
 1715SOL     OW 6031   0.612   3.345   0.482
 1715SOL    HW1 6032   0.660   3.298   0.414
 1715SOL    HW2 6033   0.537   3.383   0.436
 1716SOL     OW 6034   1.740   2.247   1.382
 1716SOL    HW1 6035   1.807   2.314   1.385
 1716SOL    HW2 6036   1.779   2.176   1.331
 1717SOL     OW 6037   0.268   3.172   0.314
 1717SOL    HW1 6038   0.186   3.195   0.269
 1717SOL    HW2 6039   0.267   3.225   0.394
 1718SOL     OW 6040   0.111   2.856   1.718
 1718SOL    HW1 6041   0.052   2.854   1.794
 1718SOL    HW2 6042   0.198   2.841   1.755
 1719SOL     OW 6043   0.678   2.057   1.499
 1719SOL    HW1 6044   0.762   2.035   1.459
 1719SOL    HW2 6045   0.701   2.091   1.586
 1720SOL     OW 6046   0.049   2.221   0.036
 1720SOL    HW1 6047   3.963   2.241   0.072
 1720SOL    HW2 6048   0.036   2.216  13.842
 1721SOL     OW 6049   1.423   2.719   1.395
 1721SOL    HW1 6050   1.373   2.779   1.340
 1721SOL    HW2 6051   1.512   2.722   1.359
 1722SOL     OW 6052   0.048   2.042   0.312
 1722SOL    HW1 6053   0.082   2.103   0.247
 1722SOL    HW2 6054   0.106   1.965   0.306
 1723SOL     OW 6055   1.187   3.202   0.125
 1723SOL    HW1 6056   1.092   3.197   0.115
 1723SOL    HW2 6057   1.201   3.191   0.219
 1724SOL     OW 6058   0.622   2.692   1.438
 1724SOL    HW1 6059   0.679   2.768   1.424
 1724SOL    HW2 6060   0.683   2.618   1.444
 1725SOL     OW 6061   1.489   3.647   0.984
 1725SOL    HW1 6062   1.510   3.711   0.915
 1725SOL    HW2 6063   1.574   3.618   1.016
 1726SOL     OW 6064   0.716   2.420   1.700
 1726SOL    HW1 6065   0.763   2.478   1.759
 1726SOL    HW2 6066   0.736   2.332   1.732
 1727SOL     OW 6067   1.474   3.055   1.627
 1727SOL    HW1 6068   1.462   3.071   1.720
 1727SOL    HW2 6069   1.565   3.076   1.610
 1728SOL     OW 6070   0.377   3.613   1.561
 1728SOL    HW1 6071   0.289   3.648   1.550
 1728SOL    HW2 6072   0.364   3.528   1.603
 1729SOL     OW 6073   1.662   2.742   1.253
 1729SOL    HW1 6074   1.656   2.657   1.209
 1729SOL    HW2 6075   1.650   2.806   1.182
 1730SOL     OW 6076   1.221   2.180   0.456
 1730SOL    HW1 6077   1.284   2.108   0.451
 1730SOL    HW2 6078   1.249   2.231   0.532
 1731SOL     OW 6079   0.584   2.595   0.679
 1731SOL    HW1 6080   0.625   2.681   0.664
 1731SOL    HW2 6081   0.521   2.585   0.607
 1732SOL     OW 6082   1.741   2.233   1.663
 1732SOL    HW1 6083   1.748   2.239   1.568
 1732SOL    HW2 6084   1.670   2.171   1.678
 1733SOL     OW 6085   1.750   2.809   1.504
 1733SOL    HW1 6086   1.732   2.902   1.516
 1733SOL    HW2 6087   1.728   2.792   1.412
 1734SOL     OW 6088   0.907   3.261   0.080
 1734SOL    HW1 6089   0.852   3.239   0.155
 1734SOL    HW2 6090   0.853   3.242   0.004
 1735SOL     OW 6091   0.656   3.647   0.923
 1735SOL    HW1 6092   0.637   3.739   0.910
 1735SOL    HW2 6093   0.752   3.641   0.926
 1736SOL     OW 6094   0.870   2.833   0.853
 1736SOL    HW1 6095   0.921   2.760   0.890
 1736SOL    HW2 6096   0.831   2.876   0.929
 1737SOL     OW 6097   1.095   2.876   0.111
 1737SOL    HW1 6098   1.089   2.922   0.027
 1737SOL    HW2 6099   1.169   2.816   0.100
 1738SOL     OW 6100   1.843   3.409   0.839
 1738SOL    HW1 6101   1.765   3.401   0.784
 1738SOL    HW2 6102   1.824   3.355   0.916
 1739SOL     OW 6103   0.233   3.167   1.859
 1739SOL    HW1 6104   0.152   3.123   1.831
 1739SOL    HW2 6105   0.223   3.179   1.953
 1740SOL     OW 6106   0.115   3.155   0.738
 1740SOL    HW1 6107   0.130   3.108   0.820
 1740SOL    HW2 6108   0.105   3.085   0.673
 1741SOL     OW 6109   0.687   3.271   1.634
 1741SOL    HW1 6110   0.607   3.229   1.665
 1741SOL    HW2 6111   0.684   3.359   1.671
 1742SOL     OW 6112   0.440   2.298   0.543
 1742SOL    HW1 6113   0.473   2.225   0.489
 1742SOL    HW2 6114   0.384   2.256   0.608
 1743SOL     OW 6115   1.699   3.342   1.083
 1743SOL    HW1 6116   1.617   3.325   1.036
 1743SOL    HW2 6117   1.701   3.275   1.152
 1744SOL     OW 6118   0.340   2.423   1.293
 1744SOL    HW1 6119   0.391   2.363   1.348
 1744SOL    HW2 6120   0.352   2.390   1.204
 1745SOL     OW 6121   0.832   3.444   0.676
 1745SOL    HW1 6122   0.811   3.507   0.607
 1745SOL    HW2 6123   0.759   3.382   0.675
 1746SOL     OW 6124   1.433   2.093   1.120
 1746SOL    HW1 6125   1.435   2.003   1.151
 1746SOL    HW2 6126   1.381   2.140   1.185
 1747SOL     OW 6127   1.011   1.877   1.133
 1747SOL    HW1 6128   0.957   1.811   1.090
 1747SOL    HW2 6129   1.099   1.839   1.134
 1748SOL     OW 6130   0.786   3.186   0.322
 1748SOL    HW1 6131   0.756   3.096   0.339
 1748SOL    HW2 6132   0.863   3.196   0.377
 1749SOL     OW 6133   0.622   3.416   1.289
 1749SOL    HW1 6134   0.621   3.498   1.337
 1749SOL    HW2 6135   0.710   3.411   1.251
 1750SOL     OW 6136   1.350   1.926   0.165
 1750SOL    HW1 6137   1.385   1.868   0.098
 1750SOL    HW2 6138   1.266   1.886   0.190
 1751SOL     OW 6139   1.302   2.326   0.678
 1751SOL    HW1 6140   1.249   2.406   0.679
 1751SOL    HW2 6141   1.292   2.290   0.766
 1752SOL     OW 6142   1.569   2.045   0.878
 1752SOL    HW1 6143   1.534   2.078   0.961
 1752SOL    HW2 6144   1.582   2.124   0.824
 1753SOL     OW 6145   0.043   2.886   0.259
 1753SOL    HW1 6146   0.137   2.866   0.255
 1753SOL    HW2 6147   0.005   2.811   0.305
 1754SOL     OW 6148   0.896   3.525   0.344
 1754SOL    HW1 6149   0.819   3.498   0.294
 1754SOL    HW2 6150   0.866   3.601   0.395
 1755SOL     OW 6151   0.229   2.491   1.978
 1755SOL    HW1 6152   0.136   2.498   1.999
 1755SOL    HW2 6153   0.231   2.457   1.889
 1756SOL     OW 6154   0.230   2.135   2.848
 1756SOL    HW1 6155   0.252   2.099   2.934
 1756SOL    HW2 6156   0.135   2.128   2.843
 1757SOL     OW 6157   0.001   2.217   2.494
 1757SOL    HW1 6158   3.911   2.237   2.519
 1757SOL    HW2 6159   3.995   2.191   2.402
 1758SOL     OW 6160   0.584   3.157   3.065
 1758SOL    HW1 6161   0.498   3.158   3.022
 1758SOL    HW2 6162   0.597   3.247   3.094
 1759SOL     OW 6163   1.572   3.372   2.572
 1759SOL    HW1 6164   1.528   3.349   2.654
 1759SOL    HW2 6165   1.501   3.376   2.508
 1760SOL     OW 6166   1.135   2.561   2.555
 1760SOL    HW1 6167   1.182   2.643   2.544
 1760SOL    HW2 6168   1.087   2.572   2.637
 1761SOL     OW 6169   1.766   2.473   2.088
 1761SOL    HW1 6170   1.738   2.473   1.997
 1761SOL    HW2 6171   1.761   2.381   2.115
 1762SOL     OW 6172   0.743   2.996   2.910
 1762SOL    HW1 6173   0.684   3.034   2.975
 1762SOL    HW2 6174   0.782   3.071   2.865
 1763SOL     OW 6175   0.878   2.620   3.687
 1763SOL    HW1 6176   0.870   2.690   3.752
 1763SOL    HW2 6177   0.898   2.666   3.606
 1764SOL     OW 6178   0.684   2.859   2.506
 1764SOL    HW1 6179   0.752   2.852   2.574
 1764SOL    HW2 6180   0.616   2.913   2.546
 1765SOL     OW 6181   0.715   3.011   3.685
 1765SOL    HW1 6182   0.763   3.087   3.717
 1765SOL    HW2 6183   0.636   3.047   3.645
 1766SOL     OW 6184   0.351   3.259   2.941
 1766SOL    HW1 6185   0.270   3.240   2.893
 1766SOL    HW2 6186   0.401   3.316   2.883
 1767SOL     OW 6187   1.459   3.365   3.225
 1767SOL    HW1 6188   1.513   3.443   3.235
 1767SOL    HW2 6189   1.389   3.375   3.289
 1768SOL     OW 6190   0.451   2.253   3.341
 1768SOL    HW1 6191   0.526   2.195   3.347
 1768SOL    HW2 6192   0.375   2.197   3.358
 1769SOL     OW 6193   1.602   2.291   2.595
 1769SOL    HW1 6194   1.521   2.309   2.546
 1769SOL    HW2 6195   1.617   2.370   2.647
 1770SOL     OW 6196   0.219   3.574   2.327
 1770SOL    HW1 6197   0.214   3.660   2.367
 1770SOL    HW2 6198   0.296   3.578   2.269
 1771SOL     OW 6199   1.138   3.204   3.557
 1771SOL    HW1 6200   1.179   3.196   3.643
 1771SOL    HW2 6201   1.086   3.124   3.548
 1772SOL     OW 6202   0.258   3.309   2.398
 1772SOL    HW1 6203   0.228   3.399   2.386
 1772SOL    HW2 6204   0.193   3.268   2.454
 1773SOL     OW 6205   0.251   2.926   2.744
 1773SOL    HW1 6206   0.272   2.841   2.782
 1773SOL    HW2 6207   0.197   2.969   2.810
 1774SOL     OW 6208   0.607   3.649   3.286
 1774SOL    HW1 6209   0.525   3.635   3.334
 1774SOL    HW2 6210   0.635   3.737   3.310
 1775SOL     OW 6211   0.572   2.851   2.003
 1775SOL    HW1 6212   0.623   2.894   1.935
 1775SOL    HW2 6213   0.612   2.880   2.085
 1776SOL     OW 6214   1.553   1.998   3.306
 1776SOL    HW1 6215   1.579   2.081   3.265
 1776SOL    HW2 6216   1.546   2.019   3.399
 1777SOL     OW 6217   0.145   2.525   2.434
 1777SOL    HW1 6218   0.086   2.450   2.430
 1777SOL    HW2 6219   0.111   2.579   2.505
 1778SOL     OW 6220   1.845   3.599   2.198
 1778SOL    HW1 6221   1.916   3.578   2.259
 1778SOL    HW2 6222   1.860   3.691   2.176
 1779SOL     OW 6223   0.039   3.446   1.998
 1779SOL    HW1 6224   0.040   3.357   2.032
 1779SOL    HW2 6225   3.949   3.477   2.014
 1780SOL     OW 6226   1.691   2.782   2.506
 1780SOL    HW1 6227   1.769   2.735   2.475
 1780SOL    HW2 6228   1.665   2.836   2.431
 1781SOL     OW 6229   1.651   2.965   2.291
 1781SOL    HW1 6230   1.737   2.963   2.251
 1781SOL    HW2 6231   1.659   3.029   2.362
 1782SOL     OW 6232   0.148   2.612   3.453
 1782SOL    HW1 6233   0.244   2.611   3.446
 1782SOL    HW2 6234   0.128   2.698   3.490
 1783SOL     OW 6235   0.620   3.250   2.595
 1783SOL    HW1 6236   0.572   3.167   2.604
 1783SOL    HW2 6237   0.602   3.279   2.506
 1784SOL     OW 6238   1.283   3.096   3.281
 1784SOL    HW1 6239   1.314   3.028   3.222
 1784SOL    HW2 6240   1.343   3.091   3.356
 1785SOL     OW 6241   0.827   1.866   2.379
 1785SOL    HW1 6242   0.867   1.949   2.353
 1785SOL    HW2 6243   0.733   1.884   2.380
 1786SOL     OW 6244   0.183   2.809   3.146
 1786SOL    HW1 6245   0.271   2.774   3.135
 1786SOL    HW2 6246   0.134   2.776   3.071
 1787SOL     OW 6247   1.531   2.864   2.062
 1787SOL    HW1 6248   1.462   2.806   2.094
 1787SOL    HW2 6249   1.574   2.897   2.141
 1788SOL     OW 6250   1.230   3.671   3.492
 1788SOL    HW1 6251   1.200   3.733   3.426
 1788SOL    HW2 6252   1.228   3.586   3.449
 1789SOL     OW 6253   0.346   2.109   3.685
 1789SOL    HW1 6254   0.379   2.199   3.693
 1789SOL    HW2 6255   0.253   2.115   3.708
 1790SOL     OW 6256   1.467   3.280   2.808
 1790SOL    HW1 6257   1.401   3.296   2.875
 1790SOL    HW2 6258   1.452   3.189   2.782
 1791SOL     OW 6259   1.652   3.606   2.444
 1791SOL    HW1 6260   1.636   3.573   2.355
 1791SOL    HW2 6261   1.632   3.531   2.501
 1792SOL     OW 6262   0.595   2.572   2.132
 1792SOL    HW1 6263   0.601   2.658   2.090
 1792SOL    HW2 6264   0.533   2.584   2.203
 1793SOL     OW 6265   1.282   2.234   2.799
 1793SOL    HW1 6266   1.193   2.198   2.808
 1793SOL    HW2 6267   1.336   2.177   2.853
 1794SOL     OW 6268   1.575   3.538   2.173
 1794SOL    HW1 6269   1.669   3.556   2.166
 1794SOL    HW2 6270   1.548   3.521   2.082
 1795SOL     OW 6271   0.791   2.479   3.309
 1795SOL    HW1 6272   0.765   2.452   3.397
 1795SOL    HW2 6273   0.759   2.409   3.252
 1796SOL     OW 6274   1.392   2.335   3.539
 1796SOL    HW1 6275   1.395   2.380   3.623
 1796SOL    HW2 6276   1.449   2.258   3.551
 1797SOL     OW 6277   0.948   2.746   3.449
 1797SOL    HW1 6278   1.004   2.678   3.410
 1797SOL    HW2 6279   0.900   2.783   3.376
 1798SOL     OW 6280   0.997   2.269   3.092
 1798SOL    HW1 6281   0.906   2.285   3.119
 1798SOL    HW2 6282   0.988   2.228   3.006
 1799SOL     OW 6283   1.056   2.561   2.286
 1799SOL    HW1 6284   1.075   2.554   2.379
 1799SOL    HW2 6285   0.972   2.515   2.275
 1800SOL     OW 6286   0.084   2.697   2.650
 1800SOL    HW1 6287   0.153   2.663   2.707
 1800SOL    HW2 6288   0.109   2.788   2.633
 1801SOL     OW 6289   0.127   3.720   3.448
 1801SOL    HW1 6290   0.137   3.688   3.538
 1801SOL    HW2 6291   0.035   3.707   3.427
 1802SOL     OW 6292   0.900   2.212   2.057
 1802SOL    HW1 6293   0.940   2.276   1.998
 1802SOL    HW2 6294   0.910   2.128   2.012
 1803SOL     OW 6295   1.669   2.448   3.697
 1803SOL    HW1 6296   1.645   2.522   3.640
 1803SOL    HW2 6297   1.704   2.382   3.636
 1804SOL     OW 6298   1.383   3.004   2.401
 1804SOL    HW1 6299   1.462   2.993   2.348
 1804SOL    HW2 6300   1.329   3.066   2.352
 1805SOL     OW 6301   0.550   2.039   2.761
 1805SOL    HW1 6302   0.557   2.071   2.851
 1805SOL    HW2 6303   0.546   2.118   2.707
 1806SOL     OW 6304   0.998   3.308   2.329
 1806SOL    HW1 6305   0.967   3.384   2.279
 1806SOL    HW2 6306   0.974   3.327   2.420
 1807SOL     OW 6307   0.360   3.676   2.732
 1807SOL    HW1 6308   0.445   3.634   2.745
 1807SOL    HW2 6309   0.379   3.770   2.740
 1808SOL     OW 6310   1.801   2.908   2.736
 1808SOL    HW1 6311   1.750   2.891   2.657
 1808SOL    HW2 6312   1.736   2.917   2.805
 1809SOL     OW 6313   1.226   3.401   3.374
 1809SOL    HW1 6314   1.215   3.329   3.435
 1809SOL    HW2 6315   1.154   3.392   3.312
 1810SOL     OW 6316   0.311   2.811   2.106
 1810SOL    HW1 6317   0.393   2.833   2.062
 1810SOL    HW2 6318   0.299   2.718   2.089
 1811SOL     OW 6319   1.483   2.614   2.581
 1811SOL    HW1 6320   1.481   2.573   2.667
 1811SOL    HW2 6321   1.562   2.668   2.582
 1812SOL     OW 6322   0.474   3.124   3.599
 1812SOL    HW1 6323   0.448   3.131   3.507
 1812SOL    HW2 6324   0.391   3.125   3.647
 1813SOL     OW 6325   1.115   3.645   2.079
 1813SOL    HW1 6326   1.047   3.601   2.131
 1813SOL    HW2 6327   1.146   3.577   2.020
 1814SOL     OW 6328   0.203   2.127   3.371
 1814SOL    HW1 6329   0.113   2.161   3.368
 1814SOL    HW2 6330   0.194   2.039   3.405
 1815SOL     OW 6331   1.628   3.245   1.956
 1815SOL    HW1 6332   1.588   3.330   1.938
 1815SOL    HW2 6333   1.559   3.182   1.933
 1816SOL     OW 6334   0.464   3.607   2.183
 1816SOL    HW1 6335   0.504   3.665   2.247
 1816SOL    HW2 6336   0.538   3.576   2.130
 1817SOL     OW 6337   1.400   1.960   2.307
 1817SOL    HW1 6338   1.389   1.941   2.213
 1817SOL    HW2 6339   1.478   1.912   2.332
 1818SOL     OW 6340   0.263   3.658   3.081
 1818SOL    HW1 6341   0.298   3.586   3.132
 1818SOL    HW2 6342   0.257   3.624   2.992
 1819SOL     OW 6343   0.939   3.567   2.758
 1819SOL    HW1 6344   1.017   3.517   2.783
 1819SOL    HW2 6345   0.898   3.515   2.689
 1820SOL     OW 6346   0.403   2.552   2.332
 1820SOL    HW1 6347   0.424   2.460   2.349
 1820SOL    HW2 6348   0.311   2.561   2.358
 1821SOL     OW 6349   1.521   2.078   3.582
 1821SOL    HW1 6350   1.537   2.098   3.674
 1821SOL    HW2 6351   1.450   2.014   3.583
 1822SOL     OW 6352   0.655   1.974   1.954
 1822SOL    HW1 6353   0.707   1.898   1.979
 1822SOL    HW2 6354   0.600   1.943   1.881
 1823SOL     OW 6355   0.765   2.142   3.617
 1823SOL    HW1 6356   0.847   2.093   3.612
 1823SOL    HW2 6357   0.720   2.105   3.693
 1824SOL     OW 6358   0.876   3.384   3.056
 1824SOL    HW1 6359   0.857   3.345   2.971
 1824SOL    HW2 6360   0.944   3.328   3.094
 1825SOL     OW 6361   1.338   2.452   3.295
 1825SOL    HW1 6362   1.369   2.421   3.381
 1825SOL    HW2 6363   1.375   2.540   3.287
 1826SOL     OW 6364   0.820   3.247   2.809
 1826SOL    HW1 6365   0.906   3.237   2.768
 1826SOL    HW2 6366   0.758   3.254   2.736
 1827SOL     OW 6367   0.930   2.372   2.760
 1827SOL    HW1 6368   0.905   2.362   2.668
 1827SOL    HW2 6369   0.960   2.285   2.786
 1828SOL     OW 6370   0.562   1.924   2.352
 1828SOL    HW1 6371   0.481   1.929   2.402
 1828SOL    HW2 6372   0.565   2.004   2.301
 1829SOL     OW 6373   1.428   3.064   1.899
 1829SOL    HW1 6374   1.457   2.989   1.951
 1829SOL    HW2 6375   1.342   3.086   1.936
 1830SOL     OW 6376   0.309   1.914   2.031
 1830SOL    HW1 6377   0.370   1.953   1.968
 1830SOL    HW2 6378   0.362   1.849   2.078
 1831SOL     OW 6379   0.945   2.111   2.317
 1831SOL    HW1 6380   0.918   2.149   2.233
 1831SOL    HW2 6381   1.039   2.128   2.322
 1832SOL     OW 6382   1.080   2.548   3.317
 1832SOL    HW1 6383   1.016   2.478   3.322
 1832SOL    HW2 6384   1.165   2.503   3.312
 1833SOL     OW 6385   1.218   3.436   2.657
 1833SOL    HW1 6386   1.231   3.501   2.588
 1833SOL    HW2 6387   1.288   3.453   2.720
 1834SOL     OW 6388   0.468   3.014   2.590
 1834SOL    HW1 6389   0.399   2.990   2.652
 1834SOL    HW2 6390   0.429   2.999   2.504
 1835SOL     OW 6391   1.262   3.651   2.473
 1835SOL    HW1 6392   1.313   3.716   2.425
 1835SOL    HW2 6393   1.187   3.700   2.506
 1836SOL     OW 6394   1.026   2.393   1.889
 1836SOL    HW1 6395   0.983   2.476   1.870
 1836SOL    HW2 6396   1.091   2.415   1.956
 1837SOL     OW 6397   0.086   2.438   3.250
 1837SOL    HW1 6398   0.176   2.425   3.220
 1837SOL    HW2 6399   0.093   2.506   3.317
 1838SOL     OW 6400   0.567   2.089   3.033
 1838SOL    HW1 6401   0.608   2.016   3.080
 1838SOL    HW2 6402   0.475   2.085   3.059
 1839SOL     OW 6403   0.867   2.318   2.500
 1839SOL    HW1 6404   0.821   2.374   2.437
 1839SOL    HW2 6405   0.889   2.239   2.451
 1840SOL     OW 6406   1.018   1.917   2.609
 1840SOL    HW1 6407   0.959   1.912   2.534
 1840SOL    HW2 6408   0.994   1.843   2.664
 1841SOL     OW 6409   1.440   3.020   2.718
 1841SOL    HW1 6410   1.368   2.957   2.720
 1841SOL    HW2 6411   1.463   3.028   2.626
 1842SOL     OW 6412   1.463   2.474   2.826
 1842SOL    HW1 6413   1.405   2.397   2.827
 1842SOL    HW2 6414   1.519   2.463   2.903
 1843SOL     OW 6415   1.841   2.672   2.254
 1843SOL    HW1 6416   1.901   2.621   2.309
 1843SOL    HW2 6417   1.812   2.611   2.187
 1844SOL     OW 6418   0.488   3.285   2.018
 1844SOL    HW1 6419   0.411   3.256   2.067
 1844SOL    HW2 6420   0.477   3.247   1.931
 1845SOL     OW 6421   1.681   3.125   2.503
 1845SOL    HW1 6422   1.775   3.124   2.518
 1845SOL    HW2 6423   1.654   3.214   2.526
 1846SOL     OW 6424   1.389   2.439   1.928
 1846SOL    HW1 6425   1.336   2.413   2.004
 1846SOL    HW2 6426   1.479   2.421   1.955
 1847SOL     OW 6427   0.577   2.127   2.172
 1847SOL    HW1 6428   0.613   2.082   2.095
 1847SOL    HW2 6429   0.545   2.210   2.138
 1848SOL     OW 6430   1.746   3.106   3.418
 1848SOL    HW1 6431   1.834   3.068   3.411
 1848SOL    HW2 6432   1.761   3.195   3.448
 1849SOL     OW 6433   1.051   3.213   3.192
 1849SOL    HW1 6434   0.976   3.182   3.242
 1849SOL    HW2 6435   1.127   3.172   3.235
 1850SOL     OW 6436   1.611   3.491   3.522
 1850SOL    HW1 6437   1.600   3.525   3.433
 1850SOL    HW2 6438   1.692   3.441   3.519
 1851SOL     OW 6439   1.138   3.075   2.963
 1851SOL    HW1 6440   1.077   3.112   3.027
 1851SOL    HW2 6441   1.109   3.111   2.879
 1852SOL     OW 6442   1.621   2.957   2.936
 1852SOL    HW1 6443   1.613   3.021   3.008
 1852SOL    HW2 6444   1.546   2.976   2.879
 1853SOL     OW 6445   0.918   1.953   3.251
 1853SOL    HW1 6446   0.941   1.935   3.160
 1853SOL    HW2 6447   0.997   1.993   3.288
 1854SOL     OW 6448   0.984   2.978   3.584
 1854SOL    HW1 6449   0.893   2.994   3.610
 1854SOL    HW2 6450   0.980   2.898   3.531
 1855SOL     OW 6451   0.708   2.923   2.234
 1855SOL    HW1 6452   0.694   2.903   2.326
 1855SOL    HW2 6453   0.784   2.870   2.209
 1856SOL     OW 6454   0.424   2.683   3.116
 1856SOL    HW1 6455   0.492   2.691   3.183
 1856SOL    HW2 6456   0.392   2.593   3.127
 1857SOL     OW 6457   1.264   2.235   3.146
 1857SOL    HW1 6458   1.295   2.313   3.190
 1857SOL    HW2 6459   1.173   2.255   3.122
 1858SOL     OW 6460   0.064   3.440   3.201
 1858SOL    HW1 6461   0.067   3.458   3.107
 1858SOL    HW2 6462   0.156   3.439   3.228
 1859SOL     OW 6463   0.356   2.965   2.341
 1859SOL    HW1 6464   0.357   3.048   2.292
 1859SOL    HW2 6465   0.358   2.897   2.273
 1860SOL     OW 6466   0.544   2.392   2.723
 1860SOL    HW1 6467   0.558   2.449   2.648
 1860SOL    HW2 6468   0.613   2.417   2.785
 1861SOL     OW 6469   1.246   3.212   2.253
 1861SOL    HW1 6470   1.302   3.283   2.286
 1861SOL    HW2 6471   1.159   3.234   2.286
 1862SOL     OW 6472   1.292   3.323   3.011
 1862SOL    HW1 6473   1.347   3.329   3.090
 1862SOL    HW2 6474   1.237   3.247   3.027
 1863SOL     OW 6475   1.570   2.482   2.340
 1863SOL    HW1 6476   1.525   2.531   2.409
 1863SOL    HW2 6477   1.614   2.549   2.287
 1864SOL     OW 6478   0.345   3.393   3.176
 1864SOL    HW1 6479   0.336   3.340   3.097
 1864SOL    HW2 6480   0.439   3.407   3.186
 1865SOL     OW 6481   0.424   2.598   3.466
 1865SOL    HW1 6482   0.487   2.642   3.409
 1865SOL    HW2 6483   0.462   2.512   3.483
 1866SOL     OW 6484   1.608   2.656   3.541
 1866SOL    HW1 6485   1.522   2.697   3.535
 1866SOL    HW2 6486   1.660   2.700   3.473
 1867SOL     OW 6487   0.997   1.998   3.615
 1867SOL    HW1 6488   1.056   2.071   3.595
 1867SOL    HW2 6489   1.047   1.920   3.591
 1868SOL     OW 6490   0.496   1.894   3.611
 1868SOL    HW1 6491   0.451   1.844   3.543
 1868SOL    HW2 6492   0.444   1.974   3.621
 1869SOL     OW 6493   0.588   2.737   2.896
 1869SOL    HW1 6494   0.623   2.826   2.898
 1869SOL    HW2 6495   0.531   2.732   2.973
 1870SOL     OW 6496   1.342   2.720   2.879
 1870SOL    HW1 6497   1.254   2.703   2.844
 1870SOL    HW2 6498   1.389   2.637   2.867
 1871SOL     OW 6499   1.199   2.387   2.124
 1871SOL    HW1 6500   1.208   2.310   2.179
 1871SOL    HW2 6501   1.157   2.452   2.180
 1872SOL     OW 6502   0.308   2.057   3.108
 1872SOL    HW1 6503   0.261   2.091   3.184
 1872SOL    HW2 6504   0.289   1.963   3.107
 1873SOL     OW 6505   0.066   3.166   3.143
 1873SOL    HW1 6506   0.094   3.121   3.223
 1873SOL    HW2 6507   0.055   3.257   3.169
 1874SOL     OW 6508   0.720   2.491   2.913
 1874SOL    HW1 6509   0.797   2.479   2.857
 1874SOL    HW2 6510   0.691   2.580   2.895
 1875SOL     OW 6511   1.741   2.822   3.722
 1875SOL    HW1 6512   1.697   2.756   3.668
 1875SOL    HW2 6513   1.680   2.840   3.793
 1876SOL     OW 6514   0.320   1.922   2.481
 1876SOL    HW1 6515   0.294   2.012   2.500
 1876SOL    HW2 6516   0.327   1.881   2.567
 1877SOL     OW 6517   1.610   2.238   2.227
 1877SOL    HW1 6518   1.613   2.182   2.305
 1877SOL    HW2 6519   1.591   2.325   2.261
 1878SOL     OW 6520   1.030   2.620   2.819
 1878SOL    HW1 6521   1.019   2.637   2.913
 1878SOL    HW2 6522   1.003   2.529   2.807
 1879SOL     OW 6523   0.987   3.431   3.587
 1879SOL    HW1 6524   0.965   3.469   3.502
 1879SOL    HW2 6525   1.028   3.347   3.565
 1880SOL     OW 6526   1.850   3.362   3.464
 1880SOL    HW1 6527   1.873   3.390   3.376
 1880SOL    HW2 6528   1.930   3.375   3.515
 1881SOL     OW 6529   0.358   2.786   3.660
 1881SOL    HW1 6530   0.435   2.807   3.713
 1881SOL    HW2 6531   0.388   2.718   3.600
 1882SOL     OW 6532   1.527   2.128   1.986
 1882SOL    HW1 6533   1.463   2.065   2.018
 1882SOL    HW2 6534   1.562   2.169   2.065
 1883SOL     OW 6535   1.284   2.689   1.889
 1883SOL    HW1 6536   1.324   2.602   1.893
 1883SOL    HW2 6537   1.316   2.726   1.807
 1884SOL     OW 6538   1.071   3.203   2.720
 1884SOL    HW1 6539   1.077   3.131   2.657
 1884SOL    HW2 6540   1.127   3.271   2.684
 1885SOL     OW 6541   0.313   2.661   2.811
 1885SOL    HW1 6542   0.408   2.678   2.806
 1885SOL    HW2 6543   0.306   2.571   2.842
 1886SOL     OW 6544   0.325   2.384   2.877
 1886SOL    HW1 6545   0.290   2.296   2.863
 1886SOL    HW2 6546   0.402   2.389   2.820
 1887SOL     OW 6547   1.135   2.233   3.549
 1887SOL    HW1 6548   1.088   2.287   3.612
 1887SOL    HW2 6549   1.222   2.273   3.544
 1888SOL     OW 6550   1.159   2.058   3.335
 1888SOL    HW1 6551   1.148   2.121   3.406
 1888SOL    HW2 6552   1.204   2.107   3.266
 1889SOL     OW 6553   0.001   3.173   2.045
 1889SOL    HW1 6554   3.907   3.189   2.047
 1889SOL    HW2 6555   0.009   3.079   2.063
 1890SOL     OW 6556   0.076   3.662   2.756
 1890SOL    HW1 6557   0.100   3.570   2.746
 1890SOL    HW2 6558   0.160   3.708   2.761
 1891SOL     OW 6559   0.504   3.419   2.781
 1891SOL    HW1 6560   0.567   3.489   2.797
 1891SOL    HW2 6561   0.547   3.363   2.716
 1892SOL     OW 6562   0.969   2.647   3.084
 1892SOL    HW1 6563   1.029   2.630   3.156
 1892SOL    HW2 6564   0.886   2.607   3.111
 1893SOL     OW 6565   0.039   2.430   2.970
 1893SOL    HW1 6566   0.122   2.407   2.928
 1893SOL    HW2 6567   0.057   2.426   3.064
 1894SOL     OW 6568   0.206   2.371   3.590
 1894SOL    HW1 6569   0.239   2.317   3.518
 1894SOL    HW2 6570   0.167   2.447   3.547
 1895SOL     OW 6571   1.375   2.797   3.516
 1895SOL    HW1 6572   1.397   2.890   3.512
 1895SOL    HW2 6573   1.370   2.769   3.425
 1896SOL     OW 6574   0.820   2.431   2.229
 1896SOL    HW1 6575   0.826   2.356   2.170
 1896SOL    HW2 6576   0.745   2.481   2.197
 1897SOL     OW 6577   1.638   2.462   3.039
 1897SOL    HW1 6578   1.626   2.407   3.117
 1897SOL    HW2 6579   1.724   2.438   3.005
 1898SOL     OW 6580   0.303   3.405   3.580
 1898SOL    HW1 6581   0.257   3.473   3.629
 1898SOL    HW2 6582   0.277   3.323   3.624
 1899SOL     OW 6583   0.719   2.307   3.113
 1899SOL    HW1 6584   0.662   2.234   3.088
 1899SOL    HW2 6585   0.708   2.371   3.042
 1900SOL     OW 6586   0.924   3.530   3.334
 1900SOL    HW1 6587   0.896   3.488   3.253
 1900SOL    HW2 6588   0.916   3.624   3.318
 1901SOL     OW 6589   0.448   2.348   2.059
 1901SOL    HW1 6590   0.513   2.415   2.079
 1901SOL    HW2 6591   0.369   2.398   2.037
 1902SOL     OW 6592   0.151   2.995   3.341
 1902SOL    HW1 6593   0.151   2.946   3.423
 1902SOL    HW2 6594   0.168   2.929   3.274
 1903SOL     OW 6595   1.319   2.904   3.079
 1903SOL    HW1 6596   1.338   2.840   3.010
 1903SOL    HW2 6597   1.254   2.963   3.040
 1904SOL     OW 6598   1.318   2.719   2.164
 1904SOL    HW1 6599   1.245   2.686   2.216
 1904SOL    HW2 6600   1.290   2.706   2.073
 1905SOL     OW 6601   1.778   3.593   3.018
 1905SOL    HW1 6602   1.840   3.622   2.951
 1905SOL    HW2 6603   1.754   3.504   2.992
 1906SOL     OW 6604   1.245   3.593   2.963
 1906SOL    HW1 6605   1.329   3.616   2.923
 1906SOL    HW2 6606   1.255   3.500   2.985
 1907SOL     OW 6607   0.079   3.074   2.890
 1907SOL    HW1 6608   0.086   3.102   2.981
 1907SOL    HW2 6609   3.987   3.090   2.867
 1908SOL     OW 6610   0.682   3.531   3.605
 1908SOL    HW1 6611   0.621   3.605   3.608
 1908SOL    HW2 6612   0.743   3.553   3.535
 1909SOL     OW 6613   1.393   3.430   2.354
 1909SOL    HW1 6614   1.450   3.465   2.286
 1909SOL    HW2 6615   1.343   3.505   2.385
 1910SOL     OW 6616   0.175   3.617   3.698
 1910SOL    HW1 6617   0.121   3.563   3.756
 1910SOL    HW2 6618   0.218   3.678   3.757
 1911SOL     OW 6619   1.278   2.792   2.533
 1911SOL    HW1 6620   1.352   2.732   2.544
 1911SOL    HW2 6621   1.313   2.863   2.478
 1912SOL     OW 6622   0.800   3.139   3.284
 1912SOL    HW1 6623   0.773   3.182   3.364
 1912SOL    HW2 6624   0.727   3.151   3.223
 1913SOL     OW 6625   0.674   3.484   2.023
 1913SOL    HW1 6626   0.684   3.502   1.930
 1913SOL    HW2 6627   0.614   3.409   2.027
 1914SOL     OW 6628   1.619   3.589   3.253
 1914SOL    HW1 6629   1.673   3.592   3.174
 1914SOL    HW2 6630   1.603   3.681   3.275
 1915SOL     OW 6631   0.260   2.172   2.576
 1915SOL    HW1 6632   0.173   2.202   2.552
 1915SOL    HW2 6633   0.258   2.163   2.671
 1916SOL     OW 6634   1.208   3.461   1.900
 1916SOL    HW1 6635   1.198   3.369   1.925
 1916SOL    HW2 6636   1.146   3.473   1.829
 1917SOL     OW 6637   0.823   2.869   3.239
 1917SOL    HW1 6638   0.866   2.862   3.154
 1917SOL    HW2 6639   0.818   2.963   3.256
 1918SOL     OW 6640   0.916   2.772   2.155
 1918SOL    HW1 6641   0.975   2.805   2.087
 1918SOL    HW2 6642   0.967   2.705   2.200
 1919SOL     OW 6643   1.487   3.496   1.908
 1919SOL    HW1 6644   1.394   3.483   1.891
 1919SOL    HW2 6645   1.527   3.501   1.821
 1920SOL     OW 6646   0.374   3.163   3.353
 1920SOL    HW1 6647   0.358   3.244   3.305
 1920SOL    HW2 6648   0.297   3.110   3.337
 1921SOL     OW 6649   1.606   3.147   3.140
 1921SOL    HW1 6650   1.667   3.131   3.213
 1921SOL    HW2 6651   1.546   3.214   3.173
 1922SOL     OW 6652   1.065   2.974   2.575
 1922SOL    HW1 6653   0.991   2.924   2.611
 1922SOL    HW2 6654   1.129   2.907   2.549
 1923SOL     OW 6655   1.028   2.106   2.829
 1923SOL    HW1 6656   1.024   2.060   2.745
 1923SOL    HW2 6657   1.021   2.036   2.894
 1924SOL     OW 6658   0.609   3.353   2.342
 1924SOL    HW1 6659   0.657   3.303   2.276
 1924SOL    HW2 6660   0.532   3.386   2.296
 1925SOL     OW 6661   1.739   2.245   3.242
 1925SOL    HW1 6662   1.807   2.313   3.245
 1925SOL    HW2 6663   1.781   2.172   3.197
 1926SOL     OW 6664   0.255   3.202   2.152
 1926SOL    HW1 6665   0.161   3.203   2.137
 1926SOL    HW2 6666   0.266   3.242   2.238
 1927SOL     OW 6667   0.111   2.857   3.580
 1927SOL    HW1 6668   0.052   2.854   3.656
 1927SOL    HW2 6669   0.198   2.841   3.617
 1928SOL     OW 6670   0.678   2.057   3.362
 1928SOL    HW1 6671   0.762   2.035   3.321
 1928SOL    HW2 6672   0.701   2.091   3.448
 1929SOL     OW 6673   0.080   2.168   1.899
 1929SOL    HW1 6674   3.985   2.168   1.908
 1929SOL    HW2 6675   0.100   2.250   1.854
 1930SOL     OW 6676   1.423   2.719   3.257
 1930SOL    HW1 6677   1.373   2.780   3.202
 1930SOL    HW2 6678   1.512   2.722   3.221
 1931SOL     OW 6679   0.013   2.111   2.241
 1931SOL    HW1 6680   0.048   2.174   2.177
 1931SOL    HW2 6681   0.090   2.064   2.272
 1932SOL     OW 6682   1.177   3.193   1.980
 1932SOL    HW1 6683   1.085   3.167   1.980
 1932SOL    HW2 6684   1.202   3.194   2.073
 1933SOL     OW 6685   0.622   2.692   3.301
 1933SOL    HW1 6686   0.679   2.768   3.286
 1933SOL    HW2 6687   0.682   2.618   3.306
 1934SOL     OW 6688   1.489   3.646   2.844
 1934SOL    HW1 6689   1.510   3.713   2.779
 1934SOL    HW2 6690   1.574   3.620   2.880
 1935SOL     OW 6691   0.717   2.419   3.562
 1935SOL    HW1 6692   0.764   2.478   3.622
 1935SOL    HW2 6693   0.736   2.331   3.594
 1936SOL     OW 6694   1.474   3.055   3.489
 1936SOL    HW1 6695   1.462   3.071   3.582
 1936SOL    HW2 6696   1.565   3.076   3.472
 1937SOL     OW 6697   0.377   3.613   3.423
 1937SOL    HW1 6698   0.289   3.648   3.412
 1937SOL    HW2 6699   0.364   3.528   3.465
 1938SOL     OW 6700   1.662   2.742   3.115
 1938SOL    HW1 6701   1.656   2.656   3.071
 1938SOL    HW2 6702   1.650   2.805   3.044
 1939SOL     OW 6703   1.218   2.181   2.319
 1939SOL    HW1 6704   1.279   2.107   2.314
 1939SOL    HW2 6705   1.247   2.231   2.395
 1940SOL     OW 6706   0.586   2.596   2.539
 1940SOL    HW1 6707   0.626   2.682   2.524
 1940SOL    HW2 6708   0.523   2.586   2.467
 1941SOL     OW 6709   1.738   2.236   3.523
 1941SOL    HW1 6710   1.744   2.242   3.428
 1941SOL    HW2 6711   1.667   2.173   3.538
 1942SOL     OW 6712   1.750   2.808   3.366
 1942SOL    HW1 6713   1.733   2.901   3.378
 1942SOL    HW2 6714   1.728   2.791   3.274
 1943SOL     OW 6715   0.868   3.227   1.911
 1943SOL    HW1 6716   0.826   3.253   1.992
 1943SOL    HW2 6717   0.878   3.308   1.861
 1944SOL     OW 6718   0.656   3.646   2.785
 1944SOL    HW1 6719   0.638   3.739   2.772
 1944SOL    HW2 6720   0.751   3.641   2.788
 1945SOL     OW 6721   0.871   2.834   2.715
 1945SOL    HW1 6722   0.920   2.761   2.751
 1945SOL    HW2 6723   0.831   2.876   2.791
 1946SOL     OW 6724   1.073   2.849   1.951
 1946SOL    HW1 6725   1.054   2.903   1.873
 1946SOL    HW2 6726   1.148   2.796   1.925
 1947SOL     OW 6727   1.843   3.409   2.701
 1947SOL    HW1 6728   1.763   3.401   2.650
 1947SOL    HW2 6729   1.829   3.353   2.777
 1948SOL     OW 6730   0.233   3.167   3.720
 1948SOL    HW1 6731   0.153   3.123   3.693
 1948SOL    HW2 6732   0.223   3.179   3.815
 1949SOL     OW 6733   0.130   3.152   2.590
 1949SOL    HW1 6734   0.147   3.098   2.667
 1949SOL    HW2 6735   0.104   3.090   2.522
 1950SOL     OW 6736   0.687   3.271   3.495
 1950SOL    HW1 6737   0.608   3.228   3.527
 1950SOL    HW2 6738   0.684   3.359   3.533
 1951SOL     OW 6739   0.439   2.293   2.397
 1951SOL    HW1 6740   0.435   2.224   2.331
 1951SOL    HW2 6741   0.383   2.261   2.468
 1952SOL     OW 6742   1.699   3.342   2.947
 1952SOL    HW1 6743   1.618   3.325   2.899
 1952SOL    HW2 6744   1.702   3.276   3.015
 1953SOL     OW 6745   0.340   2.423   3.155
 1953SOL    HW1 6746   0.391   2.363   3.210
 1953SOL    HW2 6747   0.352   2.390   3.066
 1954SOL     OW 6748   0.832   3.441   2.537
 1954SOL    HW1 6749   0.807   3.502   2.467
 1954SOL    HW2 6750   0.759   3.379   2.542
 1955SOL     OW 6751   1.433   2.093   2.982
 1955SOL    HW1 6752   1.435   2.003   3.014
 1955SOL    HW2 6753   1.381   2.140   3.047
 1956SOL     OW 6754   1.011   1.877   2.995
 1956SOL    HW1 6755   0.957   1.811   2.951
 1956SOL    HW2 6756   1.099   1.839   2.996
 1957SOL     OW 6757   0.775   3.194   2.186
 1957SOL    HW1 6758   0.748   3.102   2.194
 1957SOL    HW2 6759   0.857   3.200   2.235
 1958SOL     OW 6760   0.622   3.416   3.150
 1958SOL    HW1 6761   0.621   3.499   3.199
 1958SOL    HW2 6762   0.710   3.411   3.113
 1959SOL     OW 6763   1.358   1.909   2.037
 1959SOL    HW1 6764   1.390   1.842   1.977
 1959SOL    HW2 6765   1.268   1.882   2.057
 1960SOL     OW 6766   1.299   2.326   2.540
 1960SOL    HW1 6767   1.247   2.406   2.542
 1960SOL    HW2 6768   1.292   2.291   2.629
 1961SOL     OW 6769   1.568   2.046   2.738
 1961SOL    HW1 6770   1.534   2.078   2.822
 1961SOL    HW2 6771   1.582   2.125   2.686
 1962SOL     OW 6772   0.047   2.905   2.108
 1962SOL    HW1 6773   0.141   2.892   2.101
 1962SOL    HW2 6774   0.011   2.817   2.122
 1963SOL     OW 6775   0.889   3.528   2.201
 1963SOL    HW1 6776   0.816   3.510   2.142
 1963SOL    HW2 6777   0.859   3.601   2.256
 1964SOL     OW 6778   0.229   2.491   3.840
 1964SOL    HW1 6779   0.136   2.499   3.861
 1964SOL    HW2 6780   0.231   2.457   3.751
 1965SOL     OW 6781   0.230   2.135   4.710
 1965SOL    HW1 6782   0.252   2.099   4.796
 1965SOL    HW2 6783   0.135   2.128   4.705
 1966SOL     OW 6784   0.001   2.217   4.356
 1966SOL    HW1 6785   3.911   2.237   4.381
 1966SOL    HW2 6786   3.995   2.191   4.264
 1967SOL     OW 6787   0.584   3.157   4.927
 1967SOL    HW1 6788   0.498   3.158   4.884
 1967SOL    HW2 6789   0.597   3.247   4.956
 1968SOL     OW 6790   1.572   3.373   4.434
 1968SOL    HW1 6791   1.528   3.349   4.516
 1968SOL    HW2 6792   1.501   3.376   4.370
 1969SOL     OW 6793   1.135   2.561   4.417
 1969SOL    HW1 6794   1.182   2.643   4.406
 1969SOL    HW2 6795   1.086   2.572   4.499
 1970SOL     OW 6796   1.772   2.470   3.949
 1970SOL    HW1 6797   1.742   2.470   3.859
 1970SOL    HW2 6798   1.761   2.379   3.978
 1971SOL     OW 6799   0.743   2.996   4.772
 1971SOL    HW1 6800   0.684   3.034   4.837
 1971SOL    HW2 6801   0.782   3.071   4.727
 1972SOL     OW 6802   0.877   2.622   5.548
 1972SOL    HW1 6803   0.867   2.692   5.613
 1972SOL    HW2 6804   0.898   2.667   5.466
 1973SOL     OW 6805   0.684   2.859   4.368
 1973SOL    HW1 6806   0.752   2.852   4.436
 1973SOL    HW2 6807   0.616   2.913   4.408
 1974SOL     OW 6808   0.716   3.011   5.548
 1974SOL    HW1 6809   0.764   3.088   5.579
 1974SOL    HW2 6810   0.637   3.047   5.507
 1975SOL     OW 6811   0.351   3.259   4.803
 1975SOL    HW1 6812   0.271   3.240   4.755
 1975SOL    HW2 6813   0.401   3.316   4.745
 1976SOL     OW 6814   1.459   3.365   5.087
 1976SOL    HW1 6815   1.513   3.443   5.097
 1976SOL    HW2 6816   1.389   3.375   5.151
 1977SOL     OW 6817   0.451   2.254   5.203
 1977SOL    HW1 6818   0.526   2.195   5.210
 1977SOL    HW2 6819   0.375   2.197   5.221
 1978SOL     OW 6820   1.600   2.290   4.456
 1978SOL    HW1 6821   1.519   2.308   4.409
 1978SOL    HW2 6822   1.616   2.370   4.507
 1979SOL     OW 6823   0.219   3.574   4.188
 1979SOL    HW1 6824   0.214   3.660   4.229
 1979SOL    HW2 6825   0.296   3.578   4.131
 1980SOL     OW 6826   1.138   3.203   5.419
 1980SOL    HW1 6827   1.179   3.196   5.505
 1980SOL    HW2 6828   1.086   3.124   5.410
 1981SOL     OW 6829   0.258   3.309   4.260
 1981SOL    HW1 6830   0.228   3.399   4.248
 1981SOL    HW2 6831   0.193   3.268   4.316
 1982SOL     OW 6832   0.251   2.926   4.606
 1982SOL    HW1 6833   0.272   2.841   4.644
 1982SOL    HW2 6834   0.197   2.969   4.672
 1983SOL     OW 6835   0.607   3.649   5.148
 1983SOL    HW1 6836   0.525   3.636   5.196
 1983SOL    HW2 6837   0.635   3.737   5.172
 1984SOL     OW 6838   0.572   2.851   3.865
 1984SOL    HW1 6839   0.623   2.894   3.797
 1984SOL    HW2 6840   0.612   2.880   3.947
 1985SOL     OW 6841   1.548   2.000   5.163
 1985SOL    HW1 6842   1.578   2.083   5.126
 1985SOL    HW2 6843   1.535   2.019   5.256
 1986SOL     OW 6844   0.145   2.525   4.296
 1986SOL    HW1 6845   0.086   2.450   4.292
 1986SOL    HW2 6846   0.111   2.579   4.367
 1987SOL     OW 6847   1.845   3.599   4.060
 1987SOL    HW1 6848   1.916   3.578   4.121
 1987SOL    HW2 6849   1.860   3.691   4.038
 1988SOL     OW 6850   0.039   3.446   3.860
 1988SOL    HW1 6851   0.040   3.357   3.894
 1988SOL    HW2 6852   3.949   3.476   3.876
 1989SOL     OW 6853   1.691   2.782   4.368
 1989SOL    HW1 6854   1.769   2.735   4.338
 1989SOL    HW2 6855   1.665   2.836   4.294
 1990SOL     OW 6856   1.650   2.965   4.153
 1990SOL    HW1 6857   1.737   2.963   4.113
 1990SOL    HW2 6858   1.658   3.029   4.224
 1991SOL     OW 6859   0.148   2.612   5.315
 1991SOL    HW1 6860   0.244   2.610   5.308
 1991SOL    HW2 6861   0.128   2.698   5.352
 1992SOL     OW 6862   0.620   3.250   4.457
 1992SOL    HW1 6863   0.572   3.167   4.466
 1992SOL    HW2 6864   0.602   3.279   4.368
 1993SOL     OW 6865   1.283   3.096   5.143
 1993SOL    HW1 6866   1.313   3.028   5.083
 1993SOL    HW2 6867   1.344   3.092   5.217
 1994SOL     OW 6868   0.827   1.866   4.241
 1994SOL    HW1 6869   0.867   1.949   4.215
 1994SOL    HW2 6870   0.733   1.884   4.242
 1995SOL     OW 6871   0.183   2.809   5.008
 1995SOL    HW1 6872   0.271   2.774   4.997
 1995SOL    HW2 6873   0.134   2.776   4.933
 1996SOL     OW 6874   1.531   2.864   3.924
 1996SOL    HW1 6875   1.462   2.806   3.956
 1996SOL    HW2 6876   1.574   2.897   4.003
 1997SOL     OW 6877   1.230   3.670   5.355
 1997SOL    HW1 6878   1.200   3.732   5.288
 1997SOL    HW2 6879   1.227   3.585   5.311
 1998SOL     OW 6880   0.346   2.108   5.547
 1998SOL    HW1 6881   0.379   2.197   5.555
 1998SOL    HW2 6882   0.253   2.115   5.570
 1999SOL     OW 6883   1.467   3.280   4.669
 1999SOL    HW1 6884   1.401   3.296   4.737
 1999SOL    HW2 6885   1.452   3.189   4.644
 2000SOL     OW 6886   1.652   3.606   4.306
 2000SOL    HW1 6887   1.636   3.573   4.217
 2000SOL    HW2 6888   1.632   3.531   4.363
 2001SOL     OW 6889   0.595   2.572   3.994
 2001SOL    HW1 6890   0.601   2.658   3.952
 2001SOL    HW2 6891   0.533   2.584   4.065
 2002SOL     OW 6892   1.281   2.234   4.661
 2002SOL    HW1 6893   1.193   2.198   4.670
 2002SOL    HW2 6894   1.336   2.177   4.716
 2003SOL     OW 6895   1.575   3.538   4.035
 2003SOL    HW1 6896   1.669   3.556   4.028
 2003SOL    HW2 6897   1.548   3.521   3.945
 2004SOL     OW 6898   0.790   2.480   5.171
 2004SOL    HW1 6899   0.765   2.452   5.259
 2004SOL    HW2 6900   0.759   2.410   5.113
 2005SOL     OW 6901   1.393   2.334   5.402
 2005SOL    HW1 6902   1.400   2.380   5.485
 2005SOL    HW2 6903   1.445   2.254   5.414
 2006SOL     OW 6904   0.949   2.746   5.311
 2006SOL    HW1 6905   1.004   2.678   5.271
 2006SOL    HW2 6906   0.900   2.783   5.238
 2007SOL     OW 6907   0.997   2.270   4.953
 2007SOL    HW1 6908   0.906   2.286   4.981
 2007SOL    HW2 6909   0.988   2.228   4.868
 2008SOL     OW 6910   1.056   2.561   4.148
 2008SOL    HW1 6911   1.075   2.554   4.241
 2008SOL    HW2 6912   0.972   2.515   4.137
 2009SOL     OW 6913   0.084   2.697   4.512
 2009SOL    HW1 6914   0.153   2.663   4.569
 2009SOL    HW2 6915   0.109   2.787   4.495
 2010SOL     OW 6916   0.127   3.720   5.310
 2010SOL    HW1 6917   0.137   3.688   5.400
 2010SOL    HW2 6918   0.035   3.707   5.289
 2011SOL     OW 6919   0.900   2.212   3.919
 2011SOL    HW1 6920   0.940   2.276   3.860
 2011SOL    HW2 6921   0.910   2.128   3.875
 2012SOL     OW 6922   1.674   2.452   5.536
 2012SOL    HW1 6923   1.649   2.526   5.482
 2012SOL    HW2 6924   1.704   2.385   5.474
 2013SOL     OW 6925   1.383   3.004   4.263
 2013SOL    HW1 6926   1.462   2.993   4.210
 2013SOL    HW2 6927   1.329   3.066   4.214
 2014SOL     OW 6928   0.550   2.039   4.623
 2014SOL    HW1 6929   0.557   2.071   4.713
 2014SOL    HW2 6930   0.547   2.118   4.569
 2015SOL     OW 6931   0.998   3.308   4.191
 2015SOL    HW1 6932   0.967   3.384   4.141
 2015SOL    HW2 6933   0.974   3.327   4.282
 2016SOL     OW 6934   0.360   3.676   4.594
 2016SOL    HW1 6935   0.445   3.634   4.607
 2016SOL    HW2 6936   0.379   3.770   4.602
 2017SOL     OW 6937   1.801   2.908   4.598
 2017SOL    HW1 6938   1.750   2.891   4.519
 2017SOL    HW2 6939   1.736   2.918   4.667
 2018SOL     OW 6940   1.226   3.401   5.236
 2018SOL    HW1 6941   1.214   3.328   5.297
 2018SOL    HW2 6942   1.154   3.391   5.173
 2019SOL     OW 6943   0.311   2.811   3.968
 2019SOL    HW1 6944   0.393   2.833   3.924
 2019SOL    HW2 6945   0.299   2.718   3.951
 2020SOL     OW 6946   1.483   2.614   4.443
 2020SOL    HW1 6947   1.480   2.572   4.529
 2020SOL    HW2 6948   1.562   2.668   4.445
 2021SOL     OW 6949   0.474   3.124   5.461
 2021SOL    HW1 6950   0.448   3.131   5.369
 2021SOL    HW2 6951   0.391   3.124   5.509
 2022SOL     OW 6952   1.115   3.645   3.941
 2022SOL    HW1 6953   1.047   3.601   3.993
 2022SOL    HW2 6954   1.146   3.577   3.882
 2023SOL     OW 6955   0.203   2.127   5.233
 2023SOL    HW1 6956   0.113   2.161   5.230
 2023SOL    HW2 6957   0.194   2.038   5.267
 2024SOL     OW 6958   1.628   3.245   3.818
 2024SOL    HW1 6959   1.588   3.330   3.800
 2024SOL    HW2 6960   1.560   3.182   3.795
 2025SOL     OW 6961   0.464   3.607   4.045
 2025SOL    HW1 6962   0.504   3.665   4.109
 2025SOL    HW2 6963   0.538   3.576   3.992
 2026SOL     OW 6964   1.400   1.960   4.169
 2026SOL    HW1 6965   1.389   1.941   4.076
 2026SOL    HW2 6966   1.478   1.911   4.195
 2027SOL     OW 6967   0.264   3.659   4.942
 2027SOL    HW1 6968   0.298   3.586   4.994
 2027SOL    HW2 6969   0.257   3.624   4.853
 2028SOL     OW 6970   0.939   3.567   4.620
 2028SOL    HW1 6971   1.017   3.517   4.645
 2028SOL    HW2 6972   0.898   3.515   4.551
 2029SOL     OW 6973   0.402   2.552   4.194
 2029SOL    HW1 6974   0.424   2.460   4.211
 2029SOL    HW2 6975   0.311   2.561   4.220
 2030SOL     OW 6976   1.516   2.076   5.446
 2030SOL    HW1 6977   1.536   2.100   5.536
 2030SOL    HW2 6978   1.452   2.005   5.453
 2031SOL     OW 6979   0.655   1.974   3.816
 2031SOL    HW1 6980   0.707   1.898   3.841
 2031SOL    HW2 6981   0.600   1.943   3.744
 2032SOL     OW 6982   0.764   2.142   5.477
 2032SOL    HW1 6983   0.846   2.093   5.473
 2032SOL    HW2 6984   0.722   2.112   5.558
 2033SOL     OW 6985   0.876   3.384   4.918
 2033SOL    HW1 6986   0.857   3.345   4.833
 2033SOL    HW2 6987   0.944   3.328   4.956
 2034SOL     OW 6988   1.339   2.452   5.158
 2034SOL    HW1 6989   1.369   2.420   5.243
 2034SOL    HW2 6990   1.376   2.540   5.151
 2035SOL     OW 6991   0.820   3.247   4.671
 2035SOL    HW1 6992   0.905   3.237   4.630
 2035SOL    HW2 6993   0.758   3.254   4.598
 2036SOL     OW 6994   0.930   2.372   4.622
 2036SOL    HW1 6995   0.905   2.362   4.530
 2036SOL    HW2 6996   0.960   2.285   4.648
 2037SOL     OW 6997   0.562   1.924   4.214
 2037SOL    HW1 6998   0.481   1.929   4.264
 2037SOL    HW2 6999   0.565   2.004   4.163
 2038SOL     OW 7000   1.428   3.064   3.761
 2038SOL    HW1 7001   1.457   2.989   3.813
 2038SOL    HW2 7002   1.342   3.086   3.798
 2039SOL     OW 7003   0.309   1.913   3.893
 2039SOL    HW1 7004   0.370   1.953   3.830
 2039SOL    HW2 7005   0.362   1.849   3.940
 2040SOL     OW 7006   0.945   2.111   4.179
 2040SOL    HW1 7007   0.918   2.149   4.095
 2040SOL    HW2 7008   1.039   2.128   4.184
 2041SOL     OW 7009   1.081   2.547   5.179
 2041SOL    HW1 7010   1.016   2.477   5.184
 2041SOL    HW2 7011   1.165   2.503   5.174
 2042SOL     OW 7012   1.217   3.436   4.519
 2042SOL    HW1 7013   1.231   3.501   4.450
 2042SOL    HW2 7014   1.288   3.452   4.582
 2043SOL     OW 7015   0.468   3.014   4.452
 2043SOL    HW1 7016   0.399   2.990   4.514
 2043SOL    HW2 7017   0.429   3.000   4.366
 2044SOL     OW 7018   1.262   3.651   4.335
 2044SOL    HW1 7019   1.313   3.716   4.287
 2044SOL    HW2 7020   1.187   3.700   4.368
 2045SOL     OW 7021   1.026   2.393   3.751
 2045SOL    HW1 7022   0.983   2.476   3.732
 2045SOL    HW2 7023   1.091   2.415   3.818
 2046SOL     OW 7024   0.086   2.438   5.112
 2046SOL    HW1 7025   0.176   2.425   5.082
 2046SOL    HW2 7026   0.093   2.506   5.179
 2047SOL     OW 7027   0.567   2.089   4.895
 2047SOL    HW1 7028   0.608   2.017   4.943
 2047SOL    HW2 7029   0.475   2.085   4.921
 2048SOL     OW 7030   0.867   2.318   4.362
 2048SOL    HW1 7031   0.821   2.374   4.298
 2048SOL    HW2 7032   0.889   2.239   4.313
 2049SOL     OW 7033   1.018   1.918   4.471
 2049SOL    HW1 7034   0.959   1.912   4.396
 2049SOL    HW2 7035   0.993   1.843   4.526
 2050SOL     OW 7036   1.439   3.020   4.580
 2050SOL    HW1 7037   1.368   2.957   4.582
 2050SOL    HW2 7038   1.462   3.028   4.487
 2051SOL     OW 7039   1.462   2.474   4.688
 2051SOL    HW1 7040   1.405   2.397   4.689
 2051SOL    HW2 7041   1.518   2.463   4.765
 2052SOL     OW 7042   1.841   2.671   4.117
 2052SOL    HW1 7043   1.902   2.621   4.171
 2052SOL    HW2 7044   1.814   2.610   4.049
 2053SOL     OW 7045   0.488   3.285   3.880
 2053SOL    HW1 7046   0.411   3.256   3.929
 2053SOL    HW2 7047   0.477   3.247   3.793
 2054SOL     OW 7048   1.681   3.125   4.364
 2054SOL    HW1 7049   1.775   3.124   4.380
 2054SOL    HW2 7050   1.654   3.214   4.387
 2055SOL     OW 7051   1.389   2.439   3.790
 2055SOL    HW1 7052   1.336   2.412   3.866
 2055SOL    HW2 7053   1.479   2.421   3.816
 2056SOL     OW 7054   0.577   2.127   4.034
 2056SOL    HW1 7055   0.613   2.082   3.957
 2056SOL    HW2 7056   0.544   2.211   4.000
 2057SOL     OW 7057   1.747   3.106   5.281
 2057SOL    HW1 7058   1.835   3.069   5.276
 2057SOL    HW2 7059   1.761   3.196   5.310
 2058SOL     OW 7060   1.051   3.213   5.054
 2058SOL    HW1 7061   0.976   3.182   5.104
 2058SOL    HW2 7062   1.127   3.172   5.097
 2059SOL     OW 7063   1.610   3.491   5.384
 2059SOL    HW1 7064   1.600   3.525   5.295
 2059SOL    HW2 7065   1.691   3.441   5.382
 2060SOL     OW 7066   1.138   3.076   4.825
 2060SOL    HW1 7067   1.077   3.112   4.889
 2060SOL    HW2 7068   1.109   3.111   4.741
 2061SOL     OW 7069   1.620   2.957   4.798
 2061SOL    HW1 7070   1.613   3.020   4.870
 2061SOL    HW2 7071   1.546   2.976   4.741
 2062SOL     OW 7072   0.918   1.953   5.113
 2062SOL    HW1 7073   0.942   1.935   5.022
 2062SOL    HW2 7074   0.997   1.992   5.151
 2063SOL     OW 7075   0.984   2.976   5.448
 2063SOL    HW1 7076   0.893   2.993   5.473
 2063SOL    HW2 7077   0.980   2.897   5.394
 2064SOL     OW 7078   0.708   2.923   4.096
 2064SOL    HW1 7079   0.694   2.903   4.188
 2064SOL    HW2 7080   0.784   2.870   4.071
 2065SOL     OW 7081   0.424   2.683   4.978
 2065SOL    HW1 7082   0.492   2.691   5.045
 2065SOL    HW2 7083   0.392   2.593   4.989
 2066SOL     OW 7084   1.264   2.236   5.008
 2066SOL    HW1 7085   1.295   2.314   5.053
 2066SOL    HW2 7086   1.173   2.256   4.985
 2067SOL     OW 7087   0.064   3.440   5.063
 2067SOL    HW1 7088   0.066   3.457   4.968
 2067SOL    HW2 7089   0.156   3.439   5.089
 2068SOL     OW 7090   0.356   2.965   4.203
 2068SOL    HW1 7091   0.357   3.047   4.153
 2068SOL    HW2 7092   0.358   2.897   4.135
 2069SOL     OW 7093   0.544   2.392   4.585
 2069SOL    HW1 7094   0.558   2.450   4.510
 2069SOL    HW2 7095   0.613   2.417   4.647
 2070SOL     OW 7096   1.246   3.212   4.115
 2070SOL    HW1 7097   1.302   3.283   4.148
 2070SOL    HW2 7098   1.159   3.234   4.148
 2071SOL     OW 7099   1.292   3.323   4.873
 2071SOL    HW1 7100   1.347   3.329   4.952
 2071SOL    HW2 7101   1.237   3.246   4.888
 2072SOL     OW 7102   1.570   2.483   4.202
 2072SOL    HW1 7103   1.524   2.531   4.271
 2072SOL    HW2 7104   1.615   2.551   4.151
 2073SOL     OW 7105   0.345   3.393   5.038
 2073SOL    HW1 7106   0.336   3.341   4.959
 2073SOL    HW2 7107   0.439   3.407   5.048
 2074SOL     OW 7108   0.424   2.598   5.328
 2074SOL    HW1 7109   0.487   2.642   5.271
 2074SOL    HW2 7110   0.462   2.512   5.345
 2075SOL     OW 7111   1.607   2.666   5.398
 2075SOL    HW1 7112   1.520   2.705   5.393
 2075SOL    HW2 7113   1.658   2.712   5.330
 2076SOL     OW 7114   0.996   1.998   5.475
 2076SOL    HW1 7115   1.056   2.070   5.456
 2076SOL    HW2 7116   1.045   1.919   5.452
 2077SOL     OW 7117   0.497   1.894   5.472
 2077SOL    HW1 7118   0.451   1.844   5.404
 2077SOL    HW2 7119   0.445   1.973   5.482
 2078SOL     OW 7120   0.588   2.737   4.758
 2078SOL    HW1 7121   0.623   2.826   4.760
 2078SOL    HW2 7122   0.531   2.732   4.835
 2079SOL     OW 7123   1.342   2.720   4.741
 2079SOL    HW1 7124   1.254   2.703   4.706
 2079SOL    HW2 7125   1.389   2.637   4.729
 2080SOL     OW 7126   1.199   2.387   3.986
 2080SOL    HW1 7127   1.208   2.310   4.041
 2080SOL    HW2 7128   1.157   2.452   4.042
 2081SOL     OW 7129   0.308   2.057   4.970
 2081SOL    HW1 7130   0.262   2.091   5.046
 2081SOL    HW2 7131   0.289   1.963   4.969
 2082SOL     OW 7132   0.066   3.166   5.005
 2082SOL    HW1 7133   0.094   3.121   5.085
 2082SOL    HW2 7134   0.055   3.257   5.031
 2083SOL     OW 7135   0.720   2.490   4.775
 2083SOL    HW1 7136   0.797   2.478   4.718
 2083SOL    HW2 7137   0.692   2.580   4.757
 2084SOL     OW 7138   1.743   2.815   5.594
 2084SOL    HW1 7139   1.704   2.754   5.533
 2084SOL    HW2 7140   1.673   2.836   5.656
 2085SOL     OW 7141   0.320   1.922   4.343
 2085SOL    HW1 7142   0.294   2.012   4.362
 2085SOL    HW2 7143   0.327   1.881   4.429
 2086SOL     OW 7144   1.611   2.239   4.088
 2086SOL    HW1 7145   1.614   2.183   4.165
 2086SOL    HW2 7146   1.591   2.326   4.123
 2087SOL     OW 7147   1.030   2.620   4.681
 2087SOL    HW1 7148   1.019   2.637   4.775
 2087SOL    HW2 7149   1.003   2.529   4.670
 2088SOL     OW 7150   0.987   3.430   5.448
 2088SOL    HW1 7151   0.965   3.469   5.364
 2088SOL    HW2 7152   1.028   3.346   5.426
 2089SOL     OW 7153   1.849   3.362   5.326
 2089SOL    HW1 7154   1.872   3.391   5.238
 2089SOL    HW2 7155   1.929   3.375   5.377
 2090SOL     OW 7156   0.358   2.786   5.522
 2090SOL    HW1 7157   0.435   2.806   5.575
 2090SOL    HW2 7158   0.388   2.717   5.462
 2091SOL     OW 7159   1.525   2.129   3.847
 2091SOL    HW1 7160   1.462   2.065   3.880
 2091SOL    HW2 7161   1.561   2.170   3.925
 2092SOL     OW 7162   1.284   2.689   3.751
 2092SOL    HW1 7163   1.324   2.602   3.755
 2092SOL    HW2 7164   1.316   2.726   3.669
 2093SOL     OW 7165   1.071   3.203   4.582
 2093SOL    HW1 7166   1.077   3.131   4.519
 2093SOL    HW2 7167   1.127   3.271   4.546
 2094SOL     OW 7168   0.313   2.661   4.673
 2094SOL    HW1 7169   0.408   2.678   4.668
 2094SOL    HW2 7170   0.306   2.571   4.704
 2095SOL     OW 7171   0.325   2.384   4.739
 2095SOL    HW1 7172   0.290   2.296   4.725
 2095SOL    HW2 7173   0.402   2.389   4.682
 2096SOL     OW 7174   1.136   2.234   5.408
 2096SOL    HW1 7175   1.089   2.290   5.470
 2096SOL    HW2 7176   1.224   2.272   5.404
 2097SOL     OW 7177   1.160   2.057   5.196
 2097SOL    HW1 7178   1.149   2.120   5.268
 2097SOL    HW2 7179   1.204   2.107   5.128
 2098SOL     OW 7180   0.001   3.173   3.907
 2098SOL    HW1 7181   3.907   3.189   3.909
 2098SOL    HW2 7182   0.009   3.079   3.925
 2099SOL     OW 7183   0.076   3.662   4.618
 2099SOL    HW1 7184   0.100   3.570   4.608
 2099SOL    HW2 7185   0.160   3.708   4.623
 2100SOL     OW 7186   0.504   3.419   4.643
 2100SOL    HW1 7187   0.567   3.489   4.659
 2100SOL    HW2 7188   0.547   3.363   4.578
 2101SOL     OW 7189   0.969   2.648   4.946
 2101SOL    HW1 7190   1.029   2.630   5.018
 2101SOL    HW2 7191   0.887   2.607   4.973
 2102SOL     OW 7192   0.039   2.430   4.832
 2102SOL    HW1 7193   0.122   2.407   4.790
 2102SOL    HW2 7194   0.057   2.426   4.926
 2103SOL     OW 7195   0.206   2.370   5.452
 2103SOL    HW1 7196   0.240   2.317   5.380
 2103SOL    HW2 7197   0.167   2.447   5.409
 2104SOL     OW 7198   1.371   2.800   5.378
 2104SOL    HW1 7199   1.394   2.893   5.372
 2104SOL    HW2 7200   1.366   2.771   5.287
 2105SOL     OW 7201   0.820   2.431   4.091
 2105SOL    HW1 7202   0.826   2.356   4.032
 2105SOL    HW2 7203   0.745   2.481   4.059
 2106SOL     OW 7204   1.637   2.462   4.901
 2106SOL    HW1 7205   1.626   2.405   4.978
 2106SOL    HW2 7206   1.723   2.438   4.867
 2107SOL     OW 7207   0.303   3.405   5.443
 2107SOL    HW1 7208   0.257   3.473   5.492
 2107SOL    HW2 7209   0.277   3.323   5.486
 2108SOL     OW 7210   0.719   2.307   4.975
 2108SOL    HW1 7211   0.662   2.234   4.950
 2108SOL    HW2 7212   0.708   2.371   4.904
 2109SOL     OW 7213   0.923   3.530   5.197
 2109SOL    HW1 7214   0.896   3.489   5.115
 2109SOL    HW2 7215   0.916   3.624   5.180
 2110SOL     OW 7216   0.447   2.349   3.922
 2110SOL    HW1 7217   0.513   2.415   3.941
 2110SOL    HW2 7218   0.369   2.398   3.899
 2111SOL     OW 7219   0.151   2.995   5.203
 2111SOL    HW1 7220   0.151   2.946   5.285
 2111SOL    HW2 7221   0.168   2.930   5.135
 2112SOL     OW 7222   1.319   2.904   4.941
 2112SOL    HW1 7223   1.338   2.840   4.872
 2112SOL    HW2 7224   1.254   2.963   4.901
 2113SOL     OW 7225   1.317   2.720   4.026
 2113SOL    HW1 7226   1.245   2.686   4.078
 2113SOL    HW2 7227   1.290   2.706   3.935
 2114SOL     OW 7228   1.779   3.593   4.881
 2114SOL    HW1 7229   1.841   3.622   4.813
 2114SOL    HW2 7230   1.754   3.505   4.854
 2115SOL     OW 7231   1.245   3.593   4.825
 2115SOL    HW1 7232   1.329   3.616   4.785
 2115SOL    HW2 7233   1.255   3.500   4.847
 2116SOL     OW 7234   0.079   3.074   4.752
 2116SOL    HW1 7235   0.086   3.102   4.843
 2116SOL    HW2 7236   3.987   3.090   4.729
 2117SOL     OW 7237   0.682   3.531   5.467
 2117SOL    HW1 7238   0.621   3.605   5.470
 2117SOL    HW2 7239   0.743   3.553   5.396
 2118SOL     OW 7240   1.393   3.430   4.216
 2118SOL    HW1 7241   1.450   3.465   4.148
 2118SOL    HW2 7242   1.343   3.505   4.247
 2119SOL     OW 7243   0.175   3.617   5.560
 2119SOL    HW1 7244   0.121   3.563   5.618
 2119SOL    HW2 7245   0.218   3.678   5.619
 2120SOL     OW 7246   1.278   2.792   4.395
 2120SOL    HW1 7247   1.352   2.731   4.406
 2120SOL    HW2 7248   1.313   2.862   4.341
 2121SOL     OW 7249   0.800   3.139   5.146
 2121SOL    HW1 7250   0.773   3.182   5.226
 2121SOL    HW2 7251   0.727   3.151   5.086
 2122SOL     OW 7252   0.674   3.484   3.885
 2122SOL    HW1 7253   0.684   3.502   3.792
 2122SOL    HW2 7254   0.614   3.409   3.889
 2123SOL     OW 7255   1.619   3.589   5.115
 2123SOL    HW1 7256   1.673   3.592   5.036
 2123SOL    HW2 7257   1.603   3.681   5.136
 2124SOL     OW 7258   0.260   2.172   4.438
 2124SOL    HW1 7259   0.173   2.202   4.414
 2124SOL    HW2 7260   0.258   2.163   4.533
 2125SOL     OW 7261   1.208   3.461   3.762
 2125SOL    HW1 7262   1.198   3.369   3.787
 2125SOL    HW2 7263   1.146   3.473   3.691
 2126SOL     OW 7264   0.823   2.869   5.101
 2126SOL    HW1 7265   0.866   2.861   5.016
 2126SOL    HW2 7266   0.819   2.963   5.117
 2127SOL     OW 7267   0.916   2.772   4.017
 2127SOL    HW1 7268   0.975   2.805   3.949
 2127SOL    HW2 7269   0.967   2.705   4.062
 2128SOL     OW 7270   1.487   3.496   3.770
 2128SOL    HW1 7271   1.394   3.483   3.753
 2128SOL    HW2 7272   1.527   3.501   3.683
 2129SOL     OW 7273   0.374   3.164   5.215
 2129SOL    HW1 7274   0.358   3.244   5.167
 2129SOL    HW2 7275   0.297   3.110   5.199
 2130SOL     OW 7276   1.606   3.147   5.002
 2130SOL    HW1 7277   1.668   3.132   5.074
 2130SOL    HW2 7278   1.546   3.214   5.035
 2131SOL     OW 7279   1.065   2.974   4.437
 2131SOL    HW1 7280   0.991   2.924   4.473
 2131SOL    HW2 7281   1.129   2.908   4.411
 2132SOL     OW 7282   1.027   2.106   4.691
 2132SOL    HW1 7283   1.024   2.060   4.607
 2132SOL    HW2 7284   1.021   2.036   4.756
 2133SOL     OW 7285   0.609   3.353   4.204
 2133SOL    HW1 7286   0.657   3.303   4.138
 2133SOL    HW2 7287   0.532   3.386   4.158
 2134SOL     OW 7288   1.740   2.241   5.100
 2134SOL    HW1 7289   1.806   2.310   5.103
 2134SOL    HW2 7290   1.785   2.166   5.063
 2135SOL     OW 7291   0.255   3.201   4.014
 2135SOL    HW1 7292   0.161   3.203   3.999
 2135SOL    HW2 7293   0.266   3.242   4.100
 2136SOL     OW 7294   0.111   2.857   5.442
 2136SOL    HW1 7295   0.052   2.854   5.518
 2136SOL    HW2 7296   0.198   2.841   5.479
 2137SOL     OW 7297   0.678   2.057   5.223
 2137SOL    HW1 7298   0.762   2.035   5.183
 2137SOL    HW2 7299   0.700   2.090   5.310
 2138SOL     OW 7300   0.080   2.168   3.761
 2138SOL    HW1 7301   3.985   2.168   3.770
 2138SOL    HW2 7302   0.100   2.250   3.715
 2139SOL     OW 7303   1.423   2.720   5.120
 2139SOL    HW1 7304   1.373   2.780   5.064
 2139SOL    HW2 7305   1.511   2.722   5.083
 2140SOL     OW 7306   0.013   2.111   4.103
 2140SOL    HW1 7307   0.048   2.174   4.039
 2140SOL    HW2 7308   0.090   2.064   4.134
 2141SOL     OW 7309   1.177   3.193   3.842
 2141SOL    HW1 7310   1.085   3.167   3.842
 2141SOL    HW2 7311   1.202   3.194   3.935
 2142SOL     OW 7312   0.622   2.693   5.163
 2142SOL    HW1 7313   0.679   2.768   5.148
 2142SOL    HW2 7314   0.682   2.618   5.168
 2143SOL     OW 7315   1.489   3.646   4.707
 2143SOL    HW1 7316   1.510   3.713   4.641
 2143SOL    HW2 7317   1.574   3.620   4.742
 2144SOL     OW 7318   0.715   2.420   5.424
 2144SOL    HW1 7319   0.762   2.477   5.484
 2144SOL    HW2 7320   0.735   2.331   5.455
 2145SOL     OW 7321   1.474   3.056   5.349
 2145SOL    HW1 7322   1.461   3.072   5.442
 2145SOL    HW2 7323   1.566   3.077   5.333
 2146SOL     OW 7324   0.377   3.613   5.285
 2146SOL    HW1 7325   0.289   3.648   5.274
 2146SOL    HW2 7326   0.364   3.528   5.327
 2147SOL     OW 7327   1.661   2.741   4.977
 2147SOL    HW1 7328   1.656   2.656   4.934
 2147SOL    HW2 7329   1.650   2.804   4.906
 2148SOL     OW 7330   1.218   2.181   4.181
 2148SOL    HW1 7331   1.279   2.107   4.177
 2148SOL    HW2 7332   1.247   2.231   4.257
 2149SOL     OW 7333   0.586   2.596   4.401
 2149SOL    HW1 7334   0.626   2.682   4.386
 2149SOL    HW2 7335   0.522   2.586   4.330
 2150SOL     OW 7336   1.729   2.236   5.377
 2150SOL    HW1 7337   1.736   2.239   5.282
 2150SOL    HW2 7338   1.661   2.171   5.395
 2151SOL     OW 7339   1.751   2.815   5.225
 2151SOL    HW1 7340   1.733   2.908   5.235
 2151SOL    HW2 7341   1.729   2.795   5.134
 2152SOL     OW 7342   0.868   3.227   3.773
 2152SOL    HW1 7343   0.826   3.253   3.854
 2152SOL    HW2 7344   0.878   3.308   3.724
 2153SOL     OW 7345   0.656   3.646   4.648
 2153SOL    HW1 7346   0.638   3.739   4.634
 2153SOL    HW2 7347   0.751   3.641   4.650
 2154SOL     OW 7348   0.871   2.834   4.577
 2154SOL    HW1 7349   0.920   2.760   4.613
 2154SOL    HW2 7350   0.831   2.876   4.653
 2155SOL     OW 7351   1.073   2.850   3.812
 2155SOL    HW1 7352   1.054   2.903   3.735
 2155SOL    HW2 7353   1.148   2.796   3.787
 2156SOL     OW 7354   1.843   3.410   4.563
 2156SOL    HW1 7355   1.763   3.401   4.512
 2156SOL    HW2 7356   1.830   3.352   4.638
 2157SOL     OW 7357   0.233   3.167   5.582
 2157SOL    HW1 7358   0.153   3.122   5.554
 2157SOL    HW2 7359   0.221   3.179   5.676
 2158SOL     OW 7360   0.130   3.152   4.452
 2158SOL    HW1 7361   0.147   3.098   4.529
 2158SOL    HW2 7362   0.104   3.090   4.384
 2159SOL     OW 7363   0.688   3.271   5.358
 2159SOL    HW1 7364   0.608   3.228   5.389
 2159SOL    HW2 7365   0.684   3.359   5.395
 2160SOL     OW 7366   0.439   2.293   4.259
 2160SOL    HW1 7367   0.436   2.224   4.193
 2160SOL    HW2 7368   0.383   2.261   4.330
 2161SOL     OW 7369   1.699   3.343   4.809
 2161SOL    HW1 7370   1.618   3.325   4.761
 2161SOL    HW2 7371   1.702   3.276   4.877
 2162SOL     OW 7372   0.340   2.423   5.017
 2162SOL    HW1 7373   0.391   2.363   5.072
 2162SOL    HW2 7374   0.352   2.390   4.928
 2163SOL     OW 7375   0.832   3.441   4.399
 2163SOL    HW1 7376   0.807   3.502   4.329
 2163SOL    HW2 7377   0.759   3.379   4.404
 2164SOL     OW 7378   1.433   2.094   4.844
 2164SOL    HW1 7379   1.438   2.004   4.879
 2164SOL    HW2 7380   1.381   2.141   4.909
 2165SOL     OW 7381   1.011   1.877   4.856
 2165SOL    HW1 7382   0.957   1.812   4.812
 2165SOL    HW2 7383   1.099   1.839   4.858
 2166SOL     OW 7384   0.775   3.194   4.048
 2166SOL    HW1 7385   0.748   3.102   4.056
 2166SOL    HW2 7386   0.857   3.200   4.097
 2167SOL     OW 7387   0.622   3.416   5.012
 2167SOL    HW1 7388   0.621   3.499   5.061
 2167SOL    HW2 7389   0.710   3.411   4.975
 2168SOL     OW 7390   1.358   1.908   3.900
 2168SOL    HW1 7391   1.390   1.842   3.839
 2168SOL    HW2 7392   1.268   1.882   3.919
 2169SOL     OW 7393   1.300   2.326   4.402
 2169SOL    HW1 7394   1.247   2.406   4.404
 2169SOL    HW2 7395   1.292   2.291   4.491
 2170SOL     OW 7396   1.566   2.046   4.600
 2170SOL    HW1 7397   1.532   2.078   4.684
 2170SOL    HW2 7398   1.581   2.125   4.548
 2171SOL     OW 7399   0.047   2.905   3.970
 2171SOL    HW1 7400   0.141   2.892   3.963
 2171SOL    HW2 7401   0.011   2.817   3.984
 2172SOL     OW 7402   0.889   3.528   4.063
 2172SOL    HW1 7403   0.816   3.510   4.005
 2172SOL    HW2 7404   0.859   3.601   4.118
 2173SOL     OW 7405   0.229   2.492   5.702
 2173SOL    HW1 7406   0.136   2.499   5.723
 2173SOL    HW2 7407   0.232   2.458   5.613
 2174SOL     OW 7408   0.230   2.136   6.573
 2174SOL    HW1 7409   0.252   2.099   6.658
 2174SOL    HW2 7410   0.134   2.129   6.567
 2175SOL     OW 7411   0.001   2.217   6.218
 2175SOL    HW1 7412   3.911   2.236   6.242
 2175SOL    HW2 7413   3.996   2.191   6.126
 2176SOL     OW 7414   0.582   3.158   6.790
 2176SOL    HW1 7415   0.497   3.159   6.747
 2176SOL    HW2 7416   0.596   3.248   6.819
 2177SOL     OW 7417   1.571   3.371   6.296
 2177SOL    HW1 7418   1.527   3.352   6.379
 2177SOL    HW2 7419   1.501   3.376   6.232
 2178SOL     OW 7420   1.053   2.633   6.261
 2178SOL    HW1 7421   1.131   2.687   6.252
 2178SOL    HW2 7422   1.040   2.626   6.356
 2179SOL     OW 7423   1.706   2.432   5.798
 2179SOL    HW1 7424   1.699   2.455   5.706
 2179SOL    HW2 7425   1.753   2.348   5.799
 2180SOL     OW 7426   0.743   2.998   6.638
 2180SOL    HW1 7427   0.683   3.037   6.702
 2180SOL    HW2 7428   0.782   3.073   6.593
 2181SOL     OW 7429   0.866   2.626   7.406
 2181SOL    HW1 7430   0.864   2.695   7.472
 2181SOL    HW2 7431   0.891   2.671   7.325
 2182SOL     OW 7432   0.683   2.858   6.230
 2182SOL    HW1 7433   0.751   2.852   6.296
 2182SOL    HW2 7434   0.615   2.913   6.269
 2183SOL     OW 7435   0.715   3.011   7.409
 2183SOL    HW1 7436   0.763   3.088   7.441
 2183SOL    HW2 7437   0.636   3.047   7.369
 2184SOL     OW 7438   0.351   3.259   6.665
 2184SOL    HW1 7439   0.270   3.240   6.617
 2184SOL    HW2 7440   0.401   3.316   6.607
 2185SOL     OW 7441   1.460   3.364   6.948
 2185SOL    HW1 7442   1.515   3.442   6.959
 2185SOL    HW2 7443   1.393   3.373   7.015
 2186SOL     OW 7444   0.449   2.254   7.068
 2186SOL    HW1 7445   0.524   2.196   7.071
 2186SOL    HW2 7446   0.373   2.197   7.083
 2187SOL     OW 7447   0.219   3.574   6.050
 2187SOL    HW1 7448   0.214   3.661   6.091
 2187SOL    HW2 7449   0.296   3.579   5.993
 2188SOL     OW 7450   1.136   3.207   7.279
 2188SOL    HW1 7451   1.183   3.195   7.362
 2188SOL    HW2 7452   1.083   3.127   7.271
 2189SOL     OW 7453   0.258   3.309   6.122
 2189SOL    HW1 7454   0.228   3.399   6.110
 2189SOL    HW2 7455   0.192   3.268   6.178
 2190SOL     OW 7456   0.251   2.926   6.468
 2190SOL    HW1 7457   0.272   2.841   6.506
 2190SOL    HW2 7458   0.197   2.969   6.534
 2191SOL     OW 7459   0.607   3.649   7.010
 2191SOL    HW1 7460   0.525   3.636   7.058
 2191SOL    HW2 7461   0.635   3.737   7.034
 2192SOL     OW 7462   0.572   2.851   5.728
 2192SOL    HW1 7463   0.623   2.894   5.659
 2192SOL    HW2 7464   0.612   2.880   5.810
 2193SOL     OW 7465   0.145   2.525   6.158
 2193SOL    HW1 7466   0.085   2.450   6.154
 2193SOL    HW2 7467   0.111   2.579   6.229
 2194SOL     OW 7468   1.845   3.601   5.925
 2194SOL    HW1 7469   1.916   3.578   5.986
 2194SOL    HW2 7470   1.861   3.692   5.902
 2195SOL     OW 7471   0.038   3.447   5.722
 2195SOL    HW1 7472   0.040   3.357   5.756
 2195SOL    HW2 7473   3.949   3.476   5.738
 2196SOL     OW 7474   1.631   3.026   5.980
 2196SOL    HW1 7475   1.719   3.013   5.946
 2196SOL    HW2 7476   1.643   3.066   6.066
 2197SOL     OW 7477   0.148   2.612   7.177
 2197SOL    HW1 7478   0.243   2.611   7.170
 2197SOL    HW2 7479   0.128   2.698   7.214
 2198SOL     OW 7480   0.620   3.250   6.319
 2198SOL    HW1 7481   0.572   3.167   6.328
 2198SOL    HW2 7482   0.602   3.279   6.230
 2199SOL     OW 7483   1.280   3.098   7.007
 2199SOL    HW1 7484   1.308   3.023   6.955
 2199SOL    HW2 7485   1.340   3.101   7.081
 2200SOL     OW 7486   0.804   1.833   6.088
 2200SOL    HW1 7487   0.853   1.915   6.080
 2200SOL    HW2 7488   0.713   1.860   6.093
 2201SOL     OW 7489   0.183   2.809   6.871
 2201SOL    HW1 7490   0.271   2.774   6.859
 2201SOL    HW2 7491   0.134   2.777   6.795
 2202SOL     OW 7492   1.533   2.865   5.780
 2202SOL    HW1 7493   1.470   2.805   5.819
 2202SOL    HW2 7494   1.561   2.920   5.853
 2203SOL     OW 7495   1.229   3.671   7.217
 2203SOL    HW1 7496   1.200   3.733   7.150
 2203SOL    HW2 7497   1.228   3.586   7.174
 2204SOL     OW 7498   0.345   2.111   7.412
 2204SOL    HW1 7499   0.376   2.201   7.417
 2204SOL    HW2 7500   0.252   2.116   7.434
 2205SOL     OW 7501   1.466   3.282   6.534
 2205SOL    HW1 7502   1.400   3.299   6.602
 2205SOL    HW2 7503   1.449   3.192   6.506
 2206SOL     OW 7504   1.651   3.606   6.168
 2206SOL    HW1 7505   1.636   3.573   6.080
 2206SOL    HW2 7506   1.633   3.531   6.225
 2207SOL     OW 7507   0.595   2.572   5.855
 2207SOL    HW1 7508   0.601   2.658   5.813
 2207SOL    HW2 7509   0.532   2.584   5.926
 2208SOL     OW 7510   1.575   3.538   5.897
 2208SOL    HW1 7511   1.669   3.556   5.891
 2208SOL    HW2 7512   1.548   3.522   5.806
 2209SOL     OW 7513   0.798   2.474   7.037
 2209SOL    HW1 7514   0.767   2.451   7.125
 2209SOL    HW2 7515   0.752   2.413   6.979
 2210SOL     OW 7516   0.951   2.748   7.172
 2210SOL    HW1 7517   1.007   2.681   7.133
 2210SOL    HW2 7518   0.904   2.785   7.098
 2211SOL     OW 7519   0.961   2.283   6.811
 2211SOL    HW1 7520   0.873   2.312   6.835
 2211SOL    HW2 7521   0.950   2.192   6.784
 2212SOL     OW 7522   1.044   2.559   6.001
 2212SOL    HW1 7523   1.044   2.580   6.095
 2212SOL    HW2 7524   0.963   2.511   5.987
 2213SOL     OW 7525   0.083   2.697   6.374
 2213SOL    HW1 7526   0.153   2.664   6.431
 2213SOL    HW2 7527   0.108   2.788   6.356
 2214SOL     OW 7528   0.127   3.720   7.172
 2214SOL    HW1 7529   0.137   3.688   7.262
 2214SOL    HW2 7530   0.035   3.707   7.152
 2215SOL     OW 7531   0.886   2.226   5.764
 2215SOL    HW1 7532   0.931   2.282   5.701
 2215SOL    HW2 7533   0.916   2.137   5.743
 2216SOL     OW 7534   1.380   3.011   6.108
 2216SOL    HW1 7535   1.462   3.014   6.059
 2216SOL    HW2 7536   1.324   3.076   6.065
 2217SOL     OW 7537   0.549   2.042   6.483
 2217SOL    HW1 7538   0.556   2.073   6.574
 2217SOL    HW2 7539   0.544   2.122   6.431
 2218SOL     OW 7540   0.996   3.310   6.055
 2218SOL    HW1 7541   0.965   3.384   6.004
 2218SOL    HW2 7542   0.970   3.330   6.145
 2219SOL     OW 7543   0.360   3.676   6.456
 2219SOL    HW1 7544   0.445   3.634   6.469
 2219SOL    HW2 7545   0.379   3.770   6.464
 2220SOL     OW 7546   1.802   2.945   6.491
 2220SOL    HW1 7547   1.775   2.894   6.415
 2220SOL    HW2 7548   1.728   2.939   6.552
 2221SOL     OW 7549   1.227   3.403   7.098
 2221SOL    HW1 7550   1.216   3.330   7.158
 2221SOL    HW2 7551   1.153   3.395   7.037
 2222SOL     OW 7552   0.310   2.811   5.829
 2222SOL    HW1 7553   0.393   2.833   5.786
 2222SOL    HW2 7554   0.299   2.718   5.812
 2223SOL     OW 7555   0.474   3.124   7.323
 2223SOL    HW1 7556   0.448   3.131   7.231
 2223SOL    HW2 7557   0.391   3.124   7.371
 2224SOL     OW 7558   1.115   3.645   5.803
 2224SOL    HW1 7559   1.047   3.601   5.855
 2224SOL    HW2 7560   1.146   3.577   5.743
 2225SOL     OW 7561   0.202   2.127   7.095
 2225SOL    HW1 7562   0.113   2.161   7.092
 2225SOL    HW2 7563   0.193   2.038   7.129
 2226SOL     OW 7564   1.622   3.249   5.672
 2226SOL    HW1 7565   1.580   3.334   5.657
 2226SOL    HW2 7566   1.554   3.185   5.652
 2227SOL     OW 7567   0.464   3.607   5.907
 2227SOL    HW1 7568   0.505   3.666   5.971
 2227SOL    HW2 7569   0.537   3.576   5.854
 2228SOL     OW 7570   0.263   3.659   6.804
 2228SOL    HW1 7571   0.298   3.586   6.856
 2228SOL    HW2 7572   0.256   3.624   6.715
 2229SOL     OW 7573   0.938   3.567   6.483
 2229SOL    HW1 7574   1.015   3.517   6.509
 2229SOL    HW2 7575   0.898   3.515   6.413
 2230SOL     OW 7576   0.403   2.552   6.057
 2230SOL    HW1 7577   0.424   2.460   6.074
 2230SOL    HW2 7578   0.311   2.560   6.083
 2231SOL     OW 7579   0.652   1.973   5.680
 2231SOL    HW1 7580   0.711   1.900   5.700
 2231SOL    HW2 7581   0.600   1.943   5.606
 2232SOL     OW 7582   0.765   2.143   7.346
 2232SOL    HW1 7583   0.844   2.091   7.329
 2232SOL    HW2 7584   0.718   2.094   7.413
 2233SOL     OW 7585   0.875   3.383   6.779
 2233SOL    HW1 7586   0.856   3.344   6.694
 2233SOL    HW2 7587   0.944   3.327   6.816
 2234SOL     OW 7588   0.820   3.247   6.533
 2234SOL    HW1 7589   0.906   3.237   6.492
 2234SOL    HW2 7590   0.759   3.253   6.460
 2235SOL     OW 7591   0.923   2.387   6.482
 2235SOL    HW1 7592   0.898   2.375   6.390
 2235SOL    HW2 7593   0.967   2.306   6.506
 2236SOL     OW 7594   0.553   1.925   6.076
 2236SOL    HW1 7595   0.471   1.932   6.126
 2236SOL    HW2 7596   0.556   2.006   6.025
 2237SOL     OW 7597   1.424   3.066   5.620
 2237SOL    HW1 7598   1.453   2.989   5.670
 2237SOL    HW2 7599   1.339   3.088   5.658
 2238SOL     OW 7600   0.310   1.913   5.755
 2238SOL    HW1 7601   0.371   1.953   5.693
 2238SOL    HW2 7602   0.363   1.848   5.802
 2239SOL     OW 7603   1.072   2.538   7.046
 2239SOL    HW1 7604   0.989   2.489   7.046
 2239SOL    HW2 7605   1.139   2.472   7.064
 2240SOL     OW 7606   1.219   3.434   6.379
 2240SOL    HW1 7607   1.231   3.500   6.310
 2240SOL    HW2 7608   1.286   3.456   6.445
 2241SOL     OW 7609   0.468   3.015   6.314
 2241SOL    HW1 7610   0.399   2.990   6.376
 2241SOL    HW2 7611   0.429   3.000   6.228
 2242SOL     OW 7612   1.261   3.651   6.197
 2242SOL    HW1 7613   1.313   3.716   6.148
 2242SOL    HW2 7614   1.187   3.700   6.230
 2243SOL     OW 7615   1.030   2.399   5.605
 2243SOL    HW1 7616   0.984   2.481   5.588
 2243SOL    HW2 7617   1.094   2.421   5.673
 2244SOL     OW 7618   0.086   2.438   6.974
 2244SOL    HW1 7619   0.176   2.425   6.944
 2244SOL    HW2 7620   0.093   2.506   7.041
 2245SOL     OW 7621   0.567   2.089   6.757
 2245SOL    HW1 7622   0.608   2.013   6.798
 2245SOL    HW2 7623   0.475   2.084   6.783
 2246SOL     OW 7624   0.856   2.330   6.226
 2246SOL    HW1 7625   0.802   2.396   6.182
 2246SOL    HW2 7626   0.887   2.273   6.155
 2247SOL     OW 7627   1.443   3.025   6.438
 2247SOL    HW1 7628   1.358   2.990   6.412
 2247SOL    HW2 7629   1.492   3.032   6.355
 2248SOL     OW 7630   0.488   3.285   5.742
 2248SOL    HW1 7631   0.411   3.256   5.791
 2248SOL    HW2 7632   0.476   3.247   5.655
 2249SOL     OW 7633   1.671   3.120   6.231
 2249SOL    HW1 7634   1.766   3.113   6.244
 2249SOL    HW2 7635   1.650   3.211   6.251
 2250SOL     OW 7636   1.396   2.441   5.653
 2250SOL    HW1 7637   1.338   2.418   5.725
 2250SOL    HW2 7638   1.484   2.416   5.683
 2251SOL     OW 7639   0.577   2.127   5.897
 2251SOL    HW1 7640   0.613   2.082   5.821
 2251SOL    HW2 7641   0.547   2.211   5.863
 2252SOL     OW 7642   1.748   3.106   7.149
 2252SOL    HW1 7643   1.835   3.068   7.135
 2252SOL    HW2 7644   1.766   3.196   7.176
 2253SOL     OW 7645   1.051   3.210   6.910
 2253SOL    HW1 7646   0.976   3.181   6.961
 2253SOL    HW2 7647   1.127   3.172   6.956
 2254SOL     OW 7648   1.612   3.493   7.247
 2254SOL    HW1 7649   1.601   3.526   7.157
 2254SOL    HW2 7650   1.692   3.442   7.244
 2255SOL     OW 7651   1.138   3.065   6.685
 2255SOL    HW1 7652   1.081   3.104   6.752
 2255SOL    HW2 7653   1.109   3.104   6.603
 2256SOL     OW 7654   1.586   2.948   6.665
 2256SOL    HW1 7655   1.591   3.019   6.729
 2256SOL    HW2 7656   1.536   2.984   6.593
 2257SOL     OW 7657   0.914   1.965   6.979
 2257SOL    HW1 7658   0.926   1.946   6.886
 2257SOL    HW2 7659   1.003   1.969   7.014
 2258SOL     OW 7660   0.981   2.981   7.305
 2258SOL    HW1 7661   0.890   2.998   7.330
 2258SOL    HW2 7662   0.977   2.902   7.251
 2259SOL     OW 7663   0.707   2.924   5.958
 2259SOL    HW1 7664   0.693   2.903   6.050
 2259SOL    HW2 7665   0.783   2.871   5.932
 2260SOL     OW 7666   0.425   2.683   6.842
 2260SOL    HW1 7667   0.493   2.690   6.908
 2260SOL    HW2 7668   0.392   2.593   6.851
 2261SOL     OW 7669   1.216   2.196   6.827
 2261SOL    HW1 7670   1.286   2.252   6.794
 2261SOL    HW2 7671   1.137   2.250   6.820
 2262SOL     OW 7672   0.064   3.440   6.925
 2262SOL    HW1 7673   0.066   3.457   6.830
 2262SOL    HW2 7674   0.156   3.439   6.951
 2263SOL     OW 7675   0.356   2.965   6.065
 2263SOL    HW1 7676   0.356   3.048   6.015
 2263SOL    HW2 7677   0.359   2.897   5.997
 2264SOL     OW 7678   0.545   2.391   6.447
 2264SOL    HW1 7679   0.559   2.448   6.371
 2264SOL    HW2 7680   0.613   2.418   6.509
 2265SOL     OW 7681   1.242   3.218   5.976
 2265SOL    HW1 7682   1.299   3.287   6.008
 2265SOL    HW2 7683   1.156   3.240   6.010
 2266SOL     OW 7684   1.291   3.324   6.738
 2266SOL    HW1 7685   1.349   3.332   6.814
 2266SOL    HW2 7686   1.231   3.253   6.761
 2267SOL     OW 7687   1.607   2.473   6.041
 2267SOL    HW1 7688   1.549   2.549   6.037
 2267SOL    HW2 7689   1.650   2.471   5.956
 2268SOL     OW 7690   0.344   3.394   6.900
 2268SOL    HW1 7691   0.335   3.341   6.821
 2268SOL    HW2 7692   0.439   3.407   6.910
 2269SOL     OW 7693   0.424   2.598   7.189
 2269SOL    HW1 7694   0.488   2.641   7.133
 2269SOL    HW2 7695   0.461   2.511   7.206
 2270SOL     OW 7696   0.987   1.994   7.295
 2270SOL    HW1 7697   1.053   2.056   7.265
 2270SOL    HW2 7698   1.018   1.909   7.261
 2271SOL     OW 7699   0.497   1.899   7.334
 2271SOL    HW1 7700   0.452   1.847   7.268
 2271SOL    HW2 7701   0.442   1.977   7.344
 2272SOL     OW 7702   0.585   2.739   6.619
 2272SOL    HW1 7703   0.622   2.827   6.622
 2272SOL    HW2 7704   0.529   2.734   6.697
 2273SOL     OW 7705   1.201   2.398   5.842
 2273SOL    HW1 7706   1.209   2.318   5.894
 2273SOL    HW2 7707   1.152   2.459   5.899
 2274SOL     OW 7708   0.309   2.056   6.832
 2274SOL    HW1 7709   0.261   2.090   6.908
 2274SOL    HW2 7710   0.289   1.962   6.832
 2275SOL     OW 7711   0.067   3.166   6.867
 2275SOL    HW1 7712   0.095   3.121   6.947
 2275SOL    HW2 7713   0.056   3.257   6.893
 2276SOL     OW 7714   0.716   2.493   6.638
 2276SOL    HW1 7715   0.794   2.480   6.583
 2276SOL    HW2 7716   0.689   2.583   6.619
 2277SOL     OW 7717   0.314   1.922   6.207
 2277SOL    HW1 7718   0.290   2.013   6.227
 2277SOL    HW2 7719   0.323   1.881   6.293
 2278SOL     OW 7720   1.594   2.201   5.976
 2278SOL    HW1 7721   1.643   2.158   6.046
 2278SOL    HW2 7722   1.591   2.293   6.002
 2279SOL     OW 7723   1.011   2.635   6.541
 2279SOL    HW1 7724   1.012   2.646   6.636
 2279SOL    HW2 7725   0.991   2.542   6.528
 2280SOL     OW 7726   0.986   3.432   7.311
 2280SOL    HW1 7727   0.965   3.470   7.226
 2280SOL    HW2 7728   1.027   3.348   7.290
 2281SOL     OW 7729   1.850   3.362   7.188
 2281SOL    HW1 7730   1.873   3.390   7.099
 2281SOL    HW2 7731   1.930   3.375   7.238
 2282SOL     OW 7732   0.358   2.786   7.384
 2282SOL    HW1 7733   0.435   2.807   7.437
 2282SOL    HW2 7734   0.388   2.718   7.324
 2283SOL     OW 7735   1.527   2.135   5.712
 2283SOL    HW1 7736   1.464   2.063   5.723
 2283SOL    HW2 7737   1.553   2.158   5.801
 2284SOL     OW 7738   1.289   2.690   5.615
 2284SOL    HW1 7739   1.330   2.604   5.618
 2284SOL    HW2 7740   1.317   2.728   5.532
 2285SOL     OW 7741   1.072   3.203   6.446
 2285SOL    HW1 7742   1.078   3.131   6.383
 2285SOL    HW2 7743   1.128   3.271   6.408
 2286SOL     OW 7744   0.313   2.661   6.535
 2286SOL    HW1 7745   0.407   2.678   6.531
 2286SOL    HW2 7746   0.307   2.571   6.566
 2287SOL     OW 7747   0.327   2.384   6.602
 2287SOL    HW1 7748   0.291   2.296   6.587
 2287SOL    HW2 7749   0.403   2.389   6.544
 2288SOL     OW 7750   0.001   3.173   5.769
 2288SOL    HW1 7751   3.907   3.189   5.771
 2288SOL    HW2 7752   0.010   3.079   5.787
 2289SOL     OW 7753   0.076   3.662   6.481
 2289SOL    HW1 7754   0.100   3.570   6.470
 2289SOL    HW2 7755   0.160   3.708   6.485
 2290SOL     OW 7756   0.504   3.418   6.505
 2290SOL    HW1 7757   0.567   3.489   6.521
 2290SOL    HW2 7758   0.547   3.362   6.440
 2291SOL     OW 7759   0.974   2.650   6.811
 2291SOL    HW1 7760   1.036   2.630   6.882
 2291SOL    HW2 7761   0.893   2.606   6.837
 2292SOL     OW 7762   0.039   2.430   6.694
 2292SOL    HW1 7763   0.121   2.406   6.652
 2292SOL    HW2 7764   0.057   2.426   6.788
 2293SOL     OW 7765   0.206   2.370   7.313
 2293SOL    HW1 7766   0.239   2.317   7.241
 2293SOL    HW2 7767   0.167   2.447   7.271
 2294SOL     OW 7768   0.816   2.424   5.946
 2294SOL    HW1 7769   0.825   2.351   5.885
 2294SOL    HW2 7770   0.741   2.473   5.913
 2295SOL     OW 7771   0.303   3.405   7.305
 2295SOL    HW1 7772   0.257   3.473   7.353
 2295SOL    HW2 7773   0.277   3.323   7.348
 2296SOL     OW 7774   0.690   2.321   6.843
 2296SOL    HW1 7775   0.642   2.243   6.815
 2296SOL    HW2 7776   0.685   2.380   6.768
 2297SOL     OW 7777   0.925   3.530   7.057
 2297SOL    HW1 7778   0.895   3.489   6.976
 2297SOL    HW2 7779   0.917   3.624   7.041
 2298SOL     OW 7780   0.446   2.349   5.784
 2298SOL    HW1 7781   0.513   2.415   5.802
 2298SOL    HW2 7782   0.368   2.398   5.762
 2299SOL     OW 7783   0.151   2.995   7.066
 2299SOL    HW1 7784   0.151   2.945   7.148
 2299SOL    HW2 7785   0.167   2.929   6.998
 2300SOL     OW 7786   1.322   2.900   6.812
 2300SOL    HW1 7787   1.391   2.896   6.746
 2300SOL    HW2 7788   1.250   2.946   6.769
 2301SOL     OW 7789   1.329   2.711   5.892
 2301SOL    HW1 7790   1.250   2.696   5.943
 2301SOL    HW2 7791   1.301   2.700   5.801
 2302SOL     OW 7792   1.779   3.596   6.742
 2302SOL    HW1 7793   1.841   3.624   6.675
 2302SOL    HW2 7794   1.754   3.507   6.717
 2303SOL     OW 7795   1.245   3.592   6.684
 2303SOL    HW1 7796   1.329   3.616   6.646
 2303SOL    HW2 7797   1.255   3.500   6.709
 2304SOL     OW 7798   0.079   3.073   6.614
 2304SOL    HW1 7799   0.086   3.102   6.705
 2304SOL    HW2 7800   3.987   3.089   6.591
 2305SOL     OW 7801   0.681   3.531   7.330
 2305SOL    HW1 7802   0.620   3.605   7.332
 2305SOL    HW2 7803   0.743   3.553   7.260
 2306SOL     OW 7804   1.393   3.430   6.079
 2306SOL    HW1 7805   1.450   3.465   6.010
 2306SOL    HW2 7806   1.343   3.506   6.109
 2307SOL     OW 7807   0.175   3.617   7.422
 2307SOL    HW1 7808   0.121   3.563   7.480
 2307SOL    HW2 7809   0.218   3.678   7.481
 2308SOL     OW 7810   1.270   2.790   6.214
 2308SOL    HW1 7811   1.347   2.737   6.238
 2308SOL    HW2 7812   1.307   2.865   6.168
 2309SOL     OW 7813   0.800   3.139   7.007
 2309SOL    HW1 7814   0.773   3.183   7.088
 2309SOL    HW2 7815   0.727   3.152   6.947
 2310SOL     OW 7816   0.674   3.483   5.747
 2310SOL    HW1 7817   0.684   3.502   5.654
 2310SOL    HW2 7818   0.614   3.409   5.750
 2311SOL     OW 7819   1.619   3.590   6.977
 2311SOL    HW1 7820   1.673   3.593   6.898
 2311SOL    HW2 7821   1.603   3.682   6.998
 2312SOL     OW 7822   0.260   2.173   6.301
 2312SOL    HW1 7823   0.172   2.203   6.277
 2312SOL    HW2 7824   0.257   2.164   6.396
 2313SOL     OW 7825   1.208   3.461   5.624
 2313SOL    HW1 7826   1.198   3.369   5.648
 2313SOL    HW2 7827   1.145   3.473   5.552
 2314SOL     OW 7828   0.823   2.869   6.963
 2314SOL    HW1 7829   0.865   2.862   6.877
 2314SOL    HW2 7830   0.818   2.963   6.979
 2315SOL     OW 7831   0.915   2.775   5.876
 2315SOL    HW1 7832   0.975   2.808   5.810
 2315SOL    HW2 7833   0.962   2.704   5.919
 2316SOL     OW 7834   1.485   3.499   5.631
 2316SOL    HW1 7835   1.392   3.485   5.614
 2316SOL    HW2 7836   1.526   3.504   5.544
 2317SOL     OW 7837   0.374   3.163   7.077
 2317SOL    HW1 7838   0.358   3.244   7.029
 2317SOL    HW2 7839   0.297   3.110   7.061
 2318SOL     OW 7840   1.600   3.143   6.857
 2318SOL    HW1 7841   1.669   3.131   6.922
 2318SOL    HW2 7842   1.542   3.209   6.895
 2319SOL     OW 7843   1.069   2.974   6.301
 2319SOL    HW1 7844   0.994   2.926   6.336
 2319SOL    HW2 7845   1.119   2.908   6.253
 2320SOL     OW 7846   0.609   3.353   6.067
 2320SOL    HW1 7847   0.656   3.303   6.001
 2320SOL    HW2 7848   0.532   3.387   6.021
 2321SOL     OW 7849   0.255   3.201   5.877
 2321SOL    HW1 7850   0.161   3.203   5.862
 2321SOL    HW2 7851   0.266   3.242   5.963
 2322SOL     OW 7852   0.111   2.856   7.304
 2322SOL    HW1 7853   0.052   2.854   7.380
 2322SOL    HW2 7854   0.198   2.841   7.341
 2323SOL     OW 7855   0.674   2.062   7.087
 2323SOL    HW1 7856   0.758   2.039   7.048
 2323SOL    HW2 7857   0.696   2.096   7.174
 2324SOL     OW 7858   0.080   2.168   5.624
 2324SOL    HW1 7859   3.985   2.168   5.632
 2324SOL    HW2 7860   0.100   2.249   5.578
 2325SOL     OW 7861   1.430   2.694   6.976
 2325SOL    HW1 7862   1.376   2.761   6.935
 2325SOL    HW2 7863   1.519   2.713   6.946
 2326SOL     OW 7864   0.014   2.112   5.965
 2326SOL    HW1 7865   0.046   2.175   5.900
 2326SOL    HW2 7866   0.092   2.066   5.994
 2327SOL     OW 7867   1.176   3.193   5.704
 2327SOL    HW1 7868   1.084   3.168   5.703
 2327SOL    HW2 7869   1.200   3.195   5.796
 2328SOL     OW 7870   0.625   2.689   7.025
 2328SOL    HW1 7871   0.680   2.766   7.010
 2328SOL    HW2 7872   0.686   2.616   7.031
 2329SOL     OW 7873   1.489   3.645   6.567
 2329SOL    HW1 7874   1.510   3.712   6.503
 2329SOL    HW2 7875   1.574   3.620   6.604
 2330SOL     OW 7876   0.712   2.419   7.286
 2330SOL    HW1 7877   0.755   2.481   7.346
 2330SOL    HW2 7878   0.732   2.333   7.322
 2331SOL     OW 7879   1.468   3.094   7.209
 2331SOL    HW1 7880   1.455   3.093   7.304
 2331SOL    HW2 7881   1.563   3.099   7.198
 2332SOL     OW 7882   0.378   3.613   7.147
 2332SOL    HW1 7883   0.289   3.648   7.136
 2332SOL    HW2 7884   0.364   3.528   7.189
 2333SOL     OW 7885   1.673   2.745   6.836
 2333SOL    HW1 7886   1.692   2.669   6.781
 2333SOL    HW2 7887   1.651   2.814   6.774
 2334SOL     OW 7888   0.590   2.593   6.260
 2334SOL    HW1 7889   0.629   2.679   6.247
 2334SOL    HW2 7890   0.524   2.586   6.191
 2335SOL     OW 7891   1.763   2.212   7.217
 2335SOL    HW1 7892   1.754   2.231   7.123
 2335SOL    HW2 7893   1.681   2.168   7.240
 2336SOL     OW 7894   1.764   2.824   7.086
 2336SOL    HW1 7895   1.725   2.911   7.097
 2336SOL    HW2 7896   1.736   2.796   6.999
 2337SOL     OW 7897   0.869   3.227   5.635
 2337SOL    HW1 7898   0.826   3.254   5.716
 2337SOL    HW2 7899   0.878   3.308   5.585
 2338SOL     OW 7900   0.656   3.646   6.509
 2338SOL    HW1 7901   0.637   3.739   6.496
 2338SOL    HW2 7902   0.751   3.641   6.512
 2339SOL     OW 7903   0.865   2.845   6.439
 2339SOL    HW1 7904   0.913   2.769   6.474
 2339SOL    HW2 7905   0.826   2.886   6.516
 2340SOL     OW 7906   1.077   2.851   5.676
 2340SOL    HW1 7907   1.057   2.902   5.598
 2340SOL    HW2 7908   1.152   2.796   5.650
 2341SOL     OW 7909   1.848   3.408   6.422
 2341SOL    HW1 7910   1.764   3.398   6.378
 2341SOL    HW2 7911   1.845   3.345   6.494
 2342SOL     OW 7912   0.233   3.167   7.444
 2342SOL    HW1 7913   0.153   3.123   7.417
 2342SOL    HW2 7914   0.223   3.179   7.539
 2343SOL     OW 7915   0.130   3.152   6.314
 2343SOL    HW1 7916   0.146   3.098   6.391
 2343SOL    HW2 7917   0.104   3.090   6.246
 2344SOL     OW 7918   0.687   3.271   7.220
 2344SOL    HW1 7919   0.607   3.229   7.251
 2344SOL    HW2 7920   0.684   3.359   7.257
 2345SOL     OW 7921   0.438   2.293   6.122
 2345SOL    HW1 7922   0.433   2.226   6.054
 2345SOL    HW2 7923   0.383   2.260   6.193
 2346SOL     OW 7924   1.697   3.347   6.674
 2346SOL    HW1 7925   1.616   3.328   6.626
 2346SOL    HW2 7926   1.702   3.278   6.740
 2347SOL     OW 7927   0.340   2.424   6.879
 2347SOL    HW1 7928   0.391   2.364   6.934
 2347SOL    HW2 7929   0.352   2.391   6.790
 2348SOL     OW 7930   0.832   3.441   6.261
 2348SOL    HW1 7931   0.807   3.503   6.192
 2348SOL    HW2 7932   0.759   3.379   6.266
 2349SOL     OW 7933   0.972   1.903   6.718
 2349SOL    HW1 7934   0.937   1.840   6.656
 2349SOL    HW2 7935   1.066   1.903   6.703
 2350SOL     OW 7936   0.774   3.194   5.910
 2350SOL    HW1 7937   0.747   3.103   5.918
 2350SOL    HW2 7938   0.856   3.200   5.959
 2351SOL     OW 7939   0.622   3.416   6.874
 2351SOL    HW1 7940   0.621   3.499   6.923
 2351SOL    HW2 7941   0.710   3.412   6.837
 2352SOL     OW 7942   1.356   1.917   5.703
 2352SOL    HW1 7943   1.400   1.833   5.691
 2352SOL    HW2 7944   1.271   1.894   5.740
 2353SOL     OW 7945   0.046   2.905   5.832
 2353SOL    HW1 7946   0.141   2.892   5.825
 2353SOL    HW2 7947   0.011   2.817   5.845
 2354SOL     OW 7948   0.889   3.528   5.925
 2354SOL    HW1 7949   0.816   3.510   5.866
 2354SOL    HW2 7950   0.858   3.601   5.979
 2355SOL     OW 7951   0.230   2.490   7.564
 2355SOL    HW1 7952   0.137   2.498   7.585
 2355SOL    HW2 7953   0.232   2.456   7.475
 2356SOL     OW 7954   0.229   2.136   8.435
 2356SOL    HW1 7955   0.251   2.099   8.520
 2356SOL    HW2 7956   0.134   2.128   8.429
 2357SOL     OW 7957   0.002   2.218   8.080
 2357SOL    HW1 7958   3.911   2.237   8.104
 2357SOL    HW2 7959   3.996   2.192   7.988
 2358SOL     OW 7960   0.584   3.157   8.651
 2358SOL    HW1 7961   0.498   3.159   8.608
 2358SOL    HW2 7962   0.597   3.248   8.680
 2359SOL     OW 7963   1.570   3.376   8.160
 2359SOL    HW1 7964   1.527   3.351   8.241
 2359SOL    HW2 7965   1.499   3.378   8.095
 2360SOL     OW 7966   1.133   2.560   8.137
 2360SOL    HW1 7967   1.179   2.643   8.124
 2360SOL    HW2 7968   1.085   2.571   8.219
 2361SOL     OW 7969   0.743   2.996   8.497
 2361SOL    HW1 7970   0.684   3.035   8.562
 2361SOL    HW2 7971   0.782   3.070   8.452
 2362SOL     OW 7972   0.878   2.620   9.273
 2362SOL    HW1 7973   0.870   2.691   9.337
 2362SOL    HW2 7974   0.898   2.665   9.191
 2363SOL     OW 7975   0.683   2.859   8.093
 2363SOL    HW1 7976   0.751   2.851   8.160
 2363SOL    HW2 7977   0.616   2.913   8.133
 2364SOL     OW 7978   0.715   3.011   9.272
 2364SOL    HW1 7979   0.764   3.087   9.303
 2364SOL    HW2 7980   0.637   3.047   9.231
 2365SOL     OW 7981   0.351   3.259   8.527
 2365SOL    HW1 7982   0.271   3.240   8.479
 2365SOL    HW2 7983   0.401   3.316   8.469
 2366SOL     OW 7984   1.458   3.365   8.811
 2366SOL    HW1 7985   1.512   3.444   8.821
 2366SOL    HW2 7986   1.388   3.376   8.875
 2367SOL     OW 7987   0.450   2.254   8.929
 2367SOL    HW1 7988   0.526   2.196   8.934
 2367SOL    HW2 7989   0.375   2.197   8.945
 2368SOL     OW 7990   1.578   2.292   8.218
 2368SOL    HW1 7991   1.493   2.302   8.175
 2368SOL    HW2 7992   1.584   2.369   8.275
 2369SOL     OW 7993   0.220   3.574   7.912
 2369SOL    HW1 7994   0.215   3.661   7.953
 2369SOL    HW2 7995   0.296   3.578   7.855
 2370SOL     OW 7996   1.138   3.204   9.144
 2370SOL    HW1 7997   1.179   3.195   9.230
 2370SOL    HW2 7998   1.086   3.124   9.134
 2371SOL     OW 7999   0.257   3.309   7.984
 2371SOL    HW1 8000   0.228   3.399   7.972
 2371SOL    HW2 8001   0.190   3.269   8.040
 2372SOL     OW 8002   0.250   2.927   8.330
 2372SOL    HW1 8003   0.272   2.841   8.367
 2372SOL    HW2 8004   0.196   2.969   8.397
 2373SOL     OW 8005   0.606   3.649   8.872
 2373SOL    HW1 8006   0.525   3.636   8.920
 2373SOL    HW2 8007   0.635   3.737   8.896
 2374SOL     OW 8008   0.571   2.851   7.589
 2374SOL    HW1 8009   0.623   2.894   7.521
 2374SOL    HW2 8010   0.610   2.882   7.671
 2375SOL     OW 8011   1.548   2.005   8.882
 2375SOL    HW1 8012   1.579   2.087   8.843
 2375SOL    HW2 8013   1.536   2.025   8.975
 2376SOL     OW 8014   0.145   2.524   8.020
 2376SOL    HW1 8015   0.086   2.449   8.017
 2376SOL    HW2 8016   0.111   2.578   8.091
 2377SOL     OW 8017   1.845   3.601   7.786
 2377SOL    HW1 8018   1.916   3.579   7.847
 2377SOL    HW2 8019   1.860   3.692   7.763
 2378SOL     OW 8020   0.038   3.447   7.584
 2378SOL    HW1 8021   0.041   3.357   7.618
 2378SOL    HW2 8022   3.948   3.476   7.599
 2379SOL     OW 8023   1.691   2.780   8.115
 2379SOL    HW1 8024   1.766   2.722   8.099
 2379SOL    HW2 8025   1.673   2.820   8.030
 2380SOL     OW 8026   1.651   2.953   7.894
 2380SOL    HW1 8027   1.733   2.962   7.845
 2380SOL    HW2 8028   1.657   3.019   7.963
 2381SOL     OW 8029   0.148   2.612   9.039
 2381SOL    HW1 8030   0.244   2.611   9.032
 2381SOL    HW2 8031   0.128   2.698   9.076
 2382SOL     OW 8032   0.619   3.250   8.181
 2382SOL    HW1 8033   0.572   3.168   8.189
 2382SOL    HW2 8034   0.602   3.279   8.092
 2383SOL     OW 8035   1.283   3.098   8.870
 2383SOL    HW1 8036   1.311   3.029   8.809
 2383SOL    HW2 8037   1.344   3.092   8.943
 2384SOL     OW 8038   0.828   1.879   7.963
 2384SOL    HW1 8039   0.860   1.966   7.942
 2384SOL    HW2 8040   0.733   1.888   7.967
 2385SOL     OW 8041   0.182   2.809   8.732
 2385SOL    HW1 8042   0.271   2.774   8.721
 2385SOL    HW2 8043   0.134   2.777   8.656
 2386SOL     OW 8044   1.486   2.907   7.677
 2386SOL    HW1 8045   1.414   2.851   7.706
 2386SOL    HW2 8046   1.545   2.912   7.752
 2387SOL     OW 8047   1.231   3.671   9.079
 2387SOL    HW1 8048   1.200   3.732   9.012
 2387SOL    HW2 8049   1.227   3.585   9.035
 2388SOL     OW 8050   0.346   2.109   9.271
 2388SOL    HW1 8051   0.379   2.199   9.278
 2388SOL    HW2 8052   0.253   2.115   9.294
 2389SOL     OW 8053   1.467   3.280   8.394
 2389SOL    HW1 8054   1.401   3.297   8.461
 2389SOL    HW2 8055   1.452   3.189   8.368
 2390SOL     OW 8056   1.653   3.606   8.030
 2390SOL    HW1 8057   1.636   3.574   7.941
 2390SOL    HW2 8058   1.630   3.533   8.087
 2391SOL     OW 8059   0.594   2.574   7.717
 2391SOL    HW1 8060   0.600   2.660   7.676
 2391SOL    HW2 8061   0.530   2.586   7.788
 2392SOL     OW 8062   1.273   2.229   8.397
 2392SOL    HW1 8063   1.186   2.190   8.403
 2392SOL    HW2 8064   1.329   2.170   8.447
 2393SOL     OW 8065   1.575   3.539   7.759
 2393SOL    HW1 8066   1.669   3.557   7.753
 2393SOL    HW2 8067   1.547   3.524   7.669
 2394SOL     OW 8068   0.791   2.479   8.895
 2394SOL    HW1 8069   0.764   2.452   8.983
 2394SOL    HW2 8070   0.759   2.409   8.837
 2395SOL     OW 8071   1.391   2.335   9.124
 2395SOL    HW1 8072   1.394   2.380   9.208
 2395SOL    HW2 8073   1.446   2.258   9.136
 2396SOL     OW 8074   0.948   2.745   9.036
 2396SOL    HW1 8075   1.004   2.678   8.996
 2396SOL    HW2 8076   0.900   2.783   8.962
 2397SOL     OW 8077   0.995   2.269   8.678
 2397SOL    HW1 8078   0.905   2.285   8.705
 2397SOL    HW2 8079   0.988   2.229   8.591
 2398SOL     OW 8080   1.045   2.582   7.870
 2398SOL    HW1 8081   1.073   2.564   7.960
 2398SOL    HW2 8082   0.969   2.526   7.857
 2399SOL     OW 8083   0.083   2.696   8.236
 2399SOL    HW1 8084   0.153   2.663   8.293
 2399SOL    HW2 8085   0.109   2.787   8.218
 2400SOL     OW 8086   0.127   3.720   9.034
 2400SOL    HW1 8087   0.137   3.688   9.124
 2400SOL    HW2 8088   0.035   3.707   9.014
 2401SOL     OW 8089   0.874   2.231   7.650
 2401SOL    HW1 8090   0.925   2.292   7.596
 2401SOL    HW2 8091   0.850   2.161   7.589
 2402SOL     OW 8092   1.661   2.444   9.283
 2402SOL    HW1 8093   1.639   2.523   9.233
 2402SOL    HW2 8094   1.690   2.381   9.216
 2403SOL     OW 8095   1.381   3.008   7.991
 2403SOL    HW1 8096   1.462   2.997   7.941
 2403SOL    HW2 8097   1.328   3.068   7.938
 2404SOL     OW 8098   0.549   2.039   8.346
 2404SOL    HW1 8099   0.556   2.072   8.436
 2404SOL    HW2 8100   0.548   2.119   8.292
 2405SOL     OW 8101   0.997   3.309   7.916
 2405SOL    HW1 8102   0.966   3.384   7.866
 2405SOL    HW2 8103   0.973   3.328   8.006
 2406SOL     OW 8104   0.360   3.676   8.319
 2406SOL    HW1 8105   0.445   3.633   8.331
 2406SOL    HW2 8106   0.380   3.770   8.326
 2407SOL     OW 8107   1.798   2.930   8.327
 2407SOL    HW1 8108   1.750   2.899   8.250
 2407SOL    HW2 8109   1.733   2.933   8.397
 2408SOL     OW 8110   1.226   3.401   8.960
 2408SOL    HW1 8111   1.215   3.329   9.021
 2408SOL    HW2 8112   1.155   3.390   8.897
 2409SOL     OW 8113   0.311   2.811   7.692
 2409SOL    HW1 8114   0.393   2.834   7.647
 2409SOL    HW2 8115   0.299   2.718   7.675
 2410SOL     OW 8116   1.466   2.657   8.218
 2410SOL    HW1 8117   1.480   2.587   8.282
 2410SOL    HW2 8118   1.555   2.686   8.195
 2411SOL     OW 8119   0.474   3.124   9.186
 2411SOL    HW1 8120   0.448   3.132   9.094
 2411SOL    HW2 8121   0.391   3.125   9.234
 2412SOL     OW 8122   1.115   3.645   7.665
 2412SOL    HW1 8123   1.047   3.601   7.718
 2412SOL    HW2 8124   1.146   3.577   7.605
 2413SOL     OW 8125   0.203   2.126   8.955
 2413SOL    HW1 8126   0.114   2.161   8.954
 2413SOL    HW2 8127   0.194   2.037   8.990
 2414SOL     OW 8128   1.630   3.255   7.537
 2414SOL    HW1 8129   1.591   3.341   7.520
 2414SOL    HW2 8130   1.561   3.193   7.517
 2415SOL     OW 8131   0.464   3.606   7.769
 2415SOL    HW1 8132   0.505   3.665   7.833
 2415SOL    HW2 8133   0.538   3.576   7.716
 2416SOL     OW 8134   0.263   3.659   8.666
 2416SOL    HW1 8135   0.298   3.586   8.718
 2416SOL    HW2 8136   0.257   3.625   8.577
 2417SOL     OW 8137   0.939   3.567   8.344
 2417SOL    HW1 8138   1.017   3.517   8.368
 2417SOL    HW2 8139   0.898   3.515   8.275
 2418SOL     OW 8140   0.402   2.552   7.918
 2418SOL    HW1 8141   0.424   2.460   7.935
 2418SOL    HW2 8142   0.311   2.560   7.945
 2419SOL     OW 8143   1.520   2.081   9.166
 2419SOL    HW1 8144   1.537   2.098   9.258
 2419SOL    HW2 8145   1.455   2.011   9.166
 2420SOL     OW 8146   0.661   1.970   7.537
 2420SOL    HW1 8147   0.697   1.889   7.572
 2420SOL    HW2 8148   0.603   1.942   7.466
 2421SOL     OW 8149   0.765   2.142   9.203
 2421SOL    HW1 8150   0.847   2.093   9.198
 2421SOL    HW2 8151   0.720   2.105   9.279
 2422SOL     OW 8152   0.875   3.384   8.643
 2422SOL    HW1 8153   0.857   3.345   8.557
 2422SOL    HW2 8154   0.944   3.329   8.680
 2423SOL     OW 8155   1.338   2.453   8.880
 2423SOL    HW1 8156   1.368   2.422   8.966
 2423SOL    HW2 8157   1.375   2.541   8.872
 2424SOL     OW 8158   0.819   3.247   8.396
 2424SOL    HW1 8159   0.905   3.237   8.354
 2424SOL    HW2 8160   0.758   3.254   8.322
 2425SOL     OW 8161   0.930   2.371   8.350
 2425SOL    HW1 8162   0.902   2.364   8.259
 2425SOL    HW2 8163   0.959   2.284   8.374
 2426SOL     OW 8164   0.560   1.923   7.938
 2426SOL    HW1 8165   0.479   1.929   7.988
 2426SOL    HW2 8166   0.563   2.004   7.887
 2427SOL     OW 8167   1.420   3.087   7.487
 2427SOL    HW1 8168   1.447   3.019   7.549
 2427SOL    HW2 8169   1.335   3.117   7.520
 2428SOL     OW 8170   0.306   1.914   7.616
 2428SOL    HW1 8171   0.366   1.953   7.553
 2428SOL    HW2 8172   0.360   1.850   7.664
 2429SOL     OW 8173   0.928   2.129   7.906
 2429SOL    HW1 8174   0.895   2.166   7.824
 2429SOL    HW2 8175   1.021   2.150   7.907
 2430SOL     OW 8176   1.080   2.548   8.903
 2430SOL    HW1 8177   1.016   2.477   8.906
 2430SOL    HW2 8178   1.165   2.503   8.897
 2431SOL     OW 8179   1.217   3.437   8.243
 2431SOL    HW1 8180   1.231   3.502   8.174
 2431SOL    HW2 8181   1.287   3.453   8.306
 2432SOL     OW 8182   0.467   3.015   8.176
 2432SOL    HW1 8183   0.398   2.990   8.238
 2432SOL    HW2 8184   0.429   3.000   8.090
 2433SOL     OW 8185   1.262   3.652   8.059
 2433SOL    HW1 8186   1.313   3.716   8.010
 2433SOL    HW2 8187   1.187   3.701   8.092
 2434SOL     OW 8188   1.008   2.411   7.498
 2434SOL    HW1 8189   0.955   2.482   7.461
 2434SOL    HW2 8190   1.089   2.453   7.525
 2435SOL     OW 8191   0.086   2.438   8.836
 2435SOL    HW1 8192   0.176   2.425   8.806
 2435SOL    HW2 8193   0.093   2.506   8.903
 2436SOL     OW 8194   0.567   2.089   8.619
 2436SOL    HW1 8195   0.608   2.015   8.663
 2436SOL    HW2 8196   0.475   2.085   8.645
 2437SOL     OW 8197   0.857   2.326   8.093
 2437SOL    HW1 8198   0.819   2.386   8.028
 2437SOL    HW2 8199   0.873   2.246   8.044
 2438SOL     OW 8200   0.999   1.930   8.199
 2438SOL    HW1 8201   0.951   1.914   8.118
 2438SOL    HW2 8202   0.990   1.849   8.250
 2439SOL     OW 8203   1.438   3.022   8.305
 2439SOL    HW1 8204   1.369   2.956   8.307
 2439SOL    HW2 8205   1.463   3.028   8.213
 2440SOL     OW 8206   1.466   2.470   8.423
 2440SOL    HW1 8207   1.405   2.396   8.426
 2440SOL    HW2 8208   1.518   2.461   8.503
 2441SOL     OW 8209   0.488   3.285   7.604
 2441SOL    HW1 8210   0.411   3.256   7.653
 2441SOL    HW2 8211   0.476   3.248   7.517
 2442SOL     OW 8212   1.678   3.130   8.091
 2442SOL    HW1 8213   1.773   3.130   8.107
 2442SOL    HW2 8214   1.651   3.219   8.114
 2443SOL     OW 8215   0.578   2.123   7.755
 2443SOL    HW1 8216   0.613   2.081   7.676
 2443SOL    HW2 8217   0.546   2.208   7.724
 2444SOL     OW 8218   1.747   3.106   9.004
 2444SOL    HW1 8219   1.834   3.068   8.997
 2444SOL    HW2 8220   1.762   3.195   9.034
 2445SOL     OW 8221   1.051   3.215   8.780
 2445SOL    HW1 8222   0.975   3.183   8.829
 2445SOL    HW2 8223   1.126   3.174   8.822
 2446SOL     OW 8224   1.611   3.491   9.109
 2446SOL    HW1 8225   1.600   3.525   9.020
 2446SOL    HW2 8226   1.692   3.441   9.105
 2447SOL     OW 8227   1.139   3.079   8.550
 2447SOL    HW1 8228   1.076   3.114   8.612
 2447SOL    HW2 8229   1.110   3.112   8.465
 2448SOL     OW 8230   1.617   2.958   8.526
 2448SOL    HW1 8231   1.610   3.022   8.597
 2448SOL    HW2 8232   1.542   2.976   8.470
 2449SOL     OW 8233   0.918   1.954   8.838
 2449SOL    HW1 8234   0.940   1.935   8.747
 2449SOL    HW2 8235   0.997   1.993   8.874
 2450SOL     OW 8236   0.984   2.977   9.170
 2450SOL    HW1 8237   0.893   2.993   9.195
 2450SOL    HW2 8238   0.980   2.898   9.117
 2451SOL     OW 8239   0.703   2.926   7.821
 2451SOL    HW1 8240   0.691   2.905   7.914
 2451SOL    HW2 8241   0.778   2.874   7.794
 2452SOL     OW 8242   0.424   2.683   8.703
 2452SOL    HW1 8243   0.492   2.691   8.770
 2452SOL    HW2 8244   0.392   2.593   8.713
 2453SOL     OW 8245   1.262   2.235   8.735
 2453SOL    HW1 8246   1.293   2.315   8.777
 2453SOL    HW2 8247   1.172   2.255   8.709
 2454SOL     OW 8248   0.064   3.440   8.787
 2454SOL    HW1 8249   0.067   3.458   8.693
 2454SOL    HW2 8250   0.156   3.439   8.813
 2455SOL     OW 8251   0.354   2.965   7.927
 2455SOL    HW1 8252   0.357   3.047   7.878
 2455SOL    HW2 8253   0.358   2.897   7.860
 2456SOL     OW 8254   0.544   2.393   8.310
 2456SOL    HW1 8255   0.558   2.450   8.234
 2456SOL    HW2 8256   0.613   2.417   8.371
 2457SOL     OW 8257   1.245   3.213   7.841
 2457SOL    HW1 8258   1.301   3.284   7.873
 2457SOL    HW2 8259   1.158   3.235   7.874
 2458SOL     OW 8260   1.292   3.323   8.597
 2458SOL    HW1 8261   1.346   3.328   8.676
 2458SOL    HW2 8262   1.238   3.245   8.609
 2459SOL     OW 8263   0.345   3.393   8.763
 2459SOL    HW1 8264   0.336   3.341   8.683
 2459SOL    HW2 8265   0.439   3.407   8.772
 2460SOL     OW 8266   0.424   2.597   9.052
 2460SOL    HW1 8267   0.487   2.642   8.995
 2460SOL    HW2 8268   0.463   2.512   9.068
 2461SOL     OW 8269   1.606   2.659   9.133
 2461SOL    HW1 8270   1.520   2.700   9.123
 2461SOL    HW2 8271   1.659   2.698   9.064
 2462SOL     OW 8272   0.997   1.998   9.202
 2462SOL    HW1 8273   1.055   2.071   9.181
 2462SOL    HW2 8274   1.047   1.920   9.177
 2463SOL     OW 8275   0.496   1.894   9.197
 2463SOL    HW1 8276   0.451   1.844   9.129
 2463SOL    HW2 8277   0.444   1.974   9.207
 2464SOL     OW 8278   0.587   2.738   8.481
 2464SOL    HW1 8279   0.624   2.826   8.484
 2464SOL    HW2 8280   0.531   2.733   8.559
 2465SOL     OW 8281   1.336   2.714   8.485
 2465SOL    HW1 8282   1.260   2.705   8.428
 2465SOL    HW2 8283   1.389   2.637   8.467
 2466SOL     OW 8284   0.308   2.056   8.694
 2466SOL    HW1 8285   0.263   2.090   8.771
 2466SOL    HW2 8286   0.288   1.963   8.694
 2467SOL     OW 8287   0.062   3.165   8.730
 2467SOL    HW1 8288   0.093   3.122   8.810
 2467SOL    HW2 8289   0.054   3.257   8.755
 2468SOL     OW 8290   0.720   2.491   8.500
 2468SOL    HW1 8291   0.797   2.478   8.445
 2468SOL    HW2 8292   0.692   2.581   8.481
 2469SOL     OW 8293   1.743   2.822   9.310
 2469SOL    HW1 8294   1.697   2.760   9.254
 2469SOL    HW2 8295   1.681   2.840   9.381
 2470SOL     OW 8296   0.318   1.922   8.068
 2470SOL    HW1 8297   0.294   2.013   8.087
 2470SOL    HW2 8298   0.327   1.881   8.154
 2471SOL     OW 8299   1.026   2.622   8.403
 2471SOL    HW1 8300   1.018   2.638   8.497
 2471SOL    HW2 8301   1.002   2.530   8.393
 2472SOL     OW 8302   0.987   3.430   9.173
 2472SOL    HW1 8303   0.965   3.469   9.088
 2472SOL    HW2 8304   1.028   3.347   9.150
 2473SOL     OW 8305   1.850   3.361   9.051
 2473SOL    HW1 8306   1.872   3.391   8.962
 2473SOL    HW2 8307   1.930   3.375   9.101
 2474SOL     OW 8308   0.358   2.785   9.246
 2474SOL    HW1 8309   0.435   2.807   9.298
 2474SOL    HW2 8310   0.388   2.717   9.186
 2475SOL     OW 8311   1.269   2.655   7.460
 2475SOL    HW1 8312   1.306   2.568   7.445
 2475SOL    HW2 8313   1.332   2.715   7.422
 2476SOL     OW 8314   1.070   3.203   8.306
 2476SOL    HW1 8315   1.075   3.131   8.243
 2476SOL    HW2 8316   1.127   3.271   8.269
 2477SOL     OW 8317   0.314   2.662   8.397
 2477SOL    HW1 8318   0.408   2.678   8.392
 2477SOL    HW2 8319   0.307   2.571   8.427
 2478SOL     OW 8320   0.325   2.385   8.463
 2478SOL    HW1 8321   0.290   2.297   8.449
 2478SOL    HW2 8322   0.402   2.390   8.407
 2479SOL     OW 8323   1.134   2.233   9.136
 2479SOL    HW1 8324   1.087   2.288   9.198
 2479SOL    HW2 8325   1.221   2.274   9.129
 2480SOL     OW 8326   1.159   2.057   8.922
 2480SOL    HW1 8327   1.147   2.121   8.993
 2480SOL    HW2 8328   1.203   2.107   8.852
 2481SOL     OW 8329   0.001   3.173   7.631
 2481SOL    HW1 8330   3.907   3.189   7.633
 2481SOL    HW2 8331   0.009   3.079   7.649
 2482SOL     OW 8332   0.076   3.662   8.342
 2482SOL    HW1 8333   0.101   3.570   8.332
 2482SOL    HW2 8334   0.160   3.709   8.347
 2483SOL     OW 8335   0.504   3.419   8.367
 2483SOL    HW1 8336   0.567   3.489   8.383
 2483SOL    HW2 8337   0.547   3.363   8.302
 2484SOL     OW 8338   0.969   2.649   8.670
 2484SOL    HW1 8339   1.030   2.631   8.741
 2484SOL    HW2 8340   0.888   2.606   8.697
 2485SOL     OW 8341   0.039   2.430   8.556
 2485SOL    HW1 8342   0.122   2.408   8.514
 2485SOL    HW2 8343   0.058   2.425   8.650
 2486SOL     OW 8344   0.206   2.371   9.176
 2486SOL    HW1 8345   0.242   2.319   9.104
 2486SOL    HW2 8346   0.168   2.448   9.133
 2487SOL     OW 8347   1.373   2.798   9.101
 2487SOL    HW1 8348   1.396   2.891   9.097
 2487SOL    HW2 8349   1.370   2.770   9.010
 2488SOL     OW 8350   0.815   2.438   7.824
 2488SOL    HW1 8351   0.823   2.365   7.763
 2488SOL    HW2 8352   0.740   2.488   7.790
 2489SOL     OW 8353   1.631   2.464   8.639
 2489SOL    HW1 8354   1.620   2.408   8.716
 2489SOL    HW2 8355   1.715   2.437   8.602
 2490SOL     OW 8356   0.302   3.405   9.166
 2490SOL    HW1 8357   0.257   3.473   9.215
 2490SOL    HW2 8358   0.277   3.323   9.210
 2491SOL     OW 8359   0.718   2.307   8.699
 2491SOL    HW1 8360   0.661   2.234   8.673
 2491SOL    HW2 8361   0.708   2.371   8.628
 2492SOL     OW 8362   0.922   3.531   8.922
 2492SOL    HW1 8363   0.896   3.489   8.840
 2492SOL    HW2 8364   0.915   3.624   8.904
 2493SOL     OW 8365   0.448   2.348   7.645
 2493SOL    HW1 8366   0.514   2.415   7.665
 2493SOL    HW2 8367   0.370   2.398   7.623
 2494SOL     OW 8368   0.152   2.995   8.927
 2494SOL    HW1 8369   0.151   2.946   9.009
 2494SOL    HW2 8370   0.168   2.930   8.859
 2495SOL     OW 8371   1.317   2.908   8.670
 2495SOL    HW1 8372   1.333   2.839   8.605
 2495SOL    HW2 8373   1.254   2.967   8.628
 2496SOL     OW 8374   1.270   2.754   7.736
 2496SOL    HW1 8375   1.204   2.717   7.795
 2496SOL    HW2 8376   1.242   2.727   7.649
 2497SOL     OW 8377   1.779   3.592   8.605
 2497SOL    HW1 8378   1.840   3.621   8.538
 2497SOL    HW2 8379   1.754   3.504   8.578
 2498SOL     OW 8380   1.246   3.593   8.550
 2498SOL    HW1 8381   1.329   3.616   8.510
 2498SOL    HW2 8382   1.255   3.500   8.571
 2499SOL     OW 8383   0.078   3.073   8.478
 2499SOL    HW1 8384   0.085   3.101   8.569
 2499SOL    HW2 8385   3.987   3.089   8.454
 2500SOL     OW 8386   0.682   3.531   9.191
 2500SOL    HW1 8387   0.621   3.605   9.193
 2500SOL    HW2 8388   0.743   3.553   9.121
 2501SOL     OW 8389   1.393   3.430   7.941
 2501SOL    HW1 8390   1.450   3.465   7.872
 2501SOL    HW2 8391   1.342   3.506   7.971
 2502SOL     OW 8392   0.175   3.617   9.284
 2502SOL    HW1 8393   0.121   3.563   9.342
 2502SOL    HW2 8394   0.218   3.678   9.343
 2503SOL     OW 8395   1.265   2.798   8.117
 2503SOL    HW1 8396   1.339   2.747   8.149
 2503SOL    HW2 8397   1.305   2.866   8.063
 2504SOL     OW 8398   0.800   3.138   8.870
 2504SOL    HW1 8399   0.772   3.182   8.950
 2504SOL    HW2 8400   0.727   3.151   8.809
 2505SOL     OW 8401   0.674   3.484   7.609
 2505SOL    HW1 8402   0.684   3.502   7.516
 2505SOL    HW2 8403   0.614   3.409   7.613
 2506SOL     OW 8404   1.619   3.589   8.839
 2506SOL    HW1 8405   1.673   3.592   8.760
 2506SOL    HW2 8406   1.603   3.681   8.861
 2507SOL     OW 8407   0.261   2.172   8.162
 2507SOL    HW1 8408   0.173   2.202   8.139
 2507SOL    HW2 8409   0.258   2.163   8.258
 2508SOL     OW 8410   1.208   3.461   7.486
 2508SOL    HW1 8411   1.197   3.370   7.511
 2508SOL    HW2 8412   1.147   3.474   7.414
 2509SOL     OW 8413   0.823   2.868   8.825
 2509SOL    HW1 8414   0.867   2.860   8.741
 2509SOL    HW2 8415   0.819   2.963   8.841
 2510SOL     OW 8416   0.907   2.778   7.734
 2510SOL    HW1 8417   0.968   2.805   7.666
 2510SOL    HW2 8418   0.955   2.713   7.785
 2511SOL     OW 8419   1.487   3.503   7.493
 2511SOL    HW1 8420   1.394   3.486   7.476
 2511SOL    HW2 8421   1.526   3.507   7.406
 2512SOL     OW 8422   0.374   3.164   8.940
 2512SOL    HW1 8423   0.359   3.244   8.891
 2512SOL    HW2 8424   0.297   3.110   8.923
 2513SOL     OW 8425   1.607   3.149   8.728
 2513SOL    HW1 8426   1.665   3.131   8.802
 2513SOL    HW2 8427   1.547   3.216   8.760
 2514SOL     OW 8428   1.059   2.977   8.160
 2514SOL    HW1 8429   0.987   2.925   8.196
 2514SOL    HW2 8430   1.124   2.912   8.134
 2515SOL     OW 8431   1.021   2.105   8.418
 2515SOL    HW1 8432   1.013   2.061   8.334
 2515SOL    HW2 8433   1.016   2.034   8.483
 2516SOL     OW 8434   0.608   3.353   7.928
 2516SOL    HW1 8435   0.657   3.303   7.862
 2516SOL    HW2 8436   0.532   3.387   7.881
 2517SOL     OW 8437   1.739   2.241   8.822
 2517SOL    HW1 8438   1.806   2.310   8.823
 2517SOL    HW2 8439   1.776   2.172   8.768
 2518SOL     OW 8440   0.255   3.202   7.739
 2518SOL    HW1 8441   0.161   3.203   7.723
 2518SOL    HW2 8442   0.266   3.242   7.825
 2519SOL     OW 8443   0.111   2.857   9.166
 2519SOL    HW1 8444   0.053   2.854   9.242
 2519SOL    HW2 8445   0.198   2.841   9.203
 2520SOL     OW 8446   0.678   2.058   8.948
 2520SOL    HW1 8447   0.762   2.035   8.907
 2520SOL    HW2 8448   0.702   2.091   9.034
 2521SOL     OW 8449   0.079   2.168   7.486
 2521SOL    HW1 8450   3.984   2.168   7.494
 2521SOL    HW2 8451   0.099   2.250   7.440
 2522SOL     OW 8452   1.424   2.720   8.844
 2522SOL    HW1 8453   1.374   2.780   8.789
 2522SOL    HW2 8454   1.513   2.722   8.808
 2523SOL     OW 8455   0.014   2.112   7.827
 2523SOL    HW1 8456   0.046   2.175   7.762
 2523SOL    HW2 8457   0.092   2.066   7.856
 2524SOL     OW 8458   1.174   3.197   7.569
 2524SOL    HW1 8459   1.081   3.173   7.567
 2524SOL    HW2 8460   1.197   3.195   7.662
 2525SOL     OW 8461   0.622   2.692   8.887
 2525SOL    HW1 8462   0.679   2.768   8.872
 2525SOL    HW2 8463   0.682   2.618   8.892
 2526SOL     OW 8464   1.489   3.647   8.431
 2526SOL    HW1 8465   1.509   3.713   8.365
 2526SOL    HW2 8466   1.574   3.620   8.465
 2527SOL     OW 8467   0.716   2.419   9.148
 2527SOL    HW1 8468   0.763   2.478   9.207
 2527SOL    HW2 8469   0.736   2.331   9.180
 2528SOL     OW 8470   1.474   3.055   9.075
 2528SOL    HW1 8471   1.463   3.071   9.169
 2528SOL    HW2 8472   1.566   3.075   9.058
 2529SOL     OW 8473   0.377   3.613   9.009
 2529SOL    HW1 8474   0.289   3.648   8.998
 2529SOL    HW2 8475   0.364   3.528   9.051
 2530SOL     OW 8476   1.664   2.742   8.701
 2530SOL    HW1 8477   1.655   2.656   8.660
 2530SOL    HW2 8478   1.650   2.804   8.630
 2531SOL     OW 8479   0.584   2.597   8.125
 2531SOL    HW1 8480   0.625   2.682   8.110
 2531SOL    HW2 8481   0.522   2.587   8.053
 2532SOL     OW 8482   1.728   2.248   9.096
 2532SOL    HW1 8483   1.734   2.250   9.001
 2532SOL    HW2 8484   1.664   2.180   9.116
 2533SOL     OW 8485   1.748   2.802   8.954
 2533SOL    HW1 8486   1.737   2.897   8.963
 2533SOL    HW2 8487   1.730   2.785   8.862
 2534SOL     OW 8488   0.869   3.227   7.497
 2534SOL    HW1 8489   0.826   3.253   7.579
 2534SOL    HW2 8490   0.878   3.308   7.448
 2535SOL     OW 8491   0.656   3.646   8.372
 2535SOL    HW1 8492   0.638   3.739   8.358
 2535SOL    HW2 8493   0.751   3.641   8.374
 2536SOL     OW 8494   0.869   2.834   8.300
 2536SOL    HW1 8495   0.919   2.760   8.335
 2536SOL    HW2 8496   0.830   2.875   8.377
 2537SOL     OW 8497   1.064   2.834   7.522
 2537SOL    HW1 8498   1.047   2.898   7.453
 2537SOL    HW2 8499   1.130   2.776   7.484
 2538SOL     OW 8500   1.842   3.409   8.287
 2538SOL    HW1 8501   1.761   3.403   8.236
 2538SOL    HW2 8502   1.825   3.355   8.364
 2539SOL     OW 8503   0.233   3.167   9.306
 2539SOL    HW1 8504   0.153   3.122   9.279
 2539SOL    HW2 8505   0.222   3.179   9.401
 2540SOL     OW 8506   0.129   3.151   8.177
 2540SOL    HW1 8507   0.150   3.095   8.252
 2540SOL    HW2 8508   0.103   3.090   8.108
 2541SOL     OW 8509   0.687   3.271   9.082
 2541SOL    HW1 8510   0.607   3.229   9.113
 2541SOL    HW2 8511   0.684   3.359   9.119
 2542SOL     OW 8512   0.437   2.292   7.982
 2542SOL    HW1 8513   0.425   2.225   7.914
 2542SOL    HW2 8514   0.384   2.261   8.055
 2543SOL     OW 8515   1.700   3.341   8.532
 2543SOL    HW1 8516   1.618   3.324   8.485
 2543SOL    HW2 8517   1.702   3.275   8.601
 2544SOL     OW 8518   0.340   2.423   8.741
 2544SOL    HW1 8519   0.391   2.364   8.796
 2544SOL    HW2 8520   0.352   2.391   8.652
 2545SOL     OW 8521   0.831   3.442   8.124
 2545SOL    HW1 8522   0.807   3.502   8.053
 2545SOL    HW2 8523   0.759   3.379   8.128
 2546SOL     OW 8524   1.431   2.089   8.578
 2546SOL    HW1 8525   1.432   2.001   8.615
 2546SOL    HW2 8526   1.378   2.140   8.639
 2547SOL     OW 8527   1.009   1.875   8.582
 2547SOL    HW1 8528   0.956   1.811   8.535
 2547SOL    HW2 8529   1.097   1.837   8.582
 2548SOL     OW 8530   0.775   3.195   7.772
 2548SOL    HW1 8531   0.747   3.104   7.781
 2548SOL    HW2 8532   0.856   3.200   7.821
 2549SOL     OW 8533   0.622   3.417   8.736
 2549SOL    HW1 8534   0.621   3.499   8.785
 2549SOL    HW2 8535   0.710   3.411   8.699
 2550SOL     OW 8536   1.318   2.341   8.152
 2550SOL    HW1 8537   1.254   2.410   8.136
 2550SOL    HW2 8538   1.290   2.301   8.234
 2551SOL     OW 8539   1.558   2.038   8.336
 2551SOL    HW1 8540   1.525   2.070   8.420
 2551SOL    HW2 8541   1.574   2.118   8.285
 2552SOL     OW 8542   0.047   2.905   7.693
 2552SOL    HW1 8543   0.141   2.892   7.687
 2552SOL    HW2 8544   0.011   2.818   7.708
 2553SOL     OW 8545   0.889   3.528   7.787
 2553SOL    HW1 8546   0.816   3.510   7.728
 2553SOL    HW2 8547   0.858   3.601   7.842
 2554SOL     OW 8548   0.229   2.491   9.426
 2554SOL    HW1 8549   0.136   2.498   9.447
 2554SOL    HW2 8550   0.231   2.457   9.337
 2555SOL     OW 8551   0.230   2.135  10.296
 2555SOL    HW1 8552   0.252   2.099  10.382
 2555SOL    HW2 8553   0.134   2.128  10.291
 2556SOL     OW 8554   0.001   2.218   9.942
 2556SOL    HW1 8555   3.911   2.237   9.967
 2556SOL    HW2 8556   3.995   2.192   9.850
 2557SOL     OW 8557   0.584   3.157  10.513
 2557SOL    HW1 8558   0.498   3.158  10.470
 2557SOL    HW2 8559   0.597   3.247  10.542
 2558SOL     OW 8560   1.571   3.373  10.020
 2558SOL    HW1 8561   1.528   3.349  10.102
 2558SOL    HW2 8562   1.501   3.376   9.956
 2559SOL     OW 8563   1.135   2.560  10.004
 2559SOL    HW1 8564   1.182   2.643   9.992
 2559SOL    HW2 8565   1.087   2.571  10.085
 2560SOL     OW 8566   1.776   2.470   9.533
 2560SOL    HW1 8567   1.744   2.466   9.443
 2560SOL    HW2 8568   1.752   2.385   9.570
 2561SOL     OW 8569   0.743   2.996  10.358
 2561SOL    HW1 8570   0.684   3.034  10.423
 2561SOL    HW2 8571   0.782   3.071  10.313
 2562SOL     OW 8572   0.878   2.620  11.135
 2562SOL    HW1 8573   0.870   2.690  11.200
 2562SOL    HW2 8574   0.898   2.666  11.053
 2563SOL     OW 8575   0.684   2.859   9.955
 2563SOL    HW1 8576   0.752   2.852  10.022
 2563SOL    HW2 8577   0.616   2.913   9.994
 2564SOL     OW 8578   0.715   3.011  11.133
 2564SOL    HW1 8579   0.763   3.087  11.165
 2564SOL    HW2 8580   0.636   3.047  11.093
 2565SOL     OW 8581   0.351   3.259  10.389
 2565SOL    HW1 8582   0.270   3.240  10.341
 2565SOL    HW2 8583   0.401   3.316  10.331
 2566SOL     OW 8584   1.459   3.365  10.673
 2566SOL    HW1 8585   1.513   3.443  10.683
 2566SOL    HW2 8586   1.389   3.375  10.737
 2567SOL     OW 8587   0.451   2.253  10.789
 2567SOL    HW1 8588   0.526   2.195  10.796
 2567SOL    HW2 8589   0.375   2.197  10.806
 2568SOL     OW 8590   1.595   2.294  10.043
 2568SOL    HW1 8591   1.511   2.309   9.999
 2568SOL    HW2 8592   1.609   2.371  10.097
 2569SOL     OW 8593   0.219   3.574   9.774
 2569SOL    HW1 8594   0.215   3.660   9.815
 2569SOL    HW2 8595   0.296   3.578   9.717
 2570SOL     OW 8596   1.138   3.204  11.005
 2570SOL    HW1 8597   1.179   3.196  11.091
 2570SOL    HW2 8598   1.086   3.124  10.996
 2571SOL     OW 8599   0.258   3.309   9.846
 2571SOL    HW1 8600   0.228   3.399   9.834
 2571SOL    HW2 8601   0.192   3.268   9.902
 2572SOL     OW 8602   0.251   2.926  10.192
 2572SOL    HW1 8603   0.272   2.841  10.230
 2572SOL    HW2 8604   0.197   2.969  10.258
 2573SOL     OW 8605   0.607   3.649  10.734
 2573SOL    HW1 8606   0.525   3.636  10.782
 2573SOL    HW2 8607   0.635   3.737  10.758
 2574SOL     OW 8608   0.572   2.851   9.452
 2574SOL    HW1 8609   0.623   2.894   9.383
 2574SOL    HW2 8610   0.612   2.880   9.533
 2575SOL     OW 8611   1.549   2.005  10.745
 2575SOL    HW1 8612   1.579   2.088  10.707
 2575SOL    HW2 8613   1.536   2.025  10.838
 2576SOL     OW 8614   0.145   2.525   9.882
 2576SOL    HW1 8615   0.086   2.449   9.878
 2576SOL    HW2 8616   0.111   2.579   9.953
 2577SOL     OW 8617   1.845   3.599   9.646
 2577SOL    HW1 8618   1.916   3.578   9.707
 2577SOL    HW2 8619   1.860   3.691   9.624
 2578SOL     OW 8620   0.038   3.447   9.446
 2578SOL    HW1 8621   0.040   3.357   9.480
 2578SOL    HW2 8622   3.949   3.476   9.462
 2579SOL     OW 8623   1.691   2.782   9.954
 2579SOL    HW1 8624   1.769   2.735   9.924
 2579SOL    HW2 8625   1.665   2.836   9.879
 2580SOL     OW 8626   1.650   2.965   9.740
 2580SOL    HW1 8627   1.737   2.963   9.699
 2580SOL    HW2 8628   1.658   3.029   9.810
 2581SOL     OW 8629   0.148   2.612  10.901
 2581SOL    HW1 8630   0.244   2.611  10.894
 2581SOL    HW2 8631   0.128   2.698  10.938
 2582SOL     OW 8632   0.620   3.250  10.043
 2582SOL    HW1 8633   0.572   3.167  10.051
 2582SOL    HW2 8634   0.602   3.279   9.954
 2583SOL     OW 8635   1.283   3.096  10.729
 2583SOL    HW1 8636   1.314   3.028  10.670
 2583SOL    HW2 8637   1.343   3.092  10.804
 2584SOL     OW 8638   0.827   1.866   9.827
 2584SOL    HW1 8639   0.867   1.950   9.801
 2584SOL    HW2 8640   0.733   1.884   9.828
 2585SOL     OW 8641   0.183   2.809  10.594
 2585SOL    HW1 8642   0.271   2.774  10.583
 2585SOL    HW2 8643   0.134   2.776  10.519
 2586SOL     OW 8644   1.532   2.864   9.510
 2586SOL    HW1 8645   1.462   2.806   9.542
 2586SOL    HW2 8646   1.574   2.897   9.589
 2587SOL     OW 8647   1.230   3.671  10.940
 2587SOL    HW1 8648   1.200   3.733  10.874
 2587SOL    HW2 8649   1.228   3.586  10.897
 2588SOL     OW 8650   0.346   2.109  11.133
 2588SOL    HW1 8651   0.379   2.199  11.141
 2588SOL    HW2 8652   0.253   2.115  11.156
 2589SOL     OW 8653   1.467   3.280  10.256
 2589SOL    HW1 8654   1.401   3.296  10.323
 2589SOL    HW2 8655   1.452   3.189  10.230
 2590SOL     OW 8656   1.652   3.605   9.891
 2590SOL    HW1 8657   1.636   3.573   9.803
 2590SOL    HW2 8658   1.632   3.531   9.948
 2591SOL     OW 8659   0.596   2.572   9.580
 2591SOL    HW1 8660   0.601   2.658   9.537
 2591SOL    HW2 8661   0.533   2.584   9.651
 2592SOL     OW 8662   1.281   2.234  10.248
 2592SOL    HW1 8663   1.193   2.198  10.256
 2592SOL    HW2 8664   1.335   2.177  10.302
 2593SOL     OW 8665   1.575   3.538   9.621
 2593SOL    HW1 8666   1.669   3.556   9.614
 2593SOL    HW2 8667   1.548   3.521   9.531
 2594SOL     OW 8668   0.791   2.479  10.757
 2594SOL    HW1 8669   0.765   2.452  10.845
 2594SOL    HW2 8670   0.759   2.409  10.700
 2595SOL     OW 8671   1.390   2.335  10.986
 2595SOL    HW1 8672   1.394   2.380  11.070
 2595SOL    HW2 8673   1.445   2.257  10.998
 2596SOL     OW 8674   0.948   2.746  10.898
 2596SOL    HW1 8675   1.004   2.678  10.858
 2596SOL    HW2 8676   0.900   2.783  10.824
 2597SOL     OW 8677   0.996   2.270  10.540
 2597SOL    HW1 8678   0.906   2.286  10.567
 2597SOL    HW2 8679   0.988   2.228  10.454
 2598SOL     OW 8680   1.056   2.561   9.734
 2598SOL    HW1 8681   1.074   2.554   9.827
 2598SOL    HW2 8682   0.972   2.515   9.723
 2599SOL     OW 8683   0.084   2.697  10.098
 2599SOL    HW1 8684   0.153   2.663  10.155
 2599SOL    HW2 8685   0.109   2.787  10.080
 2600SOL     OW 8686   0.127   3.720  10.896
 2600SOL    HW1 8687   0.137   3.688  10.986
 2600SOL    HW2 8688   0.035   3.707  10.875
 2601SOL     OW 8689   0.900   2.212   9.505
 2601SOL    HW1 8690   0.941   2.276   9.446
 2601SOL    HW2 8691   0.909   2.129   9.460
 2602SOL     OW 8692   1.658   2.444  11.145
 2602SOL    HW1 8693   1.637   2.523  11.095
 2602SOL    HW2 8694   1.691   2.383  11.079
 2603SOL     OW 8695   1.383   3.004   9.849
 2603SOL    HW1 8696   1.461   2.993   9.796
 2603SOL    HW2 8697   1.329   3.066   9.800
 2604SOL     OW 8698   0.550   2.039  10.209
 2604SOL    HW1 8699   0.556   2.071  10.298
 2604SOL    HW2 8700   0.546   2.118  10.155
 2605SOL     OW 8701   0.998   3.308   9.777
 2605SOL    HW1 8702   0.967   3.384   9.727
 2605SOL    HW2 8703   0.974   3.327   9.868
 2606SOL     OW 8704   0.360   3.676  10.180
 2606SOL    HW1 8705   0.445   3.634  10.193
 2606SOL    HW2 8706   0.379   3.770  10.188
 2607SOL     OW 8707   1.802   2.907  10.184
 2607SOL    HW1 8708   1.751   2.890  10.105
 2607SOL    HW2 8709   1.736   2.917  10.253
 2608SOL     OW 8710   1.226   3.401  10.822
 2608SOL    HW1 8711   1.215   3.329  10.883
 2608SOL    HW2 8712   1.154   3.392  10.760
 2609SOL     OW 8713   0.311   2.811   9.553
 2609SOL    HW1 8714   0.393   2.833   9.510
 2609SOL    HW2 8715   0.299   2.718   9.536
 2610SOL     OW 8716   1.483   2.613  10.028
 2610SOL    HW1 8717   1.480   2.573  10.115
 2610SOL    HW2 8718   1.562   2.668  10.030
 2611SOL     OW 8719   0.474   3.124  11.047
 2611SOL    HW1 8720   0.448   3.131  10.955
 2611SOL    HW2 8721   0.391   3.125  11.095
 2612SOL     OW 8722   1.114   3.645   9.527
 2612SOL    HW1 8723   1.047   3.601   9.579
 2612SOL    HW2 8724   1.146   3.577   9.467
 2613SOL     OW 8725   0.203   2.127  10.819
 2613SOL    HW1 8726   0.114   2.161  10.816
 2613SOL    HW2 8727   0.194   2.038  10.853
 2614SOL     OW 8728   1.628   3.245   9.405
 2614SOL    HW1 8729   1.589   3.331   9.387
 2614SOL    HW2 8730   1.560   3.182   9.382
 2615SOL     OW 8731   0.464   3.607   9.631
 2615SOL    HW1 8732   0.505   3.665   9.695
 2615SOL    HW2 8733   0.537   3.576   9.578
 2616SOL     OW 8734   1.401   1.962   9.754
 2616SOL    HW1 8735   1.390   1.941   9.662
 2616SOL    HW2 8736   1.474   1.907   9.783
 2617SOL     OW 8737   0.263   3.658  10.528
 2617SOL    HW1 8738   0.298   3.586  10.580
 2617SOL    HW2 8739   0.257   3.624  10.439
 2618SOL     OW 8740   0.939   3.567  10.206
 2618SOL    HW1 8741   1.017   3.517  10.231
 2618SOL    HW2 8742   0.898   3.515  10.137
 2619SOL     OW 8743   0.403   2.552   9.781
 2619SOL    HW1 8744   0.424   2.460   9.797
 2619SOL    HW2 8745   0.311   2.561   9.807
 2620SOL     OW 8746   1.519   2.081  11.028
 2620SOL    HW1 8747   1.536   2.099  11.120
 2620SOL    HW2 8748   1.455   2.009  11.029
 2621SOL     OW 8749   0.655   1.974   9.402
 2621SOL    HW1 8750   0.708   1.898   9.427
 2621SOL    HW2 8751   0.600   1.943   9.330
 2622SOL     OW 8752   0.765   2.142  11.065
 2622SOL    HW1 8753   0.847   2.093  11.060
 2622SOL    HW2 8754   0.719   2.105  11.141
 2623SOL     OW 8755   0.876   3.383  10.504
 2623SOL    HW1 8756   0.857   3.345  10.419
 2623SOL    HW2 8757   0.944   3.328  10.542
 2624SOL     OW 8758   1.339   2.452  10.742
 2624SOL    HW1 8759   1.368   2.422  10.828
 2624SOL    HW2 8760   1.375   2.541  10.735
 2625SOL     OW 8761   0.820   3.247  10.257
 2625SOL    HW1 8762   0.905   3.237  10.216
 2625SOL    HW2 8763   0.758   3.254  10.184
 2626SOL     OW 8764   0.930   2.372  10.208
 2626SOL    HW1 8765   0.905   2.362  10.116
 2626SOL    HW2 8766   0.959   2.285  10.234
 2627SOL     OW 8767   0.562   1.924   9.800
 2627SOL    HW1 8768   0.481   1.929   9.850
 2627SOL    HW2 8769   0.565   2.004   9.749
 2628SOL     OW 8770   1.428   3.065   9.348
 2628SOL    HW1 8771   1.458   2.989   9.399
 2628SOL    HW2 8772   1.342   3.086   9.384
 2629SOL     OW 8773   0.309   1.913   9.479
 2629SOL    HW1 8774   0.370   1.952   9.416
 2629SOL    HW2 8775   0.362   1.849   9.526
 2630SOL     OW 8776   0.945   2.112   9.765
 2630SOL    HW1 8777   0.918   2.149   9.681
 2630SOL    HW2 8778   1.039   2.128   9.770
 2631SOL     OW 8779   1.080   2.548  10.765
 2631SOL    HW1 8780   1.016   2.478  10.769
 2631SOL    HW2 8781   1.165   2.503  10.759
 2632SOL     OW 8782   1.217   3.436  10.105
 2632SOL    HW1 8783   1.231   3.501  10.036
 2632SOL    HW2 8784   1.287   3.453  10.168
 2633SOL     OW 8785   0.468   3.014  10.038
 2633SOL    HW1 8786   0.399   2.990  10.099
 2633SOL    HW2 8787   0.429   2.999   9.952
 2634SOL     OW 8788   1.262   3.651   9.921
 2634SOL    HW1 8789   1.313   3.716   9.872
 2634SOL    HW2 8790   1.187   3.700   9.954
 2635SOL     OW 8791   1.026   2.394   9.337
 2635SOL    HW1 8792   0.982   2.477   9.318
 2635SOL    HW2 8793   1.092   2.416   9.403
 2636SOL     OW 8794   0.086   2.438  10.698
 2636SOL    HW1 8795   0.176   2.425  10.668
 2636SOL    HW2 8796   0.093   2.506  10.765
 2637SOL     OW 8797   0.567   2.089  10.481
 2637SOL    HW1 8798   0.608   2.016  10.528
 2637SOL    HW2 8799   0.475   2.085  10.507
 2638SOL     OW 8800   0.867   2.318   9.948
 2638SOL    HW1 8801   0.821   2.374   9.884
 2638SOL    HW2 8802   0.889   2.239   9.899
 2639SOL     OW 8803   1.017   1.918  10.057
 2639SOL    HW1 8804   0.958   1.913   9.982
 2639SOL    HW2 8805   0.993   1.844  10.112
 2640SOL     OW 8806   1.439   3.021  10.166
 2640SOL    HW1 8807   1.368   2.957  10.168
 2640SOL    HW2 8808   1.462   3.028  10.073
 2641SOL     OW 8809   1.461   2.473  10.272
 2641SOL    HW1 8810   1.403   2.397  10.275
 2641SOL    HW2 8811   1.516   2.464  10.350
 2642SOL     OW 8812   1.839   2.672   9.702
 2642SOL    HW1 8813   1.902   2.624   9.755
 2642SOL    HW2 8814   1.815   2.611   9.632
 2643SOL     OW 8815   0.488   3.285   9.466
 2643SOL    HW1 8816   0.411   3.256   9.515
 2643SOL    HW2 8817   0.477   3.247   9.379
 2644SOL     OW 8818   1.680   3.125   9.951
 2644SOL    HW1 8819   1.775   3.124   9.966
 2644SOL    HW2 8820   1.653   3.214   9.974
 2645SOL     OW 8821   1.385   2.439   9.375
 2645SOL    HW1 8822   1.334   2.413   9.452
 2645SOL    HW2 8823   1.476   2.425   9.401
 2646SOL     OW 8824   0.576   2.127   9.620
 2646SOL    HW1 8825   0.613   2.082   9.543
 2646SOL    HW2 8826   0.544   2.210   9.586
 2647SOL     OW 8827   1.747   3.106  10.866
 2647SOL    HW1 8828   1.835   3.068  10.859
 2647SOL    HW2 8829   1.761   3.195  10.896
 2648SOL     OW 8830   1.051   3.213  10.640
 2648SOL    HW1 8831   0.976   3.182  10.690
 2648SOL    HW2 8832   1.127   3.172  10.683
 2649SOL     OW 8833   1.611   3.491  10.970
 2649SOL    HW1 8834   1.600   3.525  10.881
 2649SOL    HW2 8835   1.692   3.441  10.967
 2650SOL     OW 8836   1.138   3.075  10.411
 2650SOL    HW1 8837   1.077   3.112  10.475
 2650SOL    HW2 8838   1.109   3.111  10.327
 2651SOL     OW 8839   1.621   2.958  10.384
 2651SOL    HW1 8840   1.613   3.021  10.455
 2651SOL    HW2 8841   1.546   2.977  10.327
 2652SOL     OW 8842   0.918   1.954  10.699
 2652SOL    HW1 8843   0.941   1.935  10.608
 2652SOL    HW2 8844   0.997   1.993  10.736
 2653SOL     OW 8845   0.983   2.978  11.032
 2653SOL    HW1 8846   0.893   2.994  11.058
 2653SOL    HW2 8847   0.980   2.898  10.979
 2654SOL     OW 8848   0.708   2.923   9.682
 2654SOL    HW1 8849   0.694   2.903   9.774
 2654SOL    HW2 8850   0.784   2.870   9.657
 2655SOL     OW 8851   0.424   2.683  10.564
 2655SOL    HW1 8852   0.492   2.691  10.631
 2655SOL    HW2 8853   0.392   2.593  10.575
 2656SOL     OW 8854   1.263   2.235  10.594
 2656SOL    HW1 8855   1.294   2.314  10.638
 2656SOL    HW2 8856   1.172   2.255  10.571
 2657SOL     OW 8857   0.064   3.440  10.649
 2657SOL    HW1 8858   0.067   3.458  10.555
 2657SOL    HW2 8859   0.156   3.439  10.676
 2658SOL     OW 8860   0.356   2.965   9.789
 2658SOL    HW1 8861   0.357   3.047   9.739
 2658SOL    HW2 8862   0.358   2.897   9.721
 2659SOL     OW 8863   0.544   2.392  10.172
 2659SOL    HW1 8864   0.558   2.449  10.096
 2659SOL    HW2 8865   0.613   2.417  10.233
 2660SOL     OW 8866   1.246   3.212   9.702
 2660SOL    HW1 8867   1.302   3.283   9.734
 2660SOL    HW2 8868   1.159   3.234   9.734
 2661SOL     OW 8869   1.292   3.323  10.459
 2661SOL    HW1 8870   1.347   3.329  10.538
 2661SOL    HW2 8871   1.237   3.247  10.474
 2662SOL     OW 8872   1.570   2.487   9.785
 2662SOL    HW1 8873   1.524   2.530   9.857
 2662SOL    HW2 8874   1.617   2.558   9.740
 2663SOL     OW 8875   0.345   3.393  10.624
 2663SOL    HW1 8876   0.336   3.341  10.545
 2663SOL    HW2 8877   0.439   3.407  10.634
 2664SOL     OW 8878   0.424   2.598  10.914
 2664SOL    HW1 8879   0.487   2.642  10.857
 2664SOL    HW2 8880   0.462   2.512  10.931
 2665SOL     OW 8881   1.605   2.659  10.994
 2665SOL    HW1 8882   1.519   2.700  10.985
 2665SOL    HW2 8883   1.658   2.698  10.925
 2666SOL     OW 8884   0.997   1.998  11.063
 2666SOL    HW1 8885   1.056   2.071  11.043
 2666SOL    HW2 8886   1.047   1.920  11.038
 2667SOL     OW 8887   0.496   1.894  11.059
 2667SOL    HW1 8888   0.451   1.844  10.991
 2667SOL    HW2 8889   0.444   1.974  11.069
 2668SOL     OW 8890   0.588   2.737  10.344
 2668SOL    HW1 8891   0.623   2.826  10.346
 2668SOL    HW2 8892   0.531   2.732  10.421
 2669SOL     OW 8893   1.341   2.720  10.327
 2669SOL    HW1 8894   1.254   2.703  10.291
 2669SOL    HW2 8895   1.388   2.637  10.315
 2670SOL     OW 8896   1.200   2.387   9.573
 2670SOL    HW1 8897   1.207   2.310   9.629
 2670SOL    HW2 8898   1.157   2.452   9.629
 2671SOL     OW 8899   0.308   2.057  10.556
 2671SOL    HW1 8900   0.262   2.091  10.632
 2671SOL    HW2 8901   0.289   1.963  10.555
 2672SOL     OW 8902   0.065   3.166  10.591
 2672SOL    HW1 8903   0.094   3.121  10.671
 2672SOL    HW2 8904   0.055   3.257  10.617
 2673SOL     OW 8905   0.720   2.491  10.361
 2673SOL    HW1 8906   0.797   2.479  10.304
 2673SOL    HW2 8907   0.691   2.580  10.343
 2674SOL     OW 8908   1.743   2.822  11.172
 2674SOL    HW1 8909   1.697   2.759  11.115
 2674SOL    HW2 8910   1.681   2.840  11.243
 2675SOL     OW 8911   0.320   1.922   9.929
 2675SOL    HW1 8912   0.294   2.012   9.948
 2675SOL    HW2 8913   0.327   1.880  10.015
 2676SOL     OW 8914   1.613   2.245   9.671
 2676SOL    HW1 8915   1.605   2.185   9.745
 2676SOL    HW2 8916   1.592   2.331   9.708
 2677SOL     OW 8917   1.030   2.620  10.267
 2677SOL    HW1 8918   1.019   2.637  10.361
 2677SOL    HW2 8919   1.003   2.529  10.255
 2678SOL     OW 8920   0.987   3.430  11.035
 2678SOL    HW1 8921   0.965   3.469  10.950
 2678SOL    HW2 8922   1.028   3.347  11.013
 2679SOL     OW 8923   1.850   3.362  10.912
 2679SOL    HW1 8924   1.872   3.391  10.824
 2679SOL    HW2 8925   1.930   3.375  10.963
 2680SOL     OW 8926   0.358   2.786  11.108
 2680SOL    HW1 8927   0.435   2.807  11.161
 2680SOL    HW2 8928   0.388   2.718  11.048
 2681SOL     OW 8929   1.535   2.123   9.433
 2681SOL    HW1 8930   1.468   2.062   9.463
 2681SOL    HW2 8931   1.563   2.169   9.513
 2682SOL     OW 8932   1.284   2.690   9.337
 2682SOL    HW1 8933   1.323   2.602   9.339
 2682SOL    HW2 8934   1.315   2.727   9.254
 2683SOL     OW 8935   1.071   3.203  10.168
 2683SOL    HW1 8936   1.077   3.131  10.105
 2683SOL    HW2 8937   1.127   3.271  10.132
 2684SOL     OW 8938   0.313   2.661  10.259
 2684SOL    HW1 8939   0.408   2.678  10.253
 2684SOL    HW2 8940   0.306   2.571  10.290
 2685SOL     OW 8941   0.325   2.384  10.325
 2685SOL    HW1 8942   0.290   2.296  10.311
 2685SOL    HW2 8943   0.402   2.390  10.268
 2686SOL     OW 8944   1.134   2.234  10.997
 2686SOL    HW1 8945   1.087   2.288  11.060
 2686SOL    HW2 8946   1.221   2.274  10.991
 2687SOL     OW 8947   1.159   2.058  10.783
 2687SOL    HW1 8948   1.148   2.121  10.854
 2687SOL    HW2 8949   1.203   2.108  10.714
 2688SOL     OW 8950   0.001   3.173   9.493
 2688SOL    HW1 8951   3.907   3.189   9.495
 2688SOL    HW2 8952   0.009   3.079   9.511
 2689SOL     OW 8953   0.076   3.662  10.204
 2689SOL    HW1 8954   0.100   3.570  10.194
 2689SOL    HW2 8955   0.160   3.708  10.209
 2690SOL     OW 8956   0.504   3.419  10.229
 2690SOL    HW1 8957   0.567   3.489  10.245
 2690SOL    HW2 8958   0.547   3.363  10.164
 2691SOL     OW 8959   0.969   2.647  10.532
 2691SOL    HW1 8960   1.029   2.630  10.604
 2691SOL    HW2 8961   0.886   2.607  10.559
 2692SOL     OW 8962   0.039   2.430  10.418
 2692SOL    HW1 8963   0.121   2.407  10.376
 2692SOL    HW2 8964   0.057   2.426  10.512
 2693SOL     OW 8965   0.206   2.371  11.038
 2693SOL    HW1 8966   0.240   2.318  10.966
 2693SOL    HW2 8967   0.167   2.447  10.995
 2694SOL     OW 8968   1.373   2.799  10.963
 2694SOL    HW1 8969   1.396   2.891  10.959
 2694SOL    HW2 8970   1.369   2.770  10.872
 2695SOL     OW 8971   0.820   2.431   9.677
 2695SOL    HW1 8972   0.826   2.356   9.618
 2695SOL    HW2 8973   0.745   2.481   9.645
 2696SOL     OW 8974   1.630   2.465  10.489
 2696SOL    HW1 8975   1.617   2.410  10.567
 2696SOL    HW2 8976   1.717   2.439  10.456
 2697SOL     OW 8977   0.303   3.405  11.029
 2697SOL    HW1 8978   0.257   3.473  11.077
 2697SOL    HW2 8979   0.277   3.323  11.072
 2698SOL     OW 8980   0.719   2.307  10.561
 2698SOL    HW1 8981   0.662   2.234  10.536
 2698SOL    HW2 8982   0.708   2.371  10.490
 2699SOL     OW 8983   0.924   3.530  10.783
 2699SOL    HW1 8984   0.896   3.488  10.701
 2699SOL    HW2 8985   0.916   3.624  10.766
 2700SOL     OW 8986   0.447   2.349   9.508
 2700SOL    HW1 8987   0.513   2.415   9.527
 2700SOL    HW2 8988   0.369   2.398   9.485
 2701SOL     OW 8989   0.151   2.995  10.789
 2701SOL    HW1 8990   0.151   2.946  10.871
 2701SOL    HW2 8991   0.168   2.929  10.721
 2702SOL     OW 8992   1.319   2.904  10.526
 2702SOL    HW1 8993   1.338   2.840  10.457
 2702SOL    HW2 8994   1.254   2.963  10.488
 2703SOL     OW 8995   1.318   2.719   9.612
 2703SOL    HW1 8996   1.245   2.686   9.664
 2703SOL    HW2 8997   1.290   2.706   9.521
 2704SOL     OW 8998   1.778   3.593  10.467
 2704SOL    HW1 8999   1.840   3.622  10.399
 2704SOL    HW2 9000   1.754   3.504  10.440
 2705SOL     OW 9001   1.245   3.593  10.411
 2705SOL    HW1 9002   1.329   3.616  10.371
 2705SOL    HW2 9003   1.255   3.500  10.433
 2706SOL     OW 9004   0.079   3.073  10.338
 2706SOL    HW1 9005   0.086   3.102  10.430
 2706SOL    HW2 9006   3.987   3.090  10.315
 2707SOL     OW 9007   0.682   3.531  11.053
 2707SOL    HW1 9008   0.621   3.605  11.056
 2707SOL    HW2 9009   0.743   3.553  10.983
 2708SOL     OW 9010   1.393   3.430   9.802
 2708SOL    HW1 9011   1.450   3.465   9.734
 2708SOL    HW2 9012   1.343   3.505   9.833
 2709SOL     OW 9013   0.175   3.617  11.146
 2709SOL    HW1 9014   0.121   3.563  11.204
 2709SOL    HW2 9015   0.218   3.678  11.205
 2710SOL     OW 9016   1.279   2.791   9.981
 2710SOL    HW1 9017   1.352   2.731   9.991
 2710SOL    HW2 9018   1.313   2.862   9.927
 2711SOL     OW 9019   0.800   3.138  10.732
 2711SOL    HW1 9020   0.773   3.182  10.812
 2711SOL    HW2 9021   0.727   3.151  10.671
 2712SOL     OW 9022   0.674   3.484   9.471
 2712SOL    HW1 9023   0.684   3.502   9.378
 2712SOL    HW2 9024   0.614   3.409   9.474
 2713SOL     OW 9025   1.619   3.589  10.701
 2713SOL    HW1 9026   1.673   3.592  10.622
 2713SOL    HW2 9027   1.603   3.681  10.723
 2714SOL     OW 9028   0.261   2.172  10.023
 2714SOL    HW1 9029   0.173   2.202  10.000
 2714SOL    HW2 9030   0.258   2.163  10.119
 2715SOL     OW 9031   1.208   3.461   9.349
 2715SOL    HW1 9032   1.198   3.369   9.373
 2715SOL    HW2 9033   1.147   3.473   9.277
 2716SOL     OW 9034   0.823   2.869  10.687
 2716SOL    HW1 9035   0.866   2.862  10.602
 2716SOL    HW2 9036   0.818   2.963  10.704
 2717SOL     OW 9037   0.916   2.772   9.603
 2717SOL    HW1 9038   0.975   2.806   9.535
 2717SOL    HW2 9039   0.967   2.705   9.648
 2718SOL     OW 9040   1.487   3.496   9.356
 2718SOL    HW1 9041   1.394   3.483   9.339
 2718SOL    HW2 9042   1.527   3.501   9.269
 2719SOL     OW 9043   0.374   3.163  10.801
 2719SOL    HW1 9044   0.358   3.244  10.753
 2719SOL    HW2 9045   0.297   3.110  10.785
 2720SOL     OW 9046   1.607   3.147  10.588
 2720SOL    HW1 9047   1.666   3.130  10.662
 2720SOL    HW2 9048   1.546   3.214  10.621
 2721SOL     OW 9049   1.065   2.974  10.024
 2721SOL    HW1 9050   0.991   2.924  10.059
 2721SOL    HW2 9051   1.129   2.907   9.997
 2722SOL     OW 9052   1.027   2.106  10.277
 2722SOL    HW1 9053   1.024   2.060  10.193
 2722SOL    HW2 9054   1.021   2.036  10.342
 2723SOL     OW 9055   0.608   3.353   9.790
 2723SOL    HW1 9056   0.657   3.303   9.725
 2723SOL    HW2 9057   0.532   3.387   9.744
 2724SOL     OW 9058   1.739   2.240  10.683
 2724SOL    HW1 9059   1.806   2.309  10.685
 2724SOL    HW2 9060   1.780   2.169  10.634
 2725SOL     OW 9061   0.255   3.201   9.601
 2725SOL    HW1 9062   0.161   3.203   9.585
 2725SOL    HW2 9063   0.266   3.242   9.687
 2726SOL     OW 9064   0.111   2.857  11.028
 2726SOL    HW1 9065   0.052   2.854  11.104
 2726SOL    HW2 9066   0.198   2.841  11.065
 2727SOL     OW 9067   0.678   2.058  10.810
 2727SOL    HW1 9068   0.762   2.035  10.770
 2727SOL    HW2 9069   0.701   2.091  10.896
 2728SOL     OW 9070   0.080   2.168   9.347
 2728SOL    HW1 9071   3.985   2.168   9.356
 2728SOL    HW2 9072   0.100   2.250   9.301
 2729SOL     OW 9073   1.423   2.720  10.705
 2729SOL    HW1 9074   1.374   2.780  10.650
 2729SOL    HW2 9075   1.513   2.723  10.671
 2730SOL     OW 9076   0.013   2.112   9.689
 2730SOL    HW1 9077   0.048   2.174   9.626
 2730SOL    HW2 9078   0.090   2.064   9.720
 2731SOL     OW 9079   1.177   3.193   9.428
 2731SOL    HW1 9080   1.085   3.167   9.428
 2731SOL    HW2 9081   1.202   3.193   9.521
 2732SOL     OW 9082   0.622   2.692  10.749
 2732SOL    HW1 9083   0.679   2.768  10.734
 2732SOL    HW2 9084   0.682   2.618  10.754
 2733SOL     OW 9085   1.489   3.646  10.292
 2733SOL    HW1 9086   1.510   3.713  10.227
 2733SOL    HW2 9087   1.574   3.620  10.328
 2734SOL     OW 9088   0.716   2.419  11.010
 2734SOL    HW1 9089   0.763   2.478  11.070
 2734SOL    HW2 9090   0.736   2.331  11.042
 2735SOL     OW 9091   1.473   3.055  10.936
 2735SOL    HW1 9092   1.462   3.071  11.030
 2735SOL    HW2 9093   1.566   3.075  10.919
 2736SOL     OW 9094   0.377   3.613  10.871
 2736SOL    HW1 9095   0.289   3.648  10.860
 2736SOL    HW2 9096   0.364   3.528  10.913
 2737SOL     OW 9097   1.663   2.742  10.561
 2737SOL    HW1 9098   1.654   2.657  10.518
 2737SOL    HW2 9099   1.651   2.806  10.491
 2738SOL     OW 9100   1.218   2.181   9.768
 2738SOL    HW1 9101   1.279   2.107   9.763
 2738SOL    HW2 9102   1.247   2.231   9.844
 2739SOL     OW 9103   0.586   2.596   9.987
 2739SOL    HW1 9104   0.626   2.682   9.972
 2739SOL    HW2 9105   0.522   2.586   9.916
 2740SOL     OW 9106   1.728   2.247  10.958
 2740SOL    HW1 9107   1.732   2.249  10.862
 2740SOL    HW2 9108   1.663   2.179  10.978
 2741SOL     OW 9109   1.746   2.803  10.815
 2741SOL    HW1 9110   1.737   2.898  10.825
 2741SOL    HW2 9111   1.729   2.786  10.722
 2742SOL     OW 9112   0.868   3.227   9.359
 2742SOL    HW1 9113   0.825   3.254   9.440
 2742SOL    HW2 9114   0.878   3.308   9.309
 2743SOL     OW 9115   0.656   3.646  10.234
 2743SOL    HW1 9116   0.638   3.739  10.220
 2743SOL    HW2 9117   0.751   3.641  10.236
 2744SOL     OW 9118   0.871   2.834  10.163
 2744SOL    HW1 9119   0.920   2.761  10.199
 2744SOL    HW2 9120   0.831   2.876  10.239
 2745SOL     OW 9121   1.073   2.850   9.399
 2745SOL    HW1 9122   1.053   2.903   9.321
 2745SOL    HW2 9123   1.148   2.796   9.373
 2746SOL     OW 9124   1.843   3.410  10.149
 2746SOL    HW1 9125   1.763   3.401  10.097
 2746SOL    HW2 9126   1.828   3.354  10.225
 2747SOL     OW 9127   0.233   3.167  11.168
 2747SOL    HW1 9128   0.153   3.123  11.141
 2747SOL    HW2 9129   0.223   3.179  11.263
 2748SOL     OW 9130   0.129   3.152  10.038
 2748SOL    HW1 9131   0.147   3.097  10.115
 2748SOL    HW2 9132   0.104   3.090   9.970
 2749SOL     OW 9133   0.687   3.271  10.944
 2749SOL    HW1 9134   0.607   3.229  10.975
 2749SOL    HW2 9135   0.684   3.359  10.981
 2750SOL     OW 9136   0.439   2.293   9.846
 2750SOL    HW1 9137   0.438   2.224   9.779
 2750SOL    HW2 9138   0.383   2.260   9.916
 2751SOL     OW 9139   1.699   3.342  10.395
 2751SOL    HW1 9140   1.618   3.325  10.347
 2751SOL    HW2 9141   1.702   3.276  10.463
 2752SOL     OW 9142   0.340   2.423  10.603
 2752SOL    HW1 9143   0.391   2.363  10.658
 2752SOL    HW2 9144   0.352   2.391  10.514
 2753SOL     OW 9145   0.832   3.441   9.985
 2753SOL    HW1 9146   0.807   3.502   9.915
 2753SOL    HW2 9147   0.759   3.379   9.990
 2754SOL     OW 9148   1.432   2.094  10.431
 2754SOL    HW1 9149   1.434   2.004  10.464
 2754SOL    HW2 9150   1.380   2.141  10.496
 2755SOL     OW 9151   1.010   1.878  10.443
 2755SOL    HW1 9152   0.956   1.812  10.399
 2755SOL    HW2 9153   1.098   1.839  10.444
 2756SOL     OW 9154   0.774   3.194   9.634
 2756SOL    HW1 9155   0.748   3.102   9.642
 2756SOL    HW2 9156   0.857   3.200   9.682
 2757SOL     OW 9157   0.622   3.416  10.598
 2757SOL    HW1 9158   0.621   3.499  10.647
 2757SOL    HW2 9159   0.710   3.411  10.561
 2758SOL     OW 9160   1.359   1.909   9.485
 2758SOL    HW1 9161   1.389   1.843   9.423
 2758SOL    HW2 9162   1.269   1.883   9.505
 2759SOL     OW 9163   1.302   2.326   9.989
 2759SOL    HW1 9164   1.249   2.406   9.990
 2759SOL    HW2 9165   1.292   2.291  10.077
 2760SOL     OW 9166   1.567   2.048  10.190
 2760SOL    HW1 9167   1.531   2.080  10.272
 2760SOL    HW2 9168   1.582   2.126  10.137
 2761SOL     OW 9169   0.047   2.905   9.556
 2761SOL    HW1 9170   0.141   2.892   9.549
 2761SOL    HW2 9171   0.011   2.817   9.570
 2762SOL     OW 9172   0.889   3.528   9.649
 2762SOL    HW1 9173   0.816   3.510   9.590
 2762SOL    HW2 9174   0.858   3.601   9.704
 2763SOL     OW 9175   0.229   2.491  11.288
 2763SOL    HW1 9176   0.136   2.499  11.309
 2763SOL    HW2 9177   0.231   2.457  11.199
 2764SOL     OW 9178   0.230   2.135  12.158
 2764SOL    HW1 9179   0.252   2.099  12.244
 2764SOL    HW2 9180   0.134   2.128  12.153
 2765SOL     OW 9181   0.001   2.218  11.804
 2765SOL    HW1 9182   3.911   2.237  11.829
 2765SOL    HW2 9183   3.995   2.192  11.712
 2766SOL     OW 9184   0.584   3.157  12.375
 2766SOL    HW1 9185   0.498   3.158  12.332
 2766SOL    HW2 9186   0.597   3.247  12.404
 2767SOL     OW 9187   1.571   3.373  11.882
 2767SOL    HW1 9188   1.528   3.349  11.964
 2767SOL    HW2 9189   1.501   3.376  11.818
 2768SOL     OW 9190   1.135   2.560  11.865
 2768SOL    HW1 9191   1.182   2.643  11.854
 2768SOL    HW2 9192   1.087   2.571  11.947
 2769SOL     OW 9193   1.775   2.470  11.396
 2769SOL    HW1 9194   1.743   2.467  11.305
 2769SOL    HW2 9195   1.751   2.385  11.433
 2770SOL     OW 9196   0.743   2.996  12.220
 2770SOL    HW1 9197   0.684   3.034  12.285
 2770SOL    HW2 9198   0.782   3.071  12.175
 2771SOL     OW 9199   0.878   2.621  12.997
 2771SOL    HW1 9200   0.872   2.691  13.061
 2771SOL    HW2 9201   0.898   2.665  12.914
 2772SOL     OW 9202   0.684   2.859  11.816
 2772SOL    HW1 9203   0.752   2.852  11.884
 2772SOL    HW2 9204   0.616   2.913  11.856
 2773SOL     OW 9205   0.715   3.011  12.994
 2773SOL    HW1 9206   0.764   3.087  13.026
 2773SOL    HW2 9207   0.636   3.047  12.954
 2774SOL     OW 9208   0.351   3.259  12.251
 2774SOL    HW1 9209   0.270   3.240  12.203
 2774SOL    HW2 9210   0.401   3.316  12.193
 2775SOL     OW 9211   1.459   3.365  12.535
 2775SOL    HW1 9212   1.513   3.443  12.545
 2775SOL    HW2 9213   1.389   3.375  12.599
 2776SOL     OW 9214   0.450   2.253  12.651
 2776SOL    HW1 9215   0.526   2.195  12.658
 2776SOL    HW2 9216   0.375   2.197  12.669
 2777SOL     OW 9217   1.593   2.295  11.907
 2777SOL    HW1 9218   1.510   2.310  11.862
 2777SOL    HW2 9219   1.604   2.372  11.964
 2778SOL     OW 9220   0.219   3.574  11.636
 2778SOL    HW1 9221   0.215   3.660  11.677
 2778SOL    HW2 9222   0.296   3.578  11.579
 2779SOL     OW 9223   1.138   3.204  12.866
 2779SOL    HW1 9224   1.178   3.197  12.952
 2779SOL    HW2 9225   1.086   3.124  12.857
 2780SOL     OW 9226   0.258   3.309  11.708
 2780SOL    HW1 9227   0.228   3.399  11.696
 2780SOL    HW2 9228   0.192   3.268  11.764
 2781SOL     OW 9229   0.251   2.926  12.054
 2781SOL    HW1 9230   0.272   2.841  12.092
 2781SOL    HW2 9231   0.197   2.969  12.120
 2782SOL     OW 9232   0.606   3.649  12.596
 2782SOL    HW1 9233   0.525   3.636  12.644
 2782SOL    HW2 9234   0.634   3.737  12.620
 2783SOL     OW 9235   0.572   2.851  11.314
 2783SOL    HW1 9236   0.623   2.894  11.245
 2783SOL    HW2 9237   0.612   2.880  11.395
 2784SOL     OW 9238   1.551   2.007  12.611
 2784SOL    HW1 9239   1.583   2.089  12.572
 2784SOL    HW2 9240   1.541   2.027  12.704
 2785SOL     OW 9241   0.145   2.525  11.744
 2785SOL    HW1 9242   0.086   2.449  11.740
 2785SOL    HW2 9243   0.111   2.579  11.815
 2786SOL     OW 9244   1.845   3.599  11.508
 2786SOL    HW1 9245   1.916   3.578  11.569
 2786SOL    HW2 9246   1.860   3.691  11.486
 2787SOL     OW 9247   0.039   3.446  11.308
 2787SOL    HW1 9248   0.040   3.357  11.342
 2787SOL    HW2 9249   3.949   3.477  11.324
 2788SOL     OW 9250   1.691   2.782  11.816
 2788SOL    HW1 9251   1.769   2.735  11.787
 2788SOL    HW2 9252   1.665   2.836  11.741
 2789SOL     OW 9253   1.650   2.965  11.601
 2789SOL    HW1 9254   1.737   2.963  11.561
 2789SOL    HW2 9255   1.658   3.029  11.672
 2790SOL     OW 9256   0.148   2.612  12.763
 2790SOL    HW1 9257   0.244   2.611  12.756
 2790SOL    HW2 9258   0.128   2.698  12.800
 2791SOL     OW 9259   0.620   3.250  11.905
 2791SOL    HW1 9260   0.572   3.167  11.913
 2791SOL    HW2 9261   0.602   3.279  11.816
 2792SOL     OW 9262   1.283   3.096  12.591
 2792SOL    HW1 9263   1.314   3.027  12.532
 2792SOL    HW2 9264   1.343   3.091  12.666
 2793SOL     OW 9265   0.827   1.866  11.689
 2793SOL    HW1 9266   0.867   1.949  11.663
 2793SOL    HW2 9267   0.733   1.884  11.690
 2794SOL     OW 9268   0.183   2.809  12.456
 2794SOL    HW1 9269   0.271   2.774  12.445
 2794SOL    HW2 9270   0.134   2.776  12.381
 2795SOL     OW 9271   1.531   2.864  11.372
 2795SOL    HW1 9272   1.462   2.806  11.404
 2795SOL    HW2 9273   1.574   2.897  11.451
 2796SOL     OW 9274   1.230   3.671  12.802
 2796SOL    HW1 9275   1.200   3.732  12.735
 2796SOL    HW2 9276   1.227   3.585  12.759
 2797SOL     OW 9277   0.347   2.109  12.995
 2797SOL    HW1 9278   0.379   2.199  13.004
 2797SOL    HW2 9279   0.254   2.115  13.017
 2798SOL     OW 9280   1.466   3.280  12.117
 2798SOL    HW1 9281   1.401   3.296  12.185
 2798SOL    HW2 9282   1.452   3.189  12.092
 2799SOL     OW 9283   1.652   3.606  11.754
 2799SOL    HW1 9284   1.636   3.573  11.665
 2799SOL    HW2 9285   1.632   3.531  11.811
 2800SOL     OW 9286   0.596   2.572  11.442
 2800SOL    HW1 9287   0.601   2.658  11.400
 2800SOL    HW2 9288   0.533   2.584  11.513
 2801SOL     OW 9289   1.281   2.234  12.109
 2801SOL    HW1 9290   1.192   2.198  12.118
 2801SOL    HW2 9291   1.335   2.177  12.164
 2802SOL     OW 9292   1.575   3.538  11.483
 2802SOL    HW1 9293   1.669   3.556  11.476
 2802SOL    HW2 9294   1.548   3.521  11.393
 2803SOL     OW 9295   0.791   2.479  12.619
 2803SOL    HW1 9296   0.765   2.452  12.707
 2803SOL    HW2 9297   0.759   2.409  12.562
 2804SOL     OW 9298   1.392   2.335  12.849
 2804SOL    HW1 9299   1.397   2.380  12.933
 2804SOL    HW2 9300   1.451   2.259  12.859
 2805SOL     OW 9301   0.948   2.745  12.759
 2805SOL    HW1 9302   1.004   2.678  12.719
 2805SOL    HW2 9303   0.900   2.783  12.686
 2806SOL     OW 9304   0.996   2.270  12.402
 2806SOL    HW1 9305   0.906   2.286  12.429
 2806SOL    HW2 9306   0.988   2.228  12.316
 2807SOL     OW 9307   1.056   2.561  11.596
 2807SOL    HW1 9308   1.074   2.554  11.689
 2807SOL    HW2 9309   0.972   2.515  11.585
 2808SOL     OW 9310   0.084   2.697  11.960
 2808SOL    HW1 9311   0.153   2.663  12.017
 2808SOL    HW2 9312   0.109   2.787  11.943
 2809SOL     OW 9313   0.127   3.720  12.759
 2809SOL    HW1 9314   0.137   3.689  12.849
 2809SOL    HW2 9315   0.035   3.707  12.738
 2810SOL     OW 9316   0.900   2.212  11.367
 2810SOL    HW1 9317   0.941   2.276  11.308
 2810SOL    HW2 9318   0.910   2.128  11.322
 2811SOL     OW 9319   1.699   2.437  13.009
 2811SOL    HW1 9320   1.666   2.510  12.957
 2811SOL    HW2 9321   1.726   2.371  12.946
 2812SOL     OW 9322   1.383   3.004  11.711
 2812SOL    HW1 9323   1.462   2.993  11.658
 2812SOL    HW2 9324   1.329   3.066  11.662
 2813SOL     OW 9325   0.550   2.039  12.071
 2813SOL    HW1 9326   0.556   2.071  12.160
 2813SOL    HW2 9327   0.547   2.118  12.017
 2814SOL     OW 9328   0.998   3.308  11.639
 2814SOL    HW1 9329   0.967   3.384  11.589
 2814SOL    HW2 9330   0.974   3.327  11.730
 2815SOL     OW 9331   0.360   3.677  12.042
 2815SOL    HW1 9332   0.445   3.634  12.055
 2815SOL    HW2 9333   0.379   3.770  12.050
 2816SOL     OW 9334   1.802   2.908  12.046
 2816SOL    HW1 9335   1.751   2.890  11.967
 2816SOL    HW2 9336   1.737   2.917  12.115
 2817SOL     OW 9337   1.226   3.401  12.683
 2817SOL    HW1 9338   1.215   3.329  12.745
 2817SOL    HW2 9339   1.154   3.391  12.621
 2818SOL     OW 9340   0.311   2.811  11.416
 2818SOL    HW1 9341   0.393   2.833  11.372
 2818SOL    HW2 9342   0.299   2.718  11.399
 2819SOL     OW 9343   1.483   2.614  11.891
 2819SOL    HW1 9344   1.480   2.573  11.977
 2819SOL    HW2 9345   1.562   2.668  11.892
 2820SOL     OW 9346   0.474   3.124  12.909
 2820SOL    HW1 9347   0.448   3.131  12.817
 2820SOL    HW2 9348   0.391   3.125  12.957
 2821SOL     OW 9349   1.115   3.645  11.389
 2821SOL    HW1 9350   1.047   3.601  11.441
 2821SOL    HW2 9351   1.146   3.577  11.330
 2822SOL     OW 9352   0.203   2.127  12.680
 2822SOL    HW1 9353   0.114   2.161  12.678
 2822SOL    HW2 9354   0.194   2.038  12.715
 2823SOL     OW 9355   1.628   3.245  11.266
 2823SOL    HW1 9356   1.588   3.330  11.249
 2823SOL    HW2 9357   1.560   3.182  11.243
 2824SOL     OW 9358   0.464   3.607  11.493
 2824SOL    HW1 9359   0.505   3.665  11.557
 2824SOL    HW2 9360   0.538   3.576  11.440
 2825SOL     OW 9361   1.402   1.963  11.616
 2825SOL    HW1 9362   1.391   1.942  11.523
 2825SOL    HW2 9363   1.473   1.906  11.646
 2826SOL     OW 9364   0.264   3.659  12.390
 2826SOL    HW1 9365   0.298   3.586  12.442
 2826SOL    HW2 9366   0.257   3.624  12.301
 2827SOL     OW 9367   0.939   3.567  12.068
 2827SOL    HW1 9368   1.017   3.517  12.093
 2827SOL    HW2 9369   0.898   3.515  11.999
 2828SOL     OW 9370   0.403   2.552  11.642
 2828SOL    HW1 9371   0.424   2.460  11.659
 2828SOL    HW2 9372   0.311   2.561  11.668
 2829SOL     OW 9373   1.527   2.084  12.894
 2829SOL    HW1 9374   1.543   2.105  12.986
 2829SOL    HW2 9375   1.462   2.014  12.897
 2830SOL     OW 9376   0.655   1.974  11.264
 2830SOL    HW1 9377   0.707   1.898  11.289
 2830SOL    HW2 9378   0.600   1.943  11.192
 2831SOL     OW 9379   0.764   2.141  12.927
 2831SOL    HW1 9380   0.847   2.093  12.922
 2831SOL    HW2 9381   0.720   2.105  13.004
 2832SOL     OW 9382   0.876   3.384  12.366
 2832SOL    HW1 9383   0.857   3.345  12.281
 2832SOL    HW2 9384   0.944   3.328  12.404
 2833SOL     OW 9385   1.338   2.452  12.605
 2833SOL    HW1 9386   1.369   2.421  12.690
 2833SOL    HW2 9387   1.375   2.540  12.597
 2834SOL     OW 9388   0.820   3.247  12.119
 2834SOL    HW1 9389   0.905   3.237  12.078
 2834SOL    HW2 9390   0.758   3.254  12.046
 2835SOL     OW 9391   0.930   2.372  12.070
 2835SOL    HW1 9392   0.905   2.362  11.978
 2835SOL    HW2 9393   0.959   2.285  12.096
 2836SOL     OW 9394   0.562   1.924  11.662
 2836SOL    HW1 9395   0.481   1.929  11.712
 2836SOL    HW2 9396   0.565   2.004  11.611
 2837SOL     OW 9397   1.428   3.064  11.209
 2837SOL    HW1 9398   1.458   2.989  11.261
 2837SOL    HW2 9399   1.342   3.086  11.246
 2838SOL     OW 9400   0.309   1.913  11.341
 2838SOL    HW1 9401   0.370   1.952  11.278
 2838SOL    HW2 9402   0.362   1.849  11.388
 2839SOL     OW 9403   0.945   2.111  11.627
 2839SOL    HW1 9404   0.918   2.149  11.543
 2839SOL    HW2 9405   1.039   2.128  11.632
 2840SOL     OW 9406   1.080   2.548  12.626
 2840SOL    HW1 9407   1.016   2.477  12.631
 2840SOL    HW2 9408   1.165   2.503  12.622
 2841SOL     OW 9409   1.217   3.436  11.967
 2841SOL    HW1 9410   1.231   3.501  11.898
 2841SOL    HW2 9411   1.288   3.452  12.030
 2842SOL     OW 9412   0.468   3.014  11.900
 2842SOL    HW1 9413   0.399   2.990  11.961
 2842SOL    HW2 9414   0.429   2.999  11.814
 2843SOL     OW 9415   1.262   3.651  11.783
 2843SOL    HW1 9416   1.313   3.716  11.734
 2843SOL    HW2 9417   1.187   3.700  11.816
 2844SOL     OW 9418   1.026   2.393  11.199
 2844SOL    HW1 9419   0.982   2.477  11.180
 2844SOL    HW2 9420   1.092   2.415  11.265
 2845SOL     OW 9421   0.086   2.438  12.560
 2845SOL    HW1 9422   0.176   2.425  12.530
 2845SOL    HW2 9423   0.093   2.506  12.627
 2846SOL     OW 9424   0.567   2.089  12.343
 2846SOL    HW1 9425   0.608   2.016  12.390
 2846SOL    HW2 9426   0.475   2.085  12.369
 2847SOL     OW 9427   0.867   2.318  11.810
 2847SOL    HW1 9428   0.821   2.374  11.746
 2847SOL    HW2 9429   0.889   2.239  11.761
 2848SOL     OW 9430   1.016   1.919  11.919
 2848SOL    HW1 9431   0.958   1.913  11.844
 2848SOL    HW2 9432   0.993   1.844  11.974
 2849SOL     OW 9433   1.439   3.021  12.028
 2849SOL    HW1 9434   1.368   2.957  12.030
 2849SOL    HW2 9435   1.462   3.028  11.935
 2850SOL     OW 9436   1.462   2.473  12.134
 2850SOL    HW1 9437   1.404   2.397  12.138
 2850SOL    HW2 9438   1.517   2.464  12.213
 2851SOL     OW 9439   1.839   2.673  11.564
 2851SOL    HW1 9440   1.902   2.624  11.617
 2851SOL    HW2 9441   1.815   2.611  11.495
 2852SOL     OW 9442   0.488   3.285  11.328
 2852SOL    HW1 9443   0.411   3.256  11.377
 2852SOL    HW2 9444   0.477   3.247  11.241
 2853SOL     OW 9445   1.681   3.125  11.812
 2853SOL    HW1 9446   1.775   3.124  11.828
 2853SOL    HW2 9447   1.653   3.214  11.835
 2854SOL     OW 9448   1.384   2.439  11.237
 2854SOL    HW1 9449   1.334   2.413  11.314
 2854SOL    HW2 9450   1.476   2.425  11.262
 2855SOL     OW 9451   0.576   2.127  11.482
 2855SOL    HW1 9452   0.613   2.082  11.405
 2855SOL    HW2 9453   0.544   2.211  11.448
 2856SOL     OW 9454   1.746   3.105  12.728
 2856SOL    HW1 9455   1.834   3.068  12.719
 2856SOL    HW2 9456   1.762   3.195  12.758
 2857SOL     OW 9457   1.052   3.213  12.502
 2857SOL    HW1 9458   0.976   3.182  12.552
 2857SOL    HW2 9459   1.127   3.172  12.545
 2858SOL     OW 9460   1.611   3.491  12.832
 2858SOL    HW1 9461   1.601   3.525  12.743
 2858SOL    HW2 9462   1.692   3.441  12.829
 2859SOL     OW 9463   1.138   3.075  12.273
 2859SOL    HW1 9464   1.078   3.112  12.337
 2859SOL    HW2 9465   1.109   3.111  12.189
 2860SOL     OW 9466   1.621   2.958  12.246
 2860SOL    HW1 9467   1.614   3.021  12.318
 2860SOL    HW2 9468   1.546   2.977  12.189
 2861SOL     OW 9469   0.918   1.954  12.561
 2861SOL    HW1 9470   0.941   1.935  12.470
 2861SOL    HW2 9471   0.997   1.993  12.598
 2862SOL     OW 9472   0.984   2.977  12.894
 2862SOL    HW1 9473   0.893   2.994  12.919
 2862SOL    HW2 9474   0.980   2.898  12.841
 2863SOL     OW 9475   0.708   2.923  11.544
 2863SOL    HW1 9476   0.694   2.903  11.636
 2863SOL    HW2 9477   0.784   2.870  11.519
 2864SOL     OW 9478   0.424   2.683  12.426
 2864SOL    HW1 9479   0.492   2.691  12.493
 2864SOL    HW2 9480   0.392   2.593  12.437
 2865SOL     OW 9481   1.263   2.235  12.456
 2865SOL    HW1 9482   1.294   2.314  12.501
 2865SOL    HW2 9483   1.172   2.255  12.433
 2866SOL     OW 9484   0.064   3.440  12.511
 2866SOL    HW1 9485   0.066   3.457  12.416
 2866SOL    HW2 9486   0.156   3.439  12.537
 2867SOL     OW 9487   0.356   2.965  11.651
 2867SOL    HW1 9488   0.357   3.047  11.601
 2867SOL    HW2 9489   0.358   2.897  11.583
 2868SOL     OW 9490   0.544   2.392  12.033
 2868SOL    HW1 9491   0.558   2.450  11.958
 2868SOL    HW2 9492   0.613   2.417  12.095
 2869SOL     OW 9493   1.246   3.212  11.563
 2869SOL    HW1 9494   1.302   3.283  11.596
 2869SOL    HW2 9495   1.159   3.234  11.596
 2870SOL     OW 9496   1.292   3.323  12.321
 2870SOL    HW1 9497   1.347   3.329  12.400
 2870SOL    HW2 9498   1.237   3.247  12.336
 2871SOL     OW 9499   1.570   2.487  11.647
 2871SOL    HW1 9500   1.524   2.530  11.720
 2871SOL    HW2 9501   1.617   2.558  11.603
 2872SOL     OW 9502   0.345   3.393  12.486
 2872SOL    HW1 9503   0.336   3.341  12.407
 2872SOL    HW2 9504   0.439   3.407  12.496
 2873SOL     OW 9505   0.424   2.598  12.776
 2873SOL    HW1 9506   0.487   2.642  12.719
 2873SOL    HW2 9507   0.462   2.512  12.793
 2874SOL     OW 9508   1.610   2.646  12.861
 2874SOL    HW1 9509   1.524   2.687  12.855
 2874SOL    HW2 9510   1.662   2.688  12.792
 2875SOL     OW 9511   0.997   1.998  12.925
 2875SOL    HW1 9512   1.056   2.071  12.905
 2875SOL    HW2 9513   1.047   1.920  12.900
 2876SOL     OW 9514   0.496   1.894  12.921
 2876SOL    HW1 9515   0.451   1.844  12.853
 2876SOL    HW2 9516   0.445   1.974  12.930
 2877SOL     OW 9517   0.588   2.737  12.206
 2877SOL    HW1 9518   0.624   2.826  12.208
 2877SOL    HW2 9519   0.531   2.732  12.283
 2878SOL     OW 9520   1.342   2.720  12.189
 2878SOL    HW1 9521   1.254   2.703  12.154
 2878SOL    HW2 9522   1.389   2.637  12.177
 2879SOL     OW 9523   1.199   2.387  11.435
 2879SOL    HW1 9524   1.207   2.309  11.491
 2879SOL    HW2 9525   1.157   2.452  11.491
 2880SOL     OW 9526   0.308   2.057  12.418
 2880SOL    HW1 9527   0.262   2.091  12.494
 2880SOL    HW2 9528   0.289   1.963  12.417
 2881SOL     OW 9529   0.065   3.166  12.453
 2881SOL    HW1 9530   0.094   3.121  12.533
 2881SOL    HW2 9531   0.055   3.257  12.479
 2882SOL     OW 9532   0.720   2.491  12.223
 2882SOL    HW1 9533   0.797   2.479  12.167
 2882SOL    HW2 9534   0.691   2.580  12.205
 2883SOL     OW 9535   1.743   2.819  13.035
 2883SOL    HW1 9536   1.699   2.754  12.981
 2883SOL    HW2 9537   1.680   2.839  13.104
 2884SOL     OW 9538   0.320   1.922  11.791
 2884SOL    HW1 9539   0.294   2.012  11.810
 2884SOL    HW2 9540   0.327   1.880  11.877
 2885SOL     OW 9541   1.612   2.245  11.533
 2885SOL    HW1 9542   1.600   2.184  11.605
 2885SOL    HW2 9543   1.592   2.331  11.571
 2886SOL     OW 9544   1.030   2.620  12.129
 2886SOL    HW1 9545   1.019   2.637  12.223
 2886SOL    HW2 9546   1.003   2.529  12.117
 2887SOL     OW 9547   0.987   3.431  12.896
 2887SOL    HW1 9548   0.965   3.470  12.812
 2887SOL    HW2 9549   1.027   3.347  12.875
 2888SOL     OW 9550   1.850   3.361  12.774
 2888SOL    HW1 9551   1.873   3.390  12.686
 2888SOL    HW2 9552   1.930   3.375  12.825
 2889SOL     OW 9553   0.358   2.785  12.970
 2889SOL    HW1 9554   0.435   2.806  13.023
 2889SOL    HW2 9555   0.388   2.717  12.910
 2890SOL     OW 9556   1.534   2.125  11.294
 2890SOL    HW1 9557   1.468   2.063  11.324
 2890SOL    HW2 9558   1.563   2.170  11.374
 2891SOL     OW 9559   1.283   2.690  11.198
 2891SOL    HW1 9560   1.322   2.603  11.202
 2891SOL    HW2 9561   1.315   2.727  11.116
 2892SOL     OW 9562   1.071   3.203  12.030
 2892SOL    HW1 9563   1.077   3.131  11.967
 2892SOL    HW2 9564   1.127   3.271  11.994
 2893SOL     OW 9565   0.313   2.661  12.121
 2893SOL    HW1 9566   0.408   2.678  12.116
 2893SOL    HW2 9567   0.307   2.571  12.152
 2894SOL     OW 9568   0.325   2.384  12.187
 2894SOL    HW1 9569   0.290   2.296  12.173
 2894SOL    HW2 9570   0.402   2.390  12.130
 2895SOL     OW 9571   1.135   2.233  12.859
 2895SOL    HW1 9572   1.088   2.288  12.922
 2895SOL    HW2 9573   1.222   2.273  12.854
 2896SOL     OW 9574   1.159   2.058  12.645
 2896SOL    HW1 9575   1.148   2.121  12.716
 2896SOL    HW2 9576   1.204   2.107  12.576
 2897SOL     OW 9577   0.001   3.173  11.355
 2897SOL    HW1 9578   3.907   3.189  11.357
 2897SOL    HW2 9579   0.009   3.079  11.373
 2898SOL     OW 9580   0.076   3.662  12.066
 2898SOL    HW1 9581   0.100   3.570  12.056
 2898SOL    HW2 9582   0.160   3.708  12.071
 2899SOL     OW 9583   0.504   3.419  12.091
 2899SOL    HW1 9584   0.567   3.489  12.107
 2899SOL    HW2 9585   0.547   3.363  12.026
 2900SOL     OW 9586   0.969   2.648  12.394
 2900SOL    HW1 9587   1.029   2.630  12.466
 2900SOL    HW2 9588   0.886   2.607  12.421
 2901SOL     OW 9589   0.039   2.430  12.280
 2901SOL    HW1 9590   0.122   2.407  12.238
 2901SOL    HW2 9591   0.057   2.426  12.374
 2902SOL     OW 9592   0.206   2.371  12.901
 2902SOL    HW1 9593   0.240   2.318  12.829
 2902SOL    HW2 9594   0.168   2.447  12.857
 2903SOL     OW 9595   1.381   2.794  12.827
 2903SOL    HW1 9596   1.403   2.887  12.823
 2903SOL    HW2 9597   1.377   2.766  12.736
 2904SOL     OW 9598   0.820   2.431  11.539
 2904SOL    HW1 9599   0.826   2.356  11.480
 2904SOL    HW2 9600   0.745   2.481  11.507
 2905SOL     OW 9601   1.630   2.465  12.352
 2905SOL    HW1 9602   1.617   2.410  12.430
 2905SOL    HW2 9603   1.717   2.439  12.319
 2906SOL     OW 9604   0.302   3.406  12.891
 2906SOL    HW1 9605   0.256   3.474  12.940
 2906SOL    HW2 9606   0.277   3.324  12.934
 2907SOL     OW 9607   0.718   2.307  12.423
 2907SOL    HW1 9608   0.661   2.234  12.398
 2907SOL    HW2 9609   0.708   2.371  12.352
 2908SOL     OW 9610   0.923   3.530  12.645
 2908SOL    HW1 9611   0.896   3.489  12.563
 2908SOL    HW2 9612   0.916   3.624  12.627
 2909SOL     OW 9613   0.447   2.349  11.370
 2909SOL    HW1 9614   0.513   2.415  11.389
 2909SOL    HW2 9615   0.369   2.398  11.347
 2910SOL     OW 9616   0.151   2.995  12.651
 2910SOL    HW1 9617   0.151   2.946  12.733
 2910SOL    HW2 9618   0.167   2.929  12.583
 2911SOL     OW 9619   1.319   2.903  12.389
 2911SOL    HW1 9620   1.338   2.840  12.320
 2911SOL    HW2 9621   1.255   2.962  12.350
 2912SOL     OW 9622   1.318   2.720  11.474
 2912SOL    HW1 9623   1.245   2.686  11.526
 2912SOL    HW2 9624   1.290   2.706  11.383
 2913SOL     OW 9625   1.779   3.593  12.329
 2913SOL    HW1 9626   1.840   3.622  12.261
 2913SOL    HW2 9627   1.754   3.504  12.302
 2914SOL     OW 9628   1.245   3.593  12.273
 2914SOL    HW1 9629   1.329   3.616  12.233
 2914SOL    HW2 9630   1.255   3.500  12.295
 2915SOL     OW 9631   0.079   3.074  12.200
 2915SOL    HW1 9632   0.086   3.102  12.291
 2915SOL    HW2 9633   3.987   3.090  12.177
 2916SOL     OW 9634   0.682   3.531  12.914
 2916SOL    HW1 9635   0.621   3.605  12.917
 2916SOL    HW2 9636   0.743   3.553  12.845
 2917SOL     OW 9637   1.393   3.430  11.664
 2917SOL    HW1 9638   1.450   3.465  11.596
 2917SOL    HW2 9639   1.343   3.505  11.695
 2918SOL     OW 9640   0.175   3.618  13.010
 2918SOL    HW1 9641   0.121   3.563  13.067
 2918SOL    HW2 9642   0.218   3.680  13.069
 2919SOL     OW 9643   1.278   2.792  11.843
 2919SOL    HW1 9644   1.352   2.732  11.853
 2919SOL    HW2 9645   1.313   2.863  11.788
 2920SOL     OW 9646   0.800   3.138  12.594
 2920SOL    HW1 9647   0.773   3.182  12.674
 2920SOL    HW2 9648   0.727   3.151  12.533
 2921SOL     OW 9649   0.674   3.484  11.333
 2921SOL    HW1 9650   0.684   3.502  11.240
 2921SOL    HW2 9651   0.614   3.409  11.337
 2922SOL     OW 9652   1.619   3.590  12.563
 2922SOL    HW1 9653   1.673   3.593  12.484
 2922SOL    HW2 9654   1.603   3.681  12.585
 2923SOL     OW 9655   0.261   2.172  11.885
 2923SOL    HW1 9656   0.173   2.202  11.862
 2923SOL    HW2 9657   0.258   2.163  11.981
 2924SOL     OW 9658   1.208   3.461  11.211
 2924SOL    HW1 9659   1.198   3.369  11.235
 2924SOL    HW2 9660   1.146   3.473  11.139
 2925SOL     OW 9661   0.823   2.869  12.549
 2925SOL    HW1 9662   0.866   2.862  12.464
 2925SOL    HW2 9663   0.819   2.963  12.566
 2926SOL     OW 9664   0.916   2.772  11.465
 2926SOL    HW1 9665   0.975   2.805  11.397
 2926SOL    HW2 9666   0.967   2.705  11.510
 2927SOL     OW 9667   1.487   3.496  11.218
 2927SOL    HW1 9668   1.394   3.483  11.201
 2927SOL    HW2 9669   1.527   3.501  11.131
 2928SOL     OW 9670   0.374   3.163  12.663
 2928SOL    HW1 9671   0.358   3.244  12.615
 2928SOL    HW2 9672   0.297   3.110  12.647
 2929SOL     OW 9673   1.607   3.147  12.451
 2929SOL    HW1 9674   1.665   3.130  12.524
 2929SOL    HW2 9675   1.546   3.214  12.483
 2930SOL     OW 9676   1.065   2.974  11.885
 2930SOL    HW1 9677   0.991   2.924  11.921
 2930SOL    HW2 9678   1.129   2.908  11.859
 2931SOL     OW 9679   1.027   2.106  12.139
 2931SOL    HW1 9680   1.023   2.060  12.055
 2931SOL    HW2 9681   1.021   2.036  12.204
 2932SOL     OW 9682   0.609   3.353  11.652
 2932SOL    HW1 9683   0.657   3.303  11.586
 2932SOL    HW2 9684   0.532   3.386  11.606
 2933SOL     OW 9685   1.739   2.238  12.547
 2933SOL    HW1 9686   1.804   2.307  12.551
 2933SOL    HW2 9687   1.782   2.167  12.499
 2934SOL     OW 9688   0.255   3.201  11.463
 2934SOL    HW1 9689   0.161   3.203  11.447
 2934SOL    HW2 9690   0.266   3.242  11.549
 2935SOL     OW 9691   0.111   2.856  12.890
 2935SOL    HW1 9692   0.052   2.855  12.966
 2935SOL    HW2 9693   0.198   2.841  12.927
 2936SOL     OW 9694   0.678   2.057  12.672
 2936SOL    HW1 9695   0.762   2.035  12.631
 2936SOL    HW2 9696   0.701   2.091  12.758
 2937SOL     OW 9697   0.080   2.168  11.209
 2937SOL    HW1 9698   3.985   2.168  11.218
 2937SOL    HW2 9699   0.100   2.250  11.163
 2938SOL     OW 9700   1.424   2.718  12.567
 2938SOL    HW1 9701   1.374   2.779  12.513
 2938SOL    HW2 9702   1.513   2.722  12.533
 2939SOL     OW 9703   0.013   2.112  11.551
 2939SOL    HW1 9704   0.047   2.174  11.487
 2939SOL    HW2 9705   0.090   2.064  11.582
 2940SOL     OW 9706   1.177   3.193  11.290
 2940SOL    HW1 9707   1.085   3.167  11.290
 2940SOL    HW2 9708   1.202   3.194  11.383
 2941SOL     OW 9709   0.622   2.693  12.611
 2941SOL    HW1 9710   0.679   2.768  12.596
 2941SOL    HW2 9711   0.682   2.618  12.616
 2942SOL     OW 9712   1.489   3.646  12.155
 2942SOL    HW1 9713   1.510   3.713  12.089
 2942SOL    HW2 9714   1.574   3.620  12.190
 2943SOL     OW 9715   0.716   2.419  12.872
 2943SOL    HW1 9716   0.763   2.478  12.931
 2943SOL    HW2 9717   0.736   2.332  12.904
 2944SOL     OW 9718   1.473   3.054  12.799
 2944SOL    HW1 9719   1.462   3.071  12.893
 2944SOL    HW2 9720   1.565   3.075  12.782
 2945SOL     OW 9721   0.377   3.613  12.733
 2945SOL    HW1 9722   0.289   3.648  12.722
 2945SOL    HW2 9723   0.364   3.528  12.775
 2946SOL     OW 9724   1.664   2.742  12.425
 2946SOL    HW1 9725   1.655   2.657  12.382
 2946SOL    HW2 9726   1.652   2.806  12.354
 2947SOL     OW 9727   1.219   2.180  11.630
 2947SOL    HW1 9728   1.280   2.107  11.625
 2947SOL    HW2 9729   1.248   2.231  11.706
 2948SOL     OW 9730   0.586   2.596  11.849
 2948SOL    HW1 9731   0.626   2.682  11.834
 2948SOL    HW2 9732   0.522   2.586  11.778
 2949SOL     OW 9733   1.746   2.242  12.824
 2949SOL    HW1 9734   1.742   2.244  12.728
 2949SOL    HW2 9735   1.681   2.177  12.850
 2950SOL     OW 9736   1.742   2.800  12.682
 2950SOL    HW1 9737   1.733   2.894  12.692
 2950SOL    HW2 9738   1.727   2.784  12.588
 2951SOL     OW 9739   0.868   3.227  11.221
 2951SOL    HW1 9740   0.826   3.253  11.302
 2951SOL    HW2 9741   0.878   3.308  11.171
 2952SOL     OW 9742   0.656   3.646  12.096
 2952SOL    HW1 9743   0.638   3.739  12.082
 2952SOL    HW2 9744   0.751   3.641  12.098
 2953SOL     OW 9745   0.871   2.834  12.025
 2953SOL    HW1 9746   0.921   2.761  12.061
 2953SOL    HW2 9747   0.831   2.876  12.101
 2954SOL     OW 9748   1.073   2.850  11.261
 2954SOL    HW1 9749   1.053   2.903  11.183
 2954SOL    HW2 9750   1.148   2.797  11.235
 2955SOL     OW 9751   1.843   3.410  12.011
 2955SOL    HW1 9752   1.763   3.401  11.960
 2955SOL    HW2 9753   1.829   3.353  12.087
 2956SOL     OW 9754   0.234   3.167  13.030
 2956SOL    HW1 9755   0.152   3.124  13.004
 2956SOL    HW2 9756   0.225   3.179  13.125
 2957SOL     OW 9757   0.130   3.152  11.900
 2957SOL    HW1 9758   0.147   3.098  11.977
 2957SOL    HW2 9759   0.104   3.090  11.832
 2958SOL     OW 9760   0.687   3.271  12.805
 2958SOL    HW1 9761   0.607   3.229  12.837
 2958SOL    HW2 9762   0.684   3.359  12.842
 2959SOL     OW 9763   0.439   2.293  11.707
 2959SOL    HW1 9764   0.438   2.224  11.641
 2959SOL    HW2 9765   0.383   2.260  11.778
 2960SOL     OW 9766   1.699   3.342  12.257
 2960SOL    HW1 9767   1.618   3.325  12.209
 2960SOL    HW2 9768   1.702   3.276  12.326
 2961SOL     OW 9769   0.340   2.423  12.465
 2961SOL    HW1 9770   0.391   2.363  12.520
 2961SOL    HW2 9771   0.352   2.390  12.376
 2962SOL     OW 9772   0.832   3.441  11.847
 2962SOL    HW1 9773   0.807   3.502  11.777
 2962SOL    HW2 9774   0.759   3.379  11.852
 2963SOL     OW 9775   1.431   2.094  12.293
 2963SOL    HW1 9776   1.434   2.004  12.326
 2963SOL    HW2 9777   1.379   2.141  12.358
 2964SOL     OW 9778   1.010   1.878  12.305
 2964SOL    HW1 9779   0.956   1.812  12.260
 2964SOL    HW2 9780   1.098   1.839  12.306
 2965SOL     OW 9781   0.774   3.194  11.496
 2965SOL    HW1 9782   0.748   3.102  11.504
 2965SOL    HW2 9783   0.857   3.200  11.545
 2966SOL     OW 9784   0.622   3.416  12.460
 2966SOL    HW1 9785   0.621   3.499  12.509
 2966SOL    HW2 9786   0.710   3.411  12.423
 2967SOL     OW 9787   1.359   1.910  11.346
 2967SOL    HW1 9788   1.392   1.842  11.288
 2967SOL    HW2 9789   1.269   1.884  11.365
 2968SOL     OW 9790   1.301   2.327  11.851
 2968SOL    HW1 9791   1.248   2.406  11.852
 2968SOL    HW2 9792   1.292   2.291  11.939
 2969SOL     OW 9793   1.569   2.048  12.054
 2969SOL    HW1 9794   1.532   2.081  12.136
 2969SOL    HW2 9795   1.583   2.127  12.001
 2970SOL     OW 9796   0.047   2.905  11.418
 2970SOL    HW1 9797   0.141   2.892  11.411
 2970SOL    HW2 9798   0.011   2.817  11.432
 2971SOL     OW 9799   0.889   3.528  11.511
 2971SOL    HW1 9800   0.816   3.510  11.452
 2971SOL    HW2 9801   0.858   3.601  11.566
 2972SOL     OW 9802   0.227   2.492  13.151
 2972SOL    HW1 9803   0.134   2.498  13.172
 2972SOL    HW2 9804   0.229   2.457  13.062
 2973SOL     OW 9805   0.289   2.139   0.121
 2973SOL    HW1 9806   0.336   2.212   0.162
 2973SOL    HW2 9807   0.204   2.175   0.099
 2974SOL     OW 9808   3.996   2.213  13.668
 2974SOL    HW1 9809   3.904   2.237  13.667
 2974SOL    HW2 9810   0.016   2.192  13.577
 2975SOL     OW 9811   1.514   3.353  13.735
 2975SOL    HW1 9812   1.467   3.275  13.763
 2975SOL    HW2 9813   1.471   3.380  13.655
 2976SOL     OW 9814   1.136   2.555  13.720
 2976SOL    HW1 9815   1.183   2.637  13.710
 2976SOL    HW2 9816   1.085   2.566  13.801
 2977SOL     OW 9817   1.805   2.456  13.254
 2977SOL    HW1 9818   1.767   2.455  13.166
 2977SOL    HW2 9819   1.756   2.389  13.303
 2978SOL     OW 9820   0.689   2.872  13.670
 2978SOL    HW1 9821   0.739   2.855  13.750
 2978SOL    HW2 9822   0.615   2.925  13.699
 2979SOL     OW 9823   1.596   2.294  13.724
 2979SOL    HW1 9824   1.502   2.306  13.708
 2979SOL    HW2 9825   1.611   2.332  13.810
 2980SOL     OW 9826   0.223   3.569  13.506
 2980SOL    HW1 9827   0.244   3.628  13.579
 2980SOL    HW2 9828   0.296   3.577  13.446
 2981SOL     OW 9829   0.254   3.301  13.572
 2981SOL    HW1 9830   0.229   3.392  13.560
 2981SOL    HW2 9831   0.189   3.266  13.633
 2982SOL     OW 9832   0.259   2.932   0.011
 2982SOL    HW1 9833   0.276   2.901   0.100
 2982SOL    HW2 9834   0.220   3.019   0.023
 2983SOL     OW 9835   0.571   2.850  13.173
 2983SOL    HW1 9836   0.622   2.893  13.104
 2983SOL    HW2 9837   0.611   2.881  13.254
 2984SOL     OW 9838   0.139   2.524  13.611
 2984SOL    HW1 9839   0.058   2.478  13.587
 2984SOL    HW2 9840   0.112   2.589  13.675
 2985SOL     OW 9841   1.850   3.601  13.372
 2985SOL    HW1 9842   1.919   3.581  13.436
 2985SOL    HW2 9843   1.864   3.693  13.351
 2986SOL     OW 9844   0.040   3.448  13.172
 2986SOL    HW1 9845   0.039   3.357  13.203
 2986SOL    HW2 9846   3.954   3.482  13.196
 2987SOL     OW 9847   1.687   2.779  13.665
 2987SOL    HW1 9848   1.768   2.740  13.634
 2987SOL    HW2 9849   1.660   2.839  13.596
 2988SOL     OW 9850   1.651   2.966  13.459
 2988SOL    HW1 9851   1.737   2.962  13.417
 2988SOL    HW2 9852   1.659   3.034  13.526
 2989SOL     OW 9853   0.621   3.243  13.756
 2989SOL    HW1 9854   0.567   3.167  13.775
 2989SOL    HW2 9855   0.587   3.276  13.673
 2990SOL     OW 9856   0.827   1.868  13.546
 2990SOL    HW1 9857   0.864   1.954  13.523
 2990SOL    HW2 9858   0.733   1.883  13.551
 2991SOL     OW 9859   1.530   2.862  13.233
 2991SOL    HW1 9860   1.461   2.805  13.266
 2991SOL    HW2 9861   1.572   2.897  13.312
 2992SOL     OW 9862   1.650   3.602  13.612
 2992SOL    HW1 9863   1.629   3.570  13.524
 2992SOL    HW2 9864   1.642   3.525  13.668
 2993SOL     OW 9865   0.593   2.574  13.301
 2993SOL    HW1 9866   0.598   2.659  13.258
 2993SOL    HW2 9867   0.529   2.586  13.371
 2994SOL     OW 9868   1.243   2.191   0.034
 2994SOL    HW1 9869   1.189   2.123   0.074
 2994SOL    HW2 9870   1.328   2.182   0.075
 2995SOL     OW 9871   1.577   3.545  13.341
 2995SOL    HW1 9872   1.672   3.560  13.336
 2995SOL    HW2 9873   1.552   3.525  13.251
 2996SOL     OW 9874   1.054   2.559  13.454
 2996SOL    HW1 9875   1.073   2.548  13.548
 2996SOL    HW2 9876   0.971   2.513  13.442
 2997SOL     OW 9877   0.081   2.714  13.806
 2997SOL    HW1 9878   0.155   2.697  13.864
 2997SOL    HW2 9879   0.079   2.809  13.798
 2998SOL     OW 9880   0.899   2.210  13.227
 2998SOL    HW1 9881   0.939   2.274  13.169
 2998SOL    HW2 9882   0.912   2.126  13.184
 2999SOL     OW 9883   1.364   2.996  13.545
 2999SOL    HW1 9884   1.454   2.997  13.511
 2999SOL    HW2 9885   1.320   3.067  13.499
 3000SOL     OW 9886   0.993   3.303  13.498
 3000SOL    HW1 9887   0.967   3.381  13.449
 3000SOL    HW2 9888   0.958   3.317  13.586
 3001SOL     OW 9889   0.434   3.677  13.792
 3001SOL    HW1 9890   0.403   3.590  13.818
 3001SOL    HW2 9891   0.496   3.702  13.860
 3002SOL     OW 9892   1.786   2.901  13.899
 3002SOL    HW1 9893   1.734   2.887  13.820
 3002SOL    HW2 9894   1.723   2.900   0.070
 3003SOL     OW 9895   0.310   2.812  13.276
 3003SOL    HW1 9896   0.392   2.834  13.231
 3003SOL    HW2 9897   0.299   2.718  13.261
 3004SOL     OW 9898   1.494   2.595  13.742
 3004SOL    HW1 9899   1.493   2.552  13.827
 3004SOL    HW2 9900   1.569   2.655  13.745
 3005SOL     OW 9901   1.114   3.646  13.249
 3005SOL    HW1 9902   1.049   3.603  13.304
 3005SOL    HW2 9903   1.146   3.577  13.191
 3006SOL     OW 9904   1.628   3.245  13.128
 3006SOL    HW1 9905   1.589   3.330  13.110
 3006SOL    HW2 9906   1.560   3.182  13.105
 3007SOL     OW 9907   0.463   3.604  13.353
 3007SOL    HW1 9908   0.502   3.661  13.419
 3007SOL    HW2 9909   0.537   3.575  13.300
 3008SOL     OW 9910   1.404   1.970  13.473
 3008SOL    HW1 9911   1.391   1.946  13.381
 3008SOL    HW2 9912   1.478   1.917  13.502
 3009SOL     OW 9913   0.923   3.541   0.006
 3009SOL    HW1 9914   0.933   3.472   0.070
 3009SOL    HW2 9915   0.885   3.498  13.829
 3010SOL     OW 9916   0.396   2.556  13.501
 3010SOL    HW1 9917   0.422   2.465  13.514
 3010SOL    HW2 9918   0.305   2.560  13.530
 3011SOL     OW 9919   0.654   1.974  13.127
 3011SOL    HW1 9920   0.707   1.898  13.152
 3011SOL    HW2 9921   0.601   1.943  13.054
 3012SOL     OW 9922   0.561   1.923  13.523
 3012SOL    HW1 9923   0.478   1.926  13.571
 3012SOL    HW2 9924   0.562   2.004  13.472
 3013SOL     OW 9925   1.428   3.064  13.072
 3013SOL    HW1 9926   1.457   2.989  13.123
 3013SOL    HW2 9927   1.342   3.086  13.107
 3014SOL     OW 9928   0.310   1.911  13.200
 3014SOL    HW1 9929   0.372   1.950  13.138
 3014SOL    HW2 9930   0.363   1.848  13.250
 3015SOL     OW 9931   0.944   2.114  13.490
 3015SOL    HW1 9932   0.917   2.151  13.406
 3015SOL    HW2 9933   1.039   2.129  13.493
 3016SOL     OW 9934   0.469   3.007  13.754
 3016SOL    HW1 9935   0.401   2.979  13.816
 3016SOL    HW2 9936   0.428   2.997  13.668
 3017SOL     OW 9937   1.261   3.656  13.629
 3017SOL    HW1 9938   1.308   3.726  13.583
 3017SOL    HW2 9939   1.190   3.702  13.674
 3018SOL     OW 9940   1.025   2.393  13.061
 3018SOL    HW1 9941   0.982   2.476  13.042
 3018SOL    HW2 9942   1.090   2.414  13.128
 3019SOL     OW 9943   0.901   2.327  13.681
 3019SOL    HW1 9944   0.836   2.379  13.634
 3019SOL    HW2 9945   0.911   2.247  13.629
 3020SOL     OW 9946   1.022   1.887  13.768
 3020SOL    HW1 9947   0.964   1.895  13.692
 3020SOL    HW2 9948   0.988   1.812  13.816
 3021SOL     OW 9949   1.844   2.669  13.422
 3021SOL    HW1 9950   1.905   2.623  13.479
 3021SOL    HW2 9951   1.824   2.607  13.353
 3022SOL     OW 9952   0.488   3.286  13.190
 3022SOL    HW1 9953   0.410   3.257  13.239
 3022SOL    HW2 9954   0.477   3.247  13.103
 3023SOL     OW 9955   1.690   3.140  13.654
 3023SOL    HW1 9956   1.782   3.133  13.680
 3023SOL    HW2 9957   1.658   3.218  13.700
 3024SOL     OW 9958   1.393   2.437  13.102
 3024SOL    HW1 9959   1.334   2.414  13.174
 3024SOL    HW2 9960   1.480   2.413  13.134
 3025SOL     OW 9961   0.573   2.129  13.343
 3025SOL    HW1 9962   0.611   2.081  13.270
 3025SOL    HW2 9963   0.544   2.212  13.305
 3026SOL     OW 9964   0.709   2.925  13.399
 3026SOL    HW1 9965   0.696   2.909  13.492
 3026SOL    HW2 9966   0.785   2.873  13.376
 3027SOL     OW 9967   0.356   2.966  13.508
 3027SOL    HW1 9968   0.358   3.049  13.461
 3027SOL    HW2 9969   0.356   2.900  13.439
 3028SOL     OW 9970   0.566   2.411  13.875
 3028SOL    HW1 9971   0.571   2.471  13.801
 3028SOL    HW2 9972   0.642   2.431   0.028
 3029SOL     OW 9973   1.242   3.217  13.417
 3029SOL    HW1 9974   1.297   3.290  13.446
 3029SOL    HW2 9975   1.155   3.237  13.453
 3030SOL     OW 9976   1.577   2.500  13.488
 3030SOL    HW1 9977   1.536   2.522  13.571
 3030SOL    HW2 9978   1.615   2.583  13.458
 3031SOL     OW 9979   1.198   2.388  13.293
 3031SOL    HW1 9980   1.206   2.310  13.348
 3031SOL    HW2 9981   1.156   2.453  13.349
 3032SOL     OW 9982   0.311   1.919  13.639
 3032SOL    HW1 9983   0.295   2.009  13.666
 3032SOL    HW2 9984   0.336   1.873  13.719
 3033SOL     OW 9985   1.613   2.247  13.404
 3033SOL    HW1 9986   1.589   2.193  13.479
 3033SOL    HW2 9987   1.595   2.337  13.432
 3034SOL     OW 9988   1.529   2.130  13.162
 3034SOL    HW1 9989   1.464   2.066  13.191
 3034SOL    HW2 9990   1.562   2.170  13.243
 3035SOL     OW 9991   1.283   2.686  13.059
 3035SOL    HW1 9992   1.326   2.600  13.064
 3035SOL    HW2 9993   1.317   2.724  12.978
 3036SOL     OW 9994   4.000   3.174  13.213
 3036SOL    HW1 9995   3.906   3.190  13.218
 3036SOL    HW2 9996   0.009   3.080  13.231
 3037SOL     OW 9997   0.821   2.433  13.392
 3037SOL    HW1 9998   0.824   2.355  13.337
 3037SOL    HW2 9999   0.743   2.481  13.362
 3038SOL     OW10000   0.448   2.349  13.227
 3038SOL    HW110001   0.513   2.417  13.247
 3038SOL    HW210002   0.368   2.398  13.207
 3039SOL     OW10003   1.319   2.716  13.333
 3039SOL    HW110004   1.245   2.686  13.387
 3039SOL    HW210005   1.290   2.702  13.243
 3040SOL     OW10006   1.382   3.438  13.509
 3040SOL    HW110007   1.441   3.478  13.445
 3040SOL    HW210008   1.334   3.512  13.546
 3041SOL     OW10009   1.292   2.776  13.685
 3041SOL    HW110010   1.367   2.718  13.675
 3041SOL    HW210011   1.316   2.856  13.638
 3042SOL     OW10012   0.673   3.485  13.194
 3042SOL    HW110013   0.684   3.502  13.101
 3042SOL    HW210014   0.614   3.409  13.198
 3043SOL     OW10015   0.286   2.172  13.734
 3043SOL    HW110016   0.202   2.217  13.726
 3043SOL    HW210017   0.299   2.165  13.829
 3044SOL     OW10018   1.209   3.461  13.072
 3044SOL    HW110019   1.198   3.369  13.096
 3044SOL    HW210020   1.147   3.474  13.000
 3045SOL     OW10021   0.920   2.775  13.332
 3045SOL    HW110022   0.977   2.806  13.261
 3045SOL    HW210023   0.968   2.703  13.372
 3046SOL     OW10024   1.488   3.496  13.079
 3046SOL    HW110025   1.395   3.482  13.062
 3046SOL    HW210026   1.527   3.501  12.991
 3047SOL     OW10027   1.050   2.952  13.756
 3047SOL    HW110028   0.967   2.920  13.722
 3047SOL    HW210029   1.115   2.921  13.692
 3048SOL     OW10030   0.601   3.358  13.500
 3048SOL    HW110031   0.649   3.305  13.436
 3048SOL    HW210032   0.527   3.393  13.451
 3049SOL     OW10033   0.253   3.201  13.323
 3049SOL    HW110034   0.159   3.204  13.307
 3049SOL    HW210035   0.264   3.239  13.410
 3050SOL     OW10036   0.080   2.165  13.068
 3050SOL    HW110037   3.984   2.166  13.079
 3050SOL    HW210038   0.099   2.248  13.025
 3051SOL     OW10039   0.016   2.114  13.415
 3051SOL    HW110040   0.054   2.174  13.350
 3051SOL    HW210041   0.089   2.057  13.440
 3052SOL     OW10042   1.176   3.193  13.148
 3052SOL    HW110043   1.084   3.168  13.149
 3052SOL    HW210044   1.200   3.195  13.241
 3053SOL     OW10045   1.218   2.181  13.487
 3053SOL    HW110046   1.280   2.108  13.482
 3053SOL    HW210047   1.247   2.232  13.563
 3054SOL     OW10048   0.594   2.610  13.689
 3054SOL    HW110049   0.628   2.697  13.672
 3054SOL    HW210050   0.524   2.598  13.624
 3055SOL     OW10051   0.869   3.226  13.081
 3055SOL    HW110052   0.827   3.250  13.164
 3055SOL    HW210053   0.878   3.309  13.034
 3056SOL     OW10054   0.656   3.722   0.068
 3056SOL    HW110055   0.653   3.813   0.098
 3056SOL    HW210056   0.748   3.697   0.075
 3057SOL     OW10057   0.816   2.829   0.006
 3057SOL    HW110058   0.832   2.742   0.041
 3057SOL    HW210059   0.876   2.886   0.054
 3058SOL     OW10060   1.072   2.846  13.121
 3058SOL    HW110061   1.053   2.901  13.045
 3058SOL    HW210062   1.147   2.793  13.095
 3059SOL     OW10063   0.115   3.145  13.771
 3059SOL    HW110064   0.043   3.117  13.827
 3059SOL    HW210065   0.111   3.087  13.695
 3060SOL     OW10066   0.452   2.300  13.554
 3060SOL    HW110067   0.471   2.227  13.495
 3060SOL    HW210068   0.404   2.261  13.627
 3061SOL     OW10069   1.681   3.304   0.363
 3061SOL    HW110070   1.649   3.287   0.274
 3061SOL    HW210071   1.775   3.289   0.358
 3062SOL     OW10072   0.820   3.413  13.695
 3062SOL    HW110073   0.779   3.460  13.622
 3062SOL    HW210074   0.753   3.350  13.724
 3063SOL     OW10075   0.773   3.196  13.350
 3063SOL    HW110076   0.747   3.104  13.360
 3063SOL    HW210077   0.853   3.204  13.403
 3064SOL     OW10078   1.358   1.910  13.208
 3064SOL    HW110079   1.389   1.845  13.145
 3064SOL    HW210080   1.268   1.883  13.228
 3065SOL     OW10081   1.307   2.324  13.705
 3065SOL    HW110082   1.256   2.405  13.708
 3065SOL    HW210083   1.282   2.277  13.785
 3066SOL     OW10084   0.047   2.906  13.274
 3066SOL    HW110085   0.142   2.892  13.267
 3066SOL    HW210086   0.011   2.819  13.290
 3067SOL     OW10087   0.890   3.528  13.373
 3067SOL    HW110088   0.816   3.511  13.315
 3067SOL    HW210089   0.862   3.599  13.430
 3068SOL     OW10090   0.234   3.934   0.952
 3068SOL    HW110091   0.260   3.954   1.042
 3068SOL    HW210092   0.140   3.954   0.950
 3069SOL     OW10093   0.012   0.105   0.620
 3069SOL    HW110094   3.924   0.080   0.650
 3069SOL    HW210095   0.027   0.050   0.543
 3070SOL     OW10096   1.812   0.351   0.281
 3070SOL    HW110097   1.793   0.295   0.206
 3070SOL    HW210098   1.727   0.363   0.324
 3071SOL     OW10099   0.439   0.091   1.506
 3071SOL    HW110100   0.512   0.052   1.456
 3071SOL    HW210101   0.364   0.036   1.484
 3072SOL     OW10102   1.591   3.852   1.454
 3072SOL    HW110103   1.605   3.938   1.414
 3072SOL    HW210104   1.572   3.872   1.546
 3073SOL     OW10105   0.811   3.729   0.516
 3073SOL    HW110106   0.836   3.820   0.505
 3073SOL    HW210107   0.715   3.731   0.522
 3074SOL     OW10108   1.266   0.062   0.930
 3074SOL    HW110109   1.189   0.011   0.906
 3074SOL    HW210110   1.321   0.002   0.981
 3075SOL     OW10111   0.561   3.906   0.895
 3075SOL    HW110112   0.558   3.927   0.989
 3075SOL    HW210113   0.554   3.990   0.852
 3076SOL     OW10114   0.185   3.973   1.498
 3076SOL    HW110115   0.095   0.006   1.506
 3076SOL    HW210116   0.183   3.887   1.540
 3077SOL     OW10117   1.412   3.831   0.443
 3077SOL    HW110118   1.411   3.791   0.356
 3077SOL    HW210119   1.505   3.833   0.467
 3078SOL     OW10120   1.531   3.935   1.718
 3078SOL    HW110121   1.556   3.937   1.810
 3078SOL    HW210122   1.458   3.873   1.714
 3079SOL     OW10123   0.772   3.949   1.737
 3079SOL    HW110124   0.824   3.920   1.812
 3079SOL    HW210125   0.686   3.968   1.774
 3080SOL     OW10126   0.539   3.779   0.522
 3080SOL    HW110127   0.488   3.777   0.603
 3080SOL    HW210128   0.546   3.872   0.501
 3081SOL     OW10129   0.263   3.737   0.175
 3081SOL    HW110130   0.298   3.826   0.168
 3081SOL    HW210131   0.331   3.687   0.219
 3082SOL     OW10132   0.563   3.946   1.172
 3082SOL    HW110133   0.608   3.885   1.230
 3082SOL    HW210134   0.471   3.940   1.198
 3083SOL     OW10135   1.022   3.764   0.721
 3083SOL    HW110136   0.955   3.752   0.654
 3083SOL    HW210137   0.998   3.703   0.790
 3084SOL     OW10138   0.926   3.798   1.392
 3084SOL    HW110139   0.956   3.777   1.304
 3084SOL    HW210140   1.000   3.844   1.432
 3085SOL     OW10141   1.266   0.068   1.266
 3085SOL    HW110142   1.270   0.140   1.329
 3085SOL    HW210143   1.194   0.091   1.208
 3086SOL     OW10144   0.510   3.752   1.761
 3086SOL    HW110145   0.454   3.708   1.697
 3086SOL    HW210146   0.484   3.844   1.756
 3087SOL     OW10147   0.302   3.924   1.254
 3087SOL    HW110148   0.251   3.940   1.334
 3087SOL    HW210149   0.291   3.831   1.237
 3088SOL     OW10150   1.598   3.931   0.162
 3088SOL    HW110151   1.520   3.876   0.157
 3088SOL    HW210152   1.567   0.016   0.190
 3089SOL     OW10153   1.163   3.915   1.474
 3089SOL    HW110154   1.163   3.993   1.530
 3089SOL    HW210155   1.209   3.943   1.395
 3090SOL     OW10156   0.931   3.827   0.145
 3090SOL    HW110157   0.957   3.819   0.053
 3090SOL    HW210158   0.992   3.771   0.192
 3091SOL     OW10159   1.696   3.853   0.507
 3091SOL    HW110160   1.774   3.843   0.452
 3091SOL    HW210161   1.689   3.771   0.554
 3092SOL     OW10162   1.838   3.872   0.974
 3092SOL    HW110163   1.871   3.789   0.940
 3092SOL    HW210164   1.759   3.889   0.923
 3093SOL     OW10165   0.683   3.906   1.481
 3093SOL    HW110166   0.767   3.891   1.438
 3093SOL    HW210167   0.705   3.929   1.571
 3094SOL     OW10168   0.034   0.003   0.037
 3094SOL    HW110169   3.947   0.011  13.898
 3094SOL    HW210170   0.076   0.087   0.018
 3095SOL     OW10171   0.115   3.939   0.383
 3095SOL    HW110172   0.069   3.975   0.307
 3095SOL    HW210173   0.169   3.869   0.346
 3096SOL     OW10174   1.201   0.013   0.457
 3096SOL    HW110175   1.253   3.933   0.467
 3096SOL    HW210176   1.213   0.061   0.539
 3097SOL     OW10177   1.787   0.034   1.637
 3097SOL    HW110178   1.756   0.074   1.555
 3097SOL    HW210179   1.709   3.991   1.673
 3098SOL     OW10180   1.815   3.912   1.240
 3098SOL    HW110181   1.818   3.822   1.272
 3098SOL    HW210182   1.822   3.904   1.145
 3099SOL     OW10183   1.439   3.930   1.116
 3099SOL    HW110184   1.469   3.850   1.158
 3099SOL    HW210185   1.382   3.972   1.180
 3100SOL     OW10186   1.021   3.739   1.141
 3100SOL    HW110187   0.963   3.686   1.086
 3100SOL    HW210188   1.106   3.694   1.137
 3101SOL     OW10189   1.358   3.783   0.152
 3101SOL    HW110190   1.400   3.709   0.106
 3101SOL    HW210191   1.274   3.748   0.182
 3102SOL     OW10192   1.283   0.163   0.675
 3102SOL    HW110193   1.283   0.258   0.684
 3102SOL    HW210194   1.286   0.130   0.764
 3103SOL     OW10195   1.581   3.924   0.883
 3103SOL    HW110196   1.532   3.930   0.965
 3103SOL    HW210197   1.582   0.013   0.848
 3104SOL     OW10198   0.236   3.939   2.811
 3104SOL    HW110199   0.262   3.955   2.902
 3104SOL    HW210200   0.142   3.956   2.809
 3105SOL     OW10201   0.004   0.109   2.476
 3105SOL    HW110202   3.919   0.083   2.512
 3105SOL    HW210203   0.019   0.046   2.405
 3106SOL     OW10204   1.776   0.313   2.045
 3106SOL    HW110205   1.703   0.288   1.987
 3106SOL    HW210206   1.733   0.339   2.126
 3107SOL     OW10207   0.439   0.090   3.368
 3107SOL    HW110208   0.512   0.052   3.318
 3107SOL    HW210209   0.364   0.036   3.346
 3108SOL     OW10210   1.590   3.852   3.316
 3108SOL    HW110211   1.605   3.938   3.276
 3108SOL    HW210212   1.571   3.871   3.408
 3109SOL     OW10213   0.809   3.732   2.375
 3109SOL    HW110214   0.834   3.824   2.367
 3109SOL    HW210215   0.714   3.733   2.382
 3110SOL     OW10216   1.264   0.063   2.798
 3110SOL    HW110217   1.190   0.011   2.769
 3110SOL    HW210218   1.320   0.001   2.845
 3111SOL     OW10219   0.561   3.906   2.758
 3111SOL    HW110220   0.558   3.925   2.852
 3111SOL    HW210221   0.556   3.992   2.716
 3112SOL     OW10222   0.185   3.973   3.360
 3112SOL    HW110223   0.096   0.005   3.367
 3112SOL    HW210224   0.183   3.887   3.402
 3113SOL     OW10225   1.409   3.824   2.304
 3113SOL    HW110226   1.401   3.795   2.213
 3113SOL    HW210227   1.503   3.826   2.321
 3114SOL     OW10228   1.531   3.935   3.580
 3114SOL    HW110229   1.556   3.937   3.672
 3114SOL    HW210230   1.458   3.873   3.576
 3115SOL     OW10231   0.632   3.849   1.995
 3115SOL    HW110232   0.723   3.818   1.990
 3115SOL    HW210233   0.586   3.799   1.927
 3116SOL     OW10234   0.772   3.949   3.599
 3116SOL    HW110235   0.824   3.920   3.674
 3116SOL    HW210236   0.686   3.968   3.636
 3117SOL     OW10237   0.538   3.783   2.381
 3117SOL    HW110238   0.488   3.783   2.463
 3117SOL    HW210239   0.544   3.875   2.357
 3118SOL     OW10240   0.284   3.763   2.039
 3118SOL    HW110241   0.320   3.852   2.038
 3118SOL    HW210242   0.352   3.711   2.082
 3119SOL     OW10243   0.563   3.946   3.034
 3119SOL    HW110244   0.608   3.885   3.093
 3119SOL    HW210245   0.471   3.940   3.060
 3120SOL     OW10246   1.021   3.764   2.583
 3120SOL    HW110247   0.955   3.751   2.515
 3120SOL    HW210248   0.997   3.702   2.652
 3121SOL     OW10249   0.926   3.798   3.254
 3121SOL    HW110250   0.956   3.777   3.166
 3121SOL    HW210251   1.000   3.844   3.294
 3122SOL     OW10252   1.267   0.068   3.128
 3122SOL    HW110253   1.271   0.140   3.191
 3122SOL    HW210254   1.196   0.092   3.068
 3123SOL     OW10255   0.510   3.752   3.622
 3123SOL    HW110256   0.454   3.708   3.559
 3123SOL    HW210257   0.484   3.844   3.618
 3124SOL     OW10258   0.302   3.924   3.116
 3124SOL    HW110259   0.252   3.940   3.195
 3124SOL    HW210260   0.290   3.831   3.098
 3125SOL     OW10261   1.578   3.948   1.978
 3125SOL    HW110262   1.518   3.893   2.029
 3125SOL    HW210263   1.621   0.003   2.044
 3126SOL     OW10264   1.163   3.915   3.336
 3126SOL    HW110265   1.163   3.993   3.392
 3126SOL    HW210266   1.209   3.944   3.257
 3127SOL     OW10267   0.902   3.808   1.956
 3127SOL    HW110268   0.954   3.755   1.896
 3127SOL    HW210269   0.949   3.804   2.039
 3128SOL     OW10270   1.698   3.853   2.343
 3128SOL    HW110271   1.778   3.843   2.292
 3128SOL    HW210272   1.692   3.774   2.397
 3129SOL     OW10273   1.837   3.872   2.838
 3129SOL    HW110274   1.872   3.790   2.803
 3129SOL    HW210275   1.760   3.890   2.785
 3130SOL     OW10276   0.683   3.906   3.343
 3130SOL    HW110277   0.767   3.891   3.300
 3130SOL    HW210278   0.705   3.929   3.433
 3131SOL     OW10279   0.072   0.009   1.865
 3131SOL    HW110280   3.976   0.015   1.867
 3131SOL    HW210281   0.101   0.100   1.869
 3132SOL     OW10282   0.109   3.932   2.240
 3132SOL    HW110283   0.079   0.013   2.197
 3132SOL    HW210284   0.190   3.909   2.193
 3133SOL     OW10285   1.209   0.017   2.316
 3133SOL    HW110286   1.266   3.941   2.326
 3133SOL    HW210287   1.219   0.065   2.398
 3134SOL     OW10288   1.787   0.034   3.499
 3134SOL    HW110289   1.756   0.074   3.418
 3134SOL    HW210290   1.709   3.991   3.535
 3135SOL     OW10291   1.815   3.913   3.103
 3135SOL    HW110292   1.818   3.823   3.135
 3135SOL    HW210293   1.822   3.904   3.008
 3136SOL     OW10294   1.440   3.929   2.979
 3136SOL    HW110295   1.471   3.851   3.024
 3136SOL    HW210296   1.382   3.972   3.042
 3137SOL     OW10297   1.021   3.739   3.003
 3137SOL    HW110298   0.963   3.686   2.949
 3137SOL    HW210299   1.106   3.694   2.999
 3138SOL     OW10300   1.357   3.770   2.033
 3138SOL    HW110301   1.394   3.701   1.978
 3138SOL    HW210302   1.268   3.740   2.053
 3139SOL     OW10303   1.280   0.162   2.541
 3139SOL    HW110304   1.286   0.258   2.547
 3139SOL    HW210305   1.283   0.132   2.632
 3140SOL     OW10306   1.581   3.923   2.745
 3140SOL    HW110307   1.533   3.930   2.827
 3140SOL    HW210308   1.583   0.012   2.710
 3141SOL     OW10309   0.236   3.939   4.673
 3141SOL    HW110310   0.261   3.955   4.764
 3141SOL    HW210311   0.142   3.956   4.671
 3142SOL     OW10312   0.004   0.108   4.338
 3142SOL    HW110313   3.919   0.083   4.374
 3142SOL    HW210314   0.019   0.046   4.267
 3143SOL     OW10315   1.776   0.313   3.907
 3143SOL    HW110316   1.703   0.288   3.849
 3143SOL    HW210317   1.733   0.339   3.989
 3144SOL     OW10318   0.439   0.090   5.230
 3144SOL    HW110319   0.512   0.053   5.180
 3144SOL    HW210320   0.364   0.036   5.208
 3145SOL     OW10321   1.590   3.852   5.178
 3145SOL    HW110322   1.605   3.938   5.138
 3145SOL    HW210323   1.571   3.872   5.270
 3146SOL     OW10324   0.809   3.732   4.237
 3146SOL    HW110325   0.834   3.824   4.229
 3146SOL    HW210326   0.714   3.733   4.244
 3147SOL     OW10327   1.264   0.063   4.660
 3147SOL    HW110328   1.190   0.011   4.631
 3147SOL    HW210329   1.320   0.001   4.707
 3148SOL     OW10330   0.561   3.906   4.620
 3148SOL    HW110331   0.558   3.925   4.713
 3148SOL    HW210332   0.556   3.992   4.578
 3149SOL     OW10333   0.185   3.973   5.222
 3149SOL    HW110334   0.095   0.005   5.229
 3149SOL    HW210335   0.183   3.887   5.264
 3150SOL     OW10336   1.409   3.824   4.166
 3150SOL    HW110337   1.401   3.795   4.075
 3150SOL    HW210338   1.503   3.826   4.183
 3151SOL     OW10339   1.531   3.935   5.442
 3151SOL    HW110340   1.556   3.937   5.534
 3151SOL    HW210341   1.458   3.873   5.438
 3152SOL     OW10342   0.632   3.849   3.857
 3152SOL    HW110343   0.723   3.818   3.852
 3152SOL    HW210344   0.586   3.799   3.789
 3153SOL     OW10345   0.772   3.949   5.461
 3153SOL    HW110346   0.824   3.920   5.536
 3153SOL    HW210347   0.685   3.968   5.498
 3154SOL     OW10348   0.538   3.783   4.243
 3154SOL    HW110349   0.488   3.783   4.325
 3154SOL    HW210350   0.544   3.875   4.219
 3155SOL     OW10351   0.284   3.763   3.901
 3155SOL    HW110352   0.320   3.852   3.900
 3155SOL    HW210353   0.352   3.711   3.944
 3156SOL     OW10354   0.563   3.946   4.896
 3156SOL    HW110355   0.608   3.885   4.954
 3156SOL    HW210356   0.471   3.940   4.922
 3157SOL     OW10357   1.021   3.764   4.445
 3157SOL    HW110358   0.955   3.751   4.377
 3157SOL    HW210359   0.997   3.702   4.514
 3158SOL     OW10360   0.926   3.798   5.116
 3158SOL    HW110361   0.956   3.777   5.028
 3158SOL    HW210362   1.000   3.844   5.156
 3159SOL     OW10363   1.267   0.068   4.990
 3159SOL    HW110364   1.271   0.140   5.053
 3159SOL    HW210365   1.197   0.092   4.930
 3160SOL     OW10366   0.510   3.752   5.485
 3160SOL    HW110367   0.454   3.708   5.421
 3160SOL    HW210368   0.484   3.844   5.480
 3161SOL     OW10369   0.302   3.924   4.978
 3161SOL    HW110370   0.251   3.940   5.057
 3161SOL    HW210371   0.291   3.831   4.960
 3162SOL     OW10372   1.578   3.948   3.840
 3162SOL    HW110373   1.518   3.893   3.891
 3162SOL    HW210374   1.621   0.003   3.905
 3163SOL     OW10375   1.163   3.916   5.198
 3163SOL    HW110376   1.162   3.994   5.253
 3163SOL    HW210377   1.209   3.943   5.119
 3164SOL     OW10378   0.902   3.808   3.818
 3164SOL    HW110379   0.954   3.755   3.758
 3164SOL    HW210380   0.949   3.804   3.901
 3165SOL     OW10381   1.698   3.853   4.205
 3165SOL    HW110382   1.778   3.843   4.154
 3165SOL    HW210383   1.692   3.774   4.259
 3166SOL     OW10384   1.837   3.872   4.700
 3166SOL    HW110385   1.872   3.790   4.665
 3166SOL    HW210386   1.760   3.890   4.647
 3167SOL     OW10387   0.683   3.906   5.205
 3167SOL    HW110388   0.767   3.891   5.162
 3167SOL    HW210389   0.705   3.929   5.295
 3168SOL     OW10390   0.072   0.010   3.727
 3168SOL    HW110391   3.976   0.015   3.729
 3168SOL    HW210392   0.101   0.101   3.731
 3169SOL     OW10393   0.109   3.932   4.102
 3169SOL    HW110394   0.080   0.013   4.059
 3169SOL    HW210395   0.190   3.909   4.055
 3170SOL     OW10396   1.208   0.017   4.178
 3170SOL    HW110397   1.266   3.941   4.188
 3170SOL    HW210398   1.219   0.065   4.260
 3171SOL     OW10399   1.787   0.034   5.361
 3171SOL    HW110400   1.756   0.074   5.280
 3171SOL    HW210401   1.709   3.991   5.397
 3172SOL     OW10402   1.815   3.913   4.965
 3172SOL    HW110403   1.819   3.823   4.997
 3172SOL    HW210404   1.822   3.904   4.870
 3173SOL     OW10405   1.440   3.929   4.841
 3173SOL    HW110406   1.471   3.850   4.886
 3173SOL    HW210407   1.383   3.972   4.904
 3174SOL     OW10408   1.021   3.739   4.865
 3174SOL    HW110409   0.963   3.686   4.811
 3174SOL    HW210410   1.106   3.694   4.861
 3175SOL     OW10411   1.357   3.770   3.895
 3175SOL    HW110412   1.394   3.701   3.840
 3175SOL    HW210413   1.268   3.740   3.915
 3176SOL     OW10414   1.280   0.162   4.403
 3176SOL    HW110415   1.286   0.258   4.409
 3176SOL    HW210416   1.283   0.132   4.494
 3177SOL     OW10417   1.581   3.923   4.607
 3177SOL    HW110418   1.533   3.930   4.689
 3177SOL    HW210419   1.583   0.012   4.572
 3178SOL     OW10420   0.236   3.938   6.535
 3178SOL    HW110421   0.262   3.956   6.625
 3178SOL    HW210422   0.142   3.955   6.533
 3179SOL     OW10423   0.004   0.109   6.200
 3179SOL    HW110424   3.920   0.083   6.236
 3179SOL    HW210425   0.020   0.047   6.129
 3180SOL     OW10426   1.775   0.312   5.770
 3180SOL    HW110427   1.703   0.287   5.712
 3180SOL    HW210428   1.732   0.338   5.852
 3181SOL     OW10429   0.439   0.091   7.092
 3181SOL    HW110430   0.512   0.053   7.042
 3181SOL    HW210431   0.364   0.036   7.070
 3182SOL     OW10432   1.590   3.852   7.040
 3182SOL    HW110433   1.605   3.938   7.000
 3182SOL    HW210434   1.571   3.871   7.132
 3183SOL     OW10435   0.809   3.731   6.099
 3183SOL    HW110436   0.834   3.823   6.091
 3183SOL    HW210437   0.714   3.733   6.106
 3184SOL     OW10438   1.264   0.063   6.522
 3184SOL    HW110439   1.190   0.011   6.493
 3184SOL    HW210440   1.320   0.000   6.569
 3185SOL     OW10441   0.561   3.906   6.482
 3185SOL    HW110442   0.558   3.925   6.576
 3185SOL    HW210443   0.556   3.992   6.440
 3186SOL     OW10444   0.185   3.973   7.084
 3186SOL    HW110445   0.096   0.005   7.091
 3186SOL    HW210446   0.183   3.887   7.126
 3187SOL     OW10447   1.409   3.824   6.028
 3187SOL    HW110448   1.401   3.795   5.938
 3187SOL    HW210449   1.503   3.826   6.045
 3188SOL     OW10450   1.532   3.934   7.304
 3188SOL    HW110451   1.557   3.936   7.396
 3188SOL    HW210452   1.459   3.873   7.300
 3189SOL     OW10453   0.632   3.849   5.719
 3189SOL    HW110454   0.723   3.818   5.714
 3189SOL    HW210455   0.586   3.799   5.651
 3190SOL     OW10456   0.772   3.949   7.323
 3190SOL    HW110457   0.824   3.920   7.398
 3190SOL    HW210458   0.686   3.969   7.360
 3191SOL     OW10459   0.538   3.783   6.105
 3191SOL    HW110460   0.488   3.783   6.187
 3191SOL    HW210461   0.544   3.875   6.080
 3192SOL     OW10462   0.284   3.763   5.764
 3192SOL    HW110463   0.320   3.852   5.762
 3192SOL    HW210464   0.352   3.711   5.806
 3193SOL     OW10465   0.563   3.946   6.758
 3193SOL    HW110466   0.609   3.885   6.817
 3193SOL    HW210467   0.471   3.940   6.784
 3194SOL     OW10468   1.021   3.763   6.307
 3194SOL    HW110469   0.955   3.751   6.239
 3194SOL    HW210470   0.997   3.702   6.376
 3195SOL     OW10471   0.926   3.798   6.979
 3195SOL    HW110472   0.956   3.777   6.890
 3195SOL    HW210473   1.000   3.844   7.018
 3196SOL     OW10474   1.267   0.068   6.852
 3196SOL    HW110475   1.271   0.140   6.915
 3196SOL    HW210476   1.197   0.093   6.792
 3197SOL     OW10477   0.510   3.752   7.347
 3197SOL    HW110478   0.454   3.708   7.282
 3197SOL    HW210479   0.485   3.844   7.342
 3198SOL     OW10480   0.302   3.924   6.840
 3198SOL    HW110481   0.251   3.940   6.919
 3198SOL    HW210482   0.291   3.831   6.822
 3199SOL     OW10483   1.578   3.948   5.702
 3199SOL    HW110484   1.519   3.893   5.753
 3199SOL    HW210485   1.624   0.001   5.767
 3200SOL     OW10486   1.163   3.916   7.060
 3200SOL    HW110487   1.163   3.993   7.116
 3200SOL    HW210488   1.209   3.944   6.980
 3201SOL     OW10489   0.902   3.808   5.680
 3201SOL    HW110490   0.954   3.755   5.620
 3201SOL    HW210491   0.949   3.804   5.763
 3202SOL     OW10492   1.697   3.854   6.067
 3202SOL    HW110493   1.778   3.843   6.016
 3202SOL    HW210494   1.692   3.774   6.121
 3203SOL     OW10495   1.837   3.872   6.561
 3203SOL    HW110496   1.872   3.790   6.527
 3203SOL    HW210497   1.759   3.890   6.509
 3204SOL     OW10498   0.683   3.906   7.067
 3204SOL    HW110499   0.767   3.891   7.024
 3204SOL    HW210500   0.705   3.929   7.157
 3205SOL     OW10501   0.071   0.009   5.590
 3205SOL    HW110502   3.976   0.015   5.591
 3205SOL    HW210503   0.101   0.100   5.593
 3206SOL     OW10504   0.110   3.932   5.964
 3206SOL    HW110505   0.080   0.013   5.922
 3206SOL    HW210506   0.189   3.908   5.917
 3207SOL     OW10507   1.207   0.016   6.041
 3207SOL    HW110508   1.266   3.940   6.050
 3207SOL    HW210509   1.219   0.065   6.122
 3208SOL     OW10510   1.787   0.035   7.222
 3208SOL    HW110511   1.755   0.075   7.141
 3208SOL    HW210512   1.711   3.991   7.259
 3209SOL     OW10513   1.815   3.912   6.827
 3209SOL    HW110514   1.818   3.822   6.859
 3209SOL    HW210515   1.822   3.904   6.732
 3210SOL     OW10516   1.440   3.929   6.703
 3210SOL    HW110517   1.473   3.852   6.750
 3210SOL    HW210518   1.382   3.972   6.766
 3211SOL     OW10519   1.021   3.739   6.727
 3211SOL    HW110520   0.963   3.687   6.673
 3211SOL    HW210521   1.105   3.694   6.722
 3212SOL     OW10522   1.357   3.770   5.757
 3212SOL    HW110523   1.395   3.701   5.702
 3212SOL    HW210524   1.269   3.739   5.777
 3213SOL     OW10525   1.279   0.162   6.265
 3213SOL    HW110526   1.286   0.257   6.271
 3213SOL    HW210527   1.283   0.132   6.356
 3214SOL     OW10528   1.580   3.923   6.469
 3214SOL    HW110529   1.532   3.930   6.551
 3214SOL    HW210530   1.582   0.012   6.434
 3215SOL     OW10531   0.236   3.939   8.397
 3215SOL    HW110532   0.261   3.956   8.487
 3215SOL    HW210533   0.141   3.956   8.395
 3216SOL     OW10534   0.004   0.109   8.062
 3216SOL    HW110535   3.919   0.083   8.098
 3216SOL    HW210536   0.020   0.047   7.991
 3217SOL     OW10537   1.775   0.311   7.632
 3217SOL    HW110538   1.703   0.287   7.574
 3217SOL    HW210539   1.732   0.339   7.713
 3218SOL     OW10540   0.439   0.091   8.954
 3218SOL    HW110541   0.512   0.053   8.904
 3218SOL    HW210542   0.364   0.036   8.931
 3219SOL     OW10543   1.591   3.852   8.902
 3219SOL    HW110544   1.605   3.938   8.862
 3219SOL    HW210545   1.572   3.871   8.994
 3220SOL     OW10546   0.809   3.732   7.961
 3220SOL    HW110547   0.834   3.824   7.953
 3220SOL    HW210548   0.714   3.733   7.968
 3221SOL     OW10549   1.264   0.063   8.385
 3221SOL    HW110550   1.189   0.012   8.354
 3221SOL    HW210551   1.320   0.000   8.430
 3222SOL     OW10552   0.561   3.906   8.344
 3222SOL    HW110553   0.558   3.925   8.437
 3222SOL    HW210554   0.556   3.992   8.301
 3223SOL     OW10555   0.185   3.973   8.946
 3223SOL    HW110556   0.096   0.005   8.953
 3223SOL    HW210557   0.183   3.887   8.988
 3224SOL     OW10558   1.409   3.824   7.890
 3224SOL    HW110559   1.401   3.795   7.799
 3224SOL    HW210560   1.503   3.826   7.907
 3225SOL     OW10561   1.531   3.935   9.166
 3225SOL    HW110562   1.556   3.936   9.258
 3225SOL    HW210563   1.458   3.873   9.162
 3226SOL     OW10564   0.632   3.849   7.581
 3226SOL    HW110565   0.723   3.818   7.576
 3226SOL    HW210566   0.587   3.799   7.513
 3227SOL     OW10567   0.772   3.949   9.186
 3227SOL    HW110568   0.824   3.920   9.260
 3227SOL    HW210569   0.686   3.968   9.222
 3228SOL     OW10570   0.538   3.783   7.967
 3228SOL    HW110571   0.488   3.783   8.049
 3228SOL    HW210572   0.544   3.875   7.942
 3229SOL     OW10573   0.284   3.763   7.626
 3229SOL    HW110574   0.320   3.852   7.624
 3229SOL    HW210575   0.352   3.711   7.668
 3230SOL     OW10576   0.563   3.946   8.620
 3230SOL    HW110577   0.609   3.884   8.678
 3230SOL    HW210578   0.471   3.940   8.646
 3231SOL     OW10579   1.021   3.764   8.169
 3231SOL    HW110580   0.955   3.751   8.101
 3231SOL    HW210581   0.997   3.702   8.238
 3232SOL     OW10582   0.926   3.798   8.840
 3232SOL    HW110583   0.955   3.777   8.752
 3232SOL    HW210584   1.000   3.844   8.880
 3233SOL     OW10585   1.266   0.068   8.714
 3233SOL    HW110586   1.270   0.141   8.776
 3233SOL    HW210587   1.197   0.092   8.653
 3234SOL     OW10588   0.510   3.752   9.209
 3234SOL    HW110589   0.454   3.708   9.145
 3234SOL    HW210590   0.485   3.844   9.204
 3235SOL     OW10591   0.302   3.924   8.702
 3235SOL    HW110592   0.252   3.940   8.782
 3235SOL    HW210593   0.291   3.831   8.684
 3236SOL     OW10594   1.578   3.947   7.564
 3236SOL    HW110595   1.517   3.893   7.614
 3236SOL    HW210596   1.618   0.005   7.629
 3237SOL     OW10597   1.163   3.916   8.922
 3237SOL    HW110598   1.162   3.994   8.977
 3237SOL    HW210599   1.209   3.943   8.843
 3238SOL     OW10600   0.902   3.808   7.542
 3238SOL    HW110601   0.954   3.755   7.482
 3238SOL    HW210602   0.949   3.804   7.625
 3239SOL     OW10603   1.698   3.854   7.930
 3239SOL    HW110604   1.778   3.843   7.878
 3239SOL    HW210605   1.693   3.774   7.983
 3240SOL     OW10606   1.837   3.872   8.424
 3240SOL    HW110607   1.871   3.789   8.389
 3240SOL    HW210608   1.760   3.890   8.371
 3241SOL     OW10609   0.683   3.906   8.929
 3241SOL    HW110610   0.767   3.891   8.886
 3241SOL    HW210611   0.706   3.929   9.019
 3242SOL     OW10612   0.071   0.009   7.452
 3242SOL    HW110613   3.975   0.015   7.454
 3242SOL    HW210614   0.101   0.100   7.455
 3243SOL     OW10615   0.110   3.933   7.827
 3243SOL    HW110616   0.080   0.013   7.784
 3243SOL    HW210617   0.189   3.908   7.780
 3244SOL     OW10618   1.207   0.015   7.903
 3244SOL    HW110619   1.266   3.941   7.912
 3244SOL    HW210620   1.219   0.065   7.985
 3245SOL     OW10621   1.787   0.034   9.085
 3245SOL    HW110622   1.756   0.074   9.004
 3245SOL    HW210623   1.709   3.991   9.121
 3246SOL     OW10624   1.816   3.913   8.689
 3246SOL    HW110625   1.818   3.822   8.721
 3246SOL    HW210626   1.823   3.904   8.594
 3247SOL     OW10627   1.441   3.929   8.565
 3247SOL    HW110628   1.469   3.850   8.609
 3247SOL    HW210629   1.382   3.972   8.628
 3248SOL     OW10630   1.021   3.739   8.589
 3248SOL    HW110631   0.963   3.686   8.534
 3248SOL    HW210632   1.106   3.694   8.585
 3249SOL     OW10633   1.358   3.769   7.619
 3249SOL    HW110634   1.395   3.700   7.564
 3249SOL    HW210635   1.269   3.739   7.638
 3250SOL     OW10636   1.279   0.162   8.127
 3250SOL    HW110637   1.286   0.257   8.132
 3250SOL    HW210638   1.283   0.133   8.219
 3251SOL     OW10639   1.581   3.923   8.331
 3251SOL    HW110640   1.533   3.931   8.413
 3251SOL    HW210641   1.583   0.012   8.296
 3252SOL     OW10642   0.236   3.939  10.259
 3252SOL    HW110643   0.262   3.956  10.349
 3252SOL    HW210644   0.142   3.956  10.257
 3253SOL     OW10645   0.004   0.109   9.924
 3253SOL    HW110646   3.919   0.083   9.960
 3253SOL    HW210647   0.019   0.047   9.853
 3254SOL     OW10648   1.776   0.313   9.493
 3254SOL    HW110649   1.704   0.288   9.435
 3254SOL    HW210650   1.733   0.339   9.575
 3255SOL     OW10651   0.439   0.091  10.816
 3255SOL    HW110652   0.512   0.053  10.766
 3255SOL    HW210653   0.364   0.036  10.794
 3256SOL     OW10654   1.591   3.852  10.764
 3256SOL    HW110655   1.605   3.938  10.724
 3256SOL    HW210656   1.571   3.871  10.856
 3257SOL     OW10657   0.809   3.732   9.823
 3257SOL    HW110658   0.834   3.824   9.815
 3257SOL    HW210659   0.714   3.733   9.830
 3258SOL     OW10660   1.264   0.063  10.246
 3258SOL    HW110661   1.189   0.011  10.216
 3258SOL    HW210662   1.320   0.001  10.293
 3259SOL     OW10663   0.561   3.906  10.206
 3259SOL    HW110664   0.558   3.925  10.300
 3259SOL    HW210665   0.556   3.992  10.164
 3260SOL     OW10666   0.185   3.973  10.808
 3260SOL    HW110667   0.096   0.005  10.815
 3260SOL    HW210668   0.183   3.887  10.850
 3261SOL     OW10669   1.409   3.824   9.752
 3261SOL    HW110670   1.401   3.795   9.661
 3261SOL    HW210671   1.503   3.826   9.769
 3262SOL     OW10672   1.531   3.935  11.028
 3262SOL    HW110673   1.556   3.937  11.120
 3262SOL    HW210674   1.458   3.873  11.024
 3263SOL     OW10675   0.632   3.849   9.443
 3263SOL    HW110676   0.723   3.818   9.438
 3263SOL    HW210677   0.586   3.799   9.375
 3264SOL     OW10678   0.772   3.949  11.047
 3264SOL    HW110679   0.824   3.920  11.122
 3264SOL    HW210680   0.686   3.968  11.084
 3265SOL     OW10681   0.538   3.783   9.829
 3265SOL    HW110682   0.488   3.783   9.911
 3265SOL    HW210683   0.544   3.875   9.804
 3266SOL     OW10684   0.284   3.763   9.488
 3266SOL    HW110685   0.320   3.852   9.486
 3266SOL    HW210686   0.352   3.711   9.530
 3267SOL     OW10687   0.563   3.946  10.482
 3267SOL    HW110688   0.608   3.885  10.540
 3267SOL    HW210689   0.471   3.940  10.508
 3268SOL     OW10690   1.021   3.764  10.031
 3268SOL    HW110691   0.955   3.751   9.963
 3268SOL    HW210692   0.997   3.702  10.100
 3269SOL     OW10693   0.926   3.798  10.702
 3269SOL    HW110694   0.956   3.777  10.614
 3269SOL    HW210695   1.000   3.844  10.742
 3270SOL     OW10696   1.266   0.068  10.576
 3270SOL    HW110697   1.271   0.140  10.639
 3270SOL    HW210698   1.196   0.092  10.516
 3271SOL     OW10699   0.510   3.752  11.071
 3271SOL    HW110700   0.454   3.708  11.006
 3271SOL    HW210701   0.485   3.844  11.066
 3272SOL     OW10702   0.302   3.924  10.564
 3272SOL    HW110703   0.252   3.940  10.643
 3272SOL    HW210704   0.290   3.831  10.546
 3273SOL     OW10705   1.578   3.947   9.426
 3273SOL    HW110706   1.517   3.893   9.476
 3273SOL    HW210707   1.620   0.003   9.492
 3274SOL     OW10708   1.163   3.916  10.784
 3274SOL    HW110709   1.162   3.993  10.840
 3274SOL    HW210710   1.209   3.943  10.705
 3275SOL     OW10711   0.902   3.808   9.404
 3275SOL    HW110712   0.953   3.755   9.344
 3275SOL    HW210713   0.949   3.803   9.487
 3276SOL     OW10714   1.698   3.853   9.792
 3276SOL    HW110715   1.778   3.843   9.740
 3276SOL    HW210716   1.692   3.774   9.845
 3277SOL     OW10717   1.837   3.872  10.286
 3277SOL    HW110718   1.872   3.790  10.251
 3277SOL    HW210719   1.760   3.890  10.233
 3278SOL     OW10720   0.683   3.906  10.791
 3278SOL    HW110721   0.767   3.891  10.748
 3278SOL    HW210722   0.705   3.929  10.881
 3279SOL     OW10723   0.071   0.009   9.314
 3279SOL    HW110724   3.976   0.015   9.315
 3279SOL    HW210725   0.101   0.100   9.317
 3280SOL     OW10726   0.109   3.933   9.688
 3280SOL    HW110727   0.080   0.013   9.646
 3280SOL    HW210728   0.189   3.909   9.642
 3281SOL     OW10729   1.208   0.016   9.764
 3281SOL    HW110730   1.266   3.941   9.774
 3281SOL    HW210731   1.219   0.065   9.846
 3282SOL     OW10732   1.787   0.034  10.947
 3282SOL    HW110733   1.756   0.074  10.866
 3282SOL    HW210734   1.709   3.991  10.983
 3283SOL     OW10735   1.815   3.913  10.551
 3283SOL    HW110736   1.818   3.823  10.583
 3283SOL    HW210737   1.822   3.904  10.456
 3284SOL     OW10738   1.440   3.929  10.427
 3284SOL    HW110739   1.471   3.850  10.472
 3284SOL    HW210740   1.382   3.972  10.490
 3285SOL     OW10741   1.021   3.739  10.451
 3285SOL    HW110742   0.963   3.686  10.397
 3285SOL    HW210743   1.106   3.694  10.447
 3286SOL     OW10744   1.357   3.770   9.481
 3286SOL    HW110745   1.394   3.701   9.425
 3286SOL    HW210746   1.268   3.740   9.501
 3287SOL     OW10747   1.280   0.162   9.989
 3287SOL    HW110748   1.286   0.258   9.995
 3287SOL    HW210749   1.283   0.133  10.080
 3288SOL     OW10750   1.581   3.923  10.193
 3288SOL    HW110751   1.533   3.931  10.275
 3288SOL    HW210752   1.583   0.012  10.158
 3289SOL     OW10753   0.236   3.939  12.121
 3289SOL    HW110754   0.261   3.955  12.212
 3289SOL    HW210755   0.142   3.956  12.119
 3290SOL     OW10756   0.004   0.109  11.786
 3290SOL    HW110757   3.919   0.083  11.822
 3290SOL    HW210758   0.019   0.047  11.715
 3291SOL     OW10759   1.776   0.312  11.355
 3291SOL    HW110760   1.703   0.288  11.297
 3291SOL    HW210761   1.733   0.339  11.437
 3292SOL     OW10762   0.439   0.090  12.678
 3292SOL    HW110763   0.512   0.053  12.628
 3292SOL    HW210764   0.364   0.036  12.655
 3293SOL     OW10765   1.590   3.852  12.627
 3293SOL    HW110766   1.604   3.938  12.587
 3293SOL    HW210767   1.571   3.871  12.719
 3294SOL     OW10768   0.809   3.732  11.685
 3294SOL    HW110769   0.834   3.824  11.677
 3294SOL    HW210770   0.714   3.733  11.692
 3295SOL     OW10771   1.264   0.063  12.108
 3295SOL    HW110772   1.190   0.011  12.078
 3295SOL    HW210773   1.320   0.001  12.155
 3296SOL     OW10774   0.561   3.906  12.068
 3296SOL    HW110775   0.558   3.925  12.161
 3296SOL    HW210776   0.556   3.992  12.026
 3297SOL     OW10777   0.185   3.973  12.669
 3297SOL    HW110778   0.095   0.005  12.677
 3297SOL    HW210779   0.183   3.887  12.712
 3298SOL     OW10780   1.409   3.824  11.614
 3298SOL    HW110781   1.401   3.795  11.523
 3298SOL    HW210782   1.503   3.826  11.631
 3299SOL     OW10783   1.532   3.936  12.893
 3299SOL    HW110784   1.556   3.941  12.986
 3299SOL    HW210785   1.459   3.873  12.891
 3300SOL     OW10786   0.632   3.849  11.305
 3300SOL    HW110787   0.723   3.818  11.300
 3300SOL    HW210788   0.586   3.799  11.237
 3301SOL     OW10789   0.772   3.949  12.910
 3301SOL    HW110790   0.824   3.919  12.985
 3301SOL    HW210791   0.685   3.966  12.947
 3302SOL     OW10792   0.538   3.783  11.691
 3302SOL    HW110793   0.488   3.783  11.773
 3302SOL    HW210794   0.544   3.875  11.666
 3303SOL     OW10795   0.284   3.763  11.350
 3303SOL    HW110796   0.320   3.852  11.348
 3303SOL    HW210797   0.352   3.711  11.392
 3304SOL     OW10798   0.563   3.946  12.344
 3304SOL    HW110799   0.608   3.884  12.402
 3304SOL    HW210800   0.471   3.940  12.370
 3305SOL     OW10801   1.021   3.764  11.893
 3305SOL    HW110802   0.955   3.751  11.825
 3305SOL    HW210803   0.997   3.702  11.962
 3306SOL     OW10804   0.926   3.799  12.564
 3306SOL    HW110805   0.955   3.777  12.476
 3306SOL    HW210806   1.000   3.844  12.604
 3307SOL     OW10807   1.267   0.068  12.438
 3307SOL    HW110808   1.271   0.140  12.500
 3307SOL    HW210809   1.197   0.092  12.377
 3308SOL     OW10810   0.509   3.752  12.932
 3308SOL    HW110811   0.453   3.708  12.868
 3308SOL    HW210812   0.484   3.844  12.927
 3309SOL     OW10813   0.302   3.924  12.426
 3309SOL    HW110814   0.251   3.940  12.505
 3309SOL    HW210815   0.291   3.831  12.408
 3310SOL     OW10816   1.578   3.948  11.288
 3310SOL    HW110817   1.518   3.893  11.339
 3310SOL    HW210818   1.621   0.003  11.353
 3311SOL     OW10819   1.163   3.916  12.645
 3311SOL    HW110820   1.162   3.993  12.701
 3311SOL    HW210821   1.209   3.943  12.566
 3312SOL     OW10822   0.902   3.808  11.266
 3312SOL    HW110823   0.954   3.755  11.206
 3312SOL    HW210824   0.949   3.804  11.349
 3313SOL     OW10825   1.698   3.853  11.654
 3313SOL    HW110826   1.778   3.842  11.602
 3313SOL    HW210827   1.692   3.774  11.707
 3314SOL     OW10828   1.837   3.872  12.148
 3314SOL    HW110829   1.872   3.790  12.113
 3314SOL    HW210830   1.760   3.890  12.095
 3315SOL     OW10831   0.683   3.906  12.653
 3315SOL    HW110832   0.767   3.891  12.610
 3315SOL    HW210833   0.706   3.930  12.743
 3316SOL     OW10834   0.071   0.009  11.175
 3316SOL    HW110835   3.976   0.015  11.177
 3316SOL    HW210836   0.101   0.100  11.179
 3317SOL     OW10837   0.109   3.932  11.550
 3317SOL    HW110838   0.080   0.013  11.507
 3317SOL    HW210839   0.189   3.909  11.504
 3318SOL     OW10840   1.208   0.016  11.626
 3318SOL    HW110841   1.266   3.941  11.636
 3318SOL    HW210842   1.219   0.065  11.708
 3319SOL     OW10843   1.786   0.034  12.806
 3319SOL    HW110844   1.754   0.074  12.725
 3319SOL    HW210845   1.709   3.992  12.845
 3320SOL     OW10846   1.815   3.913  12.413
 3320SOL    HW110847   1.818   3.822  12.445
 3320SOL    HW210848   1.822   3.904  12.318
 3321SOL     OW10849   1.440   3.929  12.289
 3321SOL    HW110850   1.471   3.850  12.334
 3321SOL    HW210851   1.383   3.972  12.352
 3322SOL     OW10852   1.021   3.739  12.313
 3322SOL    HW110853   0.963   3.686  12.259
 3322SOL    HW210854   1.105   3.694  12.309
 3323SOL     OW10855   1.357   3.770  11.343
 3323SOL    HW110856   1.394   3.701  11.288
 3323SOL    HW210857   1.268   3.740  11.363
 3324SOL     OW10858   1.279   0.162  11.851
 3324SOL    HW110859   1.286   0.258  11.857
 3324SOL    HW210860   1.283   0.133  11.942
 3325SOL     OW10861   1.581   3.923  12.055
 3325SOL    HW110862   1.533   3.931  12.137
 3325SOL    HW210863   1.583   0.012  12.020
 3326SOL     OW10864   0.009   0.103  13.634
 3326SOL    HW110865   3.915   0.087  13.641
 3326SOL    HW210866   0.037   0.049  13.560
 3327SOL     OW10867   1.776   0.317  13.218
 3327SOL    HW110868   1.704   0.291  13.160
 3327SOL    HW210869   1.734   0.333  13.302
 3328SOL     OW10870   1.614   0.172  13.768
 3328SOL    HW110871   1.527   0.139  13.747
 3328SOL    HW210872   1.603   0.267  13.777
 3329SOL     OW10873   0.813   3.734  13.542
 3329SOL    HW110874   0.834   3.827  13.535
 3329SOL    HW210875   0.718   3.732  13.552
 3330SOL     OW10876   1.407   3.831  13.469
 3330SOL    HW110877   1.402   3.799  13.379
 3330SOL    HW210878   1.500   3.825  13.492
 3331SOL     OW10879   0.630   3.851  13.165
 3331SOL    HW110880   0.720   3.819  13.164
 3331SOL    HW210881   0.585   3.799  13.098
 3332SOL     OW10882   0.540   3.772  13.553
 3332SOL    HW110883   0.496   3.754  13.636
 3332SOL    HW210884   0.536   3.867  13.544
 3333SOL     OW10885   0.282   3.765  13.216
 3333SOL    HW110886   0.322   3.852  13.212
 3333SOL    HW210887   0.349   3.711  13.257
 3334SOL     OW10888   1.011   3.755  13.764
 3334SOL    HW110889   0.953   3.750  13.688
 3334SOL    HW210890   0.989   3.678  13.816
 3335SOL     OW10891   1.581   3.955  13.155
 3335SOL    HW110892   1.531   3.892  13.207
 3335SOL    HW210893   1.642   3.994  13.217
 3336SOL     OW10894   0.901   3.809  13.129
 3336SOL    HW110895   0.953   3.755  13.070
 3336SOL    HW210896   0.945   3.803  13.213
 3337SOL     OW10897   1.736   3.858  13.559
 3337SOL    HW110898   1.800   3.841  13.490
 3337SOL    HW210899   1.713   3.771  13.592
 3338SOL     OW10900   1.847   3.907   0.050
 3338SOL    HW110901   1.877   3.817   0.054
 3338SOL    HW210902   1.759   3.905   0.088
 3339SOL     OW10903   0.072   0.004  13.037
 3339SOL    HW110904   3.977   0.012  13.038
 3339SOL    HW210905   0.104   0.094  13.044
 3340SOL     OW10906   0.111   3.943  13.422
 3340SOL    HW110907   0.088   0.014  13.362
 3340SOL    HW210908   0.185   3.900  13.380
 3341SOL     OW10909   1.196   0.002  13.523
 3341SOL    HW110910   1.267   3.941  13.503
 3341SOL    HW210911   1.230   0.055  13.595
 3342SOL     OW10912   1.358   3.769  13.201
 3342SOL    HW110913   1.394   3.699  13.146
 3342SOL    HW210914   1.269   3.740  13.222
 3343SOL     OW10915   1.319   0.149  13.738
 3343SOL    HW110916   1.292   0.240  13.726
 3343SOL    HW210917   1.293   0.128  13.828
 3344SOL     OW10918   2.093   0.653   0.118
 3344SOL    HW110919   2.005   0.623   0.140
 3344SOL    HW210920   2.113   0.610   0.035
 3345SOL     OW10921   2.077   0.305   0.995
 3345SOL    HW110922   2.113   0.260   1.072
 3345SOL    HW210923   1.992   0.263   0.981
 3346SOL     OW10924   1.871   0.405   0.630
 3346SOL    HW110925   1.785   0.418   0.671
 3346SOL    HW210926   1.856   0.336   0.566
 3347SOL     OW10927   2.432   1.297   1.182
 3347SOL    HW110928   2.348   1.304   1.137
 3347SOL    HW210929   2.452   1.386   1.210
 3348SOL     OW10930   3.435   1.517   0.708
 3348SOL    HW110931   3.389   1.491   0.788
 3348SOL    HW210932   3.367   1.520   0.641
 3349SOL     OW10933   2.997   0.698   0.693
 3349SOL    HW110934   3.044   0.781   0.682
 3349SOL    HW210935   2.949   0.709   0.775
 3350SOL     OW10936   3.634   0.630   0.216
 3350SOL    HW110937   3.627   0.624   0.120
 3350SOL    HW210938   3.645   0.540   0.245
 3351SOL     OW10939   2.606   1.134   1.048
 3351SOL    HW110940   2.540   1.173   1.106
 3351SOL    HW210941   2.647   1.209   1.005
 3352SOL     OW10942   2.738   0.761   1.826
 3352SOL    HW110943   2.725   0.831   1.891
 3352SOL    HW210944   2.759   0.807   1.745
 3353SOL     OW10945   2.547   0.993   0.647
 3353SOL    HW110946   2.613   0.987   0.716
 3353SOL    HW210947   2.479   1.050   0.683
 3354SOL     OW10948   2.580   1.148   1.823
 3354SOL    HW110949   2.628   1.225   1.855
 3354SOL    HW210950   2.499   1.184   1.786
 3355SOL     OW10951   2.193   1.412   1.066
 3355SOL    HW110952   2.118   1.373   1.020
 3355SOL    HW210953   2.236   1.466   1.000
 3356SOL     OW10954   3.319   1.503   1.364
 3356SOL    HW110955   3.374   1.581   1.373
 3356SOL    HW210956   3.250   1.514   1.429
 3357SOL     OW10957   2.311   0.387   1.485
 3357SOL    HW110958   2.404   0.365   1.490
 3357SOL    HW210959   2.265   0.304   1.497
 3358SOL     OW10960   3.472   0.451   0.733
 3358SOL    HW110961   3.418   0.494   0.668
 3358SOL    HW210962   3.486   0.517   0.801
 3359SOL     OW10963   2.109   1.702   0.496
 3359SOL    HW110964   2.053   1.779   0.497
 3359SOL    HW210965   2.175   1.720   0.429
 3360SOL     OW10966   3.000   1.342   1.695
 3360SOL    HW110967   3.042   1.335   1.781
 3360SOL    HW210968   2.948   1.262   1.687
 3361SOL     OW10969   2.071   1.438   0.532
 3361SOL    HW110970   2.085   1.532   0.529
 3361SOL    HW210971   2.025   1.423   0.614
 3362SOL     OW10972   2.128   1.091   0.888
 3362SOL    HW110973   2.128   1.001   0.921
 3362SOL    HW210974   2.073   1.140   0.948
 3363SOL     OW10975   2.467   1.780   1.436
 3363SOL    HW110976   2.388   1.769   1.490
 3363SOL    HW210977   2.492   1.871   1.449
 3364SOL     OW10978   2.425   0.974   0.172
 3364SOL    HW110979   2.466   1.005   0.091
 3364SOL    HW210980   2.475   1.016   0.242
 3365SOL     OW10981   3.448   0.145   1.454
 3365SOL    HW110982   3.477   0.216   1.398
 3365SOL    HW210983   3.402   0.189   1.526
 3366SOL     OW10984   1.983   0.660   0.559
 3366SOL    HW110985   1.954   0.572   0.583
 3366SOL    HW210986   1.974   0.711   0.640
 3367SOL     OW10987   3.714   1.751   0.330
 3367SOL    HW110988   3.777   1.716   0.392
 3367SOL    HW210989   3.729   1.845   0.330
 3368SOL     OW10990   1.945   1.570   0.110
 3368SOL    HW110991   1.923   1.479   0.132
 3368SOL    HW210992   1.863   1.618   0.125
 3369SOL     OW10993   3.552   0.921   0.656
 3369SOL    HW110994   3.635   0.875   0.639
 3369SOL    HW210995   3.535   0.970   0.576
 3370SOL     OW10996   3.509   1.101   0.437
 3370SOL    HW110997   3.593   1.110   0.392
 3370SOL    HW210998   3.511   1.167   0.506
 3371SOL     OW10999   1.985   0.752   1.576
 3371SOL    HW111000   2.073   0.789   1.580
 3371SOL    HW211001   1.926   0.828   1.577
 3372SOL     OW11002   2.481   1.392   0.733
 3372SOL    HW111003   2.436   1.308   0.741
 3372SOL    HW211004   2.465   1.419   0.643
 3373SOL     OW11005   3.145   1.235   1.420
 3373SOL    HW111006   3.176   1.167   1.360
 3373SOL    HW211007   3.205   1.230   1.494
 3374SOL     OW11008   2.687   0.006   0.525
 3374SOL    HW111009   2.733   0.085   0.496
 3374SOL    HW211010   2.595   0.029   0.523
 3375SOL     OW11011   2.049   0.957   1.280
 3375SOL    HW111012   2.135   0.919   1.266
 3375SOL    HW211013   1.994   0.916   1.213
 3376SOL     OW11014   3.389   1.004   0.208
 3376SOL    HW111015   3.321   0.946   0.242
 3376SOL    HW211016   3.432   1.040   0.286
 3377SOL     OW11017   3.048   1.815   1.627
 3377SOL    HW111018   3.054   1.876   1.553
 3377SOL    HW211019   3.065   1.729   1.589
 3378SOL     OW11020   2.226   0.246   1.870
 3378SOL    HW111021   2.271   0.329   1.883
 3378SOL    HW211022   2.133   0.270   1.860
 3379SOL     OW11023   3.328   1.421   0.944
 3379SOL    HW111024   3.263   1.436   1.012
 3379SOL    HW211025   3.317   1.329   0.920
 3380SOL     OW11026   3.516   1.757   0.585
 3380SOL    HW111027   3.492   1.731   0.496
 3380SOL    HW211028   3.502   1.678   0.638
 3381SOL     OW11029   2.455   0.710   0.273
 3381SOL    HW111030   2.455   0.795   0.229
 3381SOL    HW211031   2.392   0.720   0.345
 3382SOL     OW11032   3.137   0.377   0.940
 3382SOL    HW111033   3.050   0.338   0.949
 3382SOL    HW211034   3.195   0.316   0.986
 3383SOL     OW11035   3.432   1.725   0.318
 3383SOL    HW111036   3.527   1.724   0.312
 3383SOL    HW211037   3.402   1.702   0.230
 3384SOL     OW11038   2.657   0.613   1.448
 3384SOL    HW111039   2.630   0.586   1.535
 3384SOL    HW211040   2.624   0.544   1.390
 3385SOL     OW11041   3.255   0.474   1.677
 3385SOL    HW111042   3.262   0.521   1.761
 3385SOL    HW211043   3.309   0.396   1.689
 3386SOL     OW11044   2.809   0.886   1.588
 3386SOL    HW111045   2.865   0.819   1.548
 3386SOL    HW211046   2.761   0.924   1.514
 3387SOL     OW11047   2.859   0.400   1.230
 3387SOL    HW111048   2.772   0.416   1.265
 3387SOL    HW211049   2.845   0.377   1.139
 3388SOL     OW11050   2.916   0.704   0.427
 3388SOL    HW111051   2.936   0.696   0.521
 3388SOL    HW211052   2.832   0.659   0.417
 3389SOL     OW11053   1.950   0.824   0.776
 3389SOL    HW111054   2.029   0.816   0.828
 3389SOL    HW211055   1.903   0.898   0.814
 3390SOL     OW11056   2.735   0.360   0.225
 3390SOL    HW111057   2.769   0.419   0.158
 3390SOL    HW211058   2.736   0.274   0.184
 3391SOL     OW11059   3.562   0.569   1.831
 3391SOL    HW111060   3.529   0.645   1.783
 3391SOL    HW211061   3.590   0.508   1.763
 3392SOL     OW11062   3.241   1.141   0.542
 3392SOL    HW111063   3.320   1.131   0.489
 3392SOL    HW211064   3.189   1.206   0.494
 3393SOL     OW11065   2.423   0.200   0.880
 3393SOL    HW111066   2.424   0.220   0.974
 3393SOL    HW211067   2.419   0.285   0.837
 3394SOL     OW11068   2.861   1.440   0.475
 3394SOL    HW111069   2.836   1.515   0.422
 3394SOL    HW211070   2.833   1.463   0.564
 3395SOL     OW11071   2.265   1.822   0.812
 3395SOL    HW111072   2.247   1.728   0.824
 3395SOL    HW211073   2.343   1.838   0.866
 3396SOL     OW11074   3.670   1.063   0.873
 3396SOL    HW111075   3.619   1.034   0.797
 3396SOL    HW211076   3.608   1.066   0.945
 3397SOL     OW11077   3.088   1.542   1.514
 3397SOL    HW111078   3.076   1.469   1.576
 3397SOL    HW211079   3.017   1.530   1.451
 3398SOL     OW11080   2.164   0.937   0.234
 3398SOL    HW111081   2.256   0.948   0.212
 3398SOL    HW211082   2.148   0.843   0.226
 3399SOL     OW11083   3.342   0.758   0.729
 3399SOL    HW111084   3.340   0.715   0.814
 3399SOL    HW211085   3.420   0.813   0.731
 3400SOL     OW11086   2.338   1.267   1.749
 3400SOL    HW111087   2.313   1.266   1.657
 3400SOL    HW211088   2.255   1.262   1.797
 3401SOL     OW11089   2.985   1.783   0.223
 3401SOL    HW111090   2.921   1.738   0.279
 3401SOL    HW211091   3.015   1.716   0.162
 3402SOL     OW11092   2.025   0.274   1.501
 3402SOL    HW111093   1.981   0.356   1.479
 3402SOL    HW211094   2.021   0.269   1.596
 3403SOL     OW11095   3.494   1.378   0.097
 3403SOL    HW111096   3.470   1.460   0.055
 3403SOL    HW211097   3.423   1.318   0.074
 3404SOL     OW11098   2.329   1.745   0.331
 3404SOL    HW111099   2.376   1.804   0.390
 3404SOL    HW211100   2.392   1.725   0.262
 3405SOL     OW11101   3.300   0.132   0.386
 3405SOL    HW111102   3.254   0.056   0.419
 3405SOL    HW211103   3.387   0.128   0.427
 3406SOL     OW11104   2.135   1.734   1.266
 3406SOL    HW111105   2.163   1.646   1.291
 3406SOL    HW211106   2.148   1.736   1.171
 3407SOL     OW11107   2.800   1.699   0.896
 3407SOL    HW111108   2.882   1.653   0.916
 3407SOL    HW211109   2.762   1.649   0.824
 3408SOL     OW11110   2.257   0.693   0.471
 3408SOL    HW111111   2.275   0.601   0.488
 3408SOL    HW211112   2.164   0.704   0.493
 3409SOL     OW11113   3.391   0.226   1.725
 3409SOL    HW111114   3.378   0.249   1.817
 3409SOL    HW211115   3.383   0.131   1.722
 3410SOL     OW11116   2.478   0.105   0.120
 3410SOL    HW111117   2.573   0.103   0.128
 3410SOL    HW211118   2.462   0.134   0.030
 3411SOL     OW11119   2.631   0.287   1.778
 3411SOL    HW111120   2.712   0.237   1.778
 3411SOL    HW211121   2.579   0.248   1.849
 3412SOL     OW11122   2.739   1.524   1.194
 3412SOL    HW111123   2.722   1.485   1.108
 3412SOL    HW211124   2.808   1.470   1.231
 3413SOL     OW11125   3.198   0.588   1.432
 3413SOL    HW111126   3.230   0.559   1.518
 3413SOL    HW211127   3.233   0.676   1.421
 3414SOL     OW11128   2.681   1.386   0.948
 3414SOL    HW111129   2.767   1.376   0.906
 3414SOL    HW211130   2.620   1.394   0.875
 3415SOL     OW11131   2.793   0.513   0.897
 3415SOL    HW111132   2.767   0.505   0.805
 3415SOL    HW211133   2.817   0.424   0.923
 3416SOL     OW11134   2.410   0.049   0.504
 3416SOL    HW111135   2.334   0.056   0.562
 3416SOL    HW211136   2.400   0.124   0.444
 3417SOL     OW11137   3.290   1.213   0.042
 3417SOL    HW111138   3.307   1.134   0.092
 3417SOL    HW211139   3.200   1.237   0.065
 3418SOL     OW11140   2.211   0.012   0.191
 3418SOL    HW111141   2.170   0.090   0.152
 3418SOL    HW211142   2.304   0.034   0.194
 3419SOL     OW11143   2.811   0.251   0.467
 3419SOL    HW111144   2.777   0.290   0.386
 3419SOL    HW211145   2.906   0.254   0.458
 3420SOL     OW11146   2.941   0.689   1.455
 3420SOL    HW111147   2.873   0.622   1.462
 3420SOL    HW211148   3.023   0.639   1.451
 3421SOL     OW11149   3.077   1.576   0.797
 3421SOL    HW111150   3.092   1.639   0.726
 3421SOL    HW211151   3.150   1.588   0.857
 3422SOL     OW11152   2.336   1.156   0.723
 3422SOL    HW111153   2.269   1.135   0.788
 3422SOL    HW211154   2.291   1.144   0.639
 3423SOL     OW11155   3.123   1.794   0.613
 3423SOL    HW111156   3.173   1.857   0.562
 3423SOL    HW211157   3.054   1.846   0.655
 3424SOL     OW11158   2.852   0.526   0.044
 3424SOL    HW111159   2.842   0.512  13.850
 3424SOL    HW211160   2.945   0.541   0.057
 3425SOL     OW11161   1.950   0.546   1.397
 3425SOL    HW111162   2.041   0.551   1.368
 3425SOL    HW211163   1.941   0.619   1.459
 3426SOL     OW11164   2.421   0.230   1.161
 3426SOL    HW111165   2.443   0.138   1.170
 3426SOL    HW211166   2.332   0.237   1.196
 3427SOL     OW11167   2.732   0.461   0.638
 3427SOL    HW111168   2.691   0.517   0.571
 3427SOL    HW211169   2.755   0.381   0.591
 3428SOL     OW11170   2.860   0.036   0.782
 3428SOL    HW111171   2.813   0.068   0.705
 3428SOL    HW211172   2.874   3.942   0.765
 3429SOL     OW11173   3.305   1.159   0.858
 3429SOL    HW111174   3.231   1.098   0.855
 3429SOL    HW211175   3.332   1.169   0.767
 3430SOL     OW11176   3.324   0.612   0.966
 3430SOL    HW111177   3.267   0.535   0.971
 3430SOL    HW211178   3.382   0.603   1.043
 3431SOL     OW11179   3.728   0.827   0.371
 3431SOL    HW111180   3.762   0.771   0.440
 3431SOL    HW211181   3.685   0.767   0.310
 3432SOL     OW11182   2.348   1.413   0.154
 3432SOL    HW111183   2.276   1.377   0.205
 3432SOL    HW211184   2.334   1.379   0.065
 3433SOL     OW11185   3.532   1.264   0.647
 3433SOL    HW111186   3.627   1.267   0.654
 3433SOL    HW211187   3.505   1.355   0.654
 3434SOL     OW11188   3.287   0.590   0.088
 3434SOL    HW111189   3.218   0.581   0.153
 3434SOL    HW211190   3.331   0.505   0.088
 3435SOL     OW11191   2.381   0.256   0.329
 3435SOL    HW111192   2.423   0.211   0.256
 3435SOL    HW211193   2.351   0.339   0.292
 3436SOL     OW11194   3.610   1.230   1.555
 3436SOL    HW111195   3.698   1.196   1.539
 3436SOL    HW211196   3.624   1.320   1.585
 3437SOL     OW11197   2.914   1.352   1.330
 3437SOL    HW111198   2.839   1.321   1.380
 3437SOL    HW211199   2.990   1.311   1.372
 3438SOL     OW11200   3.469   1.630   1.660
 3438SOL    HW111201   3.459   1.666   1.572
 3438SOL    HW211202   3.546   1.575   1.656
 3439SOL     OW11203   2.999   1.213   1.101
 3439SOL    HW111204   2.939   1.252   1.165
 3439SOL    HW211205   2.970   1.249   1.017
 3440SOL     OW11206   3.485   1.092   1.073
 3440SOL    HW111207   3.474   1.156   1.144
 3440SOL    HW211208   3.412   1.110   1.013
 3441SOL     OW11209   2.773   0.123   1.401
 3441SOL    HW111210   2.793   0.090   1.313
 3441SOL    HW211211   2.854   0.163   1.430
 3442SOL     OW11212   2.846   1.116   1.724
 3442SOL    HW111213   2.756   1.132   1.749
 3442SOL    HW211214   2.842   1.037   1.670
 3443SOL     OW11215   2.580   1.059   0.380
 3443SOL    HW111216   2.565   1.036   0.472
 3443SOL    HW211217   2.654   1.004   0.354
 3444SOL     OW11218   2.285   0.819   1.253
 3444SOL    HW111219   2.354   0.827   1.319
 3444SOL    HW211220   2.251   0.730   1.266
 3445SOL     OW11221   3.129   0.375   1.278
 3445SOL    HW111222   3.160   0.454   1.322
 3445SOL    HW211223   3.040   0.397   1.249
 3446SOL     OW11224   2.200   1.116   0.485
 3446SOL    HW111225   2.194   1.187   0.421
 3446SOL    HW211226   2.210   1.037   0.432
 3447SOL     OW11227   2.414   0.521   0.854
 3447SOL    HW111228   2.425   0.582   0.781
 3447SOL    HW211229   2.478   0.550   0.919
 3448SOL     OW11230   3.110   1.348   0.402
 3448SOL    HW111231   3.165   1.421   0.430
 3448SOL    HW211232   3.022   1.370   0.434
 3449SOL     OW11233   3.154   1.462   1.149
 3449SOL    HW111234   3.209   1.469   1.227
 3449SOL    HW211235   3.100   1.385   1.164
 3450SOL     OW11236   3.428   0.634   0.497
 3450SOL    HW111237   3.386   0.691   0.561
 3450SOL    HW211238   3.461   0.694   0.429
 3451SOL     OW11239   2.220   1.484   1.319
 3451SOL    HW111240   2.209   1.455   1.228
 3451SOL    HW211241   2.313   1.509   1.324
 3452SOL     OW11242   2.287   0.744   1.606
 3452SOL    HW111243   2.347   0.788   1.546
 3452SOL    HW211244   2.330   0.661   1.627
 3453SOL     OW11245   3.471   0.781   1.689
 3453SOL    HW111246   3.385   0.823   1.683
 3453SOL    HW211247   3.524   0.824   1.621
 3454SOL     OW11248   2.862   0.147   1.785
 3454SOL    HW111249   2.925   0.212   1.752
 3454SOL    HW211250   2.853   0.085   1.713
 3455SOL     OW11251   2.354   0.036   1.760
 3455SOL    HW111252   2.351   0.054   1.666
 3455SOL    HW211253   2.294   0.099   1.799
 3456SOL     OW11254   2.447   0.876   1.032
 3456SOL    HW111255   2.482   0.965   1.037
 3456SOL    HW211256   2.390   0.868   1.109
 3457SOL     OW11257   3.202   0.858   1.019
 3457SOL    HW111258   3.116   0.841   0.981
 3457SOL    HW211259   3.250   0.775   1.008
 3458SOL     OW11260   3.080   0.555   0.262
 3458SOL    HW111261   3.086   0.475   0.315
 3458SOL    HW211262   3.022   0.612   0.313
 3459SOL     OW11263   2.156   0.206   1.244
 3459SOL    HW111264   2.113   0.233   1.325
 3459SOL    HW211265   2.147   0.111   1.243
 3460SOL     OW11266   1.916   1.341   1.297
 3460SOL    HW111267   1.939   1.269   1.355
 3460SOL    HW211268   1.996   1.394   1.291
 3461SOL     OW11269   2.579   0.630   1.046
 3461SOL    HW111270   2.657   0.621   0.991
 3461SOL    HW211271   2.549   0.720   1.030
 3462SOL     OW11272   3.594   0.956   1.873
 3462SOL    HW111273   3.554   0.890   1.816
 3462SOL    HW211274   3.527   0.975   1.939
 3463SOL     OW11275   2.185   0.051   0.665
 3463SOL    HW111276   2.165   0.144   0.674
 3463SOL    HW211277   2.163   0.013   0.750
 3464SOL     OW11278   3.430   0.390   0.391
 3464SOL    HW111279   3.408   0.332   0.464
 3464SOL    HW211280   3.424   0.478   0.428
 3465SOL     OW11281   2.894   0.759   0.957
 3465SOL    HW111282   2.882   0.775   1.050
 3465SOL    HW211283   2.865   0.668   0.944
 3466SOL     OW11284   2.845   1.566   1.724
 3466SOL    HW111285   2.827   1.610   1.641
 3466SOL    HW211286   2.887   1.484   1.700
 3467SOL     OW11287   3.700   1.490   1.596
 3467SOL    HW111288   3.726   1.523   1.510
 3467SOL    HW211289   3.780   1.497   1.649
 3468SOL     OW11290   2.211   0.916   1.809
 3468SOL    HW111291   2.291   0.937   1.859
 3468SOL    HW211292   2.240   0.853   1.743
 3469SOL     OW11293   3.359   0.289   0.143
 3469SOL    HW111294   3.320   0.202   0.148
 3469SOL    HW211295   3.377   0.312   0.234
 3470SOL     OW11296   3.147   0.832   0.056
 3470SOL    HW111297   3.193   0.749   0.059
 3470SOL    HW211298   3.163   0.865  13.868
 3471SOL     OW11299   2.932   1.341   0.858
 3471SOL    HW111300   2.938   1.269   0.795
 3471SOL    HW211301   2.988   1.410   0.822
 3472SOL     OW11302   2.171   0.812   0.944
 3472SOL    HW111303   2.265   0.832   0.939
 3472SOL    HW211304   2.167   0.722   0.976
 3473SOL     OW11305   2.198   0.540   1.015
 3473SOL    HW111306   2.155   0.455   1.002
 3473SOL    HW211307   2.274   0.538   0.957
 3474SOL     OW11308   2.997   0.378   1.701
 3474SOL    HW111309   2.948   0.431   1.763
 3474SOL    HW211310   3.083   0.419   1.696
 3475SOL     OW11311   3.015   0.226   1.481
 3475SOL    HW111312   3.005   0.277   1.561
 3475SOL    HW211313   3.044   0.288   1.415
 3476SOL     OW11314   1.887   1.297   0.170
 3476SOL    HW111315   1.803   1.309   0.126
 3476SOL    HW211316   1.877   1.214   0.217
 3477SOL     OW11317   2.356   1.567   0.909
 3477SOL    HW111318   2.420   1.635   0.928
 3477SOL    HW211319   2.401   1.508   0.848
 3478SOL     OW11320   2.831   0.783   1.220
 3478SOL    HW111321   2.890   0.769   1.294
 3478SOL    HW211322   2.748   0.745   1.248
 3479SOL     OW11323   1.895   0.551   1.117
 3479SOL    HW111324   1.968   0.526   1.062
 3479SOL    HW211325   1.930   0.548   1.206
 3480SOL     OW11326   2.066   0.529   1.711
 3480SOL    HW111327   2.141   0.509   1.655
 3480SOL    HW211328   2.025   0.605   1.670
 3481SOL     OW11329   3.244   0.931   1.655
 3481SOL    HW111330   3.265   1.025   1.651
 3481SOL    HW211331   3.239   0.904   1.563
 3482SOL     OW11332   2.677   0.580   0.383
 3482SOL    HW111333   2.686   0.503   0.327
 3482SOL    HW211334   2.603   0.628   0.346
 3483SOL     OW11335   3.498   0.602   1.178
 3483SOL    HW111336   3.487   0.542   1.251
 3483SOL    HW211337   3.585   0.583   1.143
 3484SOL     OW11338   2.088   1.554   1.732
 3484SOL    HW111339   2.049   1.582   1.815
 3484SOL    HW211340   2.120   1.465   1.749
 3485SOL     OW11341   2.583   0.446   1.246
 3485SOL    HW111342   2.526   0.372   1.226
 3485SOL    HW211343   2.568   0.508   1.174
 3486SOL     OW11344   2.786   1.675   1.472
 3486SOL    HW111345   2.757   1.637   1.390
 3486SOL    HW211346   2.782   1.770   1.457
 3487SOL     OW11347   2.284   0.487   0.227
 3487SOL    HW111348   2.362   0.541   0.240
 3487SOL    HW211349   2.217   0.549   0.197
 3488SOL     OW11350   1.999   1.141   1.471
 3488SOL    HW111351   2.002   1.095   1.555
 3488SOL    HW211352   2.016   1.072   1.406
 3489SOL     OW11353   3.178   1.041   1.218
 3489SOL    HW111354   3.199   0.979   1.149
 3489SOL    HW211355   3.114   1.101   1.179
 3490SOL     OW11356   3.184   0.857   0.328
 3490SOL    HW111357   3.112   0.827   0.383
 3490SOL    HW211358   3.155   0.841   0.239
 3491SOL     OW11359   3.650   1.736   1.163
 3491SOL    HW111360   3.704   1.763   1.090
 3491SOL    HW211361   3.615   1.650   1.137
 3492SOL     OW11362   3.102   1.733   1.103
 3492SOL    HW111363   3.185   1.758   1.062
 3492SOL    HW211364   3.113   1.641   1.124
 3493SOL     OW11365   1.956   1.247   1.032
 3493SOL    HW111366   1.923   1.275   1.117
 3493SOL    HW211367   1.879   1.217   0.984
 3494SOL     OW11368   2.543   1.669   1.741
 3494SOL    HW111369   2.483   1.744   1.744
 3494SOL    HW211370   2.608   1.693   1.674
 3495SOL     OW11371   2.753   0.102   0.128
 3495SOL    HW111372   2.796   0.093   0.043
 3495SOL    HW211373   2.766   0.018   0.170
 3496SOL     OW11374   3.552   0.122   0.485
 3496SOL    HW111375   3.635   0.133   0.439
 3496SOL    HW211376   3.552   0.030   0.513
 3497SOL     OW11377   3.254   1.573   0.492
 3497SOL    HW111378   3.315   1.608   0.427
 3497SOL    HW211379   3.205   1.649   0.523
 3498SOL     OW11380   3.137   0.930   0.670
 3498SOL    HW111381   3.212   0.873   0.686
 3498SOL    HW211382   3.172   1.001   0.617
 3499SOL     OW11383   2.663   1.277   1.421
 3499SOL    HW111384   2.636   1.319   1.503
 3499SOL    HW211385   2.593   1.297   1.360
 3500SOL     OW11386   2.552   1.586   0.191
 3500SOL    HW111387   2.533   1.654   0.127
 3500SOL    HW211388   2.485   1.519   0.175
 3501SOL     OW11389   3.478   1.729   1.393
 3501SOL    HW111390   3.535   1.732   1.317
 3501SOL    HW211391   3.463   1.820   1.416
 3502SOL     OW11392   3.708   0.182   0.970
 3502SOL    HW111393   3.731   0.096   0.934
 3502SOL    HW211394   3.621   0.201   0.933
 3503SOL     OW11395   2.122   0.314   0.717
 3503SOL    HW111396   2.036   0.350   0.693
 3503SOL    HW211397   2.121   0.310   0.813
 3504SOL     OW11398   3.083   1.596   0.040
 3504SOL    HW111399   3.073   1.504   0.065
 3504SOL    HW211400   3.034   1.605  13.859
 3505SOL     OW11401   2.686   1.008   1.376
 3505SOL    HW111402   2.727   1.002   1.289
 3505SOL    HW211403   2.680   1.101   1.394
 3506SOL     OW11404   2.784   0.909   0.289
 3506SOL    HW111405   2.852   0.953   0.238
 3506SOL    HW211406   2.831   0.841   0.338
 3507SOL     OW11407   3.342   1.666   0.065
 3507SOL    HW111408   3.251   1.637   0.061
 3507SOL    HW211409   3.379   1.640  13.881
 3508SOL     OW11410   2.230   1.289   1.507
 3508SOL    HW111411   2.229   1.359   1.443
 3508SOL    HW211412   2.152   1.237   1.487
 3509SOL     OW11413   3.459   1.282   1.274
 3509SOL    HW111414   3.526   1.268   1.341
 3509SOL    HW211415   3.401   1.349   1.310
 3510SOL     OW11416   2.925   1.112   0.713
 3510SOL    HW111417   2.852   1.061   0.750
 3510SOL    HW211418   2.989   1.046   0.687
 3511SOL     OW11419   2.879   0.251   0.971
 3511SOL    HW111420   2.869   0.200   0.891
 3511SOL    HW211421   2.879   0.186   1.041
 3512SOL     OW11422   2.471   1.488   0.478
 3512SOL    HW111423   2.519   1.440   0.411
 3512SOL    HW211424   2.403   1.535   0.430
 3513SOL     OW11425   3.584   0.397   1.369
 3513SOL    HW111426   3.657   0.458   1.371
 3513SOL    HW211427   3.615   0.324   1.315
 3514SOL     OW11428   2.134   1.316   0.301
 3514SOL    HW111429   2.053   1.326   0.251
 3514SOL    HW211430   2.118   1.364   0.382
 3515SOL     OW11431   1.976   1.037   1.725
 3515SOL    HW111432   1.900   1.009   1.776
 3515SOL    HW211433   2.050   0.992   1.766
 3516SOL     OW11434   2.561   0.272   1.508
 3516SOL    HW111435   2.625   0.214   1.466
 3516SOL    HW211436   2.586   0.272   1.600
 3517SOL     OW11437   1.897   0.445   0.006
 3517SOL    HW111438   1.863   0.359   0.032
 3517SOL    HW211439   1.893   0.444  13.810
 3518SOL     OW11440   3.282   0.854   1.394
 3518SOL    HW111441   3.231   0.916   1.342
 3518SOL    HW211442   3.370   0.858   1.358
 3519SOL     OW11443   1.947   0.134   0.369
 3519SOL    HW111444   1.918   0.219   0.335
 3519SOL    HW211445   2.039   0.129   0.346
 3520SOL     OW11446   3.049   1.340   0.125
 3520SOL    HW111447   2.954   1.337   0.113
 3520SOL    HW211448   3.063   1.329   0.219
 3521SOL     OW11449   2.486   0.828   1.434
 3521SOL    HW111450   2.544   0.903   1.421
 3521SOL    HW211451   2.546   0.754   1.442
 3522SOL     OW11452   3.344   1.791   0.983
 3522SOL    HW111453   3.368   1.859   0.920
 3522SOL    HW211454   3.428   1.750   1.007
 3523SOL     OW11455   2.580   0.558   1.702
 3523SOL    HW111456   2.625   0.618   1.761
 3523SOL    HW211457   2.598   0.471   1.738
 3524SOL     OW11458   3.335   1.191   1.626
 3524SOL    HW111459   3.325   1.208   1.720
 3524SOL    HW211460   3.428   1.209   1.609
 3525SOL     OW11461   2.230   1.740   1.579
 3525SOL    HW111462   2.176   1.749   1.500
 3525SOL    HW211463   2.188   1.668   1.627
 3526SOL     OW11464   3.521   0.880   1.258
 3526SOL    HW111465   3.521   0.795   1.214
 3526SOL    HW211466   3.514   0.943   1.187
 3527SOL     OW11467   3.092   0.335   0.426
 3527SOL    HW111468   3.155   0.263   0.421
 3527SOL    HW211469   3.108   0.374   0.512
 3528SOL     OW11470   2.446   0.731   0.675
 3528SOL    HW111471   2.487   0.817   0.662
 3528SOL    HW211472   2.382   0.724   0.604
 3529SOL     OW11473   3.613   0.380   1.641
 3529SOL    HW111474   3.593   0.390   1.548
 3529SOL    HW211475   3.550   0.314   1.672
 3530SOL     OW11476   3.616   0.930   1.511
 3530SOL    HW111477   3.604   1.023   1.530
 3530SOL    HW211478   3.588   0.920   1.420
 3531SOL     OW11479   2.776   1.396   0.080
 3531SOL    HW111480   2.714   1.383   0.152
 3531SOL    HW211481   2.722   1.391   0.001
 3532SOL     OW11482   2.524   1.793   0.932
 3532SOL    HW111483   2.521   1.888   0.934
 3532SOL    HW211484   2.618   1.772   0.932
 3533SOL     OW11485   2.732   0.971   0.854
 3533SOL    HW111486   2.783   0.899   0.891
 3533SOL    HW211487   2.692   1.014   0.930
 3534SOL     OW11488   2.956   1.018   0.113
 3534SOL    HW111489   2.949   1.064   0.029
 3534SOL    HW211490   3.030   0.958   0.102
 3535SOL     OW11491   3.707   1.555   0.838
 3535SOL    HW111492   3.628   1.542   0.787
 3535SOL    HW211493   3.703   1.489   0.907
 3536SOL     OW11494   2.089   1.292   1.849
 3536SOL    HW111495   2.029   1.223   1.820
 3536SOL    HW211496   2.058   1.315   1.937
 3537SOL     OW11497   1.950   1.204   0.665
 3537SOL    HW111498   1.977   1.163   0.747
 3537SOL    HW211499   2.024   1.193   0.606
 3538SOL     OW11500   2.547   1.409   1.630
 3538SOL    HW111501   2.471   1.367   1.671
 3538SOL    HW211502   2.548   1.497   1.668
 3539SOL     OW11503   3.673   0.181   1.243
 3539SOL    HW111504   3.675   0.086   1.253
 3539SOL    HW211505   3.694   0.196   1.151
 3540SOL     OW11506   2.293   0.435   0.536
 3540SOL    HW111507   2.329   0.363   0.484
 3540SOL    HW211508   2.243   0.392   0.605
 3541SOL     OW11509   3.554   1.490   1.093
 3541SOL    HW111510   3.477   1.470   1.039
 3541SOL    HW211511   3.558   1.419   1.156
 3542SOL     OW11512   2.200   0.559   1.297
 3542SOL    HW111513   2.250   0.497   1.351
 3542SOL    HW211514   2.218   0.532   1.207
 3543SOL     OW11515   2.695   1.578   0.675
 3543SOL    HW111516   2.671   1.642   0.608
 3543SOL    HW211517   2.621   1.517   0.677
 3544SOL     OW11518   3.320   0.255   1.109
 3544SOL    HW111519   3.335   0.167   1.144
 3544SOL    HW211520   3.266   0.298   1.174
 3545SOL     OW11521   2.861   0.022   1.144
 3545SOL    HW111522   2.777   0.012   1.100
 3545SOL    HW211523   2.896   3.933   1.150
 3546SOL     OW11524   2.646   1.321   0.325
 3546SOL    HW111525   2.617   1.231   0.342
 3546SOL    HW211526   2.724   1.332   0.378
 3547SOL     OW11527   2.484   1.552   1.286
 3547SOL    HW111528   2.481   1.633   1.337
 3547SOL    HW211529   2.573   1.550   1.250
 3548SOL     OW11530   3.175   0.063   0.120
 3548SOL    HW111531   3.188   3.969   0.106
 3548SOL    HW211532   3.124   0.068   0.201
 3549SOL     OW11533   3.134   0.450   0.678
 3549SOL    HW111534   3.090   0.535   0.670
 3549SOL    HW211535   3.142   0.435   0.772
 3550SOL     OW11536   3.455   0.210   0.868
 3550SOL    HW111537   3.405   0.233   0.946
 3550SOL    HW211538   3.451   0.288   0.813
 3551SOL     OW11539   1.903   1.065   0.315
 3551SOL    HW111540   1.998   1.060   0.314
 3551SOL    HW211541   1.874   0.976   0.335
 3552SOL     OW11542   2.766   1.660   0.343
 3552SOL    HW111543   2.689   1.629   0.294
 3552SOL    HW211544   2.732   1.731   0.397
 3553SOL     OW11545   2.081   0.617   1.984
 3553SOL    HW111546   1.992   0.627   2.016
 3553SOL    HW211547   2.072   0.599   1.890
 3554SOL     OW11548   2.078   0.304   2.855
 3554SOL    HW111549   2.113   0.260   2.933
 3554SOL    HW211550   1.992   0.263   2.842
 3555SOL     OW11551   1.870   0.402   2.491
 3555SOL    HW111552   1.785   0.417   2.534
 3555SOL    HW211553   1.852   0.336   2.425
 3556SOL     OW11554   2.432   1.297   3.044
 3556SOL    HW111555   2.348   1.303   2.999
 3556SOL    HW211556   2.451   1.386   3.072
 3557SOL     OW11557   3.434   1.516   2.571
 3557SOL    HW111558   3.390   1.492   2.653
 3557SOL    HW211559   3.364   1.521   2.507
 3558SOL     OW11560   2.996   0.699   2.553
 3558SOL    HW111561   3.043   0.782   2.542
 3558SOL    HW211562   2.948   0.711   2.635
 3559SOL     OW11563   3.632   0.623   2.085
 3559SOL    HW111564   3.609   0.609   1.993
 3559SOL    HW211565   3.603   0.543   2.129
 3560SOL     OW11566   2.606   1.134   2.911
 3560SOL    HW111567   2.541   1.173   2.969
 3560SOL    HW211568   2.647   1.209   2.867
 3561SOL     OW11569   2.738   0.761   3.688
 3561SOL    HW111570   2.725   0.831   3.752
 3561SOL    HW211571   2.759   0.807   3.607
 3562SOL     OW11572   2.548   0.994   2.505
 3562SOL    HW111573   2.614   0.989   2.574
 3562SOL    HW211574   2.479   1.051   2.542
 3563SOL     OW11575   2.580   1.148   3.685
 3563SOL    HW111576   2.628   1.225   3.717
 3563SOL    HW211577   2.499   1.184   3.648
 3564SOL     OW11578   2.192   1.412   2.928
 3564SOL    HW111579   2.118   1.373   2.882
 3564SOL    HW211580   2.236   1.465   2.862
 3565SOL     OW11581   3.319   1.503   3.226
 3565SOL    HW111582   3.374   1.581   3.235
 3565SOL    HW211583   3.250   1.514   3.291
 3566SOL     OW11584   2.311   0.387   3.347
 3566SOL    HW111585   2.404   0.365   3.351
 3566SOL    HW211586   2.266   0.304   3.358
 3567SOL     OW11587   3.471   0.449   2.597
 3567SOL    HW111588   3.408   0.484   2.534
 3567SOL    HW211589   3.483   0.520   2.660
 3568SOL     OW11590   2.100   1.696   2.351
 3568SOL    HW111591   2.056   1.780   2.357
 3568SOL    HW211592   2.173   1.711   2.290
 3569SOL     OW11593   3.000   1.342   3.557
 3569SOL    HW111594   3.042   1.336   3.643
 3569SOL    HW211595   2.948   1.263   3.549
 3570SOL     OW11596   2.094   1.432   2.404
 3570SOL    HW111597   2.093   1.527   2.397
 3570SOL    HW211598   2.034   1.413   2.476
 3571SOL     OW11599   2.130   1.092   2.752
 3571SOL    HW111600   2.128   1.002   2.785
 3571SOL    HW211601   2.073   1.140   2.812
 3572SOL     OW11602   2.466   1.780   3.297
 3572SOL    HW111603   2.389   1.768   3.353
 3572SOL    HW211604   2.492   1.871   3.311
 3573SOL     OW11605   2.438   0.986   2.004
 3573SOL    HW111606   2.488   1.029   1.935
 3573SOL    HW211607   2.477   1.018   2.086
 3574SOL     OW11608   3.447   0.145   3.316
 3574SOL    HW111609   3.477   0.216   3.260
 3574SOL    HW211610   3.402   0.189   3.388
 3575SOL     OW11611   1.984   0.660   2.424
 3575SOL    HW111612   1.955   0.572   2.446
 3575SOL    HW211613   1.974   0.710   2.505
 3576SOL     OW11614   3.704   1.758   2.197
 3576SOL    HW111615   3.775   1.734   2.256
 3576SOL    HW211616   3.721   1.850   2.176
 3577SOL     OW11617   1.944   1.582   1.958
 3577SOL    HW111618   1.901   1.507   2.000
 3577SOL    HW211619   1.876   1.649   1.952
 3578SOL     OW11620   3.554   0.921   2.515
 3578SOL    HW111621   3.637   0.876   2.498
 3578SOL    HW211622   3.536   0.969   2.434
 3579SOL     OW11623   3.506   1.101   2.295
 3579SOL    HW111624   3.591   1.105   2.251
 3579SOL    HW211625   3.512   1.166   2.366
 3580SOL     OW11626   1.984   0.752   3.438
 3580SOL    HW111627   2.072   0.789   3.442
 3580SOL    HW211628   1.926   0.828   3.439
 3581SOL     OW11629   2.481   1.391   2.595
 3581SOL    HW111630   2.436   1.307   2.603
 3581SOL    HW211631   2.463   1.420   2.506
 3582SOL     OW11632   3.145   1.235   3.282
 3582SOL    HW111633   3.176   1.167   3.222
 3582SOL    HW211634   3.205   1.230   3.356
 3583SOL     OW11635   2.686   0.009   2.382
 3583SOL    HW111636   2.731   0.088   2.354
 3583SOL    HW211637   2.593   0.032   2.379
 3584SOL     OW11638   2.048   0.957   3.142
 3584SOL    HW111639   2.135   0.919   3.128
 3584SOL    HW211640   1.994   0.916   3.075
 3585SOL     OW11641   3.388   1.002   2.065
 3585SOL    HW111642   3.319   0.944   2.098
 3585SOL    HW211643   3.431   1.035   2.143
 3586SOL     OW11644   3.048   1.815   3.489
 3586SOL    HW111645   3.054   1.876   3.415
 3586SOL    HW211646   3.065   1.729   3.451
 3587SOL     OW11647   2.226   0.246   3.732
 3587SOL    HW111648   2.271   0.329   3.745
 3587SOL    HW211649   2.134   0.270   3.722
 3588SOL     OW11650   3.329   1.420   2.806
 3588SOL    HW111651   3.263   1.436   2.874
 3588SOL    HW211652   3.317   1.328   2.782
 3589SOL     OW11653   3.510   1.758   2.440
 3589SOL    HW111654   3.494   1.722   2.353
 3589SOL    HW211655   3.496   1.684   2.499
 3590SOL     OW11656   2.455   0.715   2.133
 3590SOL    HW111657   2.458   0.800   2.090
 3590SOL    HW211658   2.390   0.726   2.203
 3591SOL     OW11659   3.137   0.376   2.803
 3591SOL    HW111660   3.050   0.337   2.812
 3591SOL    HW211661   3.195   0.316   2.850
 3592SOL     OW11662   3.439   1.674   2.175
 3592SOL    HW111663   3.530   1.701   2.167
 3592SOL    HW211664   3.410   1.658   2.085
 3593SOL     OW11665   2.658   0.613   3.310
 3593SOL    HW111666   2.630   0.586   3.397
 3593SOL    HW211667   2.624   0.544   3.252
 3594SOL     OW11668   3.255   0.474   3.539
 3594SOL    HW111669   3.262   0.521   3.623
 3594SOL    HW211670   3.309   0.396   3.551
 3595SOL     OW11671   2.809   0.886   3.450
 3595SOL    HW111672   2.865   0.819   3.410
 3595SOL    HW211673   2.761   0.924   3.376
 3596SOL     OW11674   2.859   0.400   3.093
 3596SOL    HW111675   2.772   0.416   3.127
 3596SOL    HW211676   2.845   0.377   3.001
 3597SOL     OW11677   2.916   0.702   2.285
 3597SOL    HW111678   2.935   0.696   2.378
 3597SOL    HW211679   2.832   0.656   2.275
 3598SOL     OW11680   1.948   0.823   2.640
 3598SOL    HW111681   2.029   0.816   2.692
 3598SOL    HW211682   1.902   0.898   2.678
 3599SOL     OW11683   2.756   0.354   2.064
 3599SOL    HW111684   2.799   0.413   2.002
 3599SOL    HW211685   2.743   0.273   2.013
 3600SOL     OW11686   3.562   0.569   3.693
 3600SOL    HW111687   3.529   0.645   3.645
 3600SOL    HW211688   3.590   0.508   3.625
 3601SOL     OW11689   3.241   1.141   2.400
 3601SOL    HW111690   3.321   1.131   2.349
 3601SOL    HW211691   3.189   1.205   2.351
 3602SOL     OW11692   2.423   0.200   2.741
 3602SOL    HW111693   2.424   0.219   2.835
 3602SOL    HW211694   2.418   0.286   2.699
 3603SOL     OW11695   2.860   1.443   2.329
 3603SOL    HW111696   2.832   1.518   2.277
 3603SOL    HW211697   2.834   1.465   2.419
 3604SOL     OW11698   2.262   1.817   2.678
 3604SOL    HW111699   2.248   1.723   2.690
 3604SOL    HW211700   2.338   1.837   2.733
 3605SOL     OW11701   3.670   1.063   2.733
 3605SOL    HW111702   3.619   1.033   2.658
 3605SOL    HW211703   3.608   1.066   2.806
 3606SOL     OW11704   3.088   1.542   3.376
 3606SOL    HW111705   3.076   1.469   3.438
 3606SOL    HW211706   3.017   1.531   3.313
 3607SOL     OW11707   2.175   0.963   2.118
 3607SOL    HW111708   2.258   0.983   2.075
 3607SOL    HW211709   2.148   0.879   2.081
 3608SOL     OW11710   3.344   0.755   2.588
 3608SOL    HW111711   3.341   0.715   2.674
 3608SOL    HW211712   3.422   0.811   2.591
 3609SOL     OW11713   2.338   1.267   3.610
 3609SOL    HW111714   2.313   1.266   3.518
 3609SOL    HW211715   2.255   1.262   3.658
 3610SOL     OW11716   2.991   1.776   2.091
 3610SOL    HW111717   2.913   1.739   2.132
 3610SOL    HW211718   3.014   1.714   2.022
 3611SOL     OW11719   2.024   0.274   3.363
 3611SOL    HW111720   1.981   0.356   3.340
 3611SOL    HW211721   2.020   0.270   3.458
 3612SOL     OW11722   3.485   1.387   1.949
 3612SOL    HW111723   3.441   1.471   1.936
 3612SOL    HW211724   3.419   1.322   1.928
 3613SOL     OW11725   2.333   1.726   2.201
 3613SOL    HW111726   2.382   1.791   2.251
 3613SOL    HW211727   2.391   1.703   2.128
 3614SOL     OW11728   3.300   0.182   2.264
 3614SOL    HW111729   3.241   0.107   2.252
 3614SOL    HW211730   3.376   0.145   2.309
 3615SOL     OW11731   2.127   1.731   3.121
 3615SOL    HW111732   2.158   1.645   3.149
 3615SOL    HW211733   2.139   1.731   3.026
 3616SOL     OW11734   2.800   1.699   2.758
 3616SOL    HW111735   2.880   1.652   2.779
 3616SOL    HW211736   2.761   1.648   2.686
 3617SOL     OW11737   2.259   0.695   2.333
 3617SOL    HW111738   2.274   0.601   2.348
 3617SOL    HW211739   2.166   0.707   2.352
 3618SOL     OW11740   3.391   0.226   3.587
 3618SOL    HW111741   3.378   0.249   3.679
 3618SOL    HW211742   3.383   0.131   3.584
 3619SOL     OW11743   2.508   0.123   1.974
 3619SOL    HW111744   2.523   0.036   2.012
 3619SOL    HW211745   2.445   0.108   1.903
 3620SOL     OW11746   2.631   0.287   3.640
 3620SOL    HW111747   2.712   0.237   3.640
 3620SOL    HW211748   2.579   0.248   3.711
 3621SOL     OW11749   2.739   1.524   3.055
 3621SOL    HW111750   2.722   1.484   2.970
 3621SOL    HW211751   2.808   1.469   3.093
 3622SOL     OW11752   3.198   0.588   3.294
 3622SOL    HW111753   3.230   0.559   3.380
 3622SOL    HW211754   3.233   0.676   3.283
 3623SOL     OW11755   2.681   1.386   2.810
 3623SOL    HW111756   2.767   1.376   2.768
 3623SOL    HW211757   2.619   1.394   2.737
 3624SOL     OW11758   2.793   0.513   2.758
 3624SOL    HW111759   2.767   0.504   2.666
 3624SOL    HW211760   2.817   0.424   2.785
 3625SOL     OW11761   2.406   0.055   2.354
 3625SOL    HW111762   2.332   0.061   2.415
 3625SOL    HW211763   2.400   0.136   2.303
 3626SOL     OW11764   3.288   1.202   1.899
 3626SOL    HW111765   3.318   1.128   1.952
 3626SOL    HW211766   3.203   1.225   1.936
 3627SOL     OW11767   2.194   0.050   2.078
 3627SOL    HW111768   2.197   0.110   2.004
 3627SOL    HW211769   2.270   0.073   2.131
 3628SOL     OW11770   2.809   0.253   2.318
 3628SOL    HW111771   2.783   0.289   2.234
 3628SOL    HW211772   2.904   0.263   2.320
 3629SOL     OW11773   2.941   0.689   3.317
 3629SOL    HW111774   2.872   0.622   3.324
 3629SOL    HW211775   3.023   0.639   3.313
 3630SOL     OW11776   3.078   1.575   2.658
 3630SOL    HW111777   3.092   1.639   2.588
 3630SOL    HW211778   3.149   1.591   2.720
 3631SOL     OW11779   2.337   1.154   2.587
 3631SOL    HW111780   2.270   1.135   2.652
 3631SOL    HW211781   2.292   1.144   2.503
 3632SOL     OW11782   3.124   1.791   2.476
 3632SOL    HW111783   3.174   1.853   2.422
 3632SOL    HW211784   3.055   1.844   2.515
 3633SOL     OW11785   2.883   0.535   1.894
 3633SOL    HW111786   2.839   0.618   1.875
 3633SOL    HW211787   2.946   0.557   1.962
 3634SOL     OW11788   1.950   0.546   3.260
 3634SOL    HW111789   2.041   0.551   3.230
 3634SOL    HW211790   1.941   0.619   3.321
 3635SOL     OW11791   2.421   0.230   3.022
 3635SOL    HW111792   2.443   0.137   3.032
 3635SOL    HW211793   2.332   0.237   3.057
 3636SOL     OW11794   2.732   0.460   2.497
 3636SOL    HW111795   2.687   0.516   2.434
 3636SOL    HW211796   2.755   0.381   2.448
 3637SOL     OW11797   2.860   0.034   2.646
 3637SOL    HW111798   2.816   0.068   2.567
 3637SOL    HW211799   2.873   3.941   2.628
 3638SOL     OW11800   3.305   1.159   2.719
 3638SOL    HW111801   3.230   1.098   2.719
 3638SOL    HW211802   3.329   1.167   2.627
 3639SOL     OW11803   3.324   0.612   2.828
 3639SOL    HW111804   3.267   0.536   2.833
 3639SOL    HW211805   3.382   0.604   2.904
 3640SOL     OW11806   3.721   0.826   2.237
 3640SOL    HW111807   3.760   0.769   2.303
 3640SOL    HW211808   3.686   0.766   2.171
 3641SOL     OW11809   2.354   1.423   2.015
 3641SOL    HW111810   2.277   1.397   2.066
 3641SOL    HW211811   2.350   1.369   1.936
 3642SOL     OW11812   3.534   1.267   2.502
 3642SOL    HW111813   3.629   1.269   2.512
 3642SOL    HW211814   3.506   1.356   2.523
 3643SOL     OW11815   3.256   0.579   1.928
 3643SOL    HW111816   3.193   0.560   1.997
 3643SOL    HW211817   3.342   0.567   1.970
 3644SOL     OW11818   2.386   0.265   2.177
 3644SOL    HW111819   2.445   0.227   2.112
 3644SOL    HW211820   2.356   0.347   2.137
 3645SOL     OW11821   3.610   1.229   3.417
 3645SOL    HW111822   3.699   1.196   3.401
 3645SOL    HW211823   3.624   1.320   3.447
 3646SOL     OW11824   2.914   1.352   3.192
 3646SOL    HW111825   2.839   1.321   3.242
 3646SOL    HW211826   2.990   1.311   3.235
 3647SOL     OW11827   3.469   1.630   3.522
 3647SOL    HW111828   3.459   1.666   3.434
 3647SOL    HW211829   3.546   1.575   3.517
 3648SOL     OW11830   2.999   1.213   2.963
 3648SOL    HW111831   2.940   1.251   3.027
 3648SOL    HW211832   2.970   1.249   2.879
 3649SOL     OW11833   3.485   1.092   2.935
 3649SOL    HW111834   3.474   1.156   3.006
 3649SOL    HW211835   3.412   1.110   2.875
 3650SOL     OW11836   2.773   0.123   3.263
 3650SOL    HW111837   2.793   0.090   3.175
 3650SOL    HW211838   2.854   0.163   3.292
 3651SOL     OW11839   2.846   1.116   3.586
 3651SOL    HW111840   2.756   1.133   3.611
 3651SOL    HW211841   2.842   1.037   3.532
 3652SOL     OW11842   2.572   1.064   2.233
 3652SOL    HW111843   2.557   1.042   2.325
 3652SOL    HW211844   2.647   1.010   2.208
 3653SOL     OW11845   2.285   0.819   3.115
 3653SOL    HW111846   2.354   0.828   3.181
 3653SOL    HW211847   2.251   0.731   3.128
 3654SOL     OW11848   3.129   0.375   3.140
 3654SOL    HW111849   3.160   0.454   3.184
 3654SOL    HW211850   3.040   0.397   3.111
 3655SOL     OW11851   2.198   1.122   2.351
 3655SOL    HW111852   2.197   1.198   2.293
 3655SOL    HW211853   2.196   1.046   2.292
 3656SOL     OW11854   2.414   0.523   2.715
 3656SOL    HW111855   2.425   0.584   2.642
 3656SOL    HW211856   2.478   0.551   2.780
 3657SOL     OW11857   3.109   1.350   2.254
 3657SOL    HW111858   3.164   1.421   2.286
 3657SOL    HW211859   3.021   1.371   2.286
 3658SOL     OW11860   3.155   1.462   3.011
 3658SOL    HW111861   3.209   1.469   3.089
 3658SOL    HW211862   3.100   1.385   3.026
 3659SOL     OW11863   3.427   0.636   2.353
 3659SOL    HW111864   3.384   0.685   2.423
 3659SOL    HW211865   3.472   0.703   2.301
 3660SOL     OW11866   2.220   1.486   3.181
 3660SOL    HW111867   2.208   1.456   3.091
 3660SOL    HW211868   2.313   1.511   3.186
 3661SOL     OW11869   2.287   0.744   3.468
 3661SOL    HW111870   2.347   0.788   3.408
 3661SOL    HW211871   2.330   0.662   3.489
 3662SOL     OW11872   3.471   0.781   3.551
 3662SOL    HW111873   3.385   0.823   3.545
 3662SOL    HW211874   3.524   0.824   3.483
 3663SOL     OW11875   2.862   0.147   3.647
 3663SOL    HW111876   2.925   0.212   3.614
 3663SOL    HW211877   2.853   0.085   3.574
 3664SOL     OW11878   2.354   0.036   3.622
 3664SOL    HW111879   2.351   0.054   3.528
 3664SOL    HW211880   2.294   0.099   3.661
 3665SOL     OW11881   2.448   0.875   2.895
 3665SOL    HW111882   2.482   0.965   2.898
 3665SOL    HW211883   2.390   0.868   2.971
 3666SOL     OW11884   3.202   0.858   2.879
 3666SOL    HW111885   3.115   0.841   2.843
 3666SOL    HW211886   3.249   0.776   2.869
 3667SOL     OW11887   3.058   0.541   2.114
 3667SOL    HW111888   3.065   0.462   2.167
 3667SOL    HW211889   3.016   0.605   2.171
 3668SOL     OW11890   2.156   0.206   3.106
 3668SOL    HW111891   2.113   0.234   3.187
 3668SOL    HW211892   2.147   0.111   3.105
 3669SOL     OW11893   1.915   1.341   3.159
 3669SOL    HW111894   1.939   1.269   3.217
 3669SOL    HW211895   1.995   1.394   3.152
 3670SOL     OW11896   2.579   0.630   2.908
 3670SOL    HW111897   2.657   0.622   2.853
 3670SOL    HW211898   2.548   0.719   2.893
 3671SOL     OW11899   3.594   0.956   3.735
 3671SOL    HW111900   3.554   0.890   3.678
 3671SOL    HW211901   3.527   0.975   3.801
 3672SOL     OW11902   2.187   0.051   2.526
 3672SOL    HW111903   2.165   0.144   2.535
 3672SOL    HW211904   2.167   0.014   2.612
 3673SOL     OW11905   3.478   0.402   2.237
 3673SOL    HW111906   3.429   0.333   2.284
 3673SOL    HW211907   3.456   0.482   2.284
 3674SOL     OW11908   2.894   0.759   2.818
 3674SOL    HW111909   2.882   0.775   2.912
 3674SOL    HW211910   2.866   0.668   2.806
 3675SOL     OW11911   2.845   1.566   3.586
 3675SOL    HW111912   2.827   1.610   3.503
 3675SOL    HW211913   2.887   1.484   3.562
 3676SOL     OW11914   3.700   1.490   3.458
 3676SOL    HW111915   3.726   1.523   3.372
 3676SOL    HW211916   3.780   1.497   3.511
 3677SOL     OW11917   2.211   0.916   3.671
 3677SOL    HW111918   2.291   0.937   3.721
 3677SOL    HW211919   2.240   0.853   3.605
 3678SOL     OW11920   3.354   0.267   1.991
 3678SOL    HW111921   3.283   0.202   1.999
 3678SOL    HW211922   3.362   0.305   2.078
 3679SOL     OW11923   3.146   0.827   1.887
 3679SOL    HW111924   3.187   0.741   1.891
 3679SOL    HW211925   3.179   0.866   1.806
 3680SOL     OW11926   2.932   1.341   2.721
 3680SOL    HW111927   2.938   1.270   2.658
 3680SOL    HW211928   2.988   1.410   2.684
 3681SOL     OW11929   2.171   0.812   2.806
 3681SOL    HW111930   2.264   0.832   2.800
 3681SOL    HW211931   2.167   0.722   2.839
 3682SOL     OW11932   2.198   0.540   2.877
 3682SOL    HW111933   2.156   0.455   2.863
 3682SOL    HW211934   2.274   0.538   2.818
 3683SOL     OW11935   2.997   0.378   3.563
 3683SOL    HW111936   2.948   0.431   3.625
 3683SOL    HW211937   3.083   0.419   3.558
 3684SOL     OW11938   3.015   0.225   3.343
 3684SOL    HW111939   3.005   0.277   3.423
 3684SOL    HW211940   3.044   0.288   3.277
 3685SOL     OW11941   1.870   1.320   2.054
 3685SOL    HW111942   1.782   1.335   2.018
 3685SOL    HW211943   1.865   1.231   2.090
 3686SOL     OW11944   2.356   1.566   2.772
 3686SOL    HW111945   2.421   1.634   2.791
 3686SOL    HW211946   2.401   1.507   2.710
 3687SOL     OW11947   2.831   0.783   3.082
 3687SOL    HW111948   2.890   0.768   3.156
 3687SOL    HW211949   2.748   0.745   3.110
 3688SOL     OW11950   1.895   0.551   2.980
 3688SOL    HW111951   1.969   0.528   2.923
 3688SOL    HW211952   1.931   0.548   3.069
 3689SOL     OW11953   2.066   0.529   3.573
 3689SOL    HW111954   2.141   0.509   3.517
 3689SOL    HW211955   2.025   0.605   3.532
 3690SOL     OW11956   3.244   0.931   3.517
 3690SOL    HW111957   3.265   1.025   3.513
 3690SOL    HW211958   3.239   0.904   3.425
 3691SOL     OW11959   2.680   0.573   2.232
 3691SOL    HW111960   2.686   0.498   2.172
 3691SOL    HW211961   2.604   0.623   2.199
 3692SOL     OW11962   3.498   0.603   3.039
 3692SOL    HW111963   3.487   0.542   3.112
 3692SOL    HW211964   3.585   0.583   3.004
 3693SOL     OW11965   2.087   1.554   3.596
 3693SOL    HW111966   2.049   1.583   3.679
 3693SOL    HW211967   2.118   1.465   3.614
 3694SOL     OW11968   2.582   0.446   3.108
 3694SOL    HW111969   2.526   0.372   3.088
 3694SOL    HW211970   2.568   0.508   3.036
 3695SOL     OW11971   2.786   1.675   3.334
 3695SOL    HW111972   2.757   1.636   3.252
 3695SOL    HW211973   2.782   1.770   3.319
 3696SOL     OW11974   2.320   0.491   2.037
 3696SOL    HW111975   2.379   0.562   2.064
 3696SOL    HW211976   2.234   0.533   2.028
 3697SOL     OW11977   1.999   1.141   3.333
 3697SOL    HW111978   2.002   1.096   3.417
 3697SOL    HW211979   2.016   1.073   3.268
 3698SOL     OW11980   3.178   1.041   3.080
 3698SOL    HW111981   3.199   0.979   3.010
 3698SOL    HW211982   3.114   1.100   3.041
 3699SOL     OW11983   3.179   0.853   2.164
 3699SOL    HW111984   3.103   0.827   2.217
 3699SOL    HW211985   3.149   0.843   2.073
 3700SOL     OW11986   3.649   1.736   3.025
 3700SOL    HW111987   3.704   1.763   2.951
 3700SOL    HW211988   3.615   1.650   2.999
 3701SOL     OW11989   3.102   1.733   2.964
 3701SOL    HW111990   3.185   1.758   2.924
 3701SOL    HW211991   3.113   1.640   2.986
 3702SOL     OW11992   1.956   1.247   2.893
 3702SOL    HW111993   1.921   1.275   2.978
 3702SOL    HW211994   1.879   1.215   2.846
 3703SOL     OW11995   2.543   1.670   3.602
 3703SOL    HW111996   2.483   1.745   3.605
 3703SOL    HW211997   2.608   1.694   3.537
 3704SOL     OW11998   3.547   0.116   2.352
 3704SOL    HW111999   3.627   0.134   2.302
 3704SOL    HW212000   3.552   0.024   2.376
 3705SOL     OW12001   3.255   1.567   2.356
 3705SOL    HW112002   3.312   1.602   2.287
 3705SOL    HW212003   3.203   1.643   2.384
 3706SOL     OW12004   3.139   0.929   2.532
 3706SOL    HW112005   3.214   0.872   2.546
 3706SOL    HW212006   3.173   1.001   2.479
 3707SOL     OW12007   2.663   1.277   3.283
 3707SOL    HW112008   2.636   1.319   3.365
 3707SOL    HW212009   2.592   1.297   3.222
 3708SOL     OW12010   2.532   1.629   2.018
 3708SOL    HW112011   2.546   1.642   1.924
 3708SOL    HW212012   2.476   1.552   2.024
 3709SOL     OW12013   3.478   1.729   3.255
 3709SOL    HW112014   3.535   1.732   3.179
 3709SOL    HW212015   3.463   1.820   3.278
 3710SOL     OW12016   3.707   0.182   2.833
 3710SOL    HW112017   3.730   0.096   2.796
 3710SOL    HW212018   3.621   0.201   2.795
 3711SOL     OW12019   2.122   0.313   2.576
 3711SOL    HW112020   2.036   0.348   2.552
 3711SOL    HW212021   2.121   0.311   2.672
 3712SOL     OW12022   3.070   1.599   1.895
 3712SOL    HW112023   3.059   1.508   1.923
 3712SOL    HW212024   3.003   1.613   1.829
 3713SOL     OW12025   2.686   1.008   3.238
 3713SOL    HW112026   2.726   1.003   3.151
 3713SOL    HW212027   2.680   1.102   3.256
 3714SOL     OW12028   2.778   0.911   2.153
 3714SOL    HW112029   2.838   0.945   2.086
 3714SOL    HW212030   2.828   0.844   2.199
 3715SOL     OW12031   3.348   1.635   1.908
 3715SOL    HW112032   3.254   1.622   1.893
 3715SOL    HW212033   3.386   1.640   1.821
 3716SOL     OW12034   2.230   1.289   3.369
 3716SOL    HW112035   2.229   1.360   3.304
 3716SOL    HW212036   2.152   1.238   3.349
 3717SOL     OW12037   3.458   1.281   3.136
 3717SOL    HW112038   3.526   1.268   3.203
 3717SOL    HW212039   3.401   1.349   3.173
 3718SOL     OW12040   2.926   1.112   2.576
 3718SOL    HW112041   2.853   1.063   2.611
 3718SOL    HW212042   2.990   1.046   2.549
 3719SOL     OW12043   2.879   0.251   2.834
 3719SOL    HW112044   2.869   0.199   2.754
 3719SOL    HW212045   2.880   0.186   2.904
 3720SOL     OW12046   2.469   1.493   2.342
 3720SOL    HW112047   2.513   1.441   2.274
 3720SOL    HW212048   2.399   1.538   2.296
 3721SOL     OW12049   3.584   0.397   3.231
 3721SOL    HW112050   3.657   0.459   3.233
 3721SOL    HW212051   3.615   0.324   3.178
 3722SOL     OW12052   2.126   1.339   2.156
 3722SOL    HW112053   2.034   1.338   2.129
 3722SOL    HW212054   2.125   1.378   2.244
 3723SOL     OW12055   1.977   1.038   3.587
 3723SOL    HW112056   1.900   1.009   3.638
 3723SOL    HW212057   2.051   0.992   3.628
 3724SOL     OW12058   2.561   0.272   3.370
 3724SOL    HW112059   2.625   0.214   3.328
 3724SOL    HW212060   2.586   0.272   3.462
 3725SOL     OW12061   1.968   0.316   1.853
 3725SOL    HW112062   1.901   0.335   1.919
 3725SOL    HW212063   1.974   0.397   1.801
 3726SOL     OW12064   3.282   0.854   3.256
 3726SOL    HW112065   3.231   0.916   3.203
 3726SOL    HW212066   3.370   0.858   3.220
 3727SOL     OW12067   1.941   0.147   2.199
 3727SOL    HW112068   1.908   0.203   2.129
 3727SOL    HW212069   2.028   0.121   2.170
 3728SOL     OW12070   3.040   1.332   1.981
 3728SOL    HW112071   2.948   1.304   1.982
 3728SOL    HW212072   3.065   1.334   2.073
 3729SOL     OW12073   2.486   0.828   3.296
 3729SOL    HW112074   2.544   0.903   3.282
 3729SOL    HW212075   2.546   0.754   3.304
 3730SOL     OW12076   3.344   1.790   2.844
 3730SOL    HW112077   3.367   1.860   2.783
 3730SOL    HW212078   3.428   1.752   2.870
 3731SOL     OW12079   2.580   0.558   3.564
 3731SOL    HW112080   2.625   0.618   3.623
 3731SOL    HW212081   2.598   0.471   3.600
 3732SOL     OW12082   3.335   1.191   3.488
 3732SOL    HW112083   3.325   1.208   3.582
 3732SOL    HW212084   3.428   1.209   3.471
 3733SOL     OW12085   2.230   1.737   3.442
 3733SOL    HW112086   2.176   1.745   3.364
 3733SOL    HW212087   2.189   1.666   3.492
 3734SOL     OW12088   3.521   0.880   3.120
 3734SOL    HW112089   3.521   0.795   3.076
 3734SOL    HW212090   3.514   0.943   3.049
 3735SOL     OW12091   3.079   0.343   2.301
 3735SOL    HW112092   3.150   0.280   2.290
 3735SOL    HW212093   3.096   0.386   2.384
 3736SOL     OW12094   2.448   0.732   2.535
 3736SOL    HW112095   2.488   0.818   2.522
 3736SOL    HW212096   2.384   0.724   2.465
 3737SOL     OW12097   3.613   0.380   3.503
 3737SOL    HW112098   3.593   0.390   3.410
 3737SOL    HW212099   3.550   0.314   3.534
 3738SOL     OW12100   3.616   0.930   3.373
 3738SOL    HW112101   3.604   1.023   3.392
 3738SOL    HW212102   3.588   0.920   3.282
 3739SOL     OW12103   2.728   1.364   1.909
 3739SOL    HW112104   2.689   1.389   1.993
 3739SOL    HW212105   2.741   1.447   1.863
 3740SOL     OW12106   2.524   1.793   2.793
 3740SOL    HW112107   2.521   1.889   2.793
 3740SOL    HW212108   2.618   1.772   2.794
 3741SOL     OW12109   2.732   0.972   2.715
 3741SOL    HW112110   2.783   0.900   2.753
 3741SOL    HW212111   2.692   1.015   2.791
 3742SOL     OW12112   2.938   0.990   1.952
 3742SOL    HW112113   2.916   1.042   1.875
 3742SOL    HW212114   3.012   0.935   1.924
 3743SOL     OW12115   3.707   1.557   2.702
 3743SOL    HW112116   3.627   1.542   2.651
 3743SOL    HW212117   3.707   1.487   2.768
 3744SOL     OW12118   2.090   1.292   3.712
 3744SOL    HW112119   2.030   1.223   3.683
 3744SOL    HW212120   2.060   1.314   3.800
 3745SOL     OW12121   1.949   1.207   2.525
 3745SOL    HW112122   1.976   1.167   2.608
 3745SOL    HW212123   2.021   1.189   2.465
 3746SOL     OW12124   2.547   1.409   3.493
 3746SOL    HW112125   2.472   1.367   3.533
 3746SOL    HW212126   2.548   1.498   3.529
 3747SOL     OW12127   3.673   0.181   3.106
 3747SOL    HW112128   3.675   0.086   3.116
 3747SOL    HW212129   3.694   0.195   3.013
 3748SOL     OW12130   2.289   0.434   2.387
 3748SOL    HW112131   2.325   0.363   2.334
 3748SOL    HW212132   2.240   0.390   2.457
 3749SOL     OW12133   3.554   1.490   2.956
 3749SOL    HW112134   3.477   1.470   2.902
 3749SOL    HW212135   3.559   1.419   3.019
 3750SOL     OW12136   2.199   0.559   3.159
 3750SOL    HW112137   2.250   0.498   3.213
 3750SOL    HW212138   2.218   0.532   3.069
 3751SOL     OW12139   2.695   1.577   2.536
 3751SOL    HW112140   2.672   1.640   2.468
 3751SOL    HW212141   2.621   1.517   2.539
 3752SOL     OW12142   3.321   0.255   2.971
 3752SOL    HW112143   3.336   0.168   3.006
 3752SOL    HW212144   3.266   0.299   3.037
 3753SOL     OW12145   2.861   0.022   3.006
 3753SOL    HW112146   2.777   0.012   2.962
 3753SOL    HW212147   2.896   3.933   3.013
 3754SOL     OW12148   2.637   1.334   2.183
 3754SOL    HW112149   2.610   1.243   2.193
 3754SOL    HW212150   2.718   1.341   2.235
 3755SOL     OW12151   2.484   1.552   3.148
 3755SOL    HW112152   2.481   1.633   3.199
 3755SOL    HW212153   2.573   1.550   3.112
 3756SOL     OW12154   3.163   0.067   2.019
 3756SOL    HW112155   3.167   3.974   1.996
 3756SOL    HW212156   3.087   0.074   2.076
 3757SOL     OW12157   3.137   0.456   2.544
 3757SOL    HW112158   3.092   0.540   2.538
 3757SOL    HW212159   3.142   0.438   2.638
 3758SOL     OW12160   3.454   0.209   2.730
 3758SOL    HW112161   3.405   0.233   2.808
 3758SOL    HW212162   3.452   0.287   2.675
 3759SOL     OW12163   1.904   1.067   2.169
 3759SOL    HW112164   1.998   1.059   2.151
 3759SOL    HW212165   1.877   0.979   2.194
 3760SOL     OW12166   2.754   1.660   2.196
 3760SOL    HW112167   2.678   1.646   2.140
 3760SOL    HW212168   2.730   1.732   2.253
 3761SOL     OW12169   2.081   0.616   3.846
 3761SOL    HW112170   1.992   0.627   3.878
 3761SOL    HW212171   2.072   0.599   3.752
 3762SOL     OW12172   2.078   0.304   4.717
 3762SOL    HW112173   2.113   0.260   4.795
 3762SOL    HW212174   1.992   0.263   4.704
 3763SOL     OW12175   1.870   0.402   4.353
 3763SOL    HW112176   1.785   0.417   4.396
 3763SOL    HW212177   1.852   0.336   4.287
 3764SOL     OW12178   2.431   1.297   4.907
 3764SOL    HW112179   2.347   1.304   4.861
 3764SOL    HW212180   2.451   1.386   4.935
 3765SOL     OW12181   3.434   1.516   4.433
 3765SOL    HW112182   3.390   1.492   4.515
 3765SOL    HW212183   3.364   1.521   4.369
 3766SOL     OW12184   2.996   0.699   4.415
 3766SOL    HW112185   3.043   0.782   4.404
 3766SOL    HW212186   2.948   0.711   4.497
 3767SOL     OW12187   3.632   0.623   3.946
 3767SOL    HW112188   3.609   0.609   3.855
 3767SOL    HW212189   3.603   0.543   3.991
 3768SOL     OW12190   2.606   1.134   4.773
 3768SOL    HW112191   2.540   1.173   4.831
 3768SOL    HW212192   2.646   1.209   4.729
 3769SOL     OW12193   2.738   0.761   5.549
 3769SOL    HW112194   2.724   0.831   5.613
 3769SOL    HW212195   2.759   0.806   5.468
 3770SOL     OW12196   2.548   0.994   4.367
 3770SOL    HW112197   2.614   0.989   4.436
 3770SOL    HW212198   2.479   1.051   4.404
 3771SOL     OW12199   2.577   1.149   5.549
 3771SOL    HW112200   2.627   1.225   5.578
 3771SOL    HW212201   2.497   1.186   5.512
 3772SOL     OW12202   2.192   1.413   4.790
 3772SOL    HW112203   2.118   1.374   4.744
 3772SOL    HW212204   2.236   1.467   4.724
 3773SOL     OW12205   3.320   1.503   5.088
 3773SOL    HW112206   3.374   1.581   5.097
 3773SOL    HW212207   3.250   1.514   5.152
 3774SOL     OW12208   2.311   0.388   5.210
 3774SOL    HW112209   2.404   0.364   5.214
 3774SOL    HW212210   2.265   0.305   5.221
 3775SOL     OW12211   3.471   0.449   4.459
 3775SOL    HW112212   3.408   0.484   4.396
 3775SOL    HW212213   3.483   0.520   4.522
 3776SOL     OW12214   2.100   1.698   4.213
 3776SOL    HW112215   2.053   1.782   4.212
 3776SOL    HW212216   2.172   1.711   4.151
 3777SOL     OW12217   3.000   1.342   5.416
 3777SOL    HW112218   3.041   1.337   5.503
 3777SOL    HW212219   2.948   1.263   5.410
 3778SOL     OW12220   2.093   1.434   4.266
 3778SOL    HW112221   2.093   1.529   4.259
 3778SOL    HW212222   2.033   1.415   4.338
 3779SOL     OW12223   2.130   1.092   4.614
 3779SOL    HW112224   2.127   1.002   4.647
 3779SOL    HW212225   2.073   1.140   4.673
 3780SOL     OW12226   2.466   1.780   5.156
 3780SOL    HW112227   2.390   1.768   5.213
 3780SOL    HW212228   2.492   1.871   5.170
 3781SOL     OW12229   2.438   0.986   3.866
 3781SOL    HW112230   2.488   1.029   3.797
 3781SOL    HW212231   2.477   1.018   3.948
 3782SOL     OW12232   3.448   0.145   5.178
 3782SOL    HW112233   3.477   0.216   5.121
 3782SOL    HW212234   3.402   0.189   5.250
 3783SOL     OW12235   1.984   0.660   4.286
 3783SOL    HW112236   1.955   0.572   4.309
 3783SOL    HW212237   1.974   0.710   4.367
 3784SOL     OW12238   3.704   1.758   4.059
 3784SOL    HW112239   3.775   1.734   4.118
 3784SOL    HW212240   3.721   1.850   4.038
 3785SOL     OW12241   1.943   1.581   3.824
 3785SOL    HW112242   1.904   1.503   3.864
 3785SOL    HW212243   1.870   1.642   3.814
 3786SOL     OW12244   3.554   0.921   4.377
 3786SOL    HW112245   3.637   0.876   4.360
 3786SOL    HW212246   3.536   0.970   4.296
 3787SOL     OW12247   3.506   1.101   4.158
 3787SOL    HW112248   3.591   1.105   4.113
 3787SOL    HW212249   3.512   1.166   4.228
 3788SOL     OW12250   1.982   0.752   5.301
 3788SOL    HW112251   2.069   0.792   5.305
 3788SOL    HW212252   1.922   0.826   5.298
 3789SOL     OW12253   2.480   1.392   4.457
 3789SOL    HW112254   2.435   1.308   4.465
 3789SOL    HW212255   2.462   1.421   4.368
 3790SOL     OW12256   3.145   1.235   5.143
 3790SOL    HW112257   3.176   1.166   5.083
 3790SOL    HW212258   3.205   1.230   5.218
 3791SOL     OW12259   2.686   0.009   4.244
 3791SOL    HW112260   2.731   0.088   4.216
 3791SOL    HW212261   2.593   0.032   4.241
 3792SOL     OW12262   2.048   0.956   5.005
 3792SOL    HW112263   2.135   0.919   4.991
 3792SOL    HW212264   1.994   0.918   4.937
 3793SOL     OW12265   3.387   1.002   3.927
 3793SOL    HW112266   3.319   0.944   3.960
 3793SOL    HW212267   3.431   1.035   4.005
 3794SOL     OW12268   3.050   1.816   5.351
 3794SOL    HW112269   3.055   1.876   5.277
 3794SOL    HW212270   3.066   1.730   5.313
 3795SOL     OW12271   2.225   0.246   5.594
 3795SOL    HW112272   2.271   0.329   5.606
 3795SOL    HW212273   2.133   0.270   5.585
 3796SOL     OW12274   3.329   1.420   4.668
 3796SOL    HW112275   3.263   1.436   4.736
 3796SOL    HW212276   3.317   1.328   4.644
 3797SOL     OW12277   3.510   1.758   4.302
 3797SOL    HW112278   3.494   1.722   4.215
 3797SOL    HW212279   3.496   1.684   4.361
 3798SOL     OW12280   2.455   0.715   3.995
 3798SOL    HW112281   2.458   0.800   3.952
 3798SOL    HW212282   2.391   0.726   4.065
 3799SOL     OW12283   3.137   0.376   4.665
 3799SOL    HW112284   3.050   0.337   4.675
 3799SOL    HW212285   3.195   0.316   4.712
 3800SOL     OW12286   3.439   1.674   4.037
 3800SOL    HW112287   3.530   1.701   4.029
 3800SOL    HW212288   3.410   1.658   3.947
 3801SOL     OW12289   2.658   0.612   5.172
 3801SOL    HW112290   2.630   0.586   5.259
 3801SOL    HW212291   2.625   0.544   5.114
 3802SOL     OW12292   3.255   0.474   5.401
 3802SOL    HW112293   3.262   0.521   5.484
 3802SOL    HW212294   3.309   0.396   5.413
 3803SOL     OW12295   2.809   0.886   5.312
 3803SOL    HW112296   2.865   0.819   5.272
 3803SOL    HW212297   2.762   0.924   5.238
 3804SOL     OW12298   2.859   0.400   4.955
 3804SOL    HW112299   2.772   0.416   4.989
 3804SOL    HW212300   2.845   0.377   4.863
 3805SOL     OW12301   2.916   0.702   4.147
 3805SOL    HW112302   2.935   0.696   4.240
 3805SOL    HW212303   2.832   0.656   4.137
 3806SOL     OW12304   1.948   0.823   4.502
 3806SOL    HW112305   2.028   0.816   4.554
 3806SOL    HW212306   1.902   0.898   4.540
 3807SOL     OW12307   2.756   0.354   3.926
 3807SOL    HW112308   2.799   0.413   3.865
 3807SOL    HW212309   2.743   0.273   3.875
 3808SOL     OW12310   3.562   0.570   5.555
 3808SOL    HW112311   3.529   0.646   5.507
 3808SOL    HW212312   3.590   0.508   5.487
 3809SOL     OW12313   3.241   1.141   4.262
 3809SOL    HW112314   3.321   1.131   4.211
 3809SOL    HW212315   3.189   1.205   4.213
 3810SOL     OW12316   2.423   0.200   4.603
 3810SOL    HW112317   2.424   0.219   4.697
 3810SOL    HW212318   2.418   0.286   4.561
 3811SOL     OW12319   2.860   1.444   4.191
 3811SOL    HW112320   2.831   1.519   4.139
 3811SOL    HW212321   2.834   1.465   4.281
 3812SOL     OW12322   2.260   1.819   4.537
 3812SOL    HW112323   2.247   1.725   4.548
 3812SOL    HW212324   2.336   1.840   4.592
 3813SOL     OW12325   3.670   1.063   4.595
 3813SOL    HW112326   3.619   1.033   4.520
 3813SOL    HW212327   3.607   1.066   4.668
 3814SOL     OW12328   3.088   1.542   5.237
 3814SOL    HW112329   3.076   1.469   5.299
 3814SOL    HW212330   3.016   1.532   5.175
 3815SOL     OW12331   2.175   0.963   3.980
 3815SOL    HW112332   2.258   0.983   3.937
 3815SOL    HW212333   2.148   0.879   3.943
 3816SOL     OW12334   3.344   0.755   4.450
 3816SOL    HW112335   3.341   0.715   4.536
 3816SOL    HW212336   3.422   0.811   4.453
 3817SOL     OW12337   2.328   1.268   5.479
 3817SOL    HW112338   2.305   1.270   5.386
 3817SOL    HW212339   2.245   1.256   5.524
 3818SOL     OW12340   2.991   1.776   3.954
 3818SOL    HW112341   2.913   1.739   3.994
 3818SOL    HW212342   3.014   1.714   3.885
 3819SOL     OW12343   2.025   0.275   5.224
 3819SOL    HW112344   1.982   0.357   5.202
 3819SOL    HW212345   2.020   0.270   5.320
 3820SOL     OW12346   3.485   1.387   3.811
 3820SOL    HW112347   3.441   1.471   3.798
 3820SOL    HW212348   3.419   1.322   3.790
 3821SOL     OW12349   2.334   1.721   4.063
 3821SOL    HW112350   2.382   1.788   4.111
 3821SOL    HW212351   2.391   1.700   3.989
 3822SOL     OW12352   3.300   0.182   4.126
 3822SOL    HW112353   3.242   0.107   4.114
 3822SOL    HW212354   3.376   0.145   4.172
 3823SOL     OW12355   2.123   1.731   4.975
 3823SOL    HW112356   2.156   1.647   5.006
 3823SOL    HW212357   2.137   1.729   4.880
 3824SOL     OW12358   2.800   1.699   4.620
 3824SOL    HW112359   2.881   1.652   4.641
 3824SOL    HW212360   2.761   1.648   4.548
 3825SOL     OW12361   2.259   0.694   4.195
 3825SOL    HW112362   2.274   0.601   4.210
 3825SOL    HW212363   2.166   0.707   4.214
 3826SOL     OW12364   3.391   0.226   5.449
 3826SOL    HW112365   3.378   0.248   5.541
 3826SOL    HW212366   3.382   0.131   5.446
 3827SOL     OW12367   2.508   0.123   3.836
 3827SOL    HW112368   2.523   0.036   3.874
 3827SOL    HW212369   2.445   0.108   3.765
 3828SOL     OW12370   2.631   0.287   5.503
 3828SOL    HW112371   2.713   0.237   5.502
 3828SOL    HW212372   2.579   0.247   5.573
 3829SOL     OW12373   2.739   1.523   4.917
 3829SOL    HW112374   2.722   1.484   4.832
 3829SOL    HW212375   2.808   1.469   4.955
 3830SOL     OW12376   3.198   0.588   5.156
 3830SOL    HW112377   3.230   0.559   5.241
 3830SOL    HW212378   3.233   0.676   5.145
 3831SOL     OW12379   2.681   1.386   4.672
 3831SOL    HW112380   2.766   1.376   4.630
 3831SOL    HW212381   2.619   1.394   4.600
 3832SOL     OW12382   2.793   0.513   4.620
 3832SOL    HW112383   2.767   0.504   4.528
 3832SOL    HW212384   2.817   0.424   4.647
 3833SOL     OW12385   2.406   0.055   4.216
 3833SOL    HW112386   2.332   0.061   4.277
 3833SOL    HW212387   2.400   0.136   4.165
 3834SOL     OW12388   3.288   1.202   3.761
 3834SOL    HW112389   3.318   1.128   3.814
 3834SOL    HW212390   3.203   1.226   3.798
 3835SOL     OW12391   2.194   0.050   3.940
 3835SOL    HW112392   2.197   0.110   3.866
 3835SOL    HW212393   2.270   0.073   3.993
 3836SOL     OW12394   2.809   0.253   4.180
 3836SOL    HW112395   2.783   0.289   4.096
 3836SOL    HW212396   2.904   0.263   4.182
 3837SOL     OW12397   2.941   0.689   5.179
 3837SOL    HW112398   2.872   0.622   5.185
 3837SOL    HW212399   3.022   0.639   5.175
 3838SOL     OW12400   3.078   1.575   4.520
 3838SOL    HW112401   3.092   1.639   4.450
 3838SOL    HW212402   3.149   1.591   4.582
 3839SOL     OW12403   2.337   1.155   4.449
 3839SOL    HW112404   2.270   1.135   4.514
 3839SOL    HW212405   2.292   1.144   4.365
 3840SOL     OW12406   3.124   1.791   4.338
 3840SOL    HW112407   3.173   1.853   4.284
 3840SOL    HW212408   3.055   1.844   4.377
 3841SOL     OW12409   2.883   0.535   3.756
 3841SOL    HW112410   2.839   0.618   3.736
 3841SOL    HW212411   2.946   0.557   3.824
 3842SOL     OW12412   1.950   0.546   5.122
 3842SOL    HW112413   2.041   0.551   5.092
 3842SOL    HW212414   1.941   0.619   5.183
 3843SOL     OW12415   2.421   0.230   4.884
 3843SOL    HW112416   2.443   0.137   4.894
 3843SOL    HW212417   2.332   0.237   4.919
 3844SOL     OW12418   2.732   0.460   4.359
 3844SOL    HW112419   2.687   0.516   4.296
 3844SOL    HW212420   2.755   0.381   4.310
 3845SOL     OW12421   2.860   0.034   4.508
 3845SOL    HW112422   2.816   0.068   4.430
 3845SOL    HW212423   2.873   3.941   4.490
 3846SOL     OW12424   3.305   1.159   4.581
 3846SOL    HW112425   3.230   1.099   4.581
 3846SOL    HW212426   3.330   1.167   4.489
 3847SOL     OW12427   3.324   0.612   4.690
 3847SOL    HW112428   3.267   0.536   4.695
 3847SOL    HW212429   3.382   0.604   4.766
 3848SOL     OW12430   3.721   0.826   4.099
 3848SOL    HW112431   3.760   0.769   4.165
 3848SOL    HW212432   3.686   0.766   4.033
 3849SOL     OW12433   2.354   1.423   3.876
 3849SOL    HW112434   2.278   1.397   3.928
 3849SOL    HW212435   2.350   1.368   3.798
 3850SOL     OW12436   3.534   1.267   4.364
 3850SOL    HW112437   3.629   1.269   4.374
 3850SOL    HW212438   3.506   1.356   4.385
 3851SOL     OW12439   3.256   0.579   3.790
 3851SOL    HW112440   3.193   0.560   3.859
 3851SOL    HW212441   3.342   0.567   3.832
 3852SOL     OW12442   2.386   0.265   4.039
 3852SOL    HW112443   2.445   0.227   3.974
 3852SOL    HW212444   2.356   0.347   4.000
 3853SOL     OW12445   3.611   1.229   5.280
 3853SOL    HW112446   3.699   1.196   5.263
 3853SOL    HW212447   3.624   1.319   5.309
 3854SOL     OW12448   2.914   1.352   5.053
 3854SOL    HW112449   2.839   1.321   5.104
 3854SOL    HW212450   2.990   1.311   5.096
 3855SOL     OW12451   3.469   1.630   5.384
 3855SOL    HW112452   3.459   1.666   5.296
 3855SOL    HW212453   3.547   1.575   5.379
 3856SOL     OW12454   2.999   1.213   4.825
 3856SOL    HW112455   2.940   1.251   4.889
 3856SOL    HW212456   2.970   1.249   4.741
 3857SOL     OW12457   3.485   1.092   4.797
 3857SOL    HW112458   3.474   1.156   4.868
 3857SOL    HW212459   3.412   1.110   4.737
 3858SOL     OW12460   2.773   0.123   5.125
 3858SOL    HW112461   2.793   0.090   5.037
 3858SOL    HW212462   2.854   0.164   5.154
 3859SOL     OW12463   2.847   1.115   5.448
 3859SOL    HW112464   2.756   1.133   5.473
 3859SOL    HW212465   2.842   1.036   5.395
 3860SOL     OW12466   2.572   1.064   4.095
 3860SOL    HW112467   2.557   1.042   4.188
 3860SOL    HW212468   2.647   1.010   4.070
 3861SOL     OW12469   2.285   0.819   4.977
 3861SOL    HW112470   2.354   0.827   5.043
 3861SOL    HW212471   2.251   0.731   4.990
 3862SOL     OW12472   3.129   0.375   5.002
 3862SOL    HW112473   3.160   0.454   5.046
 3862SOL    HW212474   3.040   0.397   4.973
 3863SOL     OW12475   2.198   1.122   4.213
 3863SOL    HW112476   2.197   1.198   4.155
 3863SOL    HW212477   2.196   1.047   4.154
 3864SOL     OW12478   2.414   0.523   4.577
 3864SOL    HW112479   2.425   0.584   4.504
 3864SOL    HW212480   2.478   0.551   4.642
 3865SOL     OW12481   3.108   1.350   4.116
 3865SOL    HW112482   3.164   1.421   4.148
 3865SOL    HW212483   3.021   1.372   4.148
 3866SOL     OW12484   3.155   1.462   4.873
 3866SOL    HW112485   3.209   1.469   4.951
 3866SOL    HW212486   3.100   1.385   4.888
 3867SOL     OW12487   3.427   0.636   4.215
 3867SOL    HW112488   3.384   0.685   4.285
 3867SOL    HW212489   3.472   0.703   4.163
 3868SOL     OW12490   2.220   1.488   5.043
 3868SOL    HW112491   2.208   1.457   4.953
 3868SOL    HW212492   2.312   1.513   5.048
 3869SOL     OW12493   2.290   0.740   5.328
 3869SOL    HW112494   2.349   0.785   5.268
 3869SOL    HW212495   2.333   0.657   5.347
 3870SOL     OW12496   3.471   0.782   5.413
 3870SOL    HW112497   3.385   0.824   5.407
 3870SOL    HW212498   3.524   0.825   5.345
 3871SOL     OW12499   2.863   0.147   5.508
 3871SOL    HW112500   2.925   0.212   5.476
 3871SOL    HW212501   2.853   0.085   5.436
 3872SOL     OW12502   2.354   0.036   5.484
 3872SOL    HW112503   2.351   0.054   5.390
 3872SOL    HW212504   2.294   0.099   5.523
 3873SOL     OW12505   2.448   0.875   4.757
 3873SOL    HW112506   2.482   0.965   4.760
 3873SOL    HW212507   2.390   0.868   4.833
 3874SOL     OW12508   3.202   0.858   4.741
 3874SOL    HW112509   3.115   0.841   4.705
 3874SOL    HW212510   3.249   0.776   4.731
 3875SOL     OW12511   3.058   0.541   3.976
 3875SOL    HW112512   3.065   0.462   4.029
 3875SOL    HW212513   3.016   0.605   4.033
 3876SOL     OW12514   2.156   0.206   4.968
 3876SOL    HW112515   2.113   0.234   5.049
 3876SOL    HW212516   2.147   0.111   4.967
 3877SOL     OW12517   1.915   1.341   5.019
 3877SOL    HW112518   1.939   1.269   5.078
 3877SOL    HW212519   1.994   1.395   5.015
 3878SOL     OW12520   2.579   0.630   4.770
 3878SOL    HW112521   2.657   0.622   4.715
 3878SOL    HW212522   2.548   0.719   4.755
 3879SOL     OW12523   3.594   0.955   5.598
 3879SOL    HW112524   3.554   0.890   5.540
 3879SOL    HW212525   3.527   0.974   5.663
 3880SOL     OW12526   2.187   0.051   4.388
 3880SOL    HW112527   2.165   0.144   4.397
 3880SOL    HW212528   2.167   0.014   4.474
 3881SOL     OW12529   3.478   0.402   4.099
 3881SOL    HW112530   3.429   0.333   4.145
 3881SOL    HW212531   3.456   0.482   4.146
 3882SOL     OW12532   2.894   0.759   4.680
 3882SOL    HW112533   2.882   0.775   4.774
 3882SOL    HW212534   2.866   0.668   4.667
 3883SOL     OW12535   2.846   1.568   5.447
 3883SOL    HW112536   2.827   1.611   5.363
 3883SOL    HW212537   2.887   1.485   5.423
 3884SOL     OW12538   3.701   1.490   5.320
 3884SOL    HW112539   3.726   1.523   5.234
 3884SOL    HW212540   3.780   1.497   5.373
 3885SOL     OW12541   2.211   0.915   5.524
 3885SOL    HW112542   2.288   0.934   5.579
 3885SOL    HW212543   2.243   0.851   5.461
 3886SOL     OW12544   3.354   0.267   3.853
 3886SOL    HW112545   3.283   0.202   3.861
 3886SOL    HW212546   3.362   0.305   3.940
 3887SOL     OW12547   3.146   0.827   3.749
 3887SOL    HW112548   3.187   0.741   3.753
 3887SOL    HW212549   3.179   0.866   3.668
 3888SOL     OW12550   2.932   1.341   4.583
 3888SOL    HW112551   2.938   1.270   4.520
 3888SOL    HW212552   2.988   1.410   4.547
 3889SOL     OW12553   2.170   0.812   4.668
 3889SOL    HW112554   2.264   0.832   4.662
 3889SOL    HW212555   2.167   0.722   4.701
 3890SOL     OW12556   2.198   0.540   4.739
 3890SOL    HW112557   2.156   0.455   4.725
 3890SOL    HW212558   2.274   0.538   4.680
 3891SOL     OW12559   2.996   0.378   5.425
 3891SOL    HW112560   2.947   0.431   5.487
 3891SOL    HW212561   3.082   0.419   5.420
 3892SOL     OW12562   3.015   0.226   5.205
 3892SOL    HW112563   3.005   0.277   5.285
 3892SOL    HW212564   3.044   0.288   5.139
 3893SOL     OW12565   1.870   1.319   3.915
 3893SOL    HW112566   1.782   1.335   3.879
 3893SOL    HW212567   1.865   1.230   3.952
 3894SOL     OW12568   2.355   1.568   4.633
 3894SOL    HW112569   2.419   1.636   4.652
 3894SOL    HW212570   2.399   1.509   4.572
 3895SOL     OW12571   2.831   0.783   4.944
 3895SOL    HW112572   2.890   0.768   5.018
 3895SOL    HW212573   2.748   0.745   4.972
 3896SOL     OW12574   1.895   0.551   4.842
 3896SOL    HW112575   1.969   0.528   4.785
 3896SOL    HW212576   1.931   0.548   4.931
 3897SOL     OW12577   2.066   0.529   5.435
 3897SOL    HW112578   2.141   0.510   5.379
 3897SOL    HW212579   2.025   0.606   5.394
 3898SOL     OW12580   3.244   0.931   5.379
 3898SOL    HW112581   3.265   1.025   5.375
 3898SOL    HW212582   3.238   0.904   5.287
 3899SOL     OW12583   2.680   0.573   4.094
 3899SOL    HW112584   2.686   0.498   4.034
 3899SOL    HW212585   2.604   0.623   4.061
 3900SOL     OW12586   3.498   0.602   4.901
 3900SOL    HW112587   3.487   0.542   4.974
 3900SOL    HW212588   3.585   0.583   4.867
 3901SOL     OW12589   2.088   1.553   5.457
 3901SOL    HW112590   2.038   1.574   5.536
 3901SOL    HW212591   2.125   1.466   5.475
 3902SOL     OW12592   2.582   0.446   4.970
 3902SOL    HW112593   2.526   0.372   4.950
 3902SOL    HW212594   2.568   0.508   4.898
 3903SOL     OW12595   2.786   1.675   5.195
 3903SOL    HW112596   2.757   1.636   5.112
 3903SOL    HW212597   2.783   1.769   5.180
 3904SOL     OW12598   2.320   0.491   3.899
 3904SOL    HW112599   2.379   0.562   3.926
 3904SOL    HW212600   2.235   0.533   3.890
 3905SOL     OW12601   1.999   1.142   5.195
 3905SOL    HW112602   2.003   1.098   5.280
 3905SOL    HW212603   2.015   1.073   5.131
 3906SOL     OW12604   3.178   1.040   4.942
 3906SOL    HW112605   3.199   0.978   4.872
 3906SOL    HW212606   3.114   1.100   4.903
 3907SOL     OW12607   3.179   0.853   4.026
 3907SOL    HW112608   3.103   0.827   4.079
 3907SOL    HW212609   3.149   0.843   3.935
 3908SOL     OW12610   3.649   1.736   4.887
 3908SOL    HW112611   3.704   1.763   4.814
 3908SOL    HW212612   3.615   1.650   4.861
 3909SOL     OW12613   3.102   1.733   4.826
 3909SOL    HW112614   3.185   1.758   4.786
 3909SOL    HW212615   3.113   1.640   4.848
 3910SOL     OW12616   1.956   1.248   4.755
 3910SOL    HW112617   1.923   1.276   4.840
 3910SOL    HW212618   1.879   1.217   4.708
 3911SOL     OW12619   2.540   1.669   5.449
 3911SOL    HW112620   2.484   1.746   5.460
 3911SOL    HW212621   2.607   1.697   5.387
 3912SOL     OW12622   3.547   0.116   4.214
 3912SOL    HW112623   3.627   0.134   4.164
 3912SOL    HW212624   3.553   0.024   4.238
 3913SOL     OW12625   3.255   1.567   4.218
 3913SOL    HW112626   3.312   1.602   4.149
 3913SOL    HW212627   3.203   1.643   4.246
 3914SOL     OW12628   3.139   0.929   4.394
 3914SOL    HW112629   3.214   0.872   4.408
 3914SOL    HW212630   3.173   1.001   4.341
 3915SOL     OW12631   2.663   1.278   5.146
 3915SOL    HW112632   2.635   1.318   5.228
 3915SOL    HW212633   2.593   1.299   5.084
 3916SOL     OW12634   2.533   1.628   3.879
 3916SOL    HW112635   2.546   1.641   3.785
 3916SOL    HW212636   2.477   1.551   3.885
 3917SOL     OW12637   3.478   1.728   5.117
 3917SOL    HW112638   3.535   1.732   5.041
 3917SOL    HW212639   3.464   1.820   5.140
 3918SOL     OW12640   3.707   0.182   4.695
 3918SOL    HW112641   3.730   0.097   4.658
 3918SOL    HW212642   3.621   0.201   4.658
 3919SOL     OW12643   2.122   0.313   4.438
 3919SOL    HW112644   2.036   0.348   4.414
 3919SOL    HW212645   2.121   0.311   4.534
 3920SOL     OW12646   3.070   1.599   3.758
 3920SOL    HW112647   3.059   1.508   3.785
 3920SOL    HW212648   3.003   1.613   3.691
 3921SOL     OW12649   2.686   1.008   5.099
 3921SOL    HW112650   2.726   1.003   5.012
 3921SOL    HW212651   2.680   1.102   5.118
 3922SOL     OW12652   2.778   0.911   4.015
 3922SOL    HW112653   2.838   0.945   3.948
 3922SOL    HW212654   2.828   0.844   4.061
 3923SOL     OW12655   3.348   1.635   3.770
 3923SOL    HW112656   3.254   1.622   3.755
 3923SOL    HW212657   3.386   1.640   3.683
 3924SOL     OW12658   2.227   1.294   5.235
 3924SOL    HW112659   2.228   1.364   5.169
 3924SOL    HW212660   2.151   1.240   5.212
 3925SOL     OW12661   3.458   1.281   4.998
 3925SOL    HW112662   3.527   1.269   5.064
 3925SOL    HW212663   3.401   1.349   5.034
 3926SOL     OW12664   2.927   1.112   4.438
 3926SOL    HW112665   2.853   1.063   4.473
 3926SOL    HW212666   2.990   1.046   4.411
 3927SOL     OW12667   2.879   0.251   4.696
 3927SOL    HW112668   2.869   0.200   4.616
 3927SOL    HW212669   2.880   0.186   4.766
 3928SOL     OW12670   2.469   1.493   4.204
 3928SOL    HW112671   2.512   1.442   4.136
 3928SOL    HW212672   2.400   1.541   4.158
 3929SOL     OW12673   3.584   0.397   5.093
 3929SOL    HW112674   3.657   0.459   5.095
 3929SOL    HW212675   3.615   0.324   5.040
 3930SOL     OW12676   2.126   1.339   4.018
 3930SOL    HW112677   2.034   1.338   3.991
 3930SOL    HW212678   2.125   1.379   4.105
 3931SOL     OW12679   1.979   1.046   5.453
 3931SOL    HW112680   1.902   1.014   5.500
 3931SOL    HW212681   2.052   0.996   5.490
 3932SOL     OW12682   2.561   0.272   5.232
 3932SOL    HW112683   2.625   0.214   5.190
 3932SOL    HW212684   2.586   0.272   5.324
 3933SOL     OW12685   1.968   0.316   3.715
 3933SOL    HW112686   1.901   0.335   3.781
 3933SOL    HW212687   1.974   0.397   3.663
 3934SOL     OW12688   3.282   0.854   5.118
 3934SOL    HW112689   3.231   0.916   5.066
 3934SOL    HW212690   3.370   0.858   5.082
 3935SOL     OW12691   1.941   0.146   4.061
 3935SOL    HW112692   1.907   0.203   3.991
 3935SOL    HW212693   2.028   0.121   4.032
 3936SOL     OW12694   3.040   1.332   3.843
 3936SOL    HW112695   2.948   1.304   3.844
 3936SOL    HW212696   3.065   1.334   3.935
 3937SOL     OW12697   2.487   0.828   5.157
 3937SOL    HW112698   2.544   0.903   5.144
 3937SOL    HW212699   2.548   0.754   5.165
 3938SOL     OW12700   3.345   1.790   4.706
 3938SOL    HW112701   3.367   1.860   4.644
 3938SOL    HW212702   3.429   1.752   4.732
 3939SOL     OW12703   2.580   0.558   5.426
 3939SOL    HW112704   2.625   0.618   5.485
 3939SOL    HW212705   2.598   0.471   5.462
 3940SOL     OW12706   3.336   1.191   5.350
 3940SOL    HW112707   3.325   1.209   5.443
 3940SOL    HW212708   3.428   1.209   5.333
 3941SOL     OW12709   2.229   1.734   5.301
 3941SOL    HW112710   2.175   1.740   5.222
 3941SOL    HW212711   2.189   1.665   5.353
 3942SOL     OW12712   3.521   0.880   4.982
 3942SOL    HW112713   3.521   0.795   4.938
 3942SOL    HW212714   3.514   0.943   4.911
 3943SOL     OW12715   3.079   0.343   4.163
 3943SOL    HW112716   3.150   0.280   4.152
 3943SOL    HW212717   3.096   0.386   4.246
 3944SOL     OW12718   2.448   0.732   4.397
 3944SOL    HW112719   2.488   0.818   4.384
 3944SOL    HW212720   2.384   0.724   4.327
 3945SOL     OW12721   3.612   0.380   5.366
 3945SOL    HW112722   3.593   0.390   5.272
 3945SOL    HW212723   3.549   0.314   5.396
 3946SOL     OW12724   3.616   0.930   5.235
 3946SOL    HW112725   3.604   1.023   5.254
 3946SOL    HW212726   3.588   0.920   5.144
 3947SOL     OW12727   2.728   1.364   3.771
 3947SOL    HW112728   2.689   1.389   3.855
 3947SOL    HW212729   2.741   1.447   3.725
 3948SOL     OW12730   2.524   1.792   4.655
 3948SOL    HW112731   2.520   1.888   4.654
 3948SOL    HW212732   2.618   1.771   4.656
 3949SOL     OW12733   2.732   0.972   4.577
 3949SOL    HW112734   2.783   0.900   4.615
 3949SOL    HW212735   2.692   1.015   4.653
 3950SOL     OW12736   2.938   0.990   3.814
 3950SOL    HW112737   2.916   1.042   3.737
 3950SOL    HW212738   3.012   0.935   3.786
 3951SOL     OW12739   3.707   1.557   4.564
 3951SOL    HW112740   3.627   1.542   4.513
 3951SOL    HW212741   3.706   1.488   4.630
 3952SOL     OW12742   2.077   1.290   5.584
 3952SOL    HW112743   2.029   1.214   5.551
 3952SOL    HW212744   2.014   1.337   5.638
 3953SOL     OW12745   1.949   1.206   4.387
 3953SOL    HW112746   1.977   1.167   4.470
 3953SOL    HW212747   2.022   1.189   4.327
 3954SOL     OW12748   2.544   1.405   5.356
 3954SOL    HW112749   2.466   1.368   5.397
 3954SOL    HW212750   2.546   1.496   5.386
 3955SOL     OW12751   3.674   0.181   4.968
 3955SOL    HW112752   3.675   0.086   4.978
 3955SOL    HW212753   3.694   0.195   4.875
 3956SOL     OW12754   2.289   0.434   4.249
 3956SOL    HW112755   2.325   0.363   4.196
 3956SOL    HW212756   2.240   0.390   4.319
 3957SOL     OW12757   3.554   1.490   4.818
 3957SOL    HW112758   3.477   1.470   4.764
 3957SOL    HW212759   3.559   1.418   4.881
 3958SOL     OW12760   2.199   0.559   5.021
 3958SOL    HW112761   2.250   0.498   5.074
 3958SOL    HW212762   2.218   0.532   4.931
 3959SOL     OW12763   2.695   1.577   4.398
 3959SOL    HW112764   2.672   1.641   4.331
 3959SOL    HW212765   2.621   1.517   4.400
 3960SOL     OW12766   3.321   0.255   4.833
 3960SOL    HW112767   3.335   0.167   4.868
 3960SOL    HW212768   3.266   0.299   4.899
 3961SOL     OW12769   2.861   0.022   4.868
 3961SOL    HW112770   2.777   0.012   4.824
 3961SOL    HW212771   2.896   3.933   4.875
 3962SOL     OW12772   2.637   1.334   4.044
 3962SOL    HW112773   2.610   1.243   4.055
 3962SOL    HW212774   2.717   1.341   4.097
 3963SOL     OW12775   2.485   1.552   5.010
 3963SOL    HW112776   2.481   1.633   5.059
 3963SOL    HW212777   2.573   1.549   4.974
 3964SOL     OW12778   3.163   0.067   3.881
 3964SOL    HW112779   3.167   3.974   3.858
 3964SOL    HW212780   3.087   0.074   3.938
 3965SOL     OW12781   3.137   0.456   4.406
 3965SOL    HW112782   3.092   0.540   4.400
 3965SOL    HW212783   3.142   0.438   4.500
 3966SOL     OW12784   3.454   0.209   4.592
 3966SOL    HW112785   3.405   0.234   4.670
 3966SOL    HW212786   3.452   0.287   4.537
 3967SOL     OW12787   1.904   1.067   4.030
 3967SOL    HW112788   1.998   1.059   4.013
 3967SOL    HW212789   1.877   0.979   4.056
 3968SOL     OW12790   2.754   1.660   4.058
 3968SOL    HW112791   2.678   1.646   4.002
 3968SOL    HW212792   2.729   1.733   4.115
 3969SOL     OW12793   2.082   0.617   5.707
 3969SOL    HW112794   1.992   0.626   5.739
 3969SOL    HW212795   2.072   0.599   5.613
 3970SOL     OW12796   2.077   0.302   6.579
 3970SOL    HW112797   2.113   0.258   6.656
 3970SOL    HW212798   1.991   0.261   6.566
 3971SOL     OW12799   1.870   0.401   6.216
 3971SOL    HW112800   1.785   0.416   6.258
 3971SOL    HW212801   1.851   0.335   6.149
 3972SOL     OW12802   2.433   1.305   6.794
 3972SOL    HW112803   2.357   1.263   6.753
 3972SOL    HW212804   2.436   1.392   6.755
 3973SOL     OW12805   3.431   1.515   6.296
 3973SOL    HW112806   3.387   1.493   6.378
 3973SOL    HW212807   3.360   1.517   6.231
 3974SOL     OW12808   2.997   0.699   6.277
 3974SOL    HW112809   3.043   0.782   6.266
 3974SOL    HW212810   2.949   0.710   6.360
 3975SOL     OW12811   3.630   0.623   5.809
 3975SOL    HW112812   3.607   0.610   5.717
 3975SOL    HW212813   3.603   0.542   5.852
 3976SOL     OW12814   2.740   0.760   7.415
 3976SOL    HW112815   2.726   0.830   7.478
 3976SOL    HW212816   2.761   0.805   7.333
 3977SOL     OW12817   2.538   1.005   6.234
 3977SOL    HW112818   2.606   0.998   6.301
 3977SOL    HW212819   2.480   1.074   6.266
 3978SOL     OW12820   2.573   1.138   7.389
 3978SOL    HW112821   2.618   1.218   7.418
 3978SOL    HW212822   2.503   1.169   7.332
 3979SOL     OW12823   3.320   1.502   6.953
 3979SOL    HW112824   3.374   1.580   6.961
 3979SOL    HW212825   3.253   1.512   7.021
 3980SOL     OW12826   2.311   0.388   7.073
 3980SOL    HW112827   2.404   0.363   7.077
 3980SOL    HW212828   2.263   0.306   7.083
 3981SOL     OW12829   3.472   0.449   6.320
 3981SOL    HW112830   3.410   0.485   6.256
 3981SOL    HW212831   3.485   0.520   6.383
 3982SOL     OW12832   2.086   1.711   6.036
 3982SOL    HW112833   2.096   1.799   6.071
 3982SOL    HW212834   2.165   1.696   5.984
 3983SOL     OW12835   3.007   1.350   7.288
 3983SOL    HW112836   3.038   1.339   7.378
 3983SOL    HW212837   2.950   1.275   7.273
 3984SOL     OW12838   2.169   1.073   6.535
 3984SOL    HW112839   2.146   0.981   6.520
 3984SOL    HW212840   2.087   1.114   6.562
 3985SOL     OW12841   2.435   0.984   5.728
 3985SOL    HW112842   2.485   1.028   5.660
 3985SOL    HW212843   2.474   1.015   5.810
 3986SOL     OW12844   3.448   0.145   7.040
 3986SOL    HW112845   3.478   0.215   6.983
 3986SOL    HW212846   3.402   0.189   7.111
 3987SOL     OW12847   1.988   0.655   6.149
 3987SOL    HW112848   1.959   0.567   6.173
 3987SOL    HW212849   1.976   0.707   6.229
 3988SOL     OW12850   3.705   1.759   5.921
 3988SOL    HW112851   3.776   1.735   5.980
 3988SOL    HW212852   3.722   1.851   5.900
 3989SOL     OW12853   1.898   1.542   5.655
 3989SOL    HW112854   1.818   1.490   5.658
 3989SOL    HW212855   1.870   1.631   5.676
 3990SOL     OW12856   3.554   0.920   6.239
 3990SOL    HW112857   3.637   0.875   6.224
 3990SOL    HW212858   3.537   0.968   6.158
 3991SOL     OW12859   3.506   1.101   6.020
 3991SOL    HW112860   3.591   1.105   5.975
 3991SOL    HW212861   3.513   1.166   6.090
 3992SOL     OW12862   1.990   0.750   7.162
 3992SOL    HW112863   2.080   0.782   7.163
 3992SOL    HW212864   1.937   0.829   7.178
 3993SOL     OW12865   3.151   1.231   7.007
 3993SOL    HW112866   3.182   1.164   6.947
 3993SOL    HW212867   3.212   1.226   7.081
 3994SOL     OW12868   2.686   0.010   6.107
 3994SOL    HW112869   2.731   0.089   6.078
 3994SOL    HW212870   2.593   0.032   6.104
 3995SOL     OW12871   2.056   0.962   6.878
 3995SOL    HW112872   2.138   0.916   6.859
 3995SOL    HW212873   2.007   0.960   6.795
 3996SOL     OW12874   3.387   1.002   5.789
 3996SOL    HW112875   3.318   0.944   5.822
 3996SOL    HW212876   3.431   1.035   5.867
 3997SOL     OW12877   3.100   1.798   7.223
 3997SOL    HW112878   3.075   1.871   7.166
 3997SOL    HW212879   3.099   1.721   7.166
 3998SOL     OW12880   2.225   0.246   7.456
 3998SOL    HW112881   2.270   0.330   7.467
 3998SOL    HW212882   2.133   0.269   7.447
 3999SOL     OW12883   3.335   1.417   6.537
 3999SOL    HW112884   3.266   1.433   6.600
 3999SOL    HW212885   3.321   1.326   6.508
 4000SOL     OW12886   3.508   1.757   6.164
 4000SOL    HW112887   3.494   1.721   6.076
 4000SOL    HW212888   3.493   1.682   6.223
 4001SOL     OW12889   2.456   0.716   5.858
 4001SOL    HW112890   2.455   0.800   5.813
 4001SOL    HW212891   2.391   0.725   5.927
 4002SOL     OW12892   3.136   0.377   6.528
 4002SOL    HW112893   3.050   0.337   6.537
 4002SOL    HW212894   3.195   0.317   6.574
 4003SOL     OW12895   3.441   1.673   5.897
 4003SOL    HW112896   3.533   1.701   5.889
 4003SOL    HW212897   3.413   1.659   5.806
 4004SOL     OW12898   2.656   0.613   7.034
 4004SOL    HW112899   2.630   0.585   7.121
 4004SOL    HW212900   2.624   0.543   6.976
 4005SOL     OW12901   3.255   0.474   7.263
 4005SOL    HW112902   3.262   0.521   7.347
 4005SOL    HW212903   3.309   0.396   7.275
 4006SOL     OW12904   2.811   0.883   7.177
 4006SOL    HW112905   2.867   0.817   7.136
 4006SOL    HW212906   2.760   0.920   7.104
 4007SOL     OW12907   2.860   0.401   6.815
 4007SOL    HW112908   2.771   0.416   6.849
 4007SOL    HW212909   2.846   0.374   6.724
 4008SOL     OW12910   2.916   0.701   6.009
 4008SOL    HW112911   2.936   0.694   6.102
 4008SOL    HW212912   2.832   0.656   5.998
 4009SOL     OW12913   1.940   0.815   6.364
 4009SOL    HW112914   2.020   0.810   6.416
 4009SOL    HW212915   1.883   0.874   6.413
 4010SOL     OW12916   2.756   0.354   5.788
 4010SOL    HW112917   2.799   0.413   5.727
 4010SOL    HW212918   2.741   0.274   5.738
 4011SOL     OW12919   3.561   0.570   7.417
 4011SOL    HW112920   3.528   0.646   7.369
 4011SOL    HW212921   3.589   0.508   7.349
 4012SOL     OW12922   3.242   1.138   6.120
 4012SOL    HW112923   3.325   1.126   6.074
 4012SOL    HW212924   3.194   1.201   6.067
 4013SOL     OW12925   2.424   0.200   6.465
 4013SOL    HW112926   2.424   0.219   6.559
 4013SOL    HW212927   2.418   0.285   6.423
 4014SOL     OW12928   3.670   1.063   6.458
 4014SOL    HW112929   3.619   1.033   6.383
 4014SOL    HW212930   3.608   1.065   6.530
 4015SOL     OW12931   3.080   1.538   7.100
 4015SOL    HW112932   3.064   1.474   7.169
 4015SOL    HW212933   3.027   1.508   7.027
 4016SOL     OW12934   2.153   0.970   5.821
 4016SOL    HW112935   2.244   0.990   5.799
 4016SOL    HW212936   2.138   0.883   5.784
 4017SOL     OW12937   3.342   0.757   6.313
 4017SOL    HW112938   3.341   0.715   6.399
 4017SOL    HW212939   3.421   0.812   6.314
 4018SOL     OW12940   2.992   1.778   5.816
 4018SOL    HW112941   2.905   1.750   5.845
 4018SOL    HW212942   3.016   1.715   5.748
 4019SOL     OW12943   2.027   0.277   7.086
 4019SOL    HW112944   1.982   0.359   7.064
 4019SOL    HW212945   2.017   0.269   7.180
 4020SOL     OW12946   3.485   1.388   5.674
 4020SOL    HW112947   3.442   1.472   5.660
 4020SOL    HW212948   3.419   1.322   5.653
 4021SOL     OW12949   2.325   1.717   5.894
 4021SOL    HW112950   2.362   1.779   5.957
 4021SOL    HW212951   2.386   1.717   5.820
 4022SOL     OW12952   3.300   0.182   5.988
 4022SOL    HW112953   3.242   0.107   5.976
 4022SOL    HW212954   3.376   0.145   6.034
 4023SOL     OW12955   2.263   0.693   6.058
 4023SOL    HW112956   2.276   0.599   6.073
 4023SOL    HW212957   2.169   0.707   6.075
 4024SOL     OW12958   3.390   0.226   7.311
 4024SOL    HW112959   3.377   0.248   7.403
 4024SOL    HW212960   3.382   0.131   7.308
 4025SOL     OW12961   2.508   0.123   5.698
 4025SOL    HW112962   2.523   0.036   5.736
 4025SOL    HW212963   2.445   0.108   5.627
 4026SOL     OW12964   2.631   0.287   7.365
 4026SOL    HW112965   2.713   0.236   7.364
 4026SOL    HW212966   2.579   0.246   7.434
 4027SOL     OW12967   2.731   1.471   6.761
 4027SOL    HW112968   2.774   1.499   6.680
 4027SOL    HW212969   2.803   1.451   6.820
 4028SOL     OW12970   3.198   0.588   7.018
 4028SOL    HW112971   3.230   0.559   7.104
 4028SOL    HW212972   3.234   0.676   7.008
 4029SOL     OW12973   2.792   0.512   6.482
 4029SOL    HW112974   2.767   0.503   6.390
 4029SOL    HW212975   2.816   0.424   6.509
 4030SOL     OW12976   2.406   0.055   6.078
 4030SOL    HW112977   2.332   0.060   6.139
 4030SOL    HW212978   2.400   0.136   6.027
 4031SOL     OW12979   3.288   1.203   5.623
 4031SOL    HW112980   3.317   1.128   5.676
 4031SOL    HW212981   3.202   1.226   5.658
 4032SOL     OW12982   2.194   0.051   5.802
 4032SOL    HW112983   2.196   0.111   5.728
 4032SOL    HW212984   2.270   0.074   5.855
 4033SOL     OW12985   2.809   0.253   6.042
 4033SOL    HW112986   2.783   0.290   5.958
 4033SOL    HW212987   2.904   0.262   6.044
 4034SOL     OW12988   2.940   0.688   7.038
 4034SOL    HW112989   2.873   0.620   7.045
 4034SOL    HW212990   3.023   0.641   7.035
 4035SOL     OW12991   3.103   1.555   6.365
 4035SOL    HW112992   3.112   1.625   6.301
 4035SOL    HW212993   3.137   1.592   6.447
 4036SOL     OW12994   3.137   1.773   6.185
 4036SOL    HW112995   3.190   1.840   6.142
 4036SOL    HW212996   3.049   1.810   6.188
 4037SOL     OW12997   2.882   0.535   5.618
 4037SOL    HW112998   2.839   0.618   5.598
 4037SOL    HW212999   2.947   0.558   5.686
 4038SOL     OW13000   1.949   0.547   6.984
 4038SOL    HW113001   2.039   0.551   6.953
 4038SOL    HW213002   1.939   0.621   7.043
 4039SOL     OW13003   2.421   0.230   6.746
 4039SOL    HW113004   2.443   0.137   6.756
 4039SOL    HW213005   2.332   0.237   6.781
 4040SOL     OW13006   2.732   0.461   6.220
 4040SOL    HW113007   2.688   0.516   6.156
 4040SOL    HW213008   2.755   0.381   6.172
 4041SOL     OW13009   2.859   0.035   6.369
 4041SOL    HW113010   2.815   0.067   6.291
 4041SOL    HW213011   2.873   3.941   6.352
 4042SOL     OW13012   3.309   1.158   6.444
 4042SOL    HW113013   3.231   1.103   6.439
 4042SOL    HW213014   3.336   1.168   6.353
 4043SOL     OW13015   3.325   0.611   6.552
 4043SOL    HW113016   3.268   0.535   6.557
 4043SOL    HW213017   3.383   0.603   6.628
 4044SOL     OW13018   3.720   0.826   5.961
 4044SOL    HW113019   3.759   0.769   6.027
 4044SOL    HW213020   3.685   0.766   5.895
 4045SOL     OW13021   2.355   1.413   5.731
 4045SOL    HW113022   2.293   1.376   5.794
 4045SOL    HW213023   2.340   1.363   5.651
 4046SOL     OW13024   3.532   1.267   6.228
 4046SOL    HW113025   3.627   1.269   6.238
 4046SOL    HW213026   3.504   1.356   6.249
 4047SOL     OW13027   3.257   0.579   5.652
 4047SOL    HW113028   3.194   0.560   5.721
 4047SOL    HW213029   3.342   0.567   5.693
 4048SOL     OW13030   2.386   0.265   5.901
 4048SOL    HW113031   2.445   0.227   5.836
 4048SOL    HW213032   2.356   0.347   5.862
 4049SOL     OW13033   3.612   1.229   7.143
 4049SOL    HW113034   3.700   1.196   7.125
 4049SOL    HW213035   3.625   1.320   7.171
 4050SOL     OW13036   2.929   1.359   6.925
 4050SOL    HW113037   2.853   1.319   6.967
 4050SOL    HW213038   3.004   1.311   6.962
 4051SOL     OW13039   3.468   1.627   7.246
 4051SOL    HW113040   3.458   1.665   7.159
 4051SOL    HW213041   3.546   1.573   7.240
 4052SOL     OW13042   2.984   1.194   6.700
 4052SOL    HW113043   2.932   1.250   6.757
 4052SOL    HW213044   2.979   1.236   6.614
 4053SOL     OW13045   3.485   1.092   6.659
 4053SOL    HW113046   3.473   1.155   6.730
 4053SOL    HW213047   3.413   1.110   6.598
 4054SOL     OW13048   2.772   0.125   6.987
 4054SOL    HW113049   2.792   0.089   6.900
 4054SOL    HW213050   2.855   0.164   7.016
 4055SOL     OW13051   2.852   1.116   7.306
 4055SOL    HW113052   2.760   1.130   7.332
 4055SOL    HW213053   2.850   1.037   7.253
 4056SOL     OW13054   2.568   1.060   5.958
 4056SOL    HW113055   2.553   1.040   6.050
 4056SOL    HW213056   2.645   1.009   5.934
 4057SOL     OW13057   2.285   0.813   6.837
 4057SOL    HW113058   2.353   0.822   6.905
 4057SOL    HW213059   2.248   0.726   6.853
 4058SOL     OW13060   3.128   0.375   6.865
 4058SOL    HW113061   3.160   0.454   6.908
 4058SOL    HW213062   3.040   0.398   6.835
 4059SOL     OW13063   2.415   0.523   6.440
 4059SOL    HW113064   2.425   0.584   6.367
 4059SOL    HW213065   2.480   0.552   6.504
 4060SOL     OW13066   3.104   1.348   5.978
 4060SOL    HW113067   3.164   1.418   6.001
 4060SOL    HW213068   3.030   1.357   6.039
 4061SOL     OW13069   3.156   1.462   6.739
 4061SOL    HW113070   3.215   1.470   6.814
 4061SOL    HW213071   3.098   1.389   6.761
 4062SOL     OW13072   3.427   0.635   6.078
 4062SOL    HW113073   3.383   0.686   6.146
 4062SOL    HW213074   3.473   0.700   6.025
 4063SOL     OW13075   2.286   0.743   7.193
 4063SOL    HW113076   2.346   0.786   7.132
 4063SOL    HW213077   2.327   0.659   7.211
 4064SOL     OW13078   3.471   0.782   7.275
 4064SOL    HW113079   3.385   0.824   7.269
 4064SOL    HW213080   3.523   0.825   7.208
 4065SOL     OW13081   2.863   0.147   7.371
 4065SOL    HW113082   2.925   0.211   7.337
 4065SOL    HW213083   2.852   0.084   7.299
 4066SOL     OW13084   2.354   0.037   7.346
 4066SOL    HW113085   2.351   0.055   7.252
 4066SOL    HW213086   2.294   0.100   7.384
 4067SOL     OW13087   2.448   0.882   6.626
 4067SOL    HW113088   2.416   0.969   6.600
 4067SOL    HW213089   2.391   0.856   6.698
 4068SOL     OW13090   3.205   0.858   6.605
 4068SOL    HW113091   3.120   0.843   6.564
 4068SOL    HW213092   3.252   0.775   6.594
 4069SOL     OW13093   3.059   0.541   5.838
 4069SOL    HW113094   3.066   0.462   5.891
 4069SOL    HW213095   3.016   0.605   5.895
 4070SOL     OW13096   2.156   0.206   6.830
 4070SOL    HW113097   2.113   0.234   6.911
 4070SOL    HW213098   2.147   0.111   6.829
 4071SOL     OW13099   1.952   1.317   6.877
 4071SOL    HW113100   1.970   1.251   6.945
 4071SOL    HW213101   1.937   1.397   6.926
 4072SOL     OW13102   2.580   0.633   6.632
 4072SOL    HW113103   2.657   0.622   6.577
 4072SOL    HW213104   2.554   0.724   6.619
 4073SOL     OW13105   3.594   0.956   7.460
 4073SOL    HW113106   3.554   0.891   7.402
 4073SOL    HW213107   3.526   0.974   7.525
 4074SOL     OW13108   2.187   0.051   6.250
 4074SOL    HW113109   2.165   0.144   6.259
 4074SOL    HW213110   2.167   0.013   6.336
 4075SOL     OW13111   3.477   0.401   5.962
 4075SOL    HW113112   3.429   0.332   6.008
 4075SOL    HW213113   3.456   0.481   6.009
 4076SOL     OW13114   2.890   0.759   6.539
 4076SOL    HW113115   2.880   0.776   6.632
 4076SOL    HW213116   2.863   0.668   6.528
 4077SOL     OW13117   3.700   1.490   7.181
 4077SOL    HW113118   3.726   1.523   7.095
 4077SOL    HW213119   3.779   1.497   7.234
 4078SOL     OW13120   2.224   0.914   7.401
 4078SOL    HW113121   2.307   0.927   7.447
 4078SOL    HW213122   2.245   0.852   7.331
 4079SOL     OW13123   3.354   0.267   5.715
 4079SOL    HW113124   3.283   0.202   5.723
 4079SOL    HW213125   3.362   0.305   5.803
 4080SOL     OW13126   3.146   0.827   5.612
 4080SOL    HW113127   3.188   0.741   5.615
 4080SOL    HW213128   3.179   0.867   5.531
 4081SOL     OW13129   2.974   1.325   6.464
 4081SOL    HW113130   2.957   1.263   6.393
 4081SOL    HW213131   3.011   1.402   6.421
 4082SOL     OW13132   2.166   0.794   6.520
 4082SOL    HW113133   2.259   0.811   6.504
 4082SOL    HW213134   2.164   0.708   6.561
 4083SOL     OW13135   2.203   0.533   6.605
 4083SOL    HW113136   2.158   0.449   6.590
 4083SOL    HW213137   2.278   0.531   6.545
 4084SOL     OW13138   2.997   0.378   7.286
 4084SOL    HW113139   2.948   0.431   7.349
 4084SOL    HW213140   3.083   0.419   7.281
 4085SOL     OW13141   3.016   0.225   7.067
 4085SOL    HW113142   3.005   0.277   7.146
 4085SOL    HW213143   3.046   0.288   7.001
 4086SOL     OW13144   2.827   0.787   6.805
 4086SOL    HW113145   2.888   0.770   6.878
 4086SOL    HW213146   2.747   0.742   6.830
 4087SOL     OW13147   1.893   0.547   6.703
 4087SOL    HW113148   1.968   0.524   6.647
 4087SOL    HW213149   1.930   0.549   6.792
 4088SOL     OW13150   2.066   0.528   7.299
 4088SOL    HW113151   2.139   0.506   7.241
 4088SOL    HW213152   2.025   0.604   7.257
 4089SOL     OW13153   3.243   0.932   7.242
 4089SOL    HW113154   3.266   1.024   7.237
 4089SOL    HW213155   3.238   0.904   7.150
 4090SOL     OW13156   2.679   0.573   5.956
 4090SOL    HW113157   2.686   0.499   5.896
 4090SOL    HW213158   2.604   0.623   5.923
 4091SOL     OW13159   3.498   0.602   6.763
 4091SOL    HW113160   3.487   0.541   6.836
 4091SOL    HW213161   3.585   0.583   6.728
 4092SOL     OW13162   2.583   0.446   6.831
 4092SOL    HW113163   2.526   0.371   6.812
 4092SOL    HW213164   2.567   0.507   6.760
 4093SOL     OW13165   2.320   0.491   5.762
 4093SOL    HW113166   2.379   0.562   5.788
 4093SOL    HW213167   2.235   0.534   5.752
 4094SOL     OW13168   1.991   1.139   7.074
 4094SOL    HW113169   2.001   1.095   7.158
 4094SOL    HW213170   2.019   1.074   7.009
 4095SOL     OW13171   3.178   1.036   6.807
 4095SOL    HW113172   3.201   0.977   6.736
 4095SOL    HW213173   3.108   1.091   6.772
 4096SOL     OW13174   3.178   0.853   5.888
 4096SOL    HW113175   3.102   0.826   5.940
 4096SOL    HW213176   3.150   0.843   5.797
 4097SOL     OW13177   3.650   1.737   6.750
 4097SOL    HW113178   3.705   1.764   6.676
 4097SOL    HW213179   3.616   1.651   6.724
 4098SOL     OW13180   3.100   1.726   6.677
 4098SOL    HW113181   3.185   1.755   6.644
 4098SOL    HW213182   3.114   1.635   6.703
 4099SOL     OW13183   1.944   1.196   6.632
 4099SOL    HW113184   1.942   1.239   6.718
 4099SOL    HW213185   1.908   1.262   6.572
 4100SOL     OW13186   3.547   0.116   6.076
 4100SOL    HW113187   3.627   0.134   6.027
 4100SOL    HW213188   3.553   0.024   6.100
 4101SOL     OW13189   3.260   1.556   6.068
 4101SOL    HW113190   3.320   1.592   6.002
 4101SOL    HW213191   3.212   1.632   6.101
 4102SOL     OW13192   3.138   0.932   6.259
 4102SOL    HW113193   3.212   0.873   6.274
 4102SOL    HW213194   3.172   1.001   6.203
 4103SOL     OW13195   2.675   1.275   7.002
 4103SOL    HW113196   2.654   1.328   7.079
 4103SOL    HW213197   2.615   1.305   6.935
 4104SOL     OW13198   2.535   1.614   5.717
 4104SOL    HW113199   2.541   1.631   5.623
 4104SOL    HW213200   2.473   1.542   5.725
 4105SOL     OW13201   3.477   1.728   6.979
 4105SOL    HW113202   3.535   1.731   6.903
 4105SOL    HW213203   3.464   1.819   7.003
 4106SOL     OW13204   3.707   0.182   6.557
 4106SOL    HW113205   3.731   0.097   6.520
 4106SOL    HW213206   3.621   0.201   6.519
 4107SOL     OW13207   2.122   0.313   6.300
 4107SOL    HW113208   2.036   0.348   6.276
 4107SOL    HW213209   2.120   0.310   6.396
 4108SOL     OW13210   3.072   1.600   5.618
 4108SOL    HW113211   3.059   1.509   5.645
 4108SOL    HW213212   3.004   1.616   5.552
 4109SOL     OW13213   2.688   1.003   6.964
 4109SOL    HW113214   2.739   0.988   6.885
 4109SOL    HW213215   2.684   1.098   6.973
 4110SOL     OW13216   2.780   0.915   5.883
 4110SOL    HW113217   2.838   0.946   5.813
 4110SOL    HW213218   2.830   0.845   5.925
 4111SOL     OW13219   3.349   1.636   5.632
 4111SOL    HW113220   3.255   1.623   5.617
 4111SOL    HW213221   3.387   1.640   5.544
 4112SOL     OW13222   3.457   1.279   6.861
 4112SOL    HW113223   3.529   1.269   6.924
 4112SOL    HW213224   3.401   1.347   6.898
 4113SOL     OW13225   2.923   1.116   6.291
 4113SOL    HW113226   2.851   1.066   6.331
 4113SOL    HW213227   2.989   1.050   6.270
 4114SOL     OW13228   2.878   0.251   6.558
 4114SOL    HW113229   2.869   0.200   6.478
 4114SOL    HW213230   2.880   0.185   6.628
 4115SOL     OW13231   2.463   1.511   6.015
 4115SOL    HW113232   2.493   1.454   5.944
 4115SOL    HW213233   2.399   1.569   5.974
 4116SOL     OW13234   3.584   0.397   6.955
 4116SOL    HW113235   3.657   0.459   6.957
 4116SOL    HW213236   3.615   0.324   6.902
 4117SOL     OW13237   1.978   1.008   7.306
 4117SOL    HW113238   1.902   0.997   7.362
 4117SOL    HW213239   2.052   0.984   7.361
 4118SOL     OW13240   2.561   0.273   7.094
 4118SOL    HW113241   2.625   0.215   7.052
 4118SOL    HW213242   2.586   0.272   7.187
 4119SOL     OW13243   1.968   0.316   5.577
 4119SOL    HW113244   1.900   0.336   5.643
 4119SOL    HW213245   1.974   0.396   5.525
 4120SOL     OW13246   3.283   0.853   6.982
 4120SOL    HW113247   3.232   0.914   6.929
 4120SOL    HW213248   3.371   0.857   6.946
 4121SOL     OW13249   1.941   0.147   5.923
 4121SOL    HW113250   1.908   0.204   5.854
 4121SOL    HW213251   2.029   0.121   5.894
 4122SOL     OW13252   3.038   1.333   5.702
 4122SOL    HW113253   2.945   1.311   5.699
 4122SOL    HW213254   3.059   1.334   5.795
 4123SOL     OW13255   2.485   0.827   7.022
 4123SOL    HW113256   2.543   0.902   7.004
 4123SOL    HW213257   2.544   0.752   7.029
 4124SOL     OW13258   3.347   1.795   6.573
 4124SOL    HW113259   3.372   1.861   6.509
 4124SOL    HW213260   3.429   1.750   6.595
 4125SOL     OW13261   2.583   0.557   7.288
 4125SOL    HW113262   2.627   0.616   7.349
 4125SOL    HW213263   2.599   0.469   7.324
 4126SOL     OW13264   3.339   1.189   7.212
 4126SOL    HW113265   3.328   1.207   7.306
 4126SOL    HW213266   3.431   1.207   7.195
 4127SOL     OW13267   3.521   0.879   6.844
 4127SOL    HW113268   3.522   0.795   6.800
 4127SOL    HW213269   3.514   0.943   6.774
 4128SOL     OW13270   3.079   0.343   6.025
 4128SOL    HW113271   3.150   0.280   6.014
 4128SOL    HW213272   3.097   0.386   6.109
 4129SOL     OW13273   2.446   0.738   6.263
 4129SOL    HW113274   2.482   0.825   6.248
 4129SOL    HW213275   2.384   0.725   6.192
 4130SOL     OW13276   3.612   0.380   7.228
 4130SOL    HW113277   3.593   0.391   7.134
 4130SOL    HW213278   3.549   0.314   7.257
 4131SOL     OW13279   3.615   0.930   7.097
 4131SOL    HW113280   3.605   1.023   7.116
 4131SOL    HW213281   3.589   0.920   7.006
 4132SOL     OW13282   2.736   1.363   5.628
 4132SOL    HW113283   2.693   1.380   5.712
 4132SOL    HW213284   2.742   1.448   5.586
 4133SOL     OW13285   2.734   0.971   6.439
 4133SOL    HW113286   2.786   0.894   6.460
 4133SOL    HW213287   2.705   1.006   6.523
 4134SOL     OW13288   2.937   0.988   5.677
 4134SOL    HW113289   2.916   1.042   5.601
 4134SOL    HW213290   3.011   0.934   5.648
 4135SOL     OW13291   3.707   1.557   6.426
 4135SOL    HW113292   3.627   1.541   6.376
 4135SOL    HW213293   3.708   1.487   6.491
 4136SOL     OW13294   3.673   0.181   6.830
 4136SOL    HW113295   3.675   0.086   6.840
 4136SOL    HW213296   3.693   0.196   6.737
 4137SOL     OW13297   2.291   0.433   6.113
 4137SOL    HW113298   2.325   0.362   6.059
 4137SOL    HW213299   2.241   0.389   6.182
 4138SOL     OW13300   3.556   1.491   6.683
 4138SOL    HW113301   3.480   1.469   6.629
 4138SOL    HW213302   3.563   1.419   6.745
 4139SOL     OW13303   2.198   0.556   6.884
 4139SOL    HW113304   2.249   0.495   6.938
 4139SOL    HW213305   2.217   0.529   6.794
 4140SOL     OW13306   3.320   0.255   6.695
 4140SOL    HW113307   3.335   0.167   6.729
 4140SOL    HW213308   3.266   0.298   6.761
 4141SOL     OW13309   2.861   0.022   6.730
 4141SOL    HW113310   2.776   0.012   6.687
 4141SOL    HW213311   2.895   3.932   6.737
 4142SOL     OW13312   2.632   1.323   5.885
 4142SOL    HW113313   2.599   1.234   5.899
 4142SOL    HW213314   2.680   1.344   5.965
 4143SOL     OW13315   3.163   0.067   5.743
 4143SOL    HW113316   3.167   3.974   5.719
 4143SOL    HW213317   3.087   0.074   5.800
 4144SOL     OW13318   3.137   0.456   6.269
 4144SOL    HW113319   3.093   0.540   6.262
 4144SOL    HW213320   3.142   0.438   6.362
 4145SOL     OW13321   3.454   0.209   6.454
 4145SOL    HW113322   3.405   0.234   6.532
 4145SOL    HW213323   3.452   0.287   6.399
 4146SOL     OW13324   1.887   1.044   5.894
 4146SOL    HW113325   1.978   1.042   5.864
 4146SOL    HW213326   1.869   0.954   5.923
 4147SOL     OW13327   2.742   1.677   5.884
 4147SOL    HW113328   2.676   1.653   5.818
 4147SOL    HW213329   2.694   1.674   5.967
 4148SOL     OW13330   2.082   0.621   7.570
 4148SOL    HW113331   1.993   0.628   7.603
 4148SOL    HW213332   2.072   0.601   7.477
 4149SOL     OW13333   2.077   0.303   8.441
 4149SOL    HW113334   2.113   0.259   8.518
 4149SOL    HW213335   1.992   0.262   8.427
 4150SOL     OW13336   1.870   0.402   8.077
 4150SOL    HW113337   1.785   0.417   8.120
 4150SOL    HW213338   1.851   0.337   8.009
 4151SOL     OW13339   2.437   1.301   8.626
 4151SOL    HW113340   2.349   1.301   8.588
 4151SOL    HW213341   2.450   1.390   8.658
 4152SOL     OW13342   3.437   1.516   8.157
 4152SOL    HW113343   3.391   1.493   8.238
 4152SOL    HW213344   3.367   1.522   8.091
 4153SOL     OW13345   2.996   0.700   8.139
 4153SOL    HW113346   3.044   0.783   8.129
 4153SOL    HW213347   2.948   0.710   8.221
 4154SOL     OW13348   3.629   0.624   7.671
 4154SOL    HW113349   3.607   0.611   7.579
 4154SOL    HW213350   3.605   0.542   7.714
 4155SOL     OW13351   2.616   1.146   8.491
 4155SOL    HW113352   2.549   1.183   8.549
 4155SOL    HW213353   2.654   1.221   8.446
 4156SOL     OW13354   2.738   0.761   9.275
 4156SOL    HW113355   2.725   0.830   9.339
 4156SOL    HW213356   2.759   0.806   9.194
 4157SOL     OW13357   2.556   0.991   8.088
 4157SOL    HW113358   2.620   0.985   8.159
 4157SOL    HW213359   2.483   1.041   8.127
 4158SOL     OW13360   2.579   1.148   9.269
 4158SOL    HW113361   2.626   1.225   9.302
 4158SOL    HW213362   2.498   1.184   9.232
 4159SOL     OW13363   2.192   1.413   8.519
 4159SOL    HW113364   2.117   1.369   8.479
 4159SOL    HW213365   2.229   1.466   8.449
 4160SOL     OW13366   3.319   1.504   8.811
 4160SOL    HW113367   3.374   1.581   8.821
 4160SOL    HW213368   3.251   1.515   8.877
 4161SOL     OW13369   2.311   0.387   8.934
 4161SOL    HW113370   2.404   0.364   8.938
 4161SOL    HW213371   2.265   0.304   8.945
 4162SOL     OW13372   3.472   0.449   8.182
 4162SOL    HW113373   3.410   0.484   8.118
 4162SOL    HW213374   3.485   0.520   8.245
 4163SOL     OW13375   3.000   1.343   9.143
 4163SOL    HW113376   3.042   1.336   9.229
 4163SOL    HW213377   2.947   1.263   9.135
 4164SOL     OW13378   2.151   1.089   8.364
 4164SOL    HW113379   2.124   1.000   8.387
 4164SOL    HW213380   2.079   1.144   8.397
 4165SOL     OW13381   2.460   1.781   8.880
 4165SOL    HW113382   2.385   1.770   8.939
 4165SOL    HW213383   2.490   1.870   8.896
 4166SOL     OW13384   2.444   0.982   7.582
 4166SOL    HW113385   2.494   1.027   7.514
 4166SOL    HW213386   2.481   1.014   7.665
 4167SOL     OW13387   3.448   0.145   8.902
 4167SOL    HW113388   3.478   0.216   8.845
 4167SOL    HW213389   3.402   0.189   8.974
 4168SOL     OW13390   1.984   0.659   8.010
 4168SOL    HW113391   1.956   0.571   8.033
 4168SOL    HW213392   1.974   0.709   8.091
 4169SOL     OW13393   3.705   1.759   7.785
 4169SOL    HW113394   3.777   1.735   7.843
 4169SOL    HW213395   3.721   1.851   7.763
 4170SOL     OW13396   3.555   0.920   8.102
 4170SOL    HW113397   3.638   0.875   8.087
 4170SOL    HW213398   3.539   0.968   8.020
 4171SOL     OW13399   3.507   1.100   7.882
 4171SOL    HW113400   3.591   1.104   7.837
 4171SOL    HW213401   3.514   1.165   7.952
 4172SOL     OW13402   1.983   0.752   9.024
 4172SOL    HW113403   2.070   0.790   9.027
 4172SOL    HW213404   1.923   0.827   9.022
 4173SOL     OW13405   2.467   1.366   8.219
 4173SOL    HW113406   2.430   1.278   8.228
 4173SOL    HW213407   2.443   1.394   8.131
 4174SOL     OW13408   3.145   1.235   8.867
 4174SOL    HW113409   3.176   1.167   8.807
 4174SOL    HW213410   3.204   1.231   8.942
 4175SOL     OW13411   2.686   0.009   7.969
 4175SOL    HW113412   2.731   0.088   7.940
 4175SOL    HW213413   2.593   0.032   7.966
 4176SOL     OW13414   2.049   0.955   8.733
 4176SOL    HW113415   2.135   0.917   8.716
 4176SOL    HW213416   1.993   0.919   8.664
 4177SOL     OW13417   3.387   1.001   7.651
 4177SOL    HW113418   3.318   0.944   7.685
 4177SOL    HW213419   3.431   1.034   7.730
 4178SOL     OW13420   3.046   1.815   9.075
 4178SOL    HW113421   3.055   1.876   9.002
 4178SOL    HW213422   3.065   1.729   9.037
 4179SOL     OW13423   2.226   0.246   9.318
 4179SOL    HW113424   2.271   0.329   9.331
 4179SOL    HW213425   2.133   0.269   9.309
 4180SOL     OW13426   3.324   1.422   8.389
 4180SOL    HW113427   3.262   1.435   8.461
 4180SOL    HW213428   3.315   1.329   8.367
 4181SOL     OW13429   3.508   1.759   8.027
 4181SOL    HW113430   3.497   1.723   7.939
 4181SOL    HW213431   3.498   1.684   8.086
 4182SOL     OW13432   2.455   0.715   7.721
 4182SOL    HW113433   2.455   0.799   7.675
 4182SOL    HW213434   2.389   0.726   7.790
 4183SOL     OW13435   3.136   0.377   8.390
 4183SOL    HW113436   3.050   0.337   8.398
 4183SOL    HW213437   3.195   0.317   8.436
 4184SOL     OW13438   3.441   1.671   7.761
 4184SOL    HW113439   3.532   1.699   7.753
 4184SOL    HW213440   3.413   1.658   7.670
 4185SOL     OW13441   2.657   0.613   8.896
 4185SOL    HW113442   2.630   0.586   8.983
 4185SOL    HW213443   2.624   0.544   8.838
 4186SOL     OW13444   3.255   0.474   9.125
 4186SOL    HW113445   3.262   0.521   9.209
 4186SOL    HW213446   3.309   0.396   9.137
 4187SOL     OW13447   2.810   0.885   9.037
 4187SOL    HW113448   2.866   0.819   8.997
 4187SOL    HW213449   2.761   0.923   8.964
 4188SOL     OW13450   2.860   0.400   8.678
 4188SOL    HW113451   2.772   0.416   8.712
 4188SOL    HW213452   2.845   0.375   8.587
 4189SOL     OW13453   2.916   0.702   7.871
 4189SOL    HW113454   2.936   0.695   7.964
 4189SOL    HW213455   2.833   0.656   7.860
 4190SOL     OW13456   1.944   0.824   8.226
 4190SOL    HW113457   2.023   0.814   8.279
 4190SOL    HW213458   1.901   0.901   8.263
 4191SOL     OW13459   2.756   0.353   7.650
 4191SOL    HW113460   2.800   0.412   7.589
 4191SOL    HW213461   2.739   0.274   7.600
 4192SOL     OW13462   3.562   0.569   9.279
 4192SOL    HW113463   3.529   0.645   9.231
 4192SOL    HW213464   3.590   0.508   9.211
 4193SOL     OW13465   3.244   1.139   7.984
 4193SOL    HW113466   3.326   1.124   7.937
 4193SOL    HW213467   3.196   1.202   7.930
 4194SOL     OW13468   2.424   0.199   8.328
 4194SOL    HW113469   2.424   0.220   8.421
 4194SOL    HW213470   2.418   0.285   8.285
 4195SOL     OW13471   2.905   1.462   7.934
 4195SOL    HW113472   2.894   1.553   7.905
 4195SOL    HW213473   2.913   1.469   8.029
 4196SOL     OW13474   2.242   1.807   8.253
 4196SOL    HW113475   2.260   1.718   8.284
 4196SOL    HW213476   2.300   1.862   8.306
 4197SOL     OW13477   3.671   1.063   8.321
 4197SOL    HW113478   3.621   1.032   8.245
 4197SOL    HW213479   3.608   1.065   8.393
 4198SOL     OW13480   3.088   1.542   8.963
 4198SOL    HW113481   3.076   1.470   9.025
 4198SOL    HW213482   3.017   1.530   8.899
 4199SOL     OW13483   2.188   0.939   7.700
 4199SOL    HW113484   2.263   0.970   7.648
 4199SOL    HW213485   2.159   0.861   7.654
 4200SOL     OW13486   3.343   0.757   8.175
 4200SOL    HW113487   3.341   0.715   8.260
 4200SOL    HW213488   3.422   0.811   8.177
 4201SOL     OW13489   2.339   1.267   9.190
 4201SOL    HW113490   2.313   1.268   9.098
 4201SOL    HW213491   2.256   1.262   9.238
 4202SOL     OW13492   3.014   1.750   7.710
 4202SOL    HW113493   2.922   1.776   7.712
 4202SOL    HW213494   3.021   1.695   7.632
 4203SOL     OW13495   2.025   0.275   8.948
 4203SOL    HW113496   1.982   0.357   8.925
 4203SOL    HW213497   2.018   0.270   9.044
 4204SOL     OW13498   3.485   1.388   7.538
 4204SOL    HW113499   3.442   1.471   7.522
 4204SOL    HW213500   3.420   1.322   7.515
 4205SOL     OW13501   3.300   0.181   7.851
 4205SOL    HW113502   3.243   0.107   7.833
 4205SOL    HW213503   3.376   0.144   7.896
 4206SOL     OW13504   2.125   1.737   8.657
 4206SOL    HW113505   2.180   1.670   8.697
 4206SOL    HW213506   2.150   1.735   8.564
 4207SOL     OW13507   2.805   1.688   8.350
 4207SOL    HW113508   2.895   1.657   8.352
 4207SOL    HW213509   2.752   1.609   8.360
 4208SOL     OW13510   2.260   0.694   7.921
 4208SOL    HW113511   2.275   0.600   7.936
 4208SOL    HW213512   2.167   0.706   7.937
 4209SOL     OW13513   3.391   0.226   9.173
 4209SOL    HW113514   3.378   0.248   9.265
 4209SOL    HW213515   3.383   0.131   9.170
 4210SOL     OW13516   2.508   0.123   7.560
 4210SOL    HW113517   2.523   0.036   7.598
 4210SOL    HW213518   2.445   0.108   7.489
 4211SOL     OW13519   2.631   0.287   9.227
 4211SOL    HW113520   2.712   0.237   9.226
 4211SOL    HW213521   2.579   0.248   9.297
 4212SOL     OW13522   2.742   1.529   8.644
 4212SOL    HW113523   2.726   1.492   8.557
 4212SOL    HW213524   2.809   1.472   8.682
 4213SOL     OW13525   3.198   0.588   8.880
 4213SOL    HW113526   3.230   0.559   8.966
 4213SOL    HW213527   3.233   0.676   8.870
 4214SOL     OW13528   2.686   1.431   8.382
 4214SOL    HW113529   2.764   1.391   8.343
 4214SOL    HW213530   2.615   1.406   8.323
 4215SOL     OW13531   2.794   0.513   8.343
 4215SOL    HW113532   2.768   0.504   8.251
 4215SOL    HW213533   2.817   0.425   8.371
 4216SOL     OW13534   2.406   0.055   7.940
 4216SOL    HW113535   2.332   0.061   8.001
 4216SOL    HW213536   2.401   0.136   7.889
 4217SOL     OW13537   3.292   1.201   7.484
 4217SOL    HW113538   3.321   1.127   7.538
 4217SOL    HW213539   3.206   1.223   7.518
 4218SOL     OW13540   2.194   0.050   7.663
 4218SOL    HW113541   2.195   0.110   7.589
 4218SOL    HW213542   2.270   0.075   7.715
 4219SOL     OW13543   2.809   0.253   7.904
 4219SOL    HW113544   2.783   0.289   7.820
 4219SOL    HW213545   2.904   0.262   7.906
 4220SOL     OW13546   2.940   0.689   8.902
 4220SOL    HW113547   2.872   0.622   8.909
 4220SOL    HW213548   3.022   0.639   8.899
 4221SOL     OW13549   3.073   1.575   8.239
 4221SOL    HW113550   3.094   1.642   8.174
 4221SOL    HW213551   3.145   1.579   8.302
 4222SOL     OW13552   2.342   1.131   8.183
 4222SOL    HW113553   2.273   1.115   8.248
 4222SOL    HW213554   2.300   1.114   8.099
 4223SOL     OW13555   3.121   1.792   8.062
 4223SOL    HW113556   3.173   1.849   8.006
 4223SOL    HW213557   3.063   1.851   8.109
 4224SOL     OW13558   2.884   0.534   7.481
 4224SOL    HW113559   2.840   0.617   7.461
 4224SOL    HW213560   2.947   0.556   7.549
 4225SOL     OW13561   1.950   0.545   8.846
 4225SOL    HW113562   2.041   0.551   8.816
 4225SOL    HW213563   1.941   0.618   8.907
 4226SOL     OW13564   2.421   0.230   8.608
 4226SOL    HW113565   2.443   0.137   8.617
 4226SOL    HW213566   2.332   0.237   8.643
 4227SOL     OW13567   2.733   0.460   8.083
 4227SOL    HW113568   2.687   0.516   8.019
 4227SOL    HW213569   2.755   0.381   8.034
 4228SOL     OW13570   2.860   0.035   8.232
 4228SOL    HW113571   2.816   0.068   8.153
 4228SOL    HW213572   2.873   3.942   8.214
 4229SOL     OW13573   3.304   1.159   8.305
 4229SOL    HW113574   3.235   1.093   8.303
 4229SOL    HW213575   3.333   1.167   8.214
 4230SOL     OW13576   3.324   0.613   8.414
 4230SOL    HW113577   3.267   0.536   8.419
 4230SOL    HW213578   3.382   0.604   8.490
 4231SOL     OW13579   3.718   0.826   7.824
 4231SOL    HW113580   3.757   0.769   7.889
 4231SOL    HW213581   3.683   0.767   7.757
 4232SOL     OW13582   3.533   1.266   8.090
 4232SOL    HW113583   3.628   1.266   8.100
 4232SOL    HW213584   3.507   1.356   8.110
 4233SOL     OW13585   3.257   0.580   7.515
 4233SOL    HW113586   3.194   0.559   7.584
 4233SOL    HW213587   3.343   0.566   7.554
 4234SOL     OW13588   2.386   0.265   7.763
 4234SOL    HW113589   2.445   0.227   7.698
 4234SOL    HW213590   2.356   0.347   7.723
 4235SOL     OW13591   3.610   1.229   9.004
 4235SOL    HW113592   3.698   1.196   8.986
 4235SOL    HW213593   3.624   1.320   9.033
 4236SOL     OW13594   2.913   1.351   8.777
 4236SOL    HW113595   2.837   1.321   8.828
 4236SOL    HW213596   2.988   1.311   8.821
 4237SOL     OW13597   3.468   1.630   9.107
 4237SOL    HW113598   3.459   1.666   9.019
 4237SOL    HW213599   3.546   1.575   9.103
 4238SOL     OW13600   2.999   1.213   8.550
 4238SOL    HW113601   2.941   1.250   8.616
 4238SOL    HW213602   2.964   1.245   8.467
 4239SOL     OW13603   3.484   1.092   8.521
 4239SOL    HW113604   3.474   1.155   8.593
 4239SOL    HW213605   3.411   1.110   8.462
 4240SOL     OW13606   2.773   0.123   8.849
 4240SOL    HW113607   2.793   0.090   8.761
 4240SOL    HW213608   2.854   0.163   8.878
 4241SOL     OW13609   2.846   1.116   9.171
 4241SOL    HW113610   2.755   1.132   9.197
 4241SOL    HW213611   2.842   1.037   9.118
 4242SOL     OW13612   2.574   1.058   7.814
 4242SOL    HW113613   2.553   1.039   7.906
 4242SOL    HW213614   2.647   1.000   7.793
 4243SOL     OW13615   2.285   0.818   8.700
 4243SOL    HW113616   2.354   0.826   8.766
 4243SOL    HW213617   2.250   0.729   8.713
 4244SOL     OW13618   3.128   0.375   8.727
 4244SOL    HW113619   3.160   0.454   8.771
 4244SOL    HW213620   3.040   0.397   8.697
 4245SOL     OW13621   1.958   1.551   8.820
 4245SOL    HW113622   1.940   1.623   8.760
 4245SOL    HW213623   2.052   1.537   8.813
 4246SOL     OW13624   2.236   1.090   7.937
 4246SOL    HW113625   2.167   1.150   7.909
 4246SOL    HW213626   2.231   1.017   7.876
 4247SOL     OW13627   2.414   0.523   8.302
 4247SOL    HW113628   2.425   0.584   8.229
 4247SOL    HW213629   2.479   0.551   8.366
 4248SOL     OW13630   3.127   1.347   7.830
 4248SOL    HW113631   3.187   1.415   7.859
 4248SOL    HW213632   3.042   1.372   7.866
 4249SOL     OW13633   3.154   1.461   8.597
 4249SOL    HW113634   3.210   1.469   8.675
 4249SOL    HW213635   3.102   1.382   8.613
 4250SOL     OW13636   3.427   0.635   7.940
 4250SOL    HW113637   3.384   0.686   8.008
 4250SOL    HW213638   3.475   0.699   7.887
 4251SOL     OW13639   2.222   1.504   8.768
 4251SOL    HW113640   2.207   1.465   8.682
 4251SOL    HW213641   2.316   1.521   8.771
 4252SOL     OW13642   2.286   0.745   9.054
 4252SOL    HW113643   2.346   0.788   8.994
 4252SOL    HW213644   2.329   0.661   9.074
 4253SOL     OW13645   3.471   0.781   9.137
 4253SOL    HW113646   3.385   0.824   9.132
 4253SOL    HW213647   3.524   0.824   9.070
 4254SOL     OW13648   2.862   0.147   9.233
 4254SOL    HW113649   2.925   0.212   9.200
 4254SOL    HW213650   2.853   0.085   9.160
 4255SOL     OW13651   2.354   0.036   9.208
 4255SOL    HW113652   2.351   0.054   9.114
 4255SOL    HW213653   2.294   0.099   9.247
 4256SOL     OW13654   2.448   0.872   8.482
 4256SOL    HW113655   2.468   0.966   8.479
 4256SOL    HW213656   2.388   0.863   8.556
 4257SOL     OW13657   3.202   0.859   8.464
 4257SOL    HW113658   3.115   0.840   8.430
 4257SOL    HW213659   3.250   0.777   8.455
 4258SOL     OW13660   3.059   0.541   7.700
 4258SOL    HW113661   3.066   0.462   7.753
 4258SOL    HW213662   3.015   0.604   7.758
 4259SOL     OW13663   2.156   0.206   8.692
 4259SOL    HW113664   2.113   0.234   8.773
 4259SOL    HW213665   2.147   0.111   8.691
 4260SOL     OW13666   1.901   1.301   8.724
 4260SOL    HW113667   1.935   1.242   8.791
 4260SOL    HW213668   1.914   1.389   8.759
 4261SOL     OW13669   2.580   0.629   8.494
 4261SOL    HW113670   2.657   0.622   8.438
 4261SOL    HW213671   2.549   0.718   8.480
 4262SOL     OW13672   3.593   0.957   9.320
 4262SOL    HW113673   3.554   0.890   9.264
 4262SOL    HW213674   3.527   0.975   9.387
 4263SOL     OW13675   2.188   0.051   8.113
 4263SOL    HW113676   2.166   0.144   8.121
 4263SOL    HW213677   2.167   0.014   8.198
 4264SOL     OW13678   3.477   0.400   7.824
 4264SOL    HW113679   3.429   0.332   7.870
 4264SOL    HW213680   3.455   0.481   7.871
 4265SOL     OW13681   2.895   0.759   8.405
 4265SOL    HW113682   2.882   0.775   8.498
 4265SOL    HW213683   2.866   0.669   8.392
 4266SOL     OW13684   2.843   1.566   9.173
 4266SOL    HW113685   2.826   1.609   9.089
 4266SOL    HW213686   2.886   1.484   9.149
 4267SOL     OW13687   3.700   1.490   9.043
 4267SOL    HW113688   3.726   1.523   8.957
 4267SOL    HW213689   3.779   1.497   9.097
 4268SOL     OW13690   2.213   0.915   9.259
 4268SOL    HW113691   2.292   0.935   9.307
 4268SOL    HW213692   2.240   0.852   9.192
 4269SOL     OW13693   3.353   0.268   7.577
 4269SOL    HW113694   3.283   0.203   7.586
 4269SOL    HW213695   3.362   0.305   7.665
 4270SOL     OW13696   3.145   0.827   7.474
 4270SOL    HW113697   3.187   0.741   7.478
 4270SOL    HW213698   3.178   0.866   7.393
 4271SOL     OW13699   2.924   1.338   8.300
 4271SOL    HW113700   2.933   1.263   8.242
 4271SOL    HW213701   2.990   1.400   8.270
 4272SOL     OW13702   2.164   0.805   8.393
 4272SOL    HW113703   2.256   0.828   8.381
 4272SOL    HW213704   2.165   0.715   8.426
 4273SOL     OW13705   2.200   0.537   8.464
 4273SOL    HW113706   2.157   0.453   8.450
 4273SOL    HW213707   2.276   0.535   8.405
 4274SOL     OW13708   2.997   0.378   9.149
 4274SOL    HW113709   2.948   0.431   9.211
 4274SOL    HW213710   3.083   0.419   9.144
 4275SOL     OW13711   3.015   0.225   8.929
 4275SOL    HW113712   3.005   0.277   9.009
 4275SOL    HW213713   3.044   0.288   8.863
 4276SOL     OW13714   2.354   1.576   8.360
 4276SOL    HW113715   2.422   1.641   8.377
 4276SOL    HW213716   2.400   1.504   8.317
 4277SOL     OW13717   2.830   0.785   8.668
 4277SOL    HW113718   2.889   0.769   8.742
 4277SOL    HW213719   2.747   0.745   8.694
 4278SOL     OW13720   1.895   0.550   8.566
 4278SOL    HW113721   1.968   0.526   8.509
 4278SOL    HW213722   1.931   0.547   8.655
 4279SOL     OW13723   2.066   0.529   9.159
 4279SOL    HW113724   2.140   0.509   9.103
 4279SOL    HW213725   2.025   0.606   9.118
 4280SOL     OW13726   3.244   0.932   9.103
 4280SOL    HW113727   3.265   1.025   9.099
 4280SOL    HW213728   3.239   0.904   9.012
 4281SOL     OW13729   2.680   0.574   7.817
 4281SOL    HW113730   2.686   0.499   7.758
 4281SOL    HW213731   2.604   0.623   7.785
 4282SOL     OW13732   3.498   0.603   8.625
 4282SOL    HW113733   3.487   0.542   8.698
 4282SOL    HW213734   3.585   0.583   8.591
 4283SOL     OW13735   2.088   1.558   9.186
 4283SOL    HW113736   2.045   1.585   9.267
 4283SOL    HW213737   2.117   1.468   9.203
 4284SOL     OW13738   2.583   0.446   8.695
 4284SOL    HW113739   2.526   0.371   8.675
 4284SOL    HW213740   2.568   0.507   8.623
 4285SOL     OW13741   2.785   1.676   8.922
 4285SOL    HW113742   2.757   1.638   8.838
 4285SOL    HW213743   2.784   1.770   8.907
 4286SOL     OW13744   2.319   0.491   7.624
 4286SOL    HW113745   2.378   0.562   7.651
 4286SOL    HW213746   2.234   0.534   7.614
 4287SOL     OW13747   2.000   1.139   8.925
 4287SOL    HW113748   2.003   1.095   9.010
 4287SOL    HW213749   2.018   1.070   8.861
 4288SOL     OW13750   3.179   1.040   8.666
 4288SOL    HW113751   3.199   0.978   8.596
 4288SOL    HW213752   3.115   1.100   8.626
 4289SOL     OW13753   3.177   0.854   7.751
 4289SOL    HW113754   3.102   0.822   7.802
 4289SOL    HW213755   3.150   0.842   7.660
 4290SOL     OW13756   3.650   1.737   8.611
 4290SOL    HW113757   3.705   1.764   8.538
 4290SOL    HW213758   3.615   1.651   8.585
 4291SOL     OW13759   3.100   1.730   8.543
 4291SOL    HW113760   3.184   1.757   8.506
 4291SOL    HW213761   3.113   1.639   8.569
 4292SOL     OW13762   1.958   1.261   8.461
 4292SOL    HW113763   1.929   1.270   8.552
 4292SOL    HW213764   1.888   1.211   8.418
 4293SOL     OW13765   2.541   1.673   9.187
 4293SOL    HW113766   2.483   1.749   9.186
 4293SOL    HW213767   2.611   1.695   9.126
 4294SOL     OW13768   3.547   0.116   7.938
 4294SOL    HW113769   3.627   0.134   7.889
 4294SOL    HW213770   3.553   0.024   7.962
 4295SOL     OW13771   3.259   1.568   7.940
 4295SOL    HW113772   3.318   1.601   7.873
 4295SOL    HW213773   3.205   1.643   7.964
 4296SOL     OW13774   3.139   0.931   8.121
 4296SOL    HW113775   3.213   0.872   8.135
 4296SOL    HW213776   3.174   1.001   8.065
 4297SOL     OW13777   2.661   1.278   8.868
 4297SOL    HW113778   2.635   1.320   8.950
 4297SOL    HW213779   2.588   1.293   8.809
 4298SOL     OW13780   3.477   1.729   8.840
 4298SOL    HW113781   3.536   1.732   8.765
 4298SOL    HW213782   3.463   1.821   8.863
 4299SOL     OW13783   3.707   0.182   8.419
 4299SOL    HW113784   3.732   0.098   8.380
 4299SOL    HW213785   3.621   0.201   8.381
 4300SOL     OW13786   2.122   0.313   8.162
 4300SOL    HW113787   2.036   0.348   8.137
 4300SOL    HW213788   2.120   0.311   8.257
 4301SOL     OW13789   3.066   1.607   7.481
 4301SOL    HW113790   3.048   1.513   7.486
 4301SOL    HW213791   3.042   1.632   7.392
 4302SOL     OW13792   2.686   1.007   8.825
 4302SOL    HW113793   2.727   1.000   8.739
 4302SOL    HW213794   2.681   1.101   8.841
 4303SOL     OW13795   2.782   0.910   7.737
 4303SOL    HW113796   2.843   0.945   7.672
 4303SOL    HW213797   2.832   0.843   7.783
 4304SOL     OW13798   3.349   1.636   7.494
 4304SOL    HW113799   3.255   1.623   7.479
 4304SOL    HW213800   3.388   1.639   7.407
 4305SOL     OW13801   2.230   1.294   8.948
 4305SOL    HW113802   2.224   1.367   8.887
 4305SOL    HW213803   2.151   1.242   8.931
 4306SOL     OW13804   3.457   1.281   8.721
 4306SOL    HW113805   3.527   1.269   8.785
 4306SOL    HW213806   3.401   1.349   8.759
 4307SOL     OW13807   2.925   1.110   8.158
 4307SOL    HW113808   2.853   1.059   8.194
 4307SOL    HW213809   2.992   1.045   8.134
 4308SOL     OW13810   2.878   0.251   8.420
 4308SOL    HW113811   2.869   0.200   8.340
 4308SOL    HW213812   2.880   0.186   8.490
 4309SOL     OW13813   3.584   0.397   8.817
 4309SOL    HW113814   3.657   0.459   8.819
 4309SOL    HW213815   3.615   0.324   8.763
 4310SOL     OW13816   1.978   1.039   9.179
 4310SOL    HW113817   1.901   1.009   9.228
 4310SOL    HW213818   2.051   0.991   9.219
 4311SOL     OW13819   2.561   0.272   8.956
 4311SOL    HW113820   2.625   0.214   8.914
 4311SOL    HW213821   2.586   0.272   9.048
 4312SOL     OW13822   1.967   0.316   7.440
 4312SOL    HW113823   1.900   0.335   7.505
 4312SOL    HW213824   1.974   0.396   7.388
 4313SOL     OW13825   3.282   0.855   8.843
 4313SOL    HW113826   3.232   0.916   8.790
 4313SOL    HW213827   3.371   0.858   8.806
 4314SOL     OW13828   1.941   0.147   7.786
 4314SOL    HW113829   1.907   0.203   7.716
 4314SOL    HW213830   2.028   0.121   7.755
 4315SOL     OW13831   3.044   1.326   7.565
 4315SOL    HW113832   2.961   1.278   7.575
 4315SOL    HW213833   3.078   1.335   7.654
 4316SOL     OW13834   2.486   0.828   8.882
 4316SOL    HW113835   2.543   0.903   8.869
 4316SOL    HW213836   2.545   0.753   8.890
 4317SOL     OW13837   3.345   1.790   8.430
 4317SOL    HW113838   3.369   1.861   8.370
 4317SOL    HW213839   3.428   1.752   8.457
 4318SOL     OW13840   2.581   0.558   9.150
 4318SOL    HW113841   2.626   0.618   9.210
 4318SOL    HW213842   2.598   0.471   9.186
 4319SOL     OW13843   3.335   1.192   9.074
 4319SOL    HW113844   3.325   1.209   9.168
 4319SOL    HW213845   3.427   1.209   9.057
 4320SOL     OW13846   2.224   1.741   9.030
 4320SOL    HW113847   2.165   1.745   8.955
 4320SOL    HW213848   2.188   1.672   9.085
 4321SOL     OW13849   3.521   0.879   8.707
 4321SOL    HW113850   3.522   0.794   8.663
 4321SOL    HW213851   3.515   0.942   8.635
 4322SOL     OW13852   3.079   0.343   7.887
 4322SOL    HW113853   3.150   0.280   7.876
 4322SOL    HW213854   3.097   0.386   7.971
 4323SOL     OW13855   2.449   0.732   8.122
 4323SOL    HW113856   2.491   0.817   8.105
 4323SOL    HW213857   2.384   0.723   8.052
 4324SOL     OW13858   3.613   0.380   9.089
 4324SOL    HW113859   3.593   0.390   8.996
 4324SOL    HW213860   3.550   0.314   9.119
 4325SOL     OW13861   3.615   0.930   8.959
 4325SOL    HW113862   3.605   1.023   8.978
 4325SOL    HW213863   3.589   0.920   8.868
 4326SOL     OW13864   2.710   1.354   7.462
 4326SOL    HW113865   2.717   1.338   7.557
 4326SOL    HW213866   2.690   1.448   7.455
 4327SOL     OW13867   2.528   1.793   8.381
 4327SOL    HW113868   2.513   1.887   8.377
 4327SOL    HW213869   2.623   1.784   8.375
 4328SOL     OW13870   2.735   0.973   8.302
 4328SOL    HW113871   2.783   0.899   8.339
 4328SOL    HW213872   2.694   1.015   8.378
 4329SOL     OW13873   2.941   0.996   7.537
 4329SOL    HW113874   2.920   1.044   7.457
 4329SOL    HW213875   3.013   0.938   7.512
 4330SOL     OW13876   3.709   1.557   8.287
 4330SOL    HW113877   3.628   1.540   8.238
 4330SOL    HW213878   3.713   1.485   8.350
 4331SOL     OW13879   2.092   1.291   9.296
 4331SOL    HW113880   2.032   1.223   9.265
 4331SOL    HW213881   2.066   1.308   9.387
 4332SOL     OW13882   2.547   1.412   9.077
 4332SOL    HW113883   2.472   1.367   9.117
 4332SOL    HW213884   2.546   1.499   9.115
 4333SOL     OW13885   3.672   0.181   8.691
 4333SOL    HW113886   3.674   0.086   8.702
 4333SOL    HW213887   3.693   0.195   8.599
 4334SOL     OW13888   2.291   0.434   7.975
 4334SOL    HW113889   2.325   0.363   7.920
 4334SOL    HW213890   2.241   0.389   8.043
 4335SOL     OW13891   3.551   1.492   8.543
 4335SOL    HW113892   3.476   1.470   8.488
 4335SOL    HW213893   3.558   1.419   8.605
 4336SOL     OW13894   2.200   0.558   8.745
 4336SOL    HW113895   2.250   0.497   8.799
 4336SOL    HW213896   2.218   0.531   8.655
 4337SOL     OW13897   3.320   0.256   8.557
 4337SOL    HW113898   3.336   0.168   8.592
 4337SOL    HW213899   3.266   0.298   8.623
 4338SOL     OW13900   2.861   0.022   8.592
 4338SOL    HW113901   2.776   0.012   8.548
 4338SOL    HW213902   2.896   3.933   8.598
 4339SOL     OW13903   2.712   1.284   7.726
 4339SOL    HW113904   2.658   1.210   7.750
 4339SOL    HW213905   2.767   1.300   7.803
 4340SOL     OW13906   2.486   1.554   8.733
 4340SOL    HW113907   2.482   1.635   8.784
 4340SOL    HW213908   2.576   1.551   8.700
 4341SOL     OW13909   3.164   0.067   7.607
 4341SOL    HW113910   3.167   3.975   7.580
 4341SOL    HW213911   3.085   0.074   7.661
 4342SOL     OW13912   3.137   0.456   8.130
 4342SOL    HW113913   3.092   0.540   8.124
 4342SOL    HW213914   3.141   0.438   8.224
 4343SOL     OW13915   3.454   0.209   8.316
 4343SOL    HW113916   3.405   0.234   8.394
 4343SOL    HW213917   3.452   0.287   8.261
 4344SOL     OW13918   1.955   1.054   7.785
 4344SOL    HW113919   2.033   1.018   7.744
 4344SOL    HW213920   1.899   0.978   7.801
 4345SOL     OW13921   2.081   0.617   9.432
 4345SOL    HW113922   1.992   0.627   9.464
 4345SOL    HW213923   2.072   0.599   9.338
 4346SOL     OW13924   2.078   0.304  10.303
 4346SOL    HW113925   2.113   0.260  10.380
 4346SOL    HW213926   1.992   0.263  10.290
 4347SOL     OW13927   1.870   0.402   9.939
 4347SOL    HW113928   1.785   0.417   9.982
 4347SOL    HW213929   1.851   0.336   9.872
 4348SOL     OW13930   2.432   1.297  10.494
 4348SOL    HW113931   2.347   1.304  10.450
 4348SOL    HW213932   2.452   1.387  10.520
 4349SOL     OW13933   3.434   1.516  10.019
 4349SOL    HW113934   3.390   1.492  10.101
 4349SOL    HW213935   3.364   1.521   9.954
 4350SOL     OW13936   2.996   0.699  10.001
 4350SOL    HW113937   3.043   0.782   9.990
 4350SOL    HW213938   2.948   0.711  10.083
 4351SOL     OW13939   3.632   0.623   9.533
 4351SOL    HW113940   3.608   0.610   9.441
 4351SOL    HW213941   3.604   0.543   9.577
 4352SOL     OW13942   2.606   1.135  10.359
 4352SOL    HW113943   2.541   1.173  10.418
 4352SOL    HW213944   2.646   1.210  10.315
 4353SOL     OW13945   2.738   0.761  11.136
 4353SOL    HW113946   2.725   0.831  11.200
 4353SOL    HW213947   2.759   0.807  11.055
 4354SOL     OW13948   2.548   0.994   9.953
 4354SOL    HW113949   2.614   0.989  10.022
 4354SOL    HW213950   2.480   1.051   9.989
 4355SOL     OW13951   2.578   1.148  11.132
 4355SOL    HW113952   2.625   1.225  11.164
 4355SOL    HW213953   2.497   1.184  11.094
 4356SOL     OW13954   2.194   1.414  10.380
 4356SOL    HW113955   2.119   1.373  10.337
 4356SOL    HW213956   2.235   1.467  10.311
 4357SOL     OW13957   3.319   1.503  10.674
 4357SOL    HW113958   3.374   1.581  10.683
 4357SOL    HW213959   3.250   1.514  10.739
 4358SOL     OW13960   2.311   0.387  10.795
 4358SOL    HW113961   2.404   0.364  10.800
 4358SOL    HW213962   2.265   0.304  10.807
 4359SOL     OW13963   3.471   0.449  10.045
 4359SOL    HW113964   3.409   0.484   9.981
 4359SOL    HW213965   3.484   0.520  10.108
 4360SOL     OW13966   2.102   1.699   9.792
 4360SOL    HW113967   2.055   1.782   9.778
 4360SOL    HW213968   2.177   1.704   9.733
 4361SOL     OW13969   3.000   1.343  11.005
 4361SOL    HW113970   3.042   1.335  11.091
 4361SOL    HW213971   2.948   1.263  10.997
 4362SOL     OW13972   2.093   1.434   9.852
 4362SOL    HW113973   2.092   1.530   9.846
 4362SOL    HW213974   2.032   1.414   9.923
 4363SOL     OW13975   2.134   1.090  10.199
 4363SOL    HW113976   2.128   1.001  10.233
 4363SOL    HW213977   2.076   1.142  10.255
 4364SOL     OW13978   2.461   1.782  10.740
 4364SOL    HW113979   2.386   1.772  10.798
 4364SOL    HW213980   2.492   1.871  10.757
 4365SOL     OW13981   2.438   0.986   9.452
 4365SOL    HW113982   2.488   1.029   9.383
 4365SOL    HW213983   2.477   1.018   9.533
 4366SOL     OW13984   3.448   0.145  10.764
 4366SOL    HW113985   3.477   0.216  10.707
 4366SOL    HW213986   3.402   0.189  10.836
 4367SOL     OW13987   1.984   0.660   9.872
 4367SOL    HW113988   1.955   0.571   9.895
 4367SOL    HW213989   1.974   0.710   9.953
 4368SOL     OW13990   3.704   1.759   9.645
 4368SOL    HW113991   3.775   1.734   9.705
 4368SOL    HW213992   3.721   1.850   9.624
 4369SOL     OW13993   1.943   1.565   9.414
 4369SOL    HW113994   1.918   1.477   9.443
 4369SOL    HW213995   1.871   1.621   9.442
 4370SOL     OW13996   3.554   0.921   9.963
 4370SOL    HW113997   3.637   0.876   9.946
 4370SOL    HW213998   3.536   0.969   9.882
 4371SOL     OW13999   3.506   1.101   9.743
 4371SOL    HW114000   3.591   1.105   9.699
 4371SOL    HW214001   3.512   1.166   9.814
 4372SOL     OW14002   1.983   0.752  10.887
 4372SOL    HW114003   2.071   0.790  10.889
 4372SOL    HW214004   1.924   0.827  10.884
 4373SOL     OW14005   2.479   1.394  10.045
 4373SOL    HW114006   2.435   1.309  10.052
 4373SOL    HW214007   2.461   1.422   9.955
 4374SOL     OW14008   3.145   1.234  10.730
 4374SOL    HW114009   3.176   1.167  10.670
 4374SOL    HW214010   3.206   1.230  10.804
 4375SOL     OW14011   2.686   0.009   9.830
 4375SOL    HW114012   2.731   0.088   9.802
 4375SOL    HW214013   2.593   0.032   9.827
 4376SOL     OW14014   2.049   0.955  10.594
 4376SOL    HW114015   2.136   0.917  10.578
 4376SOL    HW214016   1.994   0.919  10.526
 4377SOL     OW14017   3.387   1.002   9.513
 4377SOL    HW114018   3.319   0.944   9.546
 4377SOL    HW214019   3.431   1.035   9.591
 4378SOL     OW14020   3.046   1.814  10.937
 4378SOL    HW114021   3.054   1.875  10.863
 4378SOL    HW214022   3.064   1.728  10.898
 4379SOL     OW14023   2.226   0.246  11.180
 4379SOL    HW114024   2.271   0.329  11.193
 4379SOL    HW214025   2.133   0.270  11.171
 4380SOL     OW14026   3.329   1.420  10.254
 4380SOL    HW114027   3.263   1.436  10.322
 4380SOL    HW214028   3.317   1.328  10.230
 4381SOL     OW14029   3.509   1.758   9.888
 4381SOL    HW114030   3.494   1.722   9.801
 4381SOL    HW214031   3.496   1.684   9.947
 4382SOL     OW14032   2.455   0.715   9.582
 4382SOL    HW114033   2.458   0.800   9.538
 4382SOL    HW214034   2.390   0.726   9.651
 4383SOL     OW14035   3.137   0.377  10.252
 4383SOL    HW114036   3.050   0.337  10.261
 4383SOL    HW214037   3.195   0.316  10.298
 4384SOL     OW14038   3.439   1.674   9.623
 4384SOL    HW114039   3.530   1.701   9.615
 4384SOL    HW214040   3.411   1.658   9.532
 4385SOL     OW14041   2.658   0.613  10.758
 4385SOL    HW114042   2.630   0.586  10.845
 4385SOL    HW214043   2.624   0.544  10.700
 4386SOL     OW14044   3.255   0.474  10.987
 4386SOL    HW114045   3.262   0.521  11.071
 4386SOL    HW214046   3.309   0.396  10.999
 4387SOL     OW14047   2.810   0.886  10.898
 4387SOL    HW114048   2.866   0.819  10.858
 4387SOL    HW214049   2.762   0.924  10.824
 4388SOL     OW14050   2.859   0.400  10.541
 4388SOL    HW114051   2.772   0.416  10.575
 4388SOL    HW214052   2.845   0.376  10.449
 4389SOL     OW14053   2.916   0.702   9.733
 4389SOL    HW114054   2.935   0.696   9.826
 4389SOL    HW214055   2.832   0.657   9.722
 4390SOL     OW14056   1.948   0.823  10.088
 4390SOL    HW114057   2.028   0.816  10.140
 4390SOL    HW214058   1.901   0.898  10.126
 4391SOL     OW14059   2.756   0.354   9.512
 4391SOL    HW114060   2.799   0.413   9.450
 4391SOL    HW214061   2.742   0.273   9.462
 4392SOL     OW14062   3.562   0.569  11.141
 4392SOL    HW114063   3.529   0.645  11.093
 4392SOL    HW214064   3.590   0.508  11.073
 4393SOL     OW14065   3.241   1.141   9.848
 4393SOL    HW114066   3.321   1.130   9.797
 4393SOL    HW214067   3.189   1.205   9.799
 4394SOL     OW14068   2.423   0.200  10.189
 4394SOL    HW114069   2.424   0.219  10.283
 4394SOL    HW214070   2.418   0.285  10.147
 4395SOL     OW14071   2.860   1.443   9.777
 4395SOL    HW114072   2.832   1.518   9.726
 4395SOL    HW214073   2.834   1.465   9.867
 4396SOL     OW14074   2.261   1.820  10.102
 4396SOL    HW114075   2.257   1.726  10.121
 4396SOL    HW214076   2.318   1.856  10.169
 4397SOL     OW14077   3.670   1.064  10.182
 4397SOL    HW114078   3.620   1.033  10.106
 4397SOL    HW214079   3.608   1.066  10.254
 4398SOL     OW14080   3.087   1.541  10.824
 4398SOL    HW114081   3.076   1.469  10.886
 4398SOL    HW214082   3.019   1.527  10.758
 4399SOL     OW14083   2.175   0.963   9.566
 4399SOL    HW114084   2.258   0.983   9.523
 4399SOL    HW214085   2.147   0.879   9.529
 4400SOL     OW14086   3.344   0.755  10.036
 4400SOL    HW114087   3.341   0.715  10.122
 4400SOL    HW214088   3.422   0.811  10.039
 4401SOL     OW14089   2.333   1.269  11.059
 4401SOL    HW114090   2.308   1.270  10.967
 4401SOL    HW214091   2.250   1.265  11.106
 4402SOL     OW14092   2.991   1.776   9.539
 4402SOL    HW114093   2.913   1.739   9.580
 4402SOL    HW214094   3.014   1.714   9.470
 4403SOL     OW14095   2.024   0.274  10.811
 4403SOL    HW114096   1.981   0.357  10.788
 4403SOL    HW214097   2.019   0.270  10.906
 4404SOL     OW14098   3.485   1.387   9.397
 4404SOL    HW114099   3.441   1.471   9.384
 4404SOL    HW214100   3.418   1.322   9.376
 4405SOL     OW14101   2.335   1.714   9.644
 4405SOL    HW114102   2.381   1.783   9.691
 4405SOL    HW214103   2.392   1.693   9.570
 4406SOL     OW14104   3.300   0.182   9.713
 4406SOL    HW114105   3.242   0.107   9.699
 4406SOL    HW214106   3.376   0.145   9.758
 4407SOL     OW14107   2.130   1.736  10.515
 4407SOL    HW114108   2.185   1.670  10.557
 4407SOL    HW214109   2.155   1.733  10.423
 4408SOL     OW14110   2.800   1.699  10.206
 4408SOL    HW114111   2.882   1.652  10.227
 4408SOL    HW214112   2.761   1.648  10.135
 4409SOL     OW14113   2.259   0.694   9.781
 4409SOL    HW114114   2.275   0.601   9.796
 4409SOL    HW214115   2.166   0.707   9.800
 4410SOL     OW14116   3.391   0.226  11.035
 4410SOL    HW114117   3.378   0.248  11.127
 4410SOL    HW214118   3.383   0.131  11.032
 4411SOL     OW14119   2.508   0.123   9.422
 4411SOL    HW114120   2.523   0.036   9.460
 4411SOL    HW214121   2.445   0.108   9.351
 4412SOL     OW14122   2.631   0.287  11.088
 4412SOL    HW114123   2.712   0.237  11.088
 4412SOL    HW214124   2.579   0.248  11.159
 4413SOL     OW14125   2.740   1.524  10.504
 4413SOL    HW114126   2.723   1.485  10.418
 4413SOL    HW214127   2.809   1.469  10.541
 4414SOL     OW14128   3.198   0.588  10.742
 4414SOL    HW114129   3.230   0.559  10.828
 4414SOL    HW214130   3.233   0.676  10.731
 4415SOL     OW14131   2.681   1.386  10.258
 4415SOL    HW114132   2.766   1.376  10.216
 4415SOL    HW214133   2.619   1.395  10.186
 4416SOL     OW14134   2.793   0.513  10.206
 4416SOL    HW114135   2.768   0.504  10.114
 4416SOL    HW214136   2.817   0.424  10.233
 4417SOL     OW14137   2.406   0.055   9.802
 4417SOL    HW114138   2.332   0.061   9.863
 4417SOL    HW214139   2.401   0.136   9.751
 4418SOL     OW14140   3.288   1.202   9.347
 4418SOL    HW114141   3.318   1.128   9.400
 4418SOL    HW214142   3.203   1.225   9.384
 4419SOL     OW14143   2.194   0.050   9.526
 4419SOL    HW114144   2.196   0.110   9.451
 4419SOL    HW214145   2.270   0.074   9.578
 4420SOL     OW14146   2.809   0.253   9.766
 4420SOL    HW114147   2.783   0.289   9.682
 4420SOL    HW214148   2.904   0.263   9.768
 4421SOL     OW14149   2.941   0.689  10.765
 4421SOL    HW114150   2.872   0.622  10.772
 4421SOL    HW214151   3.022   0.639  10.761
 4422SOL     OW14152   3.078   1.575  10.106
 4422SOL    HW114153   3.092   1.639  10.037
 4422SOL    HW214154   3.149   1.590  10.168
 4423SOL     OW14155   2.339   1.155  10.034
 4423SOL    HW114156   2.273   1.134  10.100
 4423SOL    HW214157   2.293   1.144   9.950
 4424SOL     OW14158   3.124   1.791   9.924
 4424SOL    HW114159   3.174   1.853   9.870
 4424SOL    HW214160   3.055   1.844   9.963
 4425SOL     OW14161   2.883   0.535   9.342
 4425SOL    HW114162   2.839   0.618   9.323
 4425SOL    HW214163   2.946   0.557   9.410
 4426SOL     OW14164   1.950   0.545  10.708
 4426SOL    HW114165   2.041   0.551  10.678
 4426SOL    HW214166   1.941   0.618  10.769
 4427SOL     OW14167   2.421   0.230  10.470
 4427SOL    HW114168   2.443   0.137  10.480
 4427SOL    HW214169   2.332   0.237  10.505
 4428SOL     OW14170   2.732   0.460   9.945
 4428SOL    HW114171   2.687   0.516   9.882
 4428SOL    HW214172   2.755   0.381   9.896
 4429SOL     OW14173   2.860   0.034  10.094
 4429SOL    HW114174   2.816   0.068  10.016
 4429SOL    HW214175   2.873   3.941  10.076
 4430SOL     OW14176   3.305   1.159  10.167
 4430SOL    HW114177   3.231   1.098  10.167
 4430SOL    HW214178   3.330   1.167  10.075
 4431SOL     OW14179   3.324   0.612  10.276
 4431SOL    HW114180   3.267   0.536  10.281
 4431SOL    HW214181   3.382   0.604  10.352
 4432SOL     OW14182   3.720   0.826   9.685
 4432SOL    HW114183   3.759   0.769   9.751
 4432SOL    HW214184   3.686   0.766   9.619
 4433SOL     OW14185   2.354   1.422   9.461
 4433SOL    HW114186   2.278   1.397   9.514
 4433SOL    HW214187   2.348   1.369   9.382
 4434SOL     OW14188   3.534   1.267   9.950
 4434SOL    HW114189   3.629   1.269   9.960
 4434SOL    HW214190   3.506   1.356   9.971
 4435SOL     OW14191   3.256   0.580   9.376
 4435SOL    HW114192   3.193   0.560   9.446
 4435SOL    HW214193   3.342   0.567   9.418
 4436SOL     OW14194   2.386   0.265   9.625
 4436SOL    HW114195   2.445   0.227   9.560
 4436SOL    HW214196   2.356   0.347   9.585
 4437SOL     OW14197   3.610   1.229  10.866
 4437SOL    HW114198   3.699   1.196  10.849
 4437SOL    HW214199   3.624   1.320  10.895
 4438SOL     OW14200   2.915   1.353  10.642
 4438SOL    HW114201   2.839   1.321  10.691
 4438SOL    HW214202   2.990   1.311  10.683
 4439SOL     OW14203   3.468   1.630  10.970
 4439SOL    HW114204   3.459   1.666  10.882
 4439SOL    HW214205   3.546   1.575  10.965
 4440SOL     OW14206   3.000   1.215  10.411
 4440SOL    HW114207   2.939   1.252  10.475
 4440SOL    HW214208   2.971   1.250  10.327
 4441SOL     OW14209   3.485   1.092  10.383
 4441SOL    HW114210   3.474   1.155  10.454
 4441SOL    HW214211   3.412   1.110  10.323
 4442SOL     OW14212   2.773   0.123  10.711
 4442SOL    HW114213   2.793   0.090  10.623
 4442SOL    HW214214   2.854   0.163  10.740
 4443SOL     OW14215   2.846   1.116  11.034
 4443SOL    HW114216   2.755   1.133  11.059
 4443SOL    HW214217   2.842   1.037  10.980
 4444SOL     OW14218   2.573   1.064   9.681
 4444SOL    HW114219   2.557   1.042   9.773
 4444SOL    HW214220   2.647   1.010   9.656
 4445SOL     OW14221   2.286   0.819  10.563
 4445SOL    HW114222   2.354   0.827  10.629
 4445SOL    HW214223   2.251   0.730  10.575
 4446SOL     OW14224   3.129   0.375  10.589
 4446SOL    HW114225   3.160   0.454  10.632
 4446SOL    HW214226   3.040   0.397  10.559
 4447SOL     OW14227   1.960   1.552  10.676
 4447SOL    HW114228   1.945   1.625  10.616
 4447SOL    HW214229   2.054   1.536  10.671
 4448SOL     OW14230   2.198   1.122   9.799
 4448SOL    HW114231   2.197   1.198   9.741
 4448SOL    HW214232   2.196   1.046   9.740
 4449SOL     OW14233   2.414   0.523  10.164
 4449SOL    HW114234   2.425   0.584  10.091
 4449SOL    HW214235   2.478   0.551  10.228
 4450SOL     OW14236   3.109   1.350   9.701
 4450SOL    HW114237   3.164   1.421   9.734
 4450SOL    HW214238   3.021   1.371   9.734
 4451SOL     OW14239   3.155   1.462  10.459
 4451SOL    HW114240   3.209   1.468  10.537
 4451SOL    HW214241   3.101   1.384  10.473
 4452SOL     OW14242   3.427   0.636   9.801
 4452SOL    HW114243   3.384   0.685   9.871
 4452SOL    HW214244   3.473   0.702   9.749
 4453SOL     OW14245   2.224   1.502  10.630
 4453SOL    HW114246   2.209   1.464  10.543
 4453SOL    HW214247   2.318   1.519  10.633
 4454SOL     OW14248   2.287   0.745  10.916
 4454SOL    HW114249   2.347   0.788  10.856
 4454SOL    HW214250   2.329   0.661  10.936
 4455SOL     OW14251   3.471   0.782  10.999
 4455SOL    HW114252   3.385   0.824  10.993
 4455SOL    HW214253   3.524   0.824  10.932
 4456SOL     OW14254   2.862   0.147  11.095
 4456SOL    HW114255   2.925   0.212  11.062
 4456SOL    HW214256   2.853   0.085  11.023
 4457SOL     OW14257   2.354   0.036  11.070
 4457SOL    HW114258   2.351   0.054  10.976
 4457SOL    HW214259   2.294   0.099  11.109
 4458SOL     OW14260   2.448   0.875  10.343
 4458SOL    HW114261   2.481   0.964  10.346
 4458SOL    HW214262   2.390   0.868  10.418
 4459SOL     OW14263   3.202   0.859  10.328
 4459SOL    HW114264   3.115   0.841  10.291
 4459SOL    HW214265   3.250   0.776  10.317
 4460SOL     OW14266   3.058   0.541   9.562
 4460SOL    HW114267   3.065   0.462   9.615
 4460SOL    HW214268   3.016   0.605   9.619
 4461SOL     OW14269   2.156   0.206  10.554
 4461SOL    HW114270   2.113   0.234  10.635
 4461SOL    HW214271   2.147   0.111  10.552
 4462SOL     OW14272   1.898   1.301  10.588
 4462SOL    HW114273   1.934   1.243  10.655
 4462SOL    HW214274   1.914   1.389  10.621
 4463SOL     OW14275   2.579   0.630  10.356
 4463SOL    HW114276   2.657   0.622  10.301
 4463SOL    HW214277   2.549   0.719  10.341
 4464SOL     OW14278   3.594   0.956  11.183
 4464SOL    HW114279   3.554   0.890  11.126
 4464SOL    HW214280   3.527   0.975  11.249
 4465SOL     OW14281   2.187   0.051   9.974
 4465SOL    HW114282   2.165   0.144   9.983
 4465SOL    HW214283   2.167   0.014  10.060
 4466SOL     OW14284   3.477   0.401   9.685
 4466SOL    HW114285   3.429   0.333   9.732
 4466SOL    HW214286   3.456   0.482   9.733
 4467SOL     OW14287   2.894   0.759  10.266
 4467SOL    HW114288   2.882   0.775  10.360
 4467SOL    HW214289   2.866   0.669  10.254
 4468SOL     OW14290   2.842   1.566  11.034
 4468SOL    HW114291   2.826   1.609  10.951
 4468SOL    HW214292   2.886   1.484  11.011
 4469SOL     OW14293   3.700   1.490  10.906
 4469SOL    HW114294   3.726   1.523  10.820
 4469SOL    HW214295   3.780   1.497  10.959
 4470SOL     OW14296   2.213   0.915  11.120
 4470SOL    HW114297   2.292   0.935  11.170
 4470SOL    HW214298   2.241   0.853  11.053
 4471SOL     OW14299   3.354   0.267   9.439
 4471SOL    HW114300   3.283   0.202   9.447
 4471SOL    HW214301   3.362   0.305   9.526
 4472SOL     OW14302   3.145   0.827   9.335
 4472SOL    HW114303   3.187   0.741   9.339
 4472SOL    HW214304   3.179   0.866   9.254
 4473SOL     OW14305   2.932   1.341  10.169
 4473SOL    HW114306   2.938   1.270  10.106
 4473SOL    HW214307   2.988   1.410  10.133
 4474SOL     OW14308   2.170   0.811  10.255
 4474SOL    HW114309   2.263   0.831  10.247
 4474SOL    HW214310   2.167   0.721  10.288
 4475SOL     OW14311   2.199   0.539  10.325
 4475SOL    HW114312   2.156   0.455  10.312
 4475SOL    HW214313   2.274   0.538  10.266
 4476SOL     OW14314   2.997   0.378  11.011
 4476SOL    HW114315   2.948   0.431  11.073
 4476SOL    HW214316   3.083   0.419  11.006
 4477SOL     OW14317   3.015   0.225  10.791
 4477SOL    HW114318   3.005   0.277  10.871
 4477SOL    HW214319   3.044   0.288  10.725
 4478SOL     OW14320   1.871   1.312   9.498
 4478SOL    HW114321   1.782   1.329   9.465
 4478SOL    HW214322   1.866   1.224   9.535
 4479SOL     OW14323   2.352   1.574  10.218
 4479SOL    HW114324   2.418   1.641  10.237
 4479SOL    HW214325   2.396   1.513  10.159
 4480SOL     OW14326   2.831   0.783  10.530
 4480SOL    HW114327   2.890   0.768  10.604
 4480SOL    HW214328   2.748   0.745  10.557
 4481SOL     OW14329   1.895   0.551  10.428
 4481SOL    HW114330   1.969   0.527  10.371
 4481SOL    HW214331   1.931   0.548  10.517
 4482SOL     OW14332   2.066   0.529  11.021
 4482SOL    HW114333   2.141   0.509  10.965
 4482SOL    HW214334   2.025   0.605  10.980
 4483SOL     OW14335   3.244   0.931  10.965
 4483SOL    HW114336   3.265   1.025  10.961
 4483SOL    HW214337   3.239   0.904  10.873
 4484SOL     OW14338   2.680   0.573   9.679
 4484SOL    HW114339   2.686   0.498   9.620
 4484SOL    HW214340   2.604   0.623   9.647
 4485SOL     OW14341   3.498   0.603  10.487
 4485SOL    HW114342   3.487   0.542  10.560
 4485SOL    HW214343   3.585   0.583  10.452
 4486SOL     OW14344   2.088   1.556  11.048
 4486SOL    HW114345   2.083   1.604  11.131
 4486SOL    HW214346   2.101   1.465  11.074
 4487SOL     OW14347   2.582   0.446  10.556
 4487SOL    HW114348   2.526   0.372  10.536
 4487SOL    HW214349   2.568   0.507  10.484
 4488SOL     OW14350   2.782   1.676  10.784
 4488SOL    HW114351   2.758   1.637  10.700
 4488SOL    HW214352   2.782   1.770  10.767
 4489SOL     OW14353   2.320   0.491   9.486
 4489SOL    HW114354   2.379   0.562   9.512
 4489SOL    HW214355   2.235   0.533   9.476
 4490SOL     OW14356   2.000   1.139  10.786
 4490SOL    HW114357   2.003   1.095  10.871
 4490SOL    HW214358   2.018   1.070  10.723
 4491SOL     OW14359   3.178   1.041  10.528
 4491SOL    HW114360   3.199   0.979  10.458
 4491SOL    HW214361   3.115   1.101  10.489
 4492SOL     OW14362   3.179   0.853   9.612
 4492SOL    HW114363   3.103   0.827   9.665
 4492SOL    HW214364   3.149   0.843   9.521
 4493SOL     OW14365   3.650   1.736  10.473
 4493SOL    HW114366   3.704   1.763  10.400
 4493SOL    HW214367   3.615   1.651  10.447
 4494SOL     OW14368   3.102   1.733  10.413
 4494SOL    HW114369   3.185   1.758  10.372
 4494SOL    HW214370   3.113   1.640  10.434
 4495SOL     OW14371   1.960   1.253  10.329
 4495SOL    HW114372   1.933   1.268  10.420
 4495SOL    HW214373   1.884   1.215  10.287
 4496SOL     OW14374   2.542   1.673  11.048
 4496SOL    HW114375   2.486   1.750  11.046
 4496SOL    HW214376   2.612   1.693  10.986
 4497SOL     OW14377   3.547   0.116   9.800
 4497SOL    HW114378   3.627   0.134   9.750
 4497SOL    HW214379   3.553   0.024   9.823
 4498SOL     OW14380   3.255   1.568   9.804
 4498SOL    HW114381   3.312   1.602   9.735
 4498SOL    HW214382   3.203   1.643   9.832
 4499SOL     OW14383   3.139   0.930   9.980
 4499SOL    HW114384   3.214   0.872   9.994
 4499SOL    HW214385   3.173   1.001   9.927
 4500SOL     OW14386   2.663   1.277  10.731
 4500SOL    HW114387   2.635   1.319  10.813
 4500SOL    HW214388   2.592   1.296  10.670
 4501SOL     OW14389   2.534   1.627   9.463
 4501SOL    HW114390   2.545   1.641   9.369
 4501SOL    HW214391   2.478   1.549   9.468
 4502SOL     OW14392   3.477   1.729  10.703
 4502SOL    HW114393   3.535   1.732  10.627
 4502SOL    HW214394   3.463   1.820  10.726
 4503SOL     OW14395   3.707   0.182  10.281
 4503SOL    HW114396   3.731   0.097  10.244
 4503SOL    HW214397   3.621   0.201  10.243
 4504SOL     OW14398   2.122   0.313  10.024
 4504SOL    HW114399   2.036   0.348  10.000
 4504SOL    HW214400   2.121   0.311  10.120
 4505SOL     OW14401   3.070   1.599   9.343
 4505SOL    HW114402   3.058   1.508   9.371
 4505SOL    HW214403   3.002   1.613   9.277
 4506SOL     OW14404   2.686   1.008  10.686
 4506SOL    HW114405   2.726   1.002  10.599
 4506SOL    HW214406   2.680   1.101  10.703
 4507SOL     OW14407   2.778   0.911   9.600
 4507SOL    HW114408   2.838   0.945   9.534
 4507SOL    HW214409   2.828   0.844   9.647
 4508SOL     OW14410   3.347   1.635   9.356
 4508SOL    HW114411   3.254   1.622   9.341
 4508SOL    HW214412   3.386   1.640   9.269
 4509SOL     OW14413   2.228   1.296  10.815
 4509SOL    HW114414   2.226   1.366  10.750
 4509SOL    HW214415   2.151   1.243  10.795
 4510SOL     OW14416   3.458   1.281  10.584
 4510SOL    HW114417   3.527   1.269  10.650
 4510SOL    HW214418   3.401   1.349  10.621
 4511SOL     OW14419   2.926   1.112  10.024
 4511SOL    HW114420   2.853   1.063  10.059
 4511SOL    HW214421   2.990   1.046   9.997
 4512SOL     OW14422   2.879   0.251  10.282
 4512SOL    HW114423   2.869   0.200  10.202
 4512SOL    HW214424   2.879   0.186  10.352
 4513SOL     OW14425   2.469   1.492   9.790
 4513SOL    HW114426   2.513   1.441   9.723
 4513SOL    HW214427   2.401   1.540   9.743
 4514SOL     OW14428   3.584   0.397  10.679
 4514SOL    HW114429   3.657   0.459  10.681
 4514SOL    HW214430   3.615   0.324  10.625
 4515SOL     OW14431   2.126   1.338   9.604
 4515SOL    HW114432   2.034   1.333   9.579
 4515SOL    HW214433   2.125   1.378   9.691
 4516SOL     OW14434   1.980   1.042  11.043
 4516SOL    HW114435   1.902   1.012  11.090
 4516SOL    HW214436   2.052   0.993  11.081
 4517SOL     OW14437   2.561   0.272  10.818
 4517SOL    HW114438   2.625   0.214  10.776
 4517SOL    HW214439   2.586   0.272  10.910
 4518SOL     OW14440   1.968   0.316   9.301
 4518SOL    HW114441   1.901   0.335   9.366
 4518SOL    HW214442   1.974   0.397   9.249
 4519SOL     OW14443   3.282   0.854  10.704
 4519SOL    HW114444   3.231   0.916  10.652
 4519SOL    HW214445   3.370   0.858  10.668
 4520SOL     OW14446   1.941   0.147   9.647
 4520SOL    HW114447   1.907   0.203   9.577
 4520SOL    HW214448   2.028   0.121   9.617
 4521SOL     OW14449   3.040   1.332   9.429
 4521SOL    HW114450   2.949   1.302   9.430
 4521SOL    HW214451   3.066   1.334   9.521
 4522SOL     OW14452   2.487   0.828  10.745
 4522SOL    HW114453   2.544   0.903  10.730
 4522SOL    HW214454   2.546   0.753  10.752
 4523SOL     OW14455   3.344   1.790  10.292
 4523SOL    HW114456   3.367   1.860  10.231
 4523SOL    HW214457   3.428   1.752  10.318
 4524SOL     OW14458   2.580   0.558  11.012
 4524SOL    HW114459   2.626   0.618  11.071
 4524SOL    HW214460   2.598   0.471  11.048
 4525SOL     OW14461   3.336   1.191  10.936
 4525SOL    HW114462   3.325   1.208  11.030
 4525SOL    HW214463   3.428   1.209  10.919
 4526SOL     OW14464   2.224   1.742  10.886
 4526SOL    HW114465   2.167   1.746  10.809
 4526SOL    HW214466   2.191   1.667  10.935
 4527SOL     OW14467   3.521   0.880  10.568
 4527SOL    HW114468   3.521   0.794  10.524
 4527SOL    HW214469   3.514   0.943  10.497
 4528SOL     OW14470   3.079   0.343   9.749
 4528SOL    HW114471   3.150   0.280   9.738
 4528SOL    HW214472   3.096   0.386   9.832
 4529SOL     OW14473   2.449   0.732   9.984
 4529SOL    HW114474   2.488   0.818   9.970
 4529SOL    HW214475   2.384   0.724   9.913
 4530SOL     OW14476   3.613   0.380  10.951
 4530SOL    HW114477   3.593   0.390  10.858
 4530SOL    HW214478   3.550   0.314  10.982
 4531SOL     OW14479   3.616   0.930  10.821
 4531SOL    HW114480   3.604   1.023  10.840
 4531SOL    HW214481   3.588   0.920  10.730
 4532SOL     OW14482   2.726   1.364   9.357
 4532SOL    HW114483   2.689   1.388   9.442
 4532SOL    HW214484   2.740   1.448   9.312
 4533SOL     OW14485   2.524   1.792  10.245
 4533SOL    HW114486   2.518   1.888  10.240
 4533SOL    HW214487   2.618   1.774  10.242
 4534SOL     OW14488   2.733   0.972  10.163
 4534SOL    HW114489   2.783   0.900  10.201
 4534SOL    HW214490   2.692   1.015  10.239
 4535SOL     OW14491   2.939   0.991   9.400
 4535SOL    HW114492   2.917   1.043   9.322
 4535SOL    HW214493   3.012   0.936   9.372
 4536SOL     OW14494   3.707   1.557  10.150
 4536SOL    HW114495   3.628   1.542  10.099
 4536SOL    HW214496   3.708   1.487  10.215
 4537SOL     OW14497   2.076   1.296  11.153
 4537SOL    HW114498   2.035   1.219  11.113
 4537SOL    HW214499   2.026   1.310  11.234
 4538SOL     OW14500   1.950   1.204   9.971
 4538SOL    HW114501   1.978   1.168  10.055
 4538SOL    HW214502   2.024   1.185   9.912
 4539SOL     OW14503   2.545   1.410  10.940
 4539SOL    HW114504   2.469   1.368  10.981
 4539SOL    HW214505   2.546   1.498  10.976
 4540SOL     OW14506   3.673   0.181  10.554
 4540SOL    HW114507   3.675   0.086  10.564
 4540SOL    HW214508   3.694   0.195  10.461
 4541SOL     OW14509   2.289   0.434   9.836
 4541SOL    HW114510   2.325   0.363   9.782
 4541SOL    HW214511   2.241   0.390   9.905
 4542SOL     OW14512   3.553   1.491  10.405
 4542SOL    HW114513   3.477   1.470  10.350
 4542SOL    HW214514   3.559   1.419  10.467
 4543SOL     OW14515   2.200   0.559  10.607
 4543SOL    HW114516   2.250   0.497  10.661
 4543SOL    HW214517   2.218   0.532  10.517
 4544SOL     OW14518   2.696   1.577   9.985
 4544SOL    HW114519   2.673   1.641   9.917
 4544SOL    HW214520   2.621   1.517   9.987
 4545SOL     OW14521   3.321   0.256  10.419
 4545SOL    HW114522   3.336   0.168  10.454
 4545SOL    HW214523   3.266   0.299  10.485
 4546SOL     OW14524   2.861   0.022  10.454
 4546SOL    HW114525   2.777   0.012  10.410
 4546SOL    HW214526   2.896   3.933  10.461
 4547SOL     OW14527   2.638   1.334   9.630
 4547SOL    HW114528   2.610   1.243   9.640
 4547SOL    HW214529   2.718   1.341   9.683
 4548SOL     OW14530   2.487   1.554  10.595
 4548SOL    HW114531   2.485   1.635  10.645
 4548SOL    HW214532   2.576   1.550  10.560
 4549SOL     OW14533   3.163   0.067   9.468
 4549SOL    HW114534   3.167   3.974   9.444
 4549SOL    HW214535   3.087   0.074   9.524
 4550SOL     OW14536   3.137   0.456   9.992
 4550SOL    HW114537   3.092   0.540   9.986
 4550SOL    HW214538   3.142   0.438  10.086
 4551SOL     OW14539   3.454   0.209  10.178
 4551SOL    HW114540   3.405   0.234  10.256
 4551SOL    HW214541   3.452   0.287  10.123
 4552SOL     OW14542   1.905   1.065   9.617
 4552SOL    HW114543   1.999   1.056   9.600
 4552SOL    HW214544   1.877   0.977   9.643
 4553SOL     OW14545   2.755   1.660   9.644
 4553SOL    HW114546   2.678   1.646   9.588
 4553SOL    HW214547   2.730   1.732   9.701
 4554SOL     OW14548   2.081   0.617  11.294
 4554SOL    HW114549   1.992   0.627  11.326
 4554SOL    HW214550   2.072   0.599  11.200
 4555SOL     OW14551   2.078   0.304  12.165
 4555SOL    HW114552   2.113   0.260  12.242
 4555SOL    HW214553   1.992   0.263  12.152
 4556SOL     OW14554   1.870   0.402  11.801
 4556SOL    HW114555   1.785   0.417  11.844
 4556SOL    HW214556   1.851   0.336  11.734
 4557SOL     OW14557   2.432   1.297  12.356
 4557SOL    HW114558   2.348   1.304  12.312
 4557SOL    HW214559   2.452   1.387  12.382
 4558SOL     OW14560   3.434   1.516  11.881
 4558SOL    HW114561   3.390   1.492  11.963
 4558SOL    HW214562   3.364   1.521  11.816
 4559SOL     OW14563   2.996   0.699  11.863
 4559SOL    HW114564   3.043   0.782  11.852
 4559SOL    HW214565   2.948   0.711  11.945
 4560SOL     OW14566   3.632   0.623  11.395
 4560SOL    HW114567   3.609   0.610  11.303
 4560SOL    HW214568   3.603   0.543  11.439
 4561SOL     OW14569   2.606   1.135  12.221
 4561SOL    HW114570   2.541   1.173  12.279
 4561SOL    HW214571   2.646   1.210  12.177
 4562SOL     OW14572   2.738   0.761  12.997
 4562SOL    HW114573   2.726   0.832  13.060
 4562SOL    HW214574   2.759   0.805  12.915
 4563SOL     OW14575   2.548   0.994  11.815
 4563SOL    HW114576   2.614   0.989  11.884
 4563SOL    HW214577   2.480   1.051  11.851
 4564SOL     OW14578   2.578   1.149  12.993
 4564SOL    HW114579   2.626   1.225  13.025
 4564SOL    HW214580   2.497   1.185  12.955
 4565SOL     OW14581   2.194   1.414  12.242
 4565SOL    HW114582   2.119   1.373  12.199
 4565SOL    HW214583   2.235   1.466  12.173
 4566SOL     OW14584   3.319   1.503  12.536
 4566SOL    HW114585   3.374   1.581  12.545
 4566SOL    HW214586   3.251   1.514  12.601
 4567SOL     OW14587   2.311   0.388  12.658
 4567SOL    HW114588   2.404   0.364  12.662
 4567SOL    HW214589   2.265   0.304  12.669
 4568SOL     OW14590   3.471   0.449  11.907
 4568SOL    HW114591   3.409   0.484  11.843
 4568SOL    HW214592   3.484   0.520  11.970
 4569SOL     OW14593   2.109   1.702  11.658
 4569SOL    HW114594   2.055   1.779  11.637
 4569SOL    HW214595   2.182   1.706  11.596
 4570SOL     OW14596   3.000   1.343  12.866
 4570SOL    HW114597   3.041   1.336  12.952
 4570SOL    HW214598   2.948   1.263  12.858
 4571SOL     OW14599   2.093   1.436  11.719
 4571SOL    HW114600   2.095   1.532  11.715
 4571SOL    HW214601   2.031   1.416  11.789
 4572SOL     OW14602   2.134   1.090  12.061
 4572SOL    HW114603   2.128   1.001  12.095
 4572SOL    HW214604   2.076   1.141  12.117
 4573SOL     OW14605   2.462   1.782  12.603
 4573SOL    HW114606   2.385   1.772  12.660
 4573SOL    HW214607   2.492   1.871  12.619
 4574SOL     OW14608   2.438   0.986  11.314
 4574SOL    HW114609   2.488   1.029  11.245
 4574SOL    HW214610   2.477   1.017  11.395
 4575SOL     OW14611   3.447   0.145  12.626
 4575SOL    HW114612   3.477   0.216  12.569
 4575SOL    HW214613   3.401   0.189  12.698
 4576SOL     OW14614   1.984   0.659  11.734
 4576SOL    HW114615   1.955   0.571  11.757
 4576SOL    HW214616   1.974   0.709  11.815
 4577SOL     OW14617   3.704   1.759  11.507
 4577SOL    HW114618   3.775   1.734  11.566
 4577SOL    HW214619   3.721   1.850  11.486
 4578SOL     OW14620   3.554   0.921  11.825
 4578SOL    HW114621   3.637   0.876  11.808
 4578SOL    HW214622   3.536   0.969  11.744
 4579SOL     OW14623   3.506   1.101  11.606
 4579SOL    HW114624   3.590   1.105  11.561
 4579SOL    HW214625   3.512   1.166  11.676
 4580SOL     OW14626   1.983   0.751  12.749
 4580SOL    HW114627   2.071   0.790  12.751
 4580SOL    HW214628   1.924   0.826  12.746
 4581SOL     OW14629   2.479   1.394  11.907
 4581SOL    HW114630   2.435   1.309  11.914
 4581SOL    HW214631   2.461   1.422  11.817
 4582SOL     OW14632   3.145   1.234  12.592
 4582SOL    HW114633   3.176   1.167  12.532
 4582SOL    HW214634   3.206   1.230  12.666
 4583SOL     OW14635   2.686   0.009  11.692
 4583SOL    HW114636   2.731   0.088  11.664
 4583SOL    HW214637   2.593   0.032  11.689
 4584SOL     OW14638   2.049   0.955  12.457
 4584SOL    HW114639   2.136   0.917  12.440
 4584SOL    HW214640   1.994   0.920  12.388
 4585SOL     OW14641   3.387   1.002  11.375
 4585SOL    HW114642   3.319   0.944  11.408
 4585SOL    HW214643   3.431   1.035  11.453
 4586SOL     OW14644   3.046   1.814  12.798
 4586SOL    HW114645   3.054   1.875  12.726
 4586SOL    HW214646   3.064   1.728  12.760
 4587SOL     OW14647   2.225   0.246  13.042
 4587SOL    HW114648   2.270   0.329  13.055
 4587SOL    HW214649   2.133   0.269  13.033
 4588SOL     OW14650   3.329   1.420  12.116
 4588SOL    HW114651   3.263   1.436  12.184
 4588SOL    HW214652   3.317   1.328  12.092
 4589SOL     OW14653   3.510   1.758  11.750
 4589SOL    HW114654   3.494   1.722  11.663
 4589SOL    HW214655   3.496   1.684  11.809
 4590SOL     OW14656   2.455   0.715  11.444
 4590SOL    HW114657   2.458   0.800  11.400
 4590SOL    HW214658   2.390   0.726  11.513
 4591SOL     OW14659   3.137   0.377  12.114
 4591SOL    HW114660   3.050   0.337  12.122
 4591SOL    HW214661   3.195   0.316  12.160
 4592SOL     OW14662   3.439   1.674  11.485
 4592SOL    HW114663   3.530   1.701  11.477
 4592SOL    HW214664   3.410   1.658  11.395
 4593SOL     OW14665   2.657   0.613  12.620
 4593SOL    HW114666   2.630   0.586  12.707
 4593SOL    HW214667   2.624   0.544  12.562
 4594SOL     OW14668   3.254   0.475  12.849
 4594SOL    HW114669   3.261   0.521  12.933
 4594SOL    HW214670   3.309   0.397  12.861
 4595SOL     OW14671   2.810   0.886  12.760
 4595SOL    HW114672   2.866   0.819  12.720
 4595SOL    HW214673   2.762   0.924  12.686
 4596SOL     OW14674   2.859   0.400  12.402
 4596SOL    HW114675   2.772   0.416  12.437
 4596SOL    HW214676   2.845   0.376  12.311
 4597SOL     OW14677   2.916   0.702  11.595
 4597SOL    HW114678   2.935   0.696  11.688
 4597SOL    HW214679   2.832   0.656  11.584
 4598SOL     OW14680   1.948   0.822  11.950
 4598SOL    HW114681   2.028   0.816  12.002
 4598SOL    HW214682   1.901   0.897  11.988
 4599SOL     OW14683   2.756   0.354  11.374
 4599SOL    HW114684   2.799   0.413  11.312
 4599SOL    HW214685   2.743   0.273  11.323
 4600SOL     OW14686   3.561   0.571  13.004
 4600SOL    HW114687   3.528   0.646  12.955
 4600SOL    HW214688   3.589   0.509  12.936
 4601SOL     OW14689   3.241   1.141  11.710
 4601SOL    HW114690   3.321   1.130  11.659
 4601SOL    HW214691   3.189   1.205  11.661
 4602SOL     OW14692   2.423   0.200  12.052
 4602SOL    HW114693   2.424   0.219  12.145
 4602SOL    HW214694   2.418   0.285  12.009
 4603SOL     OW14695   2.860   1.443  11.639
 4603SOL    HW114696   2.832   1.518  11.588
 4603SOL    HW214697   2.834   1.464  11.729
 4604SOL     OW14698   2.259   1.819  11.968
 4604SOL    HW114699   2.257   1.725  11.987
 4604SOL    HW214700   2.319   1.855  12.032
 4605SOL     OW14701   3.670   1.063  12.044
 4605SOL    HW114702   3.620   1.033  11.968
 4605SOL    HW214703   3.608   1.066  12.116
 4606SOL     OW14704   3.087   1.542  12.686
 4606SOL    HW114705   3.076   1.469  12.748
 4606SOL    HW214706   3.019   1.527  12.620
 4607SOL     OW14707   2.175   0.963  11.429
 4607SOL    HW114708   2.258   0.982  11.385
 4607SOL    HW214709   2.147   0.879  11.392
 4608SOL     OW14710   3.344   0.755  11.898
 4608SOL    HW114711   3.341   0.715  11.984
 4608SOL    HW214712   3.422   0.811  11.901
 4609SOL     OW14713   2.333   1.269  12.921
 4609SOL    HW114714   2.309   1.270  12.828
 4609SOL    HW214715   2.249   1.266  12.967
 4610SOL     OW14716   2.991   1.776  11.401
 4610SOL    HW114717   2.913   1.739  11.442
 4610SOL    HW214718   3.015   1.714  11.332
 4611SOL     OW14719   2.025   0.275  12.672
 4611SOL    HW114720   1.981   0.357  12.650
 4611SOL    HW214721   2.019   0.269  12.767
 4612SOL     OW14722   3.485   1.387  11.260
 4612SOL    HW114723   3.441   1.471  11.246
 4612SOL    HW214724   3.419   1.322  11.239
 4613SOL     OW14725   2.333   1.719  11.498
 4613SOL    HW114726   2.380   1.784  11.549
 4613SOL    HW214727   2.394   1.694  11.428
 4614SOL     OW14728   3.300   0.182  11.575
 4614SOL    HW114729   3.242   0.108  11.561
 4614SOL    HW214730   3.376   0.145  11.620
 4615SOL     OW14731   2.133   1.737  12.376
 4615SOL    HW114732   2.188   1.670  12.419
 4615SOL    HW214733   2.160   1.734  12.284
 4616SOL     OW14734   2.801   1.699  12.068
 4616SOL    HW114735   2.882   1.652  12.089
 4616SOL    HW214736   2.762   1.648  11.997
 4617SOL     OW14737   2.260   0.694  11.644
 4617SOL    HW114738   2.275   0.601  11.658
 4617SOL    HW214739   2.166   0.707  11.662
 4618SOL     OW14740   3.391   0.226  12.897
 4618SOL    HW114741   3.378   0.250  12.989
 4618SOL    HW214742   3.384   0.131  12.895
 4619SOL     OW14743   2.508   0.123  11.284
 4619SOL    HW114744   2.523   0.036  11.322
 4619SOL    HW214745   2.445   0.108  11.213
 4620SOL     OW14746   2.632   0.287  12.950
 4620SOL    HW114747   2.713   0.236  12.950
 4620SOL    HW214748   2.579   0.248  13.020
 4621SOL     OW14749   2.740   1.524  12.366
 4621SOL    HW114750   2.723   1.485  12.280
 4621SOL    HW214751   2.809   1.469  12.403
 4622SOL     OW14752   3.198   0.588  12.604
 4622SOL    HW114753   3.230   0.559  12.690
 4622SOL    HW214754   3.233   0.676  12.593
 4623SOL     OW14755   2.681   1.386  12.120
 4623SOL    HW114756   2.766   1.376  12.078
 4623SOL    HW214757   2.619   1.395  12.048
 4624SOL     OW14758   2.793   0.513  12.068
 4624SOL    HW114759   2.768   0.504  11.976
 4624SOL    HW214760   2.817   0.424  12.095
 4625SOL     OW14761   2.406   0.055  11.664
 4625SOL    HW114762   2.332   0.061  11.725
 4625SOL    HW214763   2.401   0.136  11.613
 4626SOL     OW14764   3.288   1.202  11.209
 4626SOL    HW114765   3.318   1.128  11.262
 4626SOL    HW214766   3.203   1.225  11.246
 4627SOL     OW14767   2.194   0.050  11.388
 4627SOL    HW114768   2.196   0.110  11.313
 4627SOL    HW214769   2.270   0.074  11.441
 4628SOL     OW14770   2.809   0.253  11.628
 4628SOL    HW114771   2.783   0.289  11.544
 4628SOL    HW214772   2.904   0.263  11.630
 4629SOL     OW14773   2.941   0.688  12.627
 4629SOL    HW114774   2.872   0.621  12.633
 4629SOL    HW214775   3.022   0.639  12.623
 4630SOL     OW14776   3.078   1.575  11.968
 4630SOL    HW114777   3.092   1.639  11.898
 4630SOL    HW214778   3.149   1.591  12.030
 4631SOL     OW14779   2.338   1.155  11.895
 4631SOL    HW114780   2.273   1.134  11.961
 4631SOL    HW214781   2.293   1.145  11.812
 4632SOL     OW14782   3.124   1.791  11.786
 4632SOL    HW114783   3.174   1.853  11.732
 4632SOL    HW214784   3.055   1.844  11.825
 4633SOL     OW14785   2.883   0.535  11.204
 4633SOL    HW114786   2.839   0.618  11.185
 4633SOL    HW214787   2.946   0.557  11.272
 4634SOL     OW14788   1.950   0.545  12.570
 4634SOL    HW114789   2.041   0.551  12.540
 4634SOL    HW214790   1.941   0.618  12.631
 4635SOL     OW14791   2.421   0.230  12.332
 4635SOL    HW114792   2.443   0.137  12.342
 4635SOL    HW214793   2.332   0.237  12.367
 4636SOL     OW14794   2.732   0.460  11.807
 4636SOL    HW114795   2.687   0.516  11.744
 4636SOL    HW214796   2.755   0.381  11.758
 4637SOL     OW14797   2.860   0.034  11.956
 4637SOL    HW114798   2.816   0.068  11.878
 4637SOL    HW214799   2.873   3.941  11.938
 4638SOL     OW14800   3.305   1.159  12.029
 4638SOL    HW114801   3.231   1.098  12.028
 4638SOL    HW214802   3.330   1.167  11.937
 4639SOL     OW14803   3.324   0.612  12.138
 4639SOL    HW114804   3.267   0.536  12.143
 4639SOL    HW214805   3.382   0.604  12.214
 4640SOL     OW14806   3.720   0.826  11.547
 4640SOL    HW114807   3.760   0.769  11.613
 4640SOL    HW214808   3.686   0.766  11.481
 4641SOL     OW14809   2.353   1.424  11.319
 4641SOL    HW114810   2.279   1.396  11.374
 4641SOL    HW214811   2.351   1.364  11.245
 4642SOL     OW14812   3.534   1.267  11.812
 4642SOL    HW114813   3.629   1.269  11.823
 4642SOL    HW214814   3.506   1.356  11.833
 4643SOL     OW14815   3.256   0.580  11.238
 4643SOL    HW114816   3.193   0.560  11.308
 4643SOL    HW214817   3.342   0.567  11.280
 4644SOL     OW14818   2.386   0.265  11.487
 4644SOL    HW114819   2.445   0.227  11.422
 4644SOL    HW214820   2.356   0.347  11.447
 4645SOL     OW14821   3.611   1.229  12.728
 4645SOL    HW114822   3.699   1.196  12.711
 4645SOL    HW214823   3.624   1.319  12.757
 4646SOL     OW14824   2.915   1.353  12.503
 4646SOL    HW114825   2.839   1.321  12.553
 4646SOL    HW214826   2.990   1.311  12.545
 4647SOL     OW14827   3.468   1.630  12.832
 4647SOL    HW114828   3.459   1.666  12.743
 4647SOL    HW214829   3.546   1.574  12.827
 4648SOL     OW14830   3.000   1.215  12.273
 4648SOL    HW114831   2.939   1.252  12.337
 4648SOL    HW214832   2.971   1.250  12.189
 4649SOL     OW14833   3.485   1.092  12.245
 4649SOL    HW114834   3.474   1.155  12.316
 4649SOL    HW214835   3.412   1.110  12.185
 4650SOL     OW14836   2.773   0.123  12.573
 4650SOL    HW114837   2.793   0.090  12.485
 4650SOL    HW214838   2.854   0.163  12.602
 4651SOL     OW14839   2.846   1.116  12.896
 4651SOL    HW114840   2.755   1.133  12.921
 4651SOL    HW214841   2.842   1.037  12.842
 4652SOL     OW14842   2.573   1.064  11.543
 4652SOL    HW114843   2.557   1.042  11.635
 4652SOL    HW214844   2.648   1.010  11.518
 4653SOL     OW14845   2.286   0.819  12.425
 4653SOL    HW114846   2.354   0.827  12.491
 4653SOL    HW214847   2.251   0.730  12.437
 4654SOL     OW14848   3.129   0.375  12.450
 4654SOL    HW114849   3.160   0.454  12.494
 4654SOL    HW214850   3.040   0.397  12.421
 4655SOL     OW14851   1.961   1.552  12.536
 4655SOL    HW114852   1.946   1.625  12.477
 4655SOL    HW214853   2.055   1.536  12.531
 4656SOL     OW14854   2.198   1.123  11.660
 4656SOL    HW114855   2.197   1.199  11.602
 4656SOL    HW214856   2.195   1.048  11.601
 4657SOL     OW14857   2.414   0.523  12.026
 4657SOL    HW114858   2.425   0.584  11.953
 4657SOL    HW214859   2.478   0.551  12.090
 4658SOL     OW14860   3.109   1.350  11.564
 4658SOL    HW114861   3.164   1.421  11.596
 4658SOL    HW214862   3.021   1.371  11.597
 4659SOL     OW14863   3.155   1.462  12.321
 4659SOL    HW114864   3.209   1.468  12.399
 4659SOL    HW214865   3.101   1.384  12.335
 4660SOL     OW14866   3.427   0.636  11.663
 4660SOL    HW114867   3.384   0.685  11.732
 4660SOL    HW214868   3.472   0.702  11.611
 4661SOL     OW14869   2.225   1.502  12.492
 4661SOL    HW114870   2.210   1.464  12.405
 4661SOL    HW214871   2.319   1.518  12.495
 4662SOL     OW14872   2.286   0.745  12.778
 4662SOL    HW114873   2.347   0.789  12.718
 4662SOL    HW214874   2.328   0.661  12.798
 4663SOL     OW14875   3.471   0.782  12.861
 4663SOL    HW114876   3.385   0.824  12.855
 4663SOL    HW214877   3.523   0.825  12.793
 4664SOL     OW14878   2.865   0.147  12.959
 4664SOL    HW114879   2.925   0.213  12.923
 4664SOL    HW214880   2.852   0.085  12.887
 4665SOL     OW14881   2.354   0.036  12.931
 4665SOL    HW114882   2.351   0.055  12.837
 4665SOL    HW214883   2.293   0.099  12.970
 4666SOL     OW14884   2.448   0.875  12.205
 4666SOL    HW114885   2.481   0.964  12.208
 4666SOL    HW214886   2.390   0.868  12.280
 4667SOL     OW14887   3.202   0.858  12.190
 4667SOL    HW114888   3.115   0.841  12.153
 4667SOL    HW214889   3.250   0.776  12.179
 4668SOL     OW14890   3.058   0.541  11.424
 4668SOL    HW114891   3.065   0.462  11.477
 4668SOL    HW214892   3.016   0.605  11.481
 4669SOL     OW14893   2.156   0.206  12.416
 4669SOL    HW114894   2.113   0.234  12.497
 4669SOL    HW214895   2.147   0.111  12.415
 4670SOL     OW14896   1.896   1.301  12.451
 4670SOL    HW114897   1.933   1.244  12.518
 4670SOL    HW214898   1.914   1.389  12.482
 4671SOL     OW14899   2.579   0.630  12.218
 4671SOL    HW114900   2.657   0.622  12.162
 4671SOL    HW214901   2.549   0.719  12.203
 4672SOL     OW14902   3.594   0.954  13.047
 4672SOL    HW114903   3.554   0.890  12.988
 4672SOL    HW214904   3.526   0.973  13.112
 4673SOL     OW14905   2.187   0.051  11.836
 4673SOL    HW114906   2.165   0.144  11.845
 4673SOL    HW214907   2.167   0.014  11.922
 4674SOL     OW14908   3.477   0.401  11.547
 4674SOL    HW114909   3.429   0.333  11.593
 4674SOL    HW214910   3.456   0.482  11.595
 4675SOL     OW14911   2.894   0.759  12.128
 4675SOL    HW114912   2.882   0.775  12.222
 4675SOL    HW214913   2.866   0.669  12.116
 4676SOL     OW14914   2.842   1.565  12.896
 4676SOL    HW114915   2.826   1.609  12.812
 4676SOL    HW214916   2.886   1.484  12.872
 4677SOL     OW14917   3.700   1.490  12.768
 4677SOL    HW114918   3.726   1.523  12.682
 4677SOL    HW214919   3.780   1.497  12.821
 4678SOL     OW14920   2.213   0.915  12.983
 4678SOL    HW114921   2.293   0.935  13.031
 4678SOL    HW214922   2.240   0.853  12.916
 4679SOL     OW14923   3.354   0.267  11.301
 4679SOL    HW114924   3.283   0.202  11.309
 4679SOL    HW214925   3.362   0.305  11.388
 4680SOL     OW14926   3.145   0.827  11.197
 4680SOL    HW114927   3.187   0.741  11.201
 4680SOL    HW214928   3.179   0.866  11.116
 4681SOL     OW14929   2.932   1.341  12.031
 4681SOL    HW114930   2.938   1.270  11.968
 4681SOL    HW214931   2.988   1.410  11.995
 4682SOL     OW14932   2.170   0.811  12.117
 4682SOL    HW114933   2.263   0.831  12.109
 4682SOL    HW214934   2.167   0.721  12.150
 4683SOL     OW14935   2.199   0.539  12.187
 4683SOL    HW114936   2.156   0.455  12.174
 4683SOL    HW214937   2.274   0.538  12.129
 4684SOL     OW14938   2.996   0.378  12.873
 4684SOL    HW114939   2.948   0.432  12.935
 4684SOL    HW214940   3.083   0.419  12.868
 4685SOL     OW14941   3.015   0.225  12.653
 4685SOL    HW114942   3.005   0.277  12.733
 4685SOL    HW214943   3.044   0.288  12.587
 4686SOL     OW14944   1.885   1.315  11.355
 4686SOL    HW114945   1.798   1.342  11.324
 4686SOL    HW214946   1.870   1.229  11.395
 4687SOL     OW14947   2.353   1.574  12.080
 4687SOL    HW114948   2.419   1.641  12.099
 4687SOL    HW214949   2.397   1.513  12.021
 4688SOL     OW14950   2.831   0.783  12.392
 4688SOL    HW114951   2.890   0.768  12.466
 4688SOL    HW214952   2.748   0.745  12.419
 4689SOL     OW14953   1.895   0.551  12.290
 4689SOL    HW114954   1.968   0.527  12.233
 4689SOL    HW214955   1.931   0.548  12.378
 4690SOL     OW14956   2.066   0.529  12.884
 4690SOL    HW114957   2.140   0.508  12.827
 4690SOL    HW214958   2.026   0.606  12.843
 4691SOL     OW14959   3.244   0.932  12.827
 4691SOL    HW114960   3.265   1.025  12.823
 4691SOL    HW214961   3.238   0.904  12.735
 4692SOL     OW14962   2.680   0.573  11.541
 4692SOL    HW114963   2.686   0.498  11.482
 4692SOL    HW214964   2.604   0.623  11.509
 4693SOL     OW14965   3.498   0.602  12.349
 4693SOL    HW114966   3.487   0.542  12.422
 4693SOL    HW214967   3.585   0.583  12.315
 4694SOL     OW14968   2.088   1.557  12.908
 4694SOL    HW114969   2.082   1.605  12.991
 4694SOL    HW214970   2.101   1.466  12.934
 4695SOL     OW14971   2.582   0.446  12.418
 4695SOL    HW114972   2.526   0.372  12.398
 4695SOL    HW214973   2.568   0.507  12.346
 4696SOL     OW14974   2.782   1.676  12.646
 4696SOL    HW114975   2.758   1.637  12.562
 4696SOL    HW214976   2.781   1.770  12.629
 4697SOL     OW14977   2.320   0.491  11.348
 4697SOL    HW114978   2.379   0.562  11.374
 4697SOL    HW214979   2.234   0.533  11.338
 4698SOL     OW14980   2.000   1.139  12.649
 4698SOL    HW114981   2.003   1.095  12.734
 4698SOL    HW214982   2.018   1.070  12.585
 4699SOL     OW14983   3.178   1.041  12.390
 4699SOL    HW114984   3.199   0.979  12.320
 4699SOL    HW214985   3.115   1.101  12.351
 4700SOL     OW14986   3.179   0.853  11.474
 4700SOL    HW114987   3.103   0.827  11.527
 4700SOL    HW214988   3.149   0.843  11.383
 4701SOL     OW14989   3.650   1.736  12.335
 4701SOL    HW114990   3.704   1.763  12.262
 4701SOL    HW214991   3.616   1.650  12.309
 4702SOL     OW14992   3.102   1.733  12.275
 4702SOL    HW114993   3.185   1.758  12.234
 4702SOL    HW214994   3.113   1.640  12.296
 4703SOL     OW14995   1.960   1.253  12.192
 4703SOL    HW114996   1.932   1.267  12.282
 4703SOL    HW214997   1.884   1.215  12.148
 4704SOL     OW14998   2.541   1.674  12.909
 4704SOL    HW114999   2.485   1.752  12.905
 4704SOL    HW215000   2.612   1.693  12.848
 4705SOL     OW15001   3.547   0.116  11.662
 4705SOL    HW115002   3.627   0.134  11.612
 4705SOL    HW215003   3.553   0.024  11.686
 4706SOL     OW15004   3.255   1.568  11.666
 4706SOL    HW115005   3.312   1.602  11.597
 4706SOL    HW215006   3.203   1.643  11.694
 4707SOL     OW15007   3.139   0.930  11.842
 4707SOL    HW115008   3.214   0.872  11.856
 4707SOL    HW215009   3.173   1.001  11.789
 4708SOL     OW15010   2.663   1.277  12.594
 4708SOL    HW115011   2.635   1.320  12.675
 4708SOL    HW215012   2.592   1.296  12.532
 4709SOL     OW15013   2.534   1.627  11.323
 4709SOL    HW115014   2.547   1.641  11.230
 4709SOL    HW215015   2.478   1.549  11.328
 4710SOL     OW15016   3.478   1.729  12.565
 4710SOL    HW115017   3.535   1.732  12.489
 4710SOL    HW215018   3.463   1.820  12.588
 4711SOL     OW15019   3.707   0.182  12.143
 4711SOL    HW115020   3.731   0.097  12.106
 4711SOL    HW215021   3.621   0.201  12.105
 4712SOL     OW15022   2.122   0.313  11.886
 4712SOL    HW115023   2.036   0.348  11.862
 4712SOL    HW215024   2.121   0.311  11.982
 4713SOL     OW15025   3.070   1.599  11.205
 4713SOL    HW115026   3.058   1.508  11.232
 4713SOL    HW215027   3.003   1.613  11.139
 4714SOL     OW15028   2.686   1.008  12.548
 4714SOL    HW115029   2.726   1.002  12.461
 4714SOL    HW215030   2.680   1.102  12.565
 4715SOL     OW15031   2.778   0.911  11.462
 4715SOL    HW115032   2.838   0.945  11.396
 4715SOL    HW215033   2.828   0.844  11.509
 4716SOL     OW15034   3.347   1.635  11.218
 4716SOL    HW115035   3.254   1.622  11.203
 4716SOL    HW215036   3.386   1.640  11.131
 4717SOL     OW15037   2.229   1.295  12.677
 4717SOL    HW115038   2.227   1.366  12.612
 4717SOL    HW215039   2.151   1.243  12.657
 4718SOL     OW15040   3.458   1.281  12.446
 4718SOL    HW115041   3.527   1.269  12.511
 4718SOL    HW215042   3.401   1.349  12.483
 4719SOL     OW15043   2.926   1.113  11.886
 4719SOL    HW115044   2.853   1.063  11.921
 4719SOL    HW215045   2.990   1.046  11.859
 4720SOL     OW15046   2.879   0.251  12.144
 4720SOL    HW115047   2.869   0.200  12.064
 4720SOL    HW215048   2.880   0.186  12.214
 4721SOL     OW15049   2.470   1.492  11.652
 4721SOL    HW115050   2.515   1.441  11.586
 4721SOL    HW215051   2.398   1.535  11.605
 4722SOL     OW15052   3.584   0.397  12.542
 4722SOL    HW115053   3.657   0.459  12.543
 4722SOL    HW215054   3.615   0.324  12.488
 4723SOL     OW15055   2.134   1.344  11.472
 4723SOL    HW115056   2.045   1.340  11.437
 4723SOL    HW215057   2.124   1.382  11.559
 4724SOL     OW15058   1.979   1.042  12.905
 4724SOL    HW115059   1.902   1.012  12.952
 4724SOL    HW215060   2.052   0.993  12.944
 4725SOL     OW15061   2.561   0.272  12.680
 4725SOL    HW115062   2.625   0.214  12.638
 4725SOL    HW215063   2.586   0.272  12.772
 4726SOL     OW15064   1.968   0.316  11.163
 4726SOL    HW115065   1.901   0.335  11.229
 4726SOL    HW215066   1.974   0.397  11.111
 4727SOL     OW15067   3.282   0.854  12.566
 4727SOL    HW115068   3.231   0.916  12.513
 4727SOL    HW215069   3.370   0.858  12.530
 4728SOL     OW15070   1.941   0.146  11.509
 4728SOL    HW115071   1.907   0.203  11.439
 4728SOL    HW215072   2.028   0.121  11.479
 4729SOL     OW15073   3.040   1.332  11.291
 4729SOL    HW115074   2.950   1.301  11.293
 4729SOL    HW215075   3.066   1.334  11.383
 4730SOL     OW15076   2.487   0.828  12.607
 4730SOL    HW115077   2.544   0.903  12.592
 4730SOL    HW215078   2.546   0.753  12.614
 4731SOL     OW15079   3.344   1.790  12.154
 4731SOL    HW115080   3.367   1.860  12.093
 4731SOL    HW215081   3.428   1.752  12.180
 4732SOL     OW15082   2.580   0.558  12.874
 4732SOL    HW115083   2.626   0.618  12.933
 4732SOL    HW215084   2.598   0.471  12.910
 4733SOL     OW15085   3.336   1.191  12.798
 4733SOL    HW115086   3.325   1.208  12.892
 4733SOL    HW215087   3.428   1.209  12.781
 4734SOL     OW15088   2.224   1.745  12.747
 4734SOL    HW115089   2.167   1.749  12.670
 4734SOL    HW215090   2.191   1.669  12.796
 4735SOL     OW15091   3.521   0.880  12.430
 4735SOL    HW115092   3.521   0.794  12.386
 4735SOL    HW215093   3.514   0.943  12.359
 4736SOL     OW15094   3.079   0.343  11.611
 4736SOL    HW115095   3.150   0.280  11.600
 4736SOL    HW215096   3.096   0.386  11.694
 4737SOL     OW15097   2.449   0.732  11.846
 4737SOL    HW115098   2.488   0.818  11.832
 4737SOL    HW215099   2.384   0.724  11.776
 4738SOL     OW15100   3.612   0.381  12.814
 4738SOL    HW115101   3.593   0.391  12.721
 4738SOL    HW215102   3.550   0.315  12.844
 4739SOL     OW15103   3.616   0.930  12.683
 4739SOL    HW115104   3.604   1.023  12.701
 4739SOL    HW215105   3.588   0.920  12.592
 4740SOL     OW15106   2.725   1.364  11.218
 4740SOL    HW115107   2.689   1.390  11.303
 4740SOL    HW215108   2.741   1.447  11.173
 4741SOL     OW15109   2.525   1.792  12.106
 4741SOL    HW115110   2.518   1.887  12.103
 4741SOL    HW215111   2.619   1.774  12.104
 4742SOL     OW15112   2.733   0.972  12.025
 4742SOL    HW115113   2.783   0.900  12.063
 4742SOL    HW215114   2.692   1.015  12.101
 4743SOL     OW15115   2.939   0.991  11.262
 4743SOL    HW115116   2.916   1.042  11.184
 4743SOL    HW215117   3.012   0.936  11.234
 4744SOL     OW15118   3.707   1.557  12.012
 4744SOL    HW115119   3.628   1.542  11.961
 4744SOL    HW215120   3.708   1.487  12.077
 4745SOL     OW15121   2.076   1.296  13.014
 4745SOL    HW115122   2.034   1.220  12.975
 4745SOL    HW215123   2.029   1.311  13.096
 4746SOL     OW15124   1.950   1.203  11.833
 4746SOL    HW115125   1.979   1.168  11.917
 4746SOL    HW215126   2.023   1.186  11.774
 4747SOL     OW15127   2.545   1.410  12.802
 4747SOL    HW115128   2.468   1.368  12.842
 4747SOL    HW215129   2.545   1.499  12.838
 4748SOL     OW15130   3.674   0.181  12.416
 4748SOL    HW115131   3.675   0.086  12.426
 4748SOL    HW215132   3.694   0.195  12.323
 4749SOL     OW15133   2.289   0.434  11.698
 4749SOL    HW115134   2.325   0.363  11.644
 4749SOL    HW215135   2.241   0.390  11.767
 4750SOL     OW15136   3.553   1.491  12.266
 4750SOL    HW115137   3.477   1.470  12.212
 4750SOL    HW215138   3.559   1.418  12.329
 4751SOL     OW15139   2.200   0.559  12.469
 4751SOL    HW115140   2.250   0.497  12.523
 4751SOL    HW215141   2.218   0.532  12.379
 4752SOL     OW15142   2.696   1.577  11.847
 4752SOL    HW115143   2.673   1.641  11.779
 4752SOL    HW215144   2.621   1.517  11.849
 4753SOL     OW15145   3.321   0.255  12.281
 4753SOL    HW115146   3.335   0.168  12.316
 4753SOL    HW215147   3.266   0.298  12.347
 4754SOL     OW15148   2.861   0.022  12.316
 4754SOL    HW115149   2.777   0.012  12.272
 4754SOL    HW215150   2.896   3.933  12.323
 4755SOL     OW15151   2.637   1.334  11.493
 4755SOL    HW115152   2.610   1.243  11.503
 4755SOL    HW215153   2.717   1.341  11.544
 4756SOL     OW15154   2.487   1.554  12.457
 4756SOL    HW115155   2.485   1.635  12.508
 4756SOL    HW215156   2.576   1.550  12.422
 4757SOL     OW15157   3.163   0.067  11.330
 4757SOL    HW115158   3.167   3.974  11.306
 4757SOL    HW215159   3.087   0.074  11.387
 4758SOL     OW15160   3.137   0.456  11.854
 4758SOL    HW115161   3.092   0.540  11.848
 4758SOL    HW215162   3.142   0.438  11.948
 4759SOL     OW15163   3.454   0.209  12.040
 4759SOL    HW115164   3.405   0.234  12.118
 4759SOL    HW215165   3.452   0.287  11.985
 4760SOL     OW15166   1.902   1.066  11.480
 4760SOL    HW115167   1.996   1.059  11.462
 4760SOL    HW215168   1.876   0.977  11.506
 4761SOL     OW15169   2.755   1.659  11.505
 4761SOL    HW115170   2.679   1.646  11.450
 4761SOL    HW215171   2.731   1.732  11.563
 4762SOL     OW15172   2.081   0.617  13.157
 4762SOL    HW115173   1.990   0.624  13.188
 4762SOL    HW215174   2.072   0.599  13.063
 4763SOL     OW15175   2.119   0.273   0.129
 4763SOL    HW115176   2.176   0.339   0.169
 4763SOL    HW215177   2.031   0.309   0.136
 4764SOL     OW15178   1.870   0.387  13.643
 4764SOL    HW115179   1.776   0.399  13.649
 4764SOL    HW215180   1.881   0.297  13.611
 4765SOL     OW15181   3.377   1.493  13.735
 4765SOL    HW115182   3.327   1.417  13.764
 4765SOL    HW215183   3.334   1.522  13.655
 4766SOL     OW15184   2.998   0.696  13.723
 4766SOL    HW115185   3.048   0.776  13.708
 4766SOL    HW215186   2.935   0.719  13.792
 4767SOL     OW15187   3.649   0.620  13.253
 4767SOL    HW115188   3.618   0.610  13.163
 4767SOL    HW215189   3.608   0.548  13.300
 4768SOL     OW15190   2.544   1.013  13.671
 4768SOL    HW115191   2.596   0.997  13.750
 4768SOL    HW215192   2.468   1.062  13.703
 4769SOL     OW15193   3.462   0.452  13.749
 4769SOL    HW115194   3.370   0.459  13.724
 4769SOL    HW215195   3.487   0.541  13.774
 4770SOL     OW15196   2.110   1.697  13.526
 4770SOL    HW115197   2.056   1.773  13.506
 4770SOL    HW215198   2.182   1.701  13.462
 4771SOL     OW15199   2.104   1.429  13.574
 4771SOL    HW115200   2.103   1.525  13.575
 4771SOL    HW215201   2.044   1.404  13.645
 4772SOL     OW15202   2.098   1.116   0.032
 4772SOL    HW115203   2.118   1.051   0.100
 4772SOL    HW215204   2.035   1.175   0.072
 4773SOL     OW15205   2.438   0.986  13.173
 4773SOL    HW115206   2.487   1.029  13.104
 4773SOL    HW215207   2.477   1.018  13.254
 4774SOL     OW15208   1.985   0.661  13.590
 4774SOL    HW115209   1.958   0.570  13.603
 4774SOL    HW215210   1.969   0.704  13.674
 4775SOL     OW15211   3.704   1.760  13.367
 4775SOL    HW115212   3.776   1.734  13.424
 4775SOL    HW215213   3.722   1.852  13.347
 4776SOL     OW15214   3.549   0.921  13.669
 4776SOL    HW115215   3.633   0.883  13.643
 4776SOL    HW215216   3.525   0.979  13.597
 4777SOL     OW15217   3.504   1.104  13.463
 4777SOL    HW115218   3.588   1.106  13.418
 4777SOL    HW215219   3.512   1.171  13.531
 4778SOL     OW15220   2.466   1.380  13.754
 4778SOL    HW115221   2.419   1.296  13.760
 4778SOL    HW215222   2.441   1.414  13.668
 4779SOL     OW15223   2.687   0.010  13.549
 4779SOL    HW115224   2.729   0.091  13.521
 4779SOL    HW215225   2.593   0.029  13.544
 4780SOL     OW15226   3.386   1.000  13.236
 4780SOL    HW115227   3.318   0.942  13.270
 4780SOL    HW215228   3.428   1.037  13.314
 4781SOL     OW15229   3.511   1.754  13.612
 4781SOL    HW115230   3.489   1.719  13.526
 4781SOL    HW215231   3.511   1.678  13.670
 4782SOL     OW15232   2.452   0.717  13.301
 4782SOL    HW115233   2.454   0.802  13.257
 4782SOL    HW215234   2.387   0.727  13.370
 4783SOL     OW15235   3.088   0.343   0.042
 4783SOL    HW115236   3.009   0.332   0.094
 4783SOL    HW215237   3.157   0.303   0.094
 4784SOL     OW15238   3.439   1.680  13.344
 4784SOL    HW115239   3.531   1.706  13.338
 4784SOL    HW215240   3.412   1.662  13.254
 4785SOL     OW15241   2.914   0.698  13.455
 4785SOL    HW115242   2.933   0.685  13.548
 4785SOL    HW215243   2.831   0.653  13.441
 4786SOL     OW15244   1.939   0.816  13.815
 4786SOL    HW115245   2.016   0.816  13.872
 4786SOL    HW215246   1.887   0.890  13.845
 4787SOL     OW15247   2.756   0.352  13.234
 4787SOL    HW115248   2.799   0.412  13.172
 4787SOL    HW215249   2.743   0.271  13.183
 4788SOL     OW15250   3.221   1.131  13.542
 4788SOL    HW115251   3.312   1.134  13.513
 4788SOL    HW215252   3.179   1.205  13.498
 4789SOL     OW15253   2.854   1.437  13.500
 4789SOL    HW115254   2.831   1.515  13.449
 4789SOL    HW215255   2.819   1.453  13.587
 4790SOL     OW15256   2.271   1.852  13.804
 4790SOL    HW115257   2.254   1.764  13.838
 4790SOL    HW215258   2.238   1.910  13.872
 4791SOL     OW15259   3.657   1.043   0.004
 4791SOL    HW115260   3.604   1.036  13.824
 4791SOL    HW215261   3.593   1.046   0.075
 4792SOL     OW15262   2.175   0.963  13.291
 4792SOL    HW115263   2.257   0.983  13.245
 4792SOL    HW215264   2.147   0.879  13.254
 4793SOL     OW15265   3.366   0.731  13.755
 4793SOL    HW115266   3.351   0.701  13.844
 4793SOL    HW215267   3.430   0.802  13.764
 4794SOL     OW15268   2.991   1.778  13.261
 4794SOL    HW115269   2.914   1.740  13.304
 4794SOL    HW215270   3.014   1.714  13.193
 4795SOL     OW15271   3.485   1.387  13.121
 4795SOL    HW115272   3.441   1.471  13.107
 4795SOL    HW215273   3.418   1.322  13.100
 4796SOL     OW15274   2.330   1.715  13.359
 4796SOL    HW115275   2.377   1.778  13.414
 4796SOL    HW215276   2.391   1.695  13.289
 4797SOL     OW15277   3.285   0.181  13.434
 4797SOL    HW115278   3.242   0.120  13.375
 4797SOL    HW215279   3.370   0.141  13.452
 4798SOL     OW15280   2.793   1.679   0.002
 4798SOL    HW115281   2.794   1.616   0.074
 4798SOL    HW215282   2.749   1.633  13.830
 4799SOL     OW15283   2.258   0.698  13.501
 4799SOL    HW115284   2.274   0.605  13.515
 4799SOL    HW215285   2.164   0.708  13.519
 4800SOL     OW15286   2.508   0.123  13.144
 4800SOL    HW115287   2.524   0.037  13.182
 4800SOL    HW215288   2.446   0.108  13.074
 4801SOL     OW15289   2.413   0.053  13.525
 4801SOL    HW115290   2.337   0.056  13.584
 4801SOL    HW215291   2.405   0.133  13.473
 4802SOL     OW15292   3.288   1.202  13.071
 4802SOL    HW115293   3.317   1.127  13.124
 4802SOL    HW215294   3.203   1.225  13.107
 4803SOL     OW15295   2.198   0.049  13.246
 4803SOL    HW115296   2.201   0.111  13.173
 4803SOL    HW215297   2.275   0.070  13.298
 4804SOL     OW15298   2.806   0.255  13.490
 4804SOL    HW115299   2.781   0.291  13.405
 4804SOL    HW215300   2.901   0.266  13.493
 4805SOL     OW15301   2.320   1.144  13.764
 4805SOL    HW115302   2.250   1.133  13.829
 4805SOL    HW215303   2.277   1.134  13.680
 4806SOL     OW15304   3.127   1.795  13.632
 4806SOL    HW115305   3.171   1.865  13.584
 4806SOL    HW215306   3.057   1.839  13.680
 4807SOL     OW15307   2.883   0.535  13.066
 4807SOL    HW115308   2.839   0.618  13.046
 4807SOL    HW215309   2.946   0.557  13.134
 4808SOL     OW15310   2.770   0.473  13.674
 4808SOL    HW115311   2.701   0.521  13.629
 4808SOL    HW215312   2.778   0.392  13.625
 4809SOL     OW15313   2.864   0.035  13.790
 4809SOL    HW115314   2.828   0.061  13.705
 4809SOL    HW215315   2.889   3.944  13.778
 4810SOL     OW15316   3.729   0.821  13.415
 4810SOL    HW115317   3.775   0.764  13.475
 4810SOL    HW215318   3.696   0.762  13.346
 4811SOL     OW15319   2.355   1.424  13.179
 4811SOL    HW115320   2.280   1.395  13.232
 4811SOL    HW215321   2.354   1.365  13.103
 4812SOL     OW15322   3.544   1.275  13.660
 4812SOL    HW115323   3.639   1.274  13.676
 4812SOL    HW215324   3.514   1.357  13.699
 4813SOL     OW15325   3.255   0.580  13.101
 4813SOL    HW115326   3.193   0.558  13.171
 4813SOL    HW215327   3.341   0.563  13.139
 4814SOL     OW15328   2.389   0.265  13.348
 4814SOL    HW115329   2.448   0.226  13.282
 4814SOL    HW215330   2.358   0.345  13.307
 4815SOL     OW15331   2.573   1.067  13.400
 4815SOL    HW115332   2.557   1.050  13.493
 4815SOL    HW215333   2.648   1.013  13.378
 4816SOL     OW15334   2.197   1.119  13.523
 4816SOL    HW115335   2.201   1.198  13.468
 4816SOL    HW215336   2.194   1.046  13.461
 4817SOL     OW15337   2.430   0.541  13.862
 4817SOL    HW115338   2.438   0.607  13.794
 4817SOL    HW215339   2.492   0.567   0.030
 4818SOL     OW15340   3.104   1.355  13.418
 4818SOL    HW115341   3.158   1.429  13.447
 4818SOL    HW215342   3.017   1.375  13.454
 4819SOL     OW15343   3.442   0.643  13.506
 4819SOL    HW115344   3.405   0.676  13.588
 4819SOL    HW215345   3.472   0.721  13.460
 4820SOL     OW15346   3.059   0.535  13.288
 4820SOL    HW115347   3.063   0.456  13.343
 4820SOL    HW215348   3.017   0.600  13.344
 4821SOL     OW15349   2.196   0.051  13.684
 4821SOL    HW115350   2.179   0.143  13.702
 4821SOL    HW215351   2.113   0.007  13.706
 4822SOL     OW15352   3.467   0.399  13.403
 4822SOL    HW115353   3.420   0.335  13.457
 4822SOL    HW215354   3.452   0.483  13.448
 4823SOL     OW15355   3.352   0.275  13.160
 4823SOL    HW115356   3.286   0.208  13.175
 4823SOL    HW215357   3.366   0.314  13.247
 4824SOL     OW15358   3.145   0.827  13.059
 4824SOL    HW115359   3.187   0.741  13.063
 4824SOL    HW215360   3.178   0.866  12.978
 4825SOL     OW15361   1.883   1.316  13.218
 4825SOL    HW115362   1.797   1.344  13.187
 4825SOL    HW215363   1.868   1.230  13.257
 4826SOL     OW15364   2.680   0.577  13.393
 4826SOL    HW115365   2.683   0.498  13.338
 4826SOL    HW215366   2.602   0.624  13.362
 4827SOL     OW15367   2.319   0.490  13.208
 4827SOL    HW115368   2.378   0.561  13.233
 4827SOL    HW215369   2.234   0.532  13.199
 4828SOL     OW15370   3.181   0.846  13.335
 4828SOL    HW115371   3.104   0.826  13.387
 4828SOL    HW215372   3.152   0.838  13.244
 4829SOL     OW15373   3.534   0.093  13.455
 4829SOL    HW115374   3.624   0.119  13.436
 4829SOL    HW215375   3.543   0.020  13.517
 4830SOL     OW15376   3.243   1.576  13.511
 4830SOL    HW115377   3.302   1.614  13.446
 4830SOL    HW215378   3.196   1.651  13.547
 4831SOL     OW15379   3.158   0.910  13.684
 4831SOL    HW115380   3.236   0.856  13.670
 4831SOL    HW215381   3.177   0.992  13.638
 4832SOL     OW15382   2.533   1.628  13.184
 4832SOL    HW115383   2.547   1.643  13.091
 4832SOL    HW215384   2.479   1.550  13.189
 4833SOL     OW15385   3.663   0.174   0.064
 4833SOL    HW115386   3.697   0.085   0.066
 4833SOL    HW215387   3.582   0.168   0.013
 4834SOL     OW15388   2.141   0.308  13.747
 4834SOL    HW115389   2.050   0.329  13.724
 4834SOL    HW215390   2.140   0.301  13.842
 4835SOL     OW15391   3.070   1.599  13.066
 4835SOL    HW115392   3.058   1.508  13.092
 4835SOL    HW215393   3.003   1.614  13.000
 4836SOL     OW15394   2.783   0.916  13.334
 4836SOL    HW115395   2.840   0.946  13.263
 4836SOL    HW215396   2.830   0.842  13.373
 4837SOL     OW15397   3.348   1.635  13.080
 4837SOL    HW115398   3.254   1.622  13.064
 4837SOL    HW215399   3.386   1.639  12.992
 4838SOL     OW15400   2.912   1.088  13.756
 4838SOL    HW115401   2.827   1.061  13.722
 4838SOL    HW215402   2.973   1.068  13.685
 4839SOL     OW15403   2.459   1.492  13.502
 4839SOL    HW115404   2.507   1.441  13.436
 4839SOL    HW215405   2.394   1.541  13.452
 4840SOL     OW15406   2.135   1.342  13.326
 4840SOL    HW115407   2.044   1.339  13.295
 4840SOL    HW215408   2.129   1.379  13.414
 4841SOL     OW15409   1.967   0.317  13.026
 4841SOL    HW115410   1.900   0.335  13.091
 4841SOL    HW215411   1.974   0.397  12.974
 4842SOL     OW15412   1.950   0.144  13.359
 4842SOL    HW115413   1.919   0.205  13.292
 4842SOL    HW215414   2.038   0.120  13.330
 4843SOL     OW15415   3.039   1.331  13.149
 4843SOL    HW115416   2.948   1.303  13.151
 4843SOL    HW215417   3.064   1.336  13.241
 4844SOL     OW15418   3.073   0.339  13.484
 4844SOL    HW115419   3.144   0.276  13.469
 4844SOL    HW215420   3.100   0.388  13.562
 4845SOL     OW15421   2.456   0.748  13.687
 4845SOL    HW115422   2.489   0.837  13.671
 4845SOL    HW215423   2.387   0.736  13.623
 4846SOL     OW15424   2.727   1.364  13.079
 4846SOL    HW115425   2.689   1.389  13.163
 4846SOL    HW215426   2.742   1.447  13.034
 4847SOL     OW15427   2.531   1.838   0.088
 4847SOL    HW115428   2.498   1.923   0.061
 4847SOL    HW215429   2.627   1.847   0.086
 4848SOL     OW15430   2.677   0.971   0.005
 4848SOL    HW115431   2.690   0.887   0.048
 4848SOL    HW215432   2.737   1.031   0.050
 4849SOL     OW15433   2.936   0.987  13.124
 4849SOL    HW115434   2.915   1.041  13.047
 4849SOL    HW215435   3.010   0.933  13.096
 4850SOL     OW15436   1.954   1.220  13.704
 4850SOL    HW115437   1.972   1.167  13.782
 4850SOL    HW215438   2.020   1.193  13.640
 4851SOL     OW15439   2.290   0.438  13.551
 4851SOL    HW115440   2.329   0.367  13.499
 4851SOL    HW215441   2.252   0.394  13.627
 4852SOL     OW15442   3.548   1.444   0.365
 4852SOL    HW115443   3.512   1.427   0.278
 4852SOL    HW215444   3.642   1.426   0.355
 4853SOL     OW15445   2.678   1.542  13.701
 4853SOL    HW115446   2.642   1.594  13.630
 4853SOL    HW215447   2.606   1.483  13.727
 4854SOL     OW15448   2.635   1.336  13.349
 4854SOL    HW115449   2.609   1.245  13.359
 4854SOL    HW215450   2.714   1.345  13.402
 4855SOL     OW15451   3.167   0.068  13.207
 4855SOL    HW115452   3.180   3.978  13.176
 4855SOL    HW215453   3.075   0.070  13.234
 4856SOL     OW15454   3.160   0.464  13.713
 4856SOL    HW115455   3.111   0.545  13.709
 4856SOL    HW215456   3.140   0.428  13.800
 4857SOL     OW15457   1.904   1.066  13.341
 4857SOL    HW115458   1.997   1.060  13.322
 4857SOL    HW215459   1.878   0.977  13.364
 4858SOL     OW15460   2.756   1.657  13.368
 4858SOL    HW115461   2.679   1.648  13.312
 4858SOL    HW215462   2.734   1.730  13.427
 4859SOL     OW15463   2.094   2.532   0.125
 4859SOL    HW115464   2.009   2.495   0.151
 4859SOL    HW215465   2.123   2.478   0.052
 4860SOL     OW15466   1.872   2.278   0.641
 4860SOL    HW115467   1.780   2.266   0.665
 4860SOL    HW215468   1.892   2.202   0.586
 4861SOL     OW15469   2.430   3.161   1.184
 4861SOL    HW115470   2.345   3.169   1.141
 4861SOL    HW215471   2.448   3.248   1.218
 4862SOL     OW15472   3.433   3.375   0.710
 4862SOL    HW115473   3.387   3.349   0.790
 4862SOL    HW215474   3.364   3.378   0.643
 4863SOL     OW15475   2.995   2.562   0.697
 4863SOL    HW115476   3.043   2.643   0.685
 4863SOL    HW215477   2.947   2.574   0.779
 4864SOL     OW15478   3.633   2.451   0.224
 4864SOL    HW115479   3.665   2.401   0.149
 4864SOL    HW215480   3.584   2.387   0.277
 4865SOL     OW15481   2.602   2.996   1.048
 4865SOL    HW115482   2.537   3.035   1.106
 4865SOL    HW215483   2.644   3.071   1.005
 4866SOL     OW15484   2.737   2.619   1.824
 4866SOL    HW115485   2.729   2.688   1.891
 4866SOL    HW215486   2.759   2.666   1.744
 4867SOL     OW15487   2.545   2.853   0.646
 4867SOL    HW115488   2.612   2.848   0.714
 4867SOL    HW215489   2.479   2.912   0.682
 4868SOL     OW15490   2.577   3.013   1.820
 4868SOL    HW115491   2.625   3.089   1.852
 4868SOL    HW215492   2.498   3.049   1.780
 4869SOL     OW15493   2.195   3.276   1.066
 4869SOL    HW115494   2.119   3.238   1.022
 4869SOL    HW215495   2.237   3.330   0.999
 4870SOL     OW15496   3.320   3.365   1.363
 4870SOL    HW115497   3.374   3.443   1.373
 4870SOL    HW215498   3.251   3.376   1.429
 4871SOL     OW15499   3.465   2.301   0.747
 4871SOL    HW115500   3.395   2.321   0.685
 4871SOL    HW215501   3.467   2.377   0.806
 4872SOL     OW15502   2.083   3.573   0.483
 4872SOL    HW115503   2.101   3.643   0.546
 4872SOL    HW215504   2.153   3.579   0.418
 4873SOL     OW15505   3.000   3.204   1.695
 4873SOL    HW115506   3.042   3.196   1.781
 4873SOL    HW215507   2.947   3.125   1.686
 4874SOL     OW15508   2.076   3.303   0.525
 4874SOL    HW115509   2.072   3.399   0.529
 4874SOL    HW215510   2.026   3.274   0.602
 4875SOL     OW15511   2.130   2.960   0.887
 4875SOL    HW115512   2.126   2.872   0.924
 4875SOL    HW215513   2.073   3.012   0.943
 4876SOL     OW15514   2.461   3.645   1.428
 4876SOL    HW115515   2.380   3.633   1.478
 4876SOL    HW215516   2.490   3.734   1.451
 4877SOL     OW15517   2.423   2.850   0.166
 4877SOL    HW115518   2.467   2.878   0.086
 4877SOL    HW215519   2.474   2.890   0.237
 4878SOL     OW15520   3.455   1.991   1.463
 4878SOL    HW115521   3.482   2.071   1.417
 4878SOL    HW215522   3.434   2.020   1.552
 4879SOL     OW15523   1.988   2.519   0.565
 4879SOL    HW115524   1.954   2.432   0.588
 4879SOL    HW215525   1.975   2.571   0.645
 4880SOL     OW15526   3.697   3.611   0.340
 4880SOL    HW115527   3.768   3.578   0.396
 4880SOL    HW215528   3.717   3.704   0.329
 4881SOL     OW15529   1.880   3.459   0.096
 4881SOL    HW115530   1.896   3.369   0.126
 4881SOL    HW215531   1.868   3.509   0.176
 4882SOL     OW15532   3.551   2.783   0.656
 4882SOL    HW115533   3.634   2.738   0.639
 4882SOL    HW215534   3.533   2.831   0.576
 4883SOL     OW15535   3.507   2.962   0.436
 4883SOL    HW115536   3.593   2.967   0.394
 4883SOL    HW215537   3.511   3.028   0.505
 4884SOL     OW15538   1.974   2.634   1.560
 4884SOL    HW115539   2.060   2.673   1.570
 4884SOL    HW215540   1.914   2.709   1.558
 4885SOL     OW15541   2.480   3.256   0.735
 4885SOL    HW115542   2.436   3.171   0.743
 4885SOL    HW215543   2.465   3.283   0.644
 4886SOL     OW15544   3.145   3.096   1.420
 4886SOL    HW115545   3.176   3.028   1.360
 4886SOL    HW215546   3.206   3.091   1.494
 4887SOL     OW15547   2.690   1.865   0.514
 4887SOL    HW115548   2.729   1.949   0.490
 4887SOL    HW215549   2.596   1.883   0.519
 4888SOL     OW15550   2.048   2.825   1.286
 4888SOL    HW115551   2.135   2.790   1.267
 4888SOL    HW215552   1.991   2.783   1.222
 4889SOL     OW15553   3.388   2.867   0.207
 4889SOL    HW115554   3.320   2.808   0.241
 4889SOL    HW215555   3.431   2.901   0.286
 4890SOL     OW15556   3.093   3.671   1.630
 4890SOL    HW115557   3.062   3.732   1.564
 4890SOL    HW215558   3.090   3.585   1.588
 4891SOL     OW15559   3.325   3.282   0.944
 4891SOL    HW115560   3.261   3.296   1.013
 4891SOL    HW215561   3.315   3.190   0.920
 4892SOL     OW15562   3.511   3.611   0.591
 4892SOL    HW115563   3.504   3.581   0.500
 4892SOL    HW215564   3.495   3.532   0.643
 4893SOL     OW15565   2.489   2.606   0.284
 4893SOL    HW115566   2.479   2.679   0.222
 4893SOL    HW215567   2.427   2.625   0.354
 4894SOL     OW15568   3.139   2.233   0.935
 4894SOL    HW115569   3.051   2.196   0.943
 4894SOL    HW215570   3.193   2.178   0.992
 4895SOL     OW15571   3.422   3.590   0.317
 4895SOL    HW115572   3.518   3.594   0.315
 4895SOL    HW215573   3.397   3.565   0.228
 4896SOL     OW15574   2.654   2.476   1.446
 4896SOL    HW115575   2.630   2.453   1.535
 4896SOL    HW215576   2.609   2.413   1.391
 4897SOL     OW15577   3.256   2.336   1.678
 4897SOL    HW115578   3.260   2.380   1.763
 4897SOL    HW215579   3.310   2.258   1.689
 4898SOL     OW15580   2.810   2.746   1.587
 4898SOL    HW115581   2.867   2.680   1.548
 4898SOL    HW215582   2.764   2.785   1.513
 4899SOL     OW15583   2.862   2.276   1.232
 4899SOL    HW115584   2.777   2.293   1.272
 4899SOL    HW215585   2.842   2.231   1.150
 4900SOL     OW15586   2.920   2.565   0.429
 4900SOL    HW115587   2.940   2.558   0.522
 4900SOL    HW215588   2.837   2.519   0.418
 4901SOL     OW15589   1.951   2.684   0.780
 4901SOL    HW115590   2.033   2.686   0.829
 4901SOL    HW215591   1.901   2.759   0.813
 4902SOL     OW15592   1.974   3.724   1.580
 4902SOL    HW115593   1.984   3.702   1.673
 4902SOL    HW215594   1.884   3.699   1.559
 4903SOL     OW15595   2.733   2.223   0.219
 4903SOL    HW115596   2.771   2.285   0.157
 4903SOL    HW215597   2.745   2.137   0.178
 4904SOL     OW15598   3.566   2.431   1.831
 4904SOL    HW115599   3.531   2.505   1.782
 4904SOL    HW215600   3.592   2.367   1.765
 4905SOL     OW15601   3.240   3.003   0.542
 4905SOL    HW115602   3.320   2.992   0.490
 4905SOL    HW215603   3.189   3.068   0.494
 4906SOL     OW15604   2.445   2.064   0.915
 4906SOL    HW115605   2.352   2.070   0.937
 4906SOL    HW215606   2.465   2.148   0.873
 4907SOL     OW15607   2.859   3.304   0.473
 4907SOL    HW115608   2.833   3.381   0.422
 4907SOL    HW215609   2.834   3.325   0.563
 4908SOL     OW15610   2.214   3.679   0.836
 4908SOL    HW115611   2.264   3.600   0.855
 4908SOL    HW215612   2.271   3.751   0.862
 4909SOL     OW15613   3.670   2.921   0.874
 4909SOL    HW115614   3.618   2.893   0.799
 4909SOL    HW215615   3.607   2.925   0.946
 4910SOL     OW15616   3.087   3.402   1.513
 4910SOL    HW115617   3.076   3.329   1.574
 4910SOL    HW215618   3.016   3.391   1.450
 4911SOL     OW15619   2.164   2.800   0.235
 4911SOL    HW115620   2.256   2.811   0.211
 4911SOL    HW215621   2.147   2.707   0.221
 4912SOL     OW15622   3.343   2.614   0.722
 4912SOL    HW115623   3.341   2.574   0.808
 4912SOL    HW215624   3.420   2.670   0.723
 4913SOL     OW15625   2.334   3.131   1.737
 4913SOL    HW115626   2.308   3.136   1.645
 4913SOL    HW215627   2.251   3.127   1.785
 4914SOL     OW15628   2.992   3.641   0.227
 4914SOL    HW115629   2.926   3.597   0.281
 4914SOL    HW215630   3.019   3.574   0.163
 4915SOL     OW15631   3.492   3.246   0.094
 4915SOL    HW115632   3.458   3.327   0.055
 4915SOL    HW215633   3.426   3.181   0.074
 4916SOL     OW15634   2.329   3.601   0.331
 4916SOL    HW115635   2.367   3.661   0.395
 4916SOL    HW215636   2.405   3.565   0.283
 4917SOL     OW15637   3.265   1.971   0.447
 4917SOL    HW115638   3.265   1.937   0.357
 4917SOL    HW215639   3.358   1.974   0.470
 4918SOL     OW15640   2.123   3.651   1.214
 4918SOL    HW115641   2.168   3.577   1.253
 4918SOL    HW215642   2.101   3.622   1.125
 4919SOL     OW15643   2.804   3.567   0.896
 4919SOL    HW115644   2.883   3.518   0.918
 4919SOL    HW215645   2.762   3.516   0.828
 4920SOL     OW15646   2.253   2.561   0.481
 4920SOL    HW115647   2.269   2.485   0.424
 4920SOL    HW215648   2.161   2.551   0.508
 4921SOL     OW15649   3.387   2.086   1.723
 4921SOL    HW115650   3.398   2.106   1.816
 4921SOL    HW215651   3.321   2.017   1.721
 4922SOL     OW15652   2.628   2.147   1.750
 4922SOL    HW115653   2.709   2.097   1.742
 4922SOL    HW215654   2.582   2.107   1.824
 4923SOL     OW15655   2.737   3.383   1.196
 4923SOL    HW115656   2.719   3.346   1.110
 4923SOL    HW215657   2.807   3.328   1.232
 4924SOL     OW15658   3.201   2.453   1.435
 4924SOL    HW115659   3.232   2.422   1.520
 4924SOL    HW215660   3.238   2.540   1.426
 4925SOL     OW15661   2.681   3.247   0.949
 4925SOL    HW115662   2.767   3.238   0.907
 4925SOL    HW215663   2.619   3.257   0.877
 4926SOL     OW15664   2.790   2.368   0.900
 4926SOL    HW115665   2.765   2.360   0.808
 4926SOL    HW215666   2.823   2.282   0.923
 4927SOL     OW15667   2.421   1.921   0.522
 4927SOL    HW115668   2.367   1.891   0.596
 4927SOL    HW215669   2.398   2.013   0.512
 4928SOL     OW15670   3.292   3.076   0.044
 4928SOL    HW115671   3.309   2.996   0.092
 4928SOL    HW215672   3.201   3.098   0.066
 4929SOL     OW15673   2.808   2.111   0.461
 4929SOL    HW115674   2.777   2.151   0.380
 4929SOL    HW215675   2.902   2.128   0.462
 4930SOL     OW15676   2.945   2.549   1.456
 4930SOL    HW115677   2.882   2.477   1.464
 4930SOL    HW215678   3.030   2.506   1.452
 4931SOL     OW15679   3.076   3.437   0.796
 4931SOL    HW115680   3.092   3.501   0.727
 4931SOL    HW215681   3.151   3.447   0.856
 4932SOL     OW15682   2.336   3.018   0.721
 4932SOL    HW115683   2.270   3.000   0.787
 4932SOL    HW215684   2.291   3.007   0.637
 4933SOL     OW15685   3.123   3.653   0.612
 4933SOL    HW115686   3.173   3.718   0.562
 4933SOL    HW215687   3.048   3.701   0.645
 4934SOL     OW15688   2.856   2.395   0.047
 4934SOL    HW115689   2.848   2.376  13.854
 4934SOL    HW215690   2.949   2.385   0.066
 4935SOL     OW15691   1.946   2.431   1.379
 4935SOL    HW115692   2.041   2.420   1.367
 4935SOL    HW215693   1.938   2.502   1.442
 4936SOL     OW15694   2.725   2.317   0.640
 4936SOL    HW115695   2.694   2.375   0.571
 4936SOL    HW215696   2.752   2.237   0.594
 4937SOL     OW15697   2.878   1.917   0.746
 4937SOL    HW115698   2.820   1.909   0.670
 4937SOL    HW215699   2.854   1.842   0.802
 4938SOL     OW15700   3.304   3.021   0.858
 4938SOL    HW115701   3.232   2.958   0.855
 4938SOL    HW215702   3.332   3.030   0.767
 4939SOL     OW15703   3.327   2.474   0.964
 4939SOL    HW115704   3.269   2.397   0.968
 4939SOL    HW215705   3.383   2.465   1.041
 4940SOL     OW15706   3.729   2.670   0.361
 4940SOL    HW115707   3.764   2.618   0.433
 4940SOL    HW215708   3.684   2.607   0.305
 4941SOL     OW15709   2.354   3.272   0.156
 4941SOL    HW115710   2.281   3.234   0.205
 4941SOL    HW215711   2.343   3.238   0.067
 4942SOL     OW15712   3.530   3.125   0.646
 4942SOL    HW115713   3.626   3.126   0.655
 4942SOL    HW215714   3.504   3.216   0.656
 4943SOL     OW15715   3.282   2.449   0.085
 4943SOL    HW115716   3.218   2.438   0.154
 4943SOL    HW215717   3.320   2.361   0.073
 4944SOL     OW15718   3.610   3.093   1.555
 4944SOL    HW115719   3.698   3.059   1.538
 4944SOL    HW215720   3.624   3.183   1.584
 4945SOL     OW15721   2.915   3.212   1.329
 4945SOL    HW115722   2.839   3.182   1.380
 4945SOL    HW215723   2.990   3.172   1.372
 4946SOL     OW15724   3.469   3.493   1.660
 4946SOL    HW115725   3.459   3.528   1.572
 4946SOL    HW215726   3.548   3.438   1.655
 4947SOL     OW15727   2.998   3.074   1.100
 4947SOL    HW115728   2.939   3.113   1.165
 4947SOL    HW215729   2.970   3.111   1.017
 4948SOL     OW15730   3.484   2.954   1.074
 4948SOL    HW115731   3.473   3.017   1.145
 4948SOL    HW215732   3.412   2.972   1.014
 4949SOL     OW15733   2.792   1.949   1.390
 4949SOL    HW115734   2.813   1.931   1.298
 4949SOL    HW215735   2.871   1.989   1.426
 4950SOL     OW15736   2.846   2.978   1.722
 4950SOL    HW115737   2.755   2.994   1.748
 4950SOL    HW215738   2.841   2.898   1.669
 4951SOL     OW15739   2.581   2.923   0.379
 4951SOL    HW115740   2.565   2.900   0.470
 4951SOL    HW215741   2.655   2.868   0.353
 4952SOL     OW15742   2.287   2.692   1.256
 4952SOL    HW115743   2.356   2.704   1.321
 4952SOL    HW215744   2.251   2.606   1.274
 4953SOL     OW15745   3.129   2.237   1.283
 4953SOL    HW115746   3.161   2.315   1.329
 4953SOL    HW215747   3.039   2.258   1.259
 4954SOL     OW15748   1.938   3.436   1.357
 4954SOL    HW115749   1.910   3.509   1.302
 4954SOL    HW215750   2.033   3.436   1.349
 4955SOL     OW15751   2.197   2.979   0.485
 4955SOL    HW115752   2.193   3.048   0.420
 4955SOL    HW215753   2.204   2.898   0.434
 4956SOL     OW15754   2.431   2.378   0.843
 4956SOL    HW115755   2.438   2.442   0.772
 4956SOL    HW215756   2.496   2.406   0.907
 4957SOL     OW15757   3.109   3.210   0.402
 4957SOL    HW115758   3.164   3.283   0.430
 4957SOL    HW215759   3.021   3.233   0.433
 4958SOL     OW15760   3.154   3.324   1.150
 4958SOL    HW115761   3.210   3.330   1.228
 4958SOL    HW215762   3.099   3.247   1.167
 4959SOL     OW15763   3.433   2.482   0.490
 4959SOL    HW115764   3.386   2.527   0.560
 4959SOL    HW215765   3.451   2.551   0.426
 4960SOL     OW15766   2.207   3.394   1.306
 4960SOL    HW115767   2.197   3.346   1.224
 4960SOL    HW215768   2.302   3.405   1.316
 4961SOL     OW15769   2.293   2.607   1.613
 4961SOL    HW115770   2.351   2.649   1.550
 4961SOL    HW215771   2.345   2.534   1.648
 4962SOL     OW15772   3.472   2.642   1.688
 4962SOL    HW115773   3.386   2.685   1.683
 4962SOL    HW215774   3.524   2.685   1.621
 4963SOL     OW15775   2.857   1.998   1.741
 4963SOL    HW115776   2.918   2.070   1.729
 4963SOL    HW215777   2.908   1.919   1.722
 4964SOL     OW15778   2.353   1.881   1.789
 4964SOL    HW115779   2.304   1.837   1.719
 4964SOL    HW215780   2.289   1.938   1.830
 4965SOL     OW15781   2.452   2.736   1.035
 4965SOL    HW115782   2.488   2.824   1.036
 4965SOL    HW215783   2.394   2.733   1.111
 4966SOL     OW15784   3.205   2.721   1.018
 4966SOL    HW115785   3.119   2.703   0.979
 4966SOL    HW215786   3.253   2.638   1.007
 4967SOL     OW15787   3.083   2.404   0.270
 4967SOL    HW115788   3.086   2.324   0.322
 4967SOL    HW215789   3.027   2.463   0.319
 4968SOL     OW15790   1.907   3.175   1.274
 4968SOL    HW115791   1.940   3.120   1.345
 4968SOL    HW215792   1.913   3.264   1.307
 4969SOL     OW15793   2.579   2.484   1.050
 4969SOL    HW115794   2.661   2.475   1.001
 4969SOL    HW215795   2.552   2.575   1.036
 4970SOL     OW15796   3.591   2.822   1.870
 4970SOL    HW115797   3.554   2.752   1.816
 4970SOL    HW215798   3.525   2.838   1.938
 4971SOL     OW15799   3.486   2.244   0.368
 4971SOL    HW115800   3.510   2.176   0.431
 4971SOL    HW215801   3.460   2.319   0.422
 4972SOL     OW15802   2.889   2.618   0.957
 4972SOL    HW115803   2.879   2.635   1.051
 4972SOL    HW215804   2.864   2.526   0.946
 4973SOL     OW15805   2.848   3.431   1.725
 4973SOL    HW115806   2.827   3.470   1.640
 4973SOL    HW215807   2.889   3.347   1.703
 4974SOL     OW15808   3.701   3.353   1.596
 4974SOL    HW115809   3.727   3.385   1.510
 4974SOL    HW215810   3.780   3.359   1.649
 4975SOL     OW15811   2.211   2.782   1.809
 4975SOL    HW115812   2.291   2.802   1.858
 4975SOL    HW215813   2.240   2.718   1.743
 4976SOL     OW15814   3.412   2.118   0.138
 4976SOL    HW115815   3.350   2.050   0.163
 4976SOL    HW215816   3.433   2.163   0.220
 4977SOL     OW15817   3.146   2.691   0.055
 4977SOL    HW115818   3.193   2.607   0.058
 4977SOL    HW215819   3.164   2.725  13.868
 4978SOL     OW15820   2.932   3.203   0.858
 4978SOL    HW115821   2.938   3.131   0.795
 4978SOL    HW215822   2.988   3.271   0.822
 4979SOL     OW15823   2.174   2.688   0.945
 4979SOL    HW115824   2.266   2.715   0.937
 4979SOL    HW215825   2.178   2.597   0.973
 4980SOL     OW15826   2.223   2.425   1.006
 4980SOL    HW115827   2.183   2.340   0.988
 4980SOL    HW215828   2.300   2.427   0.950
 4981SOL     OW15829   2.998   2.236   1.684
 4981SOL    HW115830   2.950   2.287   1.749
 4981SOL    HW215831   3.084   2.276   1.681
 4982SOL     OW15832   3.028   2.059   1.472
 4982SOL    HW115833   3.014   2.121   1.543
 4982SOL    HW215834   3.072   2.111   1.404
 4983SOL     OW15835   1.888   3.167   0.178
 4983SOL    HW115836   1.805   3.185   0.135
 4983SOL    HW215837   1.875   3.082   0.221
 4984SOL     OW15838   1.964   3.630   0.942
 4984SOL    HW115839   1.930   3.555   0.894
 4984SOL    HW215840   2.045   3.653   0.897
 4985SOL     OW15841   2.351   3.439   0.903
 4985SOL    HW115842   2.418   3.502   0.927
 4985SOL    HW215843   2.395   3.376   0.846
 4986SOL     OW15844   2.831   2.645   1.222
 4986SOL    HW115845   2.896   2.629   1.292
 4986SOL    HW215846   2.749   2.611   1.258
 4987SOL     OW15847   1.894   2.403   1.114
 4987SOL    HW115848   1.965   2.441   1.063
 4987SOL    HW215849   1.919   2.417   1.205
 4988SOL     OW15850   2.010   2.437   1.744
 4988SOL    HW115851   2.065   2.391   1.682
 4988SOL    HW215852   1.975   2.512   1.696
 4989SOL     OW15853   3.245   2.793   1.657
 4989SOL    HW115854   3.265   2.887   1.653
 4989SOL    HW215855   3.240   2.766   1.565
 4990SOL     OW15856   2.683   2.438   0.388
 4990SOL    HW115857   2.686   2.364   0.327
 4990SOL    HW215858   2.619   2.498   0.349
 4991SOL     OW15859   3.500   2.463   1.177
 4991SOL    HW115860   3.488   2.402   1.251
 4991SOL    HW215861   3.587   2.443   1.144
 4992SOL     OW15862   2.099   3.408   1.719
 4992SOL    HW115863   2.078   3.475   1.784
 4992SOL    HW215864   2.107   3.327   1.771
 4993SOL     OW15865   2.538   2.318   1.261
 4993SOL    HW115866   2.523   2.230   1.227
 4993SOL    HW215867   2.546   2.373   1.183
 4994SOL     OW15868   2.784   3.530   1.473
 4994SOL    HW115869   2.757   3.489   1.391
 4994SOL    HW215870   2.777   3.624   1.456
 4995SOL     OW15871   2.332   2.387   0.286
 4995SOL    HW115872   2.408   2.443   0.272
 4995SOL    HW215873   2.279   2.399   0.207
 4996SOL     OW15874   2.002   3.010   1.477
 4996SOL    HW115875   2.003   2.965   1.561
 4996SOL    HW215876   2.019   2.941   1.412
 4997SOL     OW15877   3.178   2.903   1.218
 4997SOL    HW115878   3.200   2.840   1.149
 4997SOL    HW215879   3.114   2.962   1.178
 4998SOL     OW15880   3.183   2.718   0.327
 4998SOL    HW115881   3.111   2.685   0.381
 4998SOL    HW215882   3.154   2.701   0.237
 4999SOL     OW15883   3.646   3.595   1.162
 4999SOL    HW115884   3.703   3.622   1.090
 4999SOL    HW215885   3.614   3.508   1.136
 5000SOL     OW15886   3.108   3.594   1.103
 5000SOL    HW115887   3.191   3.617   1.063
 5000SOL    HW215888   3.116   3.501   1.124
 5001SOL     OW15889   1.952   3.123   1.012
 5001SOL    HW115890   1.933   3.141   1.104
 5001SOL    HW215891   1.877   3.073   0.981
 5002SOL     OW15892   2.543   3.531   1.742
 5002SOL    HW115893   2.483   3.605   1.745
 5002SOL    HW215894   2.605   3.553   1.673
 5003SOL     OW15895   2.803   1.976   0.119
 5003SOL    HW115896   2.831   1.963   0.028
 5003SOL    HW215897   2.855   1.913   0.169
 5004SOL     OW15898   3.566   2.018   0.514
 5004SOL    HW115899   3.643   2.008   0.458
 5004SOL    HW215900   3.556   1.933   0.557
 5005SOL     OW15901   3.253   3.434   0.492
 5005SOL    HW115902   3.314   3.470   0.428
 5005SOL    HW215903   3.204   3.510   0.524
 5006SOL     OW15904   2.004   3.649   1.838
 5006SOL    HW115905   1.952   3.585   1.887
 5006SOL    HW215906   2.050   3.699   1.905
 5007SOL     OW15907   3.138   2.790   0.671
 5007SOL    HW115908   3.213   2.731   0.682
 5007SOL    HW215909   3.172   2.862   0.618
 5008SOL     OW15910   2.663   3.140   1.422
 5008SOL    HW115911   2.637   3.181   1.505
 5008SOL    HW215912   2.592   3.160   1.361
 5009SOL     OW15913   2.537   3.467   0.192
 5009SOL    HW115914   2.524   3.517   0.112
 5009SOL    HW215915   2.483   3.388   0.181
 5010SOL     OW15916   3.478   3.590   1.392
 5010SOL    HW115917   3.535   3.591   1.315
 5010SOL    HW215918   3.463   3.682   1.412
 5011SOL     OW15919   3.702   2.042   0.963
 5011SOL    HW115920   3.734   1.954   0.941
 5011SOL    HW215921   3.615   2.046   0.924
 5012SOL     OW15922   3.084   3.456   0.039
 5012SOL    HW115923   3.074   3.365   0.064
 5012SOL    HW215924   3.034   3.465  13.858
 5013SOL     OW15925   2.688   2.871   1.375
 5013SOL    HW115926   2.730   2.866   1.290
 5013SOL    HW215927   2.681   2.965   1.394
 5014SOL     OW15928   2.789   2.775   0.294
 5014SOL    HW115929   2.855   2.816   0.239
 5014SOL    HW215930   2.835   2.705   0.340
 5015SOL     OW15931   3.343   3.525   0.062
 5015SOL    HW115932   3.252   3.496   0.060
 5015SOL    HW215933   3.376   3.506  13.874
 5016SOL     OW15934   2.231   3.168   1.491
 5016SOL    HW115935   2.217   3.245   1.436
 5016SOL    HW215936   2.152   3.115   1.478
 5017SOL     OW15937   3.458   3.143   1.274
 5017SOL    HW115938   3.527   3.130   1.340
 5017SOL    HW215939   3.402   3.211   1.311
 5018SOL     OW15940   2.925   2.973   0.713
 5018SOL    HW115941   2.853   2.923   0.749
 5018SOL    HW215942   2.990   2.908   0.687
 5019SOL     OW15943   2.886   2.105   0.964
 5019SOL    HW115944   2.883   2.058   0.881
 5019SOL    HW215945   2.883   2.036   1.030
 5020SOL     OW15946   2.471   3.348   0.479
 5020SOL    HW115947   2.519   3.299   0.413
 5020SOL    HW215948   2.399   3.389   0.431
 5021SOL     OW15949   3.590   2.248   1.377
 5021SOL    HW115950   3.663   2.311   1.374
 5021SOL    HW215951   3.617   2.177   1.319
 5022SOL     OW15952   2.137   3.179   0.298
 5022SOL    HW115953   2.054   3.185   0.250
 5022SOL    HW215954   2.121   3.228   0.379
 5023SOL     OW15955   1.976   2.901   1.728
 5023SOL    HW115956   1.899   2.872   1.777
 5023SOL    HW215957   2.050   2.856   1.769
 5024SOL     OW15958   2.552   2.037   1.494
 5024SOL    HW115959   2.638   2.014   1.461
 5024SOL    HW215960   2.569   2.083   1.576
 5025SOL     OW15961   1.846   2.287   0.028
 5025SOL    HW115962   1.812   2.199   0.045
 5025SOL    HW215963   1.867   2.286  13.834
 5026SOL     OW15964   3.284   2.719   1.396
 5026SOL    HW115965   3.233   2.780   1.342
 5026SOL    HW215966   3.372   2.722   1.359
 5027SOL     OW15967   3.049   3.201   0.125
 5027SOL    HW115968   2.954   3.198   0.115
 5027SOL    HW215969   3.064   3.191   0.219
 5028SOL     OW15970   2.488   2.694   1.436
 5028SOL    HW115971   2.545   2.770   1.423
 5028SOL    HW215972   2.548   2.620   1.443
 5029SOL     OW15973   3.350   3.648   0.984
 5029SOL    HW115974   3.372   3.707   0.913
 5029SOL    HW215975   3.433   3.608   1.009
 5030SOL     OW15976   2.571   2.423   1.698
 5030SOL    HW115977   2.620   2.478   1.759
 5030SOL    HW215978   2.589   2.333   1.727
 5031SOL     OW15979   3.336   3.054   1.627
 5031SOL    HW115980   3.326   3.070   1.720
 5031SOL    HW215981   3.428   3.070   1.608
 5032SOL     OW15982   2.229   3.608   1.571
 5032SOL    HW115983   2.146   3.652   1.552
 5032SOL    HW215984   2.204   3.524   1.609
 5033SOL     OW15985   3.522   2.741   1.258
 5033SOL    HW115986   3.522   2.656   1.215
 5033SOL    HW215987   3.515   2.804   1.187
 5034SOL     OW15988   3.081   2.183   0.454
 5034SOL    HW115989   3.143   2.110   0.449
 5034SOL    HW215990   3.108   2.233   0.531
 5035SOL     OW15991   2.445   2.591   0.673
 5035SOL    HW115992   2.484   2.678   0.659
 5035SOL    HW215993   2.376   2.585   0.606
 5036SOL     OW15994   3.614   2.228   1.651
 5036SOL    HW115995   3.600   2.242   1.557
 5036SOL    HW215996   3.543   2.170   1.678
 5037SOL     OW15997   3.620   2.787   1.511
 5037SOL    HW115998   3.610   2.880   1.531
 5037SOL    HW215999   3.593   2.778   1.420
 5038SOL     OW16000   2.773   3.262   0.081
 5038SOL    HW116001   2.714   3.241   0.154
 5038SOL    HW216002   2.721   3.247   0.003
 5039SOL     OW16003   2.524   3.646   0.931
 5039SOL    HW116004   2.504   3.738   0.915
 5039SOL    HW216005   2.620   3.641   0.929
 5040SOL     OW16006   2.732   2.833   0.854
 5040SOL    HW116007   2.782   2.760   0.891
 5040SOL    HW216008   2.692   2.876   0.929
 5041SOL     OW16009   2.956   2.878   0.110
 5041SOL    HW116010   2.951   2.925   0.027
 5041SOL    HW216011   3.029   2.818   0.099
 5042SOL     OW16012   3.706   3.413   0.838
 5042SOL    HW116013   3.626   3.399   0.787
 5042SOL    HW216014   3.704   3.346   0.906
 5043SOL     OW16015   2.089   3.159   1.853
 5043SOL    HW116016   2.029   3.093   1.818
 5043SOL    HW216017   2.062   3.171   1.944
 5044SOL     OW16018   1.952   3.085   0.667
 5044SOL    HW116019   1.969   3.041   0.751
 5044SOL    HW216020   2.022   3.054   0.609
 5045SOL     OW16021   2.549   3.271   1.633
 5045SOL    HW116022   2.470   3.229   1.666
 5045SOL    HW216023   2.548   3.359   1.671
 5046SOL     OW16024   3.669   2.035   1.234
 5046SOL    HW116025   3.661   1.940   1.235
 5046SOL    HW216026   3.688   2.056   1.142
 5047SOL     OW16027   3.553   3.349   1.092
 5047SOL    HW116028   3.476   3.328   1.039
 5047SOL    HW216029   3.559   3.278   1.155
 5048SOL     OW16030   2.211   2.431   1.295
 5048SOL    HW116031   2.268   2.370   1.342
 5048SOL    HW216032   2.235   2.422   1.203
 5049SOL     OW16033   2.694   3.442   0.677
 5049SOL    HW116034   2.671   3.503   0.606
 5049SOL    HW216035   2.621   3.381   0.682
 5050SOL     OW16036   3.290   2.093   1.114
 5050SOL    HW116037   3.305   2.007   1.153
 5050SOL    HW216038   3.242   2.141   1.182
 5051SOL     OW16039   2.873   1.879   1.131
 5051SOL    HW116040   2.817   1.813   1.091
 5051SOL    HW216041   2.960   1.839   1.133
 5052SOL     OW16042   2.645   3.186   0.322
 5052SOL    HW116043   2.617   3.096   0.340
 5052SOL    HW216044   2.723   3.198   0.376
 5053SOL     OW16045   2.482   3.414   1.287
 5053SOL    HW116046   2.481   3.496   1.337
 5053SOL    HW216047   2.571   3.410   1.251
 5054SOL     OW16048   3.218   1.923   0.168
 5054SOL    HW116049   3.258   1.855   0.115
 5054SOL    HW216050   3.132   1.887   0.193
 5055SOL     OW16051   3.155   2.327   0.676
 5055SOL    HW116052   3.104   2.407   0.681
 5055SOL    HW216053   3.151   2.291   0.765
 5056SOL     OW16054   3.441   2.054   0.882
 5056SOL    HW116055   3.389   2.081   0.957
 5056SOL    HW216056   3.443   2.131   0.825
 5057SOL     OW16057   1.901   2.924   0.314
 5057SOL    HW116058   1.997   2.917   0.308
 5057SOL    HW216059   1.872   2.834   0.332
 5058SOL     OW16060   2.761   3.526   0.345
 5058SOL    HW116061   2.685   3.500   0.293
 5058SOL    HW216062   2.731   3.601   0.396
 5059SOL     OW16063   2.098   2.497   2.001
 5059SOL    HW116064   2.015   2.482   2.045
 5059SOL    HW216065   2.079   2.486   1.908
 5060SOL     OW16066   1.873   2.274   2.499
 5060SOL    HW116067   1.782   2.270   2.527
 5060SOL    HW216068   1.886   2.196   2.446
 5061SOL     OW16069   2.430   3.161   3.047
 5061SOL    HW116070   2.345   3.169   3.004
 5061SOL    HW216071   2.448   3.249   3.080
 5062SOL     OW16072   3.432   3.375   2.572
 5062SOL    HW116073   3.389   3.351   2.654
 5062SOL    HW216074   3.361   3.379   2.508
 5063SOL     OW16075   2.995   2.562   2.556
 5063SOL    HW116076   3.043   2.644   2.544
 5063SOL    HW216077   2.947   2.574   2.638
 5064SOL     OW16078   3.635   2.463   2.090
 5064SOL    HW116079   3.611   2.456   1.997
 5064SOL    HW216080   3.600   2.384   2.130
 5065SOL     OW16081   2.602   2.996   2.911
 5065SOL    HW116082   2.537   3.036   2.969
 5065SOL    HW216083   2.644   3.071   2.868
 5066SOL     OW16084   2.738   2.619   3.686
 5066SOL    HW116085   2.730   2.688   3.752
 5066SOL    HW216086   2.760   2.666   3.606
 5067SOL     OW16087   2.550   2.859   2.506
 5067SOL    HW116088   2.616   2.854   2.574
 5067SOL    HW216089   2.481   2.916   2.542
 5068SOL     OW16090   2.578   3.013   3.681
 5068SOL    HW116091   2.625   3.090   3.714
 5068SOL    HW216092   2.498   3.049   3.642
 5069SOL     OW16093   2.195   3.276   2.928
 5069SOL    HW116094   2.119   3.238   2.883
 5069SOL    HW216095   2.237   3.330   2.861
 5070SOL     OW16096   3.319   3.365   3.225
 5070SOL    HW116097   3.374   3.442   3.235
 5070SOL    HW216098   3.250   3.375   3.291
 5071SOL     OW16099   3.465   2.302   2.610
 5071SOL    HW116100   3.397   2.321   2.546
 5071SOL    HW216101   3.465   2.378   2.668
 5072SOL     OW16102   2.085   3.578   2.342
 5072SOL    HW116103   2.112   3.638   2.412
 5072SOL    HW216104   2.159   3.578   2.281
 5073SOL     OW16105   3.000   3.204   3.557
 5073SOL    HW116106   3.042   3.196   3.643
 5073SOL    HW216107   2.947   3.125   3.548
 5074SOL     OW16108   2.094   3.305   2.398
 5074SOL    HW116109   2.076   3.399   2.400
 5074SOL    HW216110   2.036   3.268   2.465
 5075SOL     OW16111   2.130   2.961   2.750
 5075SOL    HW116112   2.127   2.873   2.786
 5075SOL    HW216113   2.072   3.012   2.806
 5076SOL     OW16114   2.461   3.646   3.289
 5076SOL    HW116115   2.380   3.633   3.339
 5076SOL    HW216116   2.490   3.734   3.313
 5077SOL     OW16117   2.438   2.853   2.002
 5077SOL    HW116118   2.488   2.896   1.933
 5077SOL    HW216119   2.476   2.886   2.083
 5078SOL     OW16120   3.455   1.991   3.325
 5078SOL    HW116121   3.482   2.071   3.279
 5078SOL    HW216122   3.434   2.020   3.414
 5079SOL     OW16123   1.989   2.518   2.426
 5079SOL    HW116124   1.955   2.432   2.447
 5079SOL    HW216125   1.976   2.569   2.506
 5080SOL     OW16126   3.699   3.609   2.206
 5080SOL    HW116127   3.772   3.584   2.263
 5080SOL    HW216128   3.716   3.701   2.184
 5081SOL     OW16129   1.898   3.447   1.981
 5081SOL    HW116130   1.881   3.355   2.000
 5081SOL    HW216131   1.875   3.493   2.061
 5082SOL     OW16132   3.554   2.784   2.515
 5082SOL    HW116133   3.636   2.738   2.496
 5082SOL    HW216134   3.534   2.831   2.435
 5083SOL     OW16135   3.505   2.962   2.295
 5083SOL    HW116136   3.590   2.964   2.252
 5083SOL    HW216137   3.512   3.027   2.365
 5084SOL     OW16138   1.973   2.633   3.422
 5084SOL    HW116139   2.060   2.673   3.431
 5084SOL    HW216140   1.913   2.707   3.419
 5085SOL     OW16141   2.480   3.256   2.596
 5085SOL    HW116142   2.436   3.172   2.604
 5085SOL    HW216143   2.463   3.284   2.506
 5086SOL     OW16144   3.145   3.096   3.282
 5086SOL    HW116145   3.176   3.028   3.222
 5086SOL    HW216146   3.206   3.091   3.356
 5087SOL     OW16147   2.698   1.865   2.375
 5087SOL    HW116148   2.736   1.949   2.349
 5087SOL    HW216149   2.604   1.882   2.379
 5088SOL     OW16150   2.048   2.825   3.147
 5088SOL    HW116151   2.135   2.789   3.129
 5088SOL    HW216152   1.991   2.782   3.084
 5089SOL     OW16153   3.386   2.864   2.064
 5089SOL    HW116154   3.318   2.806   2.097
 5089SOL    HW216155   3.430   2.897   2.143
 5090SOL     OW16156   3.092   3.671   3.492
 5090SOL    HW116157   3.062   3.732   3.425
 5090SOL    HW216158   3.090   3.585   3.450
 5091SOL     OW16159   3.326   3.281   2.806
 5091SOL    HW116160   3.262   3.296   2.875
 5091SOL    HW216161   3.315   3.189   2.782
 5092SOL     OW16162   3.502   3.612   2.442
 5092SOL    HW116163   3.495   3.575   2.354
 5092SOL    HW216164   3.490   3.537   2.501
 5093SOL     OW16165   2.468   2.604   2.143
 5093SOL    HW116166   2.469   2.683   2.089
 5093SOL    HW216167   2.402   2.621   2.210
 5094SOL     OW16168   3.139   2.233   2.798
 5094SOL    HW116169   3.051   2.196   2.805
 5094SOL    HW216170   3.193   2.178   2.854
 5095SOL     OW16171   3.433   3.541   2.172
 5095SOL    HW116172   3.526   3.561   2.167
 5095SOL    HW216173   3.407   3.523   2.081
 5096SOL     OW16174   2.654   2.477   3.308
 5096SOL    HW116175   2.630   2.453   3.398
 5096SOL    HW216176   2.610   2.413   3.253
 5097SOL     OW16177   3.256   2.336   3.540
 5097SOL    HW116178   3.260   2.380   3.625
 5097SOL    HW216179   3.310   2.258   3.551
 5098SOL     OW16180   2.810   2.746   3.449
 5098SOL    HW116181   2.867   2.680   3.410
 5098SOL    HW216182   2.763   2.785   3.375
 5099SOL     OW16183   2.862   2.276   3.094
 5099SOL    HW116184   2.776   2.292   3.133
 5099SOL    HW216185   2.843   2.231   3.012
 5100SOL     OW16186   2.919   2.562   2.286
 5100SOL    HW116187   2.938   2.556   2.380
 5100SOL    HW216188   2.835   2.517   2.276
 5101SOL     OW16189   1.951   2.683   2.642
 5101SOL    HW116190   2.034   2.686   2.691
 5101SOL    HW216191   1.902   2.759   2.674
 5102SOL     OW16192   1.974   3.723   3.442
 5102SOL    HW116193   1.984   3.701   3.535
 5102SOL    HW216194   1.884   3.700   3.421
 5103SOL     OW16195   2.750   2.217   2.064
 5103SOL    HW116196   2.800   2.264   1.998
 5103SOL    HW216197   2.708   2.146   2.016
 5104SOL     OW16198   3.566   2.431   3.693
 5104SOL    HW116199   3.531   2.505   3.644
 5104SOL    HW216200   3.592   2.367   3.627
 5105SOL     OW16201   3.241   3.003   2.401
 5105SOL    HW116202   3.320   2.991   2.349
 5105SOL    HW216203   3.189   3.066   2.350
 5106SOL     OW16204   2.448   2.065   2.772
 5106SOL    HW116205   2.355   2.069   2.796
 5106SOL    HW216206   2.467   2.150   2.732
 5107SOL     OW16207   2.860   3.308   2.329
 5107SOL    HW116208   2.829   3.384   2.280
 5107SOL    HW216209   2.836   3.327   2.420
 5108SOL     OW16210   2.213   3.678   2.696
 5108SOL    HW116211   2.263   3.598   2.715
 5108SOL    HW216212   2.270   3.749   2.723
 5109SOL     OW16213   3.671   2.923   2.734
 5109SOL    HW116214   3.620   2.893   2.658
 5109SOL    HW216215   3.608   2.926   2.806
 5110SOL     OW16216   3.087   3.401   3.375
 5110SOL    HW116217   3.076   3.329   3.436
 5110SOL    HW216218   3.017   3.390   3.311
 5111SOL     OW16219   2.172   2.823   2.117
 5111SOL    HW116220   2.254   2.844   2.072
 5111SOL    HW216221   2.147   2.737   2.083
 5112SOL     OW16222   3.344   2.616   2.582
 5112SOL    HW116223   3.342   2.574   2.669
 5112SOL    HW216224   3.423   2.670   2.584
 5113SOL     OW16225   2.334   3.131   3.599
 5113SOL    HW116226   2.308   3.136   3.507
 5113SOL    HW216227   2.251   3.127   3.647
 5114SOL     OW16228   2.978   3.646   2.079
 5114SOL    HW116229   2.911   3.602   2.132
 5114SOL    HW216230   3.009   3.578   2.019
 5115SOL     OW16231   3.484   3.251   1.952
 5115SOL    HW116232   3.441   3.335   1.934
 5115SOL    HW216233   3.418   3.185   1.930
 5116SOL     OW16234   2.325   3.603   2.187
 5116SOL    HW116235   2.366   3.664   2.248
 5116SOL    HW216236   2.397   3.575   2.130
 5117SOL     OW16237   3.262   1.969   2.307
 5117SOL    HW116238   3.257   1.943   2.215
 5117SOL    HW216239   3.356   1.976   2.325
 5118SOL     OW16240   2.122   3.651   3.076
 5118SOL    HW116241   2.168   3.577   3.116
 5118SOL    HW216242   2.102   3.622   2.988
 5119SOL     OW16243   2.803   3.567   2.758
 5119SOL    HW116244   2.881   3.517   2.781
 5119SOL    HW216245   2.761   3.515   2.689
 5120SOL     OW16246   2.257   2.578   2.342
 5120SOL    HW116247   2.285   2.487   2.351
 5120SOL    HW216248   2.163   2.577   2.358
 5121SOL     OW16249   3.387   2.086   3.585
 5121SOL    HW116250   3.398   2.106   3.678
 5121SOL    HW216251   3.320   2.017   3.583
 5122SOL     OW16252   2.548   1.983   1.958
 5122SOL    HW116253   2.587   1.905   1.995
 5122SOL    HW216254   2.476   1.950   1.904
 5123SOL     OW16255   2.628   2.148   3.612
 5123SOL    HW116256   2.709   2.098   3.604
 5123SOL    HW216257   2.582   2.107   3.685
 5124SOL     OW16258   2.737   3.383   3.058
 5124SOL    HW116259   2.719   3.345   2.972
 5124SOL    HW216260   2.807   3.328   3.094
 5125SOL     OW16261   3.201   2.453   3.297
 5125SOL    HW116262   3.232   2.422   3.381
 5125SOL    HW216263   3.238   2.540   3.288
 5126SOL     OW16264   2.681   3.248   2.811
 5126SOL    HW116265   2.766   3.238   2.769
 5126SOL    HW216266   2.619   3.257   2.739
 5127SOL     OW16267   2.790   2.369   2.761
 5127SOL    HW116268   2.765   2.360   2.669
 5127SOL    HW216269   2.823   2.282   2.785
 5128SOL     OW16270   2.431   1.916   2.379
 5128SOL    HW116271   2.380   1.891   2.456
 5128SOL    HW216272   2.418   2.010   2.371
 5129SOL     OW16273   3.289   3.065   1.899
 5129SOL    HW116274   3.319   2.990   1.951
 5129SOL    HW216275   3.203   3.086   1.936
 5130SOL     OW16276   2.808   2.114   2.316
 5130SOL    HW116277   2.784   2.149   2.230
 5130SOL    HW216278   2.902   2.128   2.322
 5131SOL     OW16279   2.944   2.549   3.318
 5131SOL    HW116280   2.882   2.477   3.326
 5131SOL    HW216281   3.030   2.506   3.313
 5132SOL     OW16282   3.078   3.436   2.658
 5132SOL    HW116283   3.092   3.501   2.589
 5132SOL    HW216284   3.150   3.448   2.719
 5133SOL     OW16285   2.337   3.018   2.585
 5133SOL    HW116286   2.271   3.000   2.651
 5133SOL    HW216287   2.292   3.006   2.501
 5134SOL     OW16288   3.123   3.651   2.474
 5134SOL    HW116289   3.173   3.715   2.424
 5134SOL    HW216290   3.047   3.699   2.507
 5135SOL     OW16291   2.888   2.391   1.888
 5135SOL    HW116292   2.844   2.474   1.870
 5135SOL    HW216293   2.950   2.411   1.958
 5136SOL     OW16294   1.944   2.430   3.241
 5136SOL    HW116295   2.039   2.419   3.228
 5136SOL    HW216296   1.937   2.501   3.305
 5137SOL     OW16297   2.726   2.318   2.499
 5137SOL    HW116298   2.686   2.375   2.434
 5137SOL    HW216299   2.753   2.240   2.450
 5138SOL     OW16300   2.877   1.917   2.609
 5138SOL    HW116301   2.822   1.907   2.531
 5138SOL    HW216302   2.854   1.842   2.664
 5139SOL     OW16303   3.304   3.021   2.719
 5139SOL    HW116304   3.232   2.958   2.719
 5139SOL    HW216305   3.329   3.028   2.627
 5140SOL     OW16306   3.327   2.474   2.826
 5140SOL    HW116307   3.269   2.398   2.829
 5140SOL    HW216308   3.384   2.465   2.902
 5141SOL     OW16309   3.724   2.675   2.237
 5141SOL    HW116310   3.767   2.619   2.302
 5141SOL    HW216311   3.688   2.613   2.173
 5142SOL     OW16312   2.352   3.283   2.012
 5142SOL    HW116313   2.276   3.255   2.063
 5142SOL    HW216314   2.346   3.232   1.931
 5143SOL     OW16315   3.533   3.129   2.501
 5143SOL    HW116316   3.628   3.129   2.512
 5143SOL    HW216317   3.506   3.218   2.523
 5144SOL     OW16318   3.255   2.435   1.933
 5144SOL    HW116319   3.193   2.413   2.002
 5144SOL    HW216320   3.340   2.404   1.967
 5145SOL     OW16321   3.610   3.093   3.417
 5145SOL    HW116322   3.698   3.059   3.400
 5145SOL    HW216323   3.624   3.183   3.446
 5146SOL     OW16324   2.915   3.213   3.192
 5146SOL    HW116325   2.839   3.182   3.242
 5146SOL    HW216326   2.990   3.172   3.235
 5147SOL     OW16327   3.469   3.493   3.522
 5147SOL    HW116328   3.459   3.528   3.434
 5147SOL    HW216329   3.548   3.438   3.517
 5148SOL     OW16330   2.999   3.075   2.963
 5148SOL    HW116331   2.939   3.114   3.027
 5148SOL    HW216332   2.970   3.111   2.879
 5149SOL     OW16333   3.485   2.954   2.935
 5149SOL    HW116334   3.474   3.017   3.006
 5149SOL    HW216335   3.412   2.972   2.876
 5150SOL     OW16336   2.792   1.948   3.252
 5150SOL    HW116337   2.814   1.931   3.160
 5150SOL    HW216338   2.871   1.988   3.288
 5151SOL     OW16339   2.846   2.978   3.584
 5151SOL    HW116340   2.755   2.994   3.610
 5151SOL    HW216341   2.842   2.898   3.531
 5152SOL     OW16342   2.573   2.925   2.233
 5152SOL    HW116343   2.558   2.904   2.325
 5152SOL    HW216344   2.648   2.871   2.208
 5153SOL     OW16345   2.286   2.690   3.118
 5153SOL    HW116346   2.355   2.701   3.183
 5153SOL    HW216347   2.250   2.602   3.135
 5154SOL     OW16348   3.129   2.237   3.145
 5154SOL    HW116349   3.160   2.315   3.191
 5154SOL    HW216350   3.039   2.258   3.121
 5155SOL     OW16351   1.938   3.435   3.219
 5155SOL    HW116352   1.910   3.509   3.165
 5155SOL    HW216353   2.034   3.435   3.212
 5156SOL     OW16354   2.194   2.984   2.351
 5156SOL    HW116355   2.196   3.057   2.289
 5156SOL    HW216356   2.193   2.906   2.296
 5157SOL     OW16357   2.430   2.378   2.707
 5157SOL    HW116358   2.437   2.438   2.633
 5157SOL    HW216359   2.495   2.408   2.770
 5158SOL     OW16360   3.108   3.213   2.253
 5158SOL    HW116361   3.164   3.283   2.286
 5158SOL    HW216362   3.021   3.234   2.286
 5159SOL     OW16363   3.154   3.324   3.011
 5159SOL    HW116364   3.210   3.330   3.089
 5159SOL    HW216365   3.100   3.246   3.027
 5160SOL     OW16366   3.434   2.478   2.350
 5160SOL    HW116367   3.386   2.527   2.417
 5160SOL    HW216368   3.475   2.545   2.295
 5161SOL     OW16369   2.207   3.394   3.168
 5161SOL    HW116370   2.197   3.346   3.086
 5161SOL    HW216371   2.302   3.405   3.178
 5162SOL     OW16372   2.294   2.604   3.476
 5162SOL    HW116373   2.350   2.648   3.412
 5162SOL    HW216374   2.348   2.533   3.511
 5163SOL     OW16375   3.472   2.642   3.551
 5163SOL    HW116376   3.386   2.685   3.545
 5163SOL    HW216377   3.524   2.685   3.483
 5164SOL     OW16378   2.857   1.998   3.603
 5164SOL    HW116379   2.918   2.070   3.590
 5164SOL    HW216380   2.908   1.919   3.583
 5165SOL     OW16381   2.354   1.883   3.649
 5165SOL    HW116382   2.304   1.838   3.581
 5165SOL    HW216383   2.291   1.943   3.688
 5166SOL     OW16384   2.452   2.736   2.898
 5166SOL    HW116385   2.488   2.825   2.899
 5166SOL    HW216386   2.393   2.733   2.973
 5167SOL     OW16387   3.205   2.721   2.879
 5167SOL    HW116388   3.119   2.703   2.841
 5167SOL    HW216389   3.253   2.639   2.869
 5168SOL     OW16390   3.059   2.388   2.122
 5168SOL    HW116391   3.068   2.310   2.176
 5168SOL    HW216392   3.018   2.453   2.179
 5169SOL     OW16393   1.907   3.175   3.135
 5169SOL    HW116394   1.940   3.120   3.207
 5169SOL    HW216395   1.913   3.264   3.169
 5170SOL     OW16396   2.580   2.485   2.912
 5170SOL    HW116397   2.661   2.476   2.863
 5170SOL    HW216398   2.553   2.575   2.898
 5171SOL     OW16399   3.591   2.822   3.732
 5171SOL    HW116400   3.554   2.752   3.678
 5171SOL    HW216401   3.525   2.838   3.800
 5172SOL     OW16402   3.486   2.244   2.219
 5172SOL    HW116403   3.511   2.177   2.282
 5172SOL    HW216404   3.460   2.319   2.273
 5173SOL     OW16405   2.889   2.619   2.819
 5173SOL    HW116406   2.880   2.635   2.912
 5173SOL    HW216407   2.865   2.527   2.807
 5174SOL     OW16408   2.848   3.431   3.587
 5174SOL    HW116409   2.827   3.469   3.502
 5174SOL    HW216410   2.889   3.347   3.565
 5175SOL     OW16411   3.701   3.353   3.458
 5175SOL    HW116412   3.727   3.385   3.372
 5175SOL    HW216413   3.780   3.359   3.511
 5176SOL     OW16414   2.212   2.782   3.671
 5176SOL    HW116415   2.292   2.803   3.719
 5176SOL    HW216416   2.240   2.717   3.606
 5177SOL     OW16417   3.389   2.133   1.987
 5177SOL    HW116418   3.327   2.067   2.016
 5177SOL    HW216419   3.423   2.171   2.068
 5178SOL     OW16420   3.147   2.685   1.889
 5178SOL    HW116421   3.190   2.599   1.894
 5178SOL    HW216422   3.181   2.724   1.808
 5179SOL     OW16423   2.931   3.203   2.720
 5179SOL    HW116424   2.938   3.131   2.657
 5179SOL    HW216425   2.988   3.271   2.684
 5180SOL     OW16426   2.175   2.690   2.806
 5180SOL    HW116427   2.267   2.715   2.798
 5180SOL    HW216428   2.178   2.598   2.832
 5181SOL     OW16429   2.215   2.427   2.861
 5181SOL    HW116430   2.171   2.344   2.839
 5181SOL    HW216431   2.295   2.426   2.809
 5182SOL     OW16432   2.998   2.235   3.546
 5182SOL    HW116433   2.950   2.287   3.611
 5182SOL    HW216434   3.084   2.276   3.543
 5183SOL     OW16435   3.029   2.059   3.334
 5183SOL    HW116436   3.014   2.121   3.406
 5183SOL    HW216437   3.072   2.110   3.266
 5184SOL     OW16438   1.870   3.175   2.055
 5184SOL    HW116439   1.782   3.192   2.021
 5184SOL    HW216440   1.865   3.086   2.091
 5185SOL     OW16441   1.963   3.631   2.803
 5185SOL    HW116442   1.930   3.555   2.755
 5185SOL    HW216443   2.045   3.653   2.759
 5186SOL     OW16444   2.350   3.439   2.765
 5186SOL    HW116445   2.418   3.502   2.789
 5186SOL    HW216446   2.395   3.377   2.707
 5187SOL     OW16447   2.831   2.646   3.084
 5187SOL    HW116448   2.895   2.630   3.154
 5187SOL    HW216449   2.749   2.610   3.118
 5188SOL     OW16450   1.897   2.403   2.975
 5188SOL    HW116451   1.969   2.443   2.926
 5188SOL    HW216452   1.920   2.415   3.067
 5189SOL     OW16453   2.014   2.442   3.612
 5189SOL    HW116454   2.081   2.403   3.555
 5189SOL    HW216455   1.976   2.512   3.559
 5190SOL     OW16456   3.245   2.793   3.519
 5190SOL    HW116457   3.265   2.887   3.515
 5190SOL    HW216458   3.240   2.766   3.427
 5191SOL     OW16459   2.681   2.436   2.235
 5191SOL    HW116460   2.686   2.363   2.173
 5191SOL    HW216461   2.610   2.491   2.202
 5192SOL     OW16462   3.500   2.463   3.039
 5192SOL    HW116463   3.488   2.402   3.113
 5192SOL    HW216464   3.587   2.444   3.006
 5193SOL     OW16465   2.099   3.408   3.581
 5193SOL    HW116466   2.078   3.475   3.646
 5193SOL    HW216467   2.107   3.327   3.633
 5194SOL     OW16468   2.543   2.317   3.122
 5194SOL    HW116469   2.524   2.229   3.087
 5194SOL    HW216470   2.549   2.373   3.045
 5195SOL     OW16471   2.783   3.530   3.335
 5195SOL    HW116472   2.757   3.489   3.253
 5195SOL    HW216473   2.776   3.624   3.318
 5196SOL     OW16474   2.342   2.374   2.093
 5196SOL    HW116475   2.400   2.450   2.096
 5196SOL    HW216476   2.261   2.406   2.055
 5197SOL     OW16477   2.002   3.010   3.339
 5197SOL    HW116478   2.004   2.964   3.423
 5197SOL    HW216479   2.019   2.941   3.274
 5198SOL     OW16480   3.178   2.903   3.080
 5198SOL    HW116481   3.199   2.840   3.011
 5198SOL    HW216482   3.114   2.962   3.040
 5199SOL     OW16483   3.177   2.717   2.165
 5199SOL    HW116484   3.103   2.684   2.217
 5199SOL    HW216485   3.150   2.703   2.074
 5200SOL     OW16486   3.646   3.596   3.024
 5200SOL    HW116487   3.703   3.622   2.952
 5200SOL    HW216488   3.614   3.509   2.998
 5201SOL     OW16489   3.107   3.593   2.965
 5201SOL    HW116490   3.191   3.617   2.924
 5201SOL    HW216491   3.116   3.500   2.986
 5202SOL     OW16492   1.950   3.125   2.873
 5202SOL    HW116493   1.931   3.142   2.965
 5202SOL    HW216494   1.877   3.072   2.843
 5203SOL     OW16495   2.543   3.531   3.604
 5203SOL    HW116496   2.484   3.605   3.607
 5203SOL    HW216497   2.606   3.553   3.535
 5204SOL     OW16498   3.567   2.020   2.370
 5204SOL    HW116499   3.635   2.007   2.304
 5204SOL    HW216500   3.556   1.934   2.410
 5205SOL     OW16501   3.253   3.430   2.355
 5205SOL    HW116502   3.310   3.465   2.286
 5205SOL    HW216503   3.203   3.505   2.386
 5206SOL     OW16504   2.004   3.649   3.700
 5206SOL    HW116505   1.952   3.585   3.749
 5206SOL    HW216506   2.050   3.699   3.767
 5207SOL     OW16507   3.139   2.791   2.534
 5207SOL    HW116508   3.213   2.732   2.544
 5207SOL    HW216509   3.173   2.862   2.479
 5208SOL     OW16510   2.663   3.140   3.284
 5208SOL    HW116511   2.636   3.181   3.366
 5208SOL    HW216512   2.592   3.160   3.223
 5209SOL     OW16513   2.535   3.484   2.023
 5209SOL    HW116514   2.546   3.503   1.930
 5209SOL    HW216515   2.475   3.408   2.025
 5210SOL     OW16516   3.477   3.590   3.254
 5210SOL    HW116517   3.535   3.591   3.177
 5210SOL    HW216518   3.463   3.682   3.274
 5211SOL     OW16519   3.702   2.042   2.826
 5211SOL    HW116520   3.733   1.955   2.803
 5211SOL    HW216521   3.615   2.047   2.786
 5212SOL     OW16522   3.069   3.461   1.900
 5212SOL    HW116523   3.059   3.369   1.925
 5212SOL    HW216524   3.007   3.473   1.829
 5213SOL     OW16525   2.687   2.871   3.238
 5213SOL    HW116526   2.730   2.865   3.152
 5213SOL    HW216527   2.681   2.964   3.256
 5214SOL     OW16528   2.780   2.773   2.154
 5214SOL    HW116529   2.839   2.806   2.086
 5214SOL    HW216530   2.830   2.706   2.200
 5215SOL     OW16531   3.346   3.502   1.907
 5215SOL    HW116532   3.253   3.486   1.890
 5215SOL    HW216533   3.386   3.505   1.820
 5216SOL     OW16534   2.231   3.168   3.353
 5216SOL    HW116535   2.217   3.245   3.298
 5216SOL    HW216536   2.152   3.115   3.340
 5217SOL     OW16537   3.458   3.142   3.136
 5217SOL    HW116538   3.526   3.129   3.202
 5217SOL    HW216539   3.401   3.210   3.173
 5218SOL     OW16540   2.926   2.974   2.575
 5218SOL    HW116541   2.853   2.924   2.611
 5218SOL    HW216542   2.990   2.908   2.549
 5219SOL     OW16543   2.886   2.105   2.826
 5219SOL    HW116544   2.882   2.058   2.743
 5219SOL    HW216545   2.883   2.036   2.892
 5220SOL     OW16546   2.469   3.354   2.341
 5220SOL    HW116547   2.518   3.302   2.277
 5220SOL    HW216548   2.397   3.391   2.290
 5221SOL     OW16549   3.590   2.248   3.240
 5221SOL    HW116550   3.663   2.311   3.236
 5221SOL    HW216551   3.617   2.177   3.181
 5222SOL     OW16552   2.125   3.203   2.155
 5222SOL    HW116553   2.033   3.198   2.130
 5222SOL    HW216554   2.125   3.244   2.241
 5223SOL     OW16555   1.977   2.902   3.590
 5223SOL    HW116556   1.900   2.872   3.639
 5223SOL    HW216557   2.050   2.856   3.631
 5224SOL     OW16558   2.553   2.036   3.356
 5224SOL    HW116559   2.640   2.014   3.323
 5224SOL    HW216560   2.570   2.083   3.438
 5225SOL     OW16561   1.879   2.258   1.913
 5225SOL    HW116562   1.815   2.222   1.852
 5225SOL    HW216563   1.925   2.325   1.864
 5226SOL     OW16564   3.284   2.719   3.258
 5226SOL    HW116565   3.233   2.780   3.204
 5226SOL    HW216566   3.372   2.722   3.221
 5227SOL     OW16567   3.039   3.194   1.981
 5227SOL    HW116568   2.948   3.165   1.981
 5227SOL    HW216569   3.065   3.194   2.073
 5228SOL     OW16570   2.487   2.694   3.298
 5228SOL    HW116571   2.544   2.769   3.284
 5228SOL    HW216572   2.547   2.620   3.305
 5229SOL     OW16573   3.350   3.647   2.846
 5229SOL    HW116574   3.373   3.709   2.776
 5229SOL    HW216575   3.433   3.608   2.872
 5230SOL     OW16576   2.570   2.423   3.561
 5230SOL    HW116577   2.620   2.478   3.621
 5230SOL    HW216578   2.588   2.333   3.589
 5231SOL     OW16579   3.335   3.054   3.488
 5231SOL    HW116580   3.326   3.070   3.582
 5231SOL    HW216581   3.428   3.070   3.470
 5232SOL     OW16582   2.229   3.608   3.433
 5232SOL    HW116583   2.146   3.652   3.414
 5232SOL    HW216584   2.204   3.524   3.471
 5233SOL     OW16585   3.522   2.741   3.120
 5233SOL    HW116586   3.522   2.655   3.077
 5233SOL    HW216587   3.515   2.804   3.049
 5234SOL     OW16588   3.079   2.182   2.319
 5234SOL    HW116589   3.140   2.108   2.314
 5234SOL    HW216590   3.109   2.232   2.395
 5235SOL     OW16591   2.448   2.601   2.541
 5235SOL    HW116592   2.493   2.684   2.527
 5235SOL    HW216593   2.381   2.599   2.472
 5236SOL     OW16594   3.614   2.228   3.513
 5236SOL    HW116595   3.600   2.242   3.419
 5236SOL    HW216596   3.542   2.170   3.540
 5237SOL     OW16597   3.620   2.787   3.373
 5237SOL    HW116598   3.609   2.880   3.393
 5237SOL    HW216599   3.593   2.778   3.282
 5238SOL     OW16600   2.728   3.227   1.910
 5238SOL    HW116601   2.687   3.253   1.993
 5238SOL    HW216602   2.739   3.310   1.862
 5239SOL     OW16603   2.524   3.646   2.793
 5239SOL    HW116604   2.504   3.738   2.777
 5239SOL    HW216605   2.619   3.641   2.791
 5240SOL     OW16606   2.732   2.835   2.716
 5240SOL    HW116607   2.782   2.761   2.752
 5240SOL    HW216608   2.692   2.876   2.792
 5241SOL     OW16609   2.938   2.849   1.950
 5241SOL    HW116610   2.918   2.902   1.872
 5241SOL    HW216611   3.012   2.795   1.923
 5242SOL     OW16612   3.706   3.415   2.701
 5242SOL    HW116613   3.625   3.397   2.652
 5242SOL    HW216614   3.712   3.344   2.765
 5243SOL     OW16615   2.089   3.159   3.714
 5243SOL    HW116616   2.029   3.092   3.679
 5243SOL    HW216617   2.060   3.171   3.805
 5244SOL     OW16618   1.955   3.088   2.527
 5244SOL    HW116619   1.972   3.046   2.611
 5244SOL    HW216620   2.020   3.051   2.468
 5245SOL     OW16621   2.549   3.271   3.495
 5245SOL    HW116622   2.470   3.229   3.528
 5245SOL    HW216623   2.548   3.359   3.533
 5246SOL     OW16624   3.669   2.035   3.096
 5246SOL    HW116625   3.662   1.940   3.097
 5246SOL    HW216626   3.688   2.057   3.005
 5247SOL     OW16627   2.333   2.320   2.359
 5247SOL    HW116628   2.352   2.325   2.265
 5247SOL    HW216629   2.258   2.262   2.365
 5248SOL     OW16630   3.552   3.350   2.956
 5248SOL    HW116631   3.476   3.328   2.903
 5248SOL    HW216632   3.559   3.279   3.019
 5249SOL     OW16633   2.208   2.428   3.154
 5249SOL    HW116634   2.259   2.362   3.200
 5249SOL    HW216635   2.232   2.418   3.062
 5250SOL     OW16636   2.694   3.441   2.538
 5250SOL    HW116637   2.667   3.498   2.466
 5250SOL    HW216638   2.621   3.379   2.547
 5251SOL     OW16639   3.290   2.093   2.977
 5251SOL    HW116640   3.305   2.007   3.016
 5251SOL    HW216641   3.242   2.141   3.044
 5252SOL     OW16642   2.873   1.879   2.993
 5252SOL    HW116643   2.817   1.813   2.952
 5252SOL    HW216644   2.960   1.838   2.994
 5253SOL     OW16645   2.637   3.195   2.186
 5253SOL    HW116646   2.610   3.103   2.194
 5253SOL    HW216647   2.719   3.201   2.235
 5254SOL     OW16648   2.482   3.414   3.149
 5254SOL    HW116649   2.480   3.496   3.199
 5254SOL    HW216650   2.571   3.410   3.113
 5255SOL     OW16651   3.224   1.912   2.037
 5255SOL    HW116652   3.258   1.840   1.984
 5255SOL    HW216653   3.134   1.886   2.057
 5256SOL     OW16654   3.157   2.327   2.539
 5256SOL    HW116655   3.105   2.407   2.543
 5256SOL    HW216656   3.152   2.292   2.628
 5257SOL     OW16657   3.441   2.054   2.744
 5257SOL    HW116658   3.389   2.081   2.820
 5257SOL    HW216659   3.443   2.130   2.687
 5258SOL     OW16660   1.904   2.924   2.172
 5258SOL    HW116661   1.997   2.916   2.151
 5258SOL    HW216662   1.877   2.836   2.196
 5259SOL     OW16663   2.752   3.529   2.201
 5259SOL    HW116664   2.678   3.510   2.142
 5259SOL    HW216665   2.721   3.601   2.255
 5260SOL     OW16666   2.092   2.509   3.869
 5260SOL    HW116667   2.010   2.489   3.913
 5260SOL    HW216668   2.074   2.495   3.776
 5261SOL     OW16669   1.871   2.277   4.358
 5261SOL    HW116670   1.780   2.269   4.386
 5261SOL    HW216671   1.886   2.201   4.302
 5262SOL     OW16672   2.430   3.161   4.909
 5262SOL    HW116673   2.345   3.168   4.866
 5262SOL    HW216674   2.448   3.249   4.942
 5263SOL     OW16675   3.432   3.376   4.434
 5263SOL    HW116676   3.389   3.351   4.516
 5263SOL    HW216677   3.361   3.379   4.370
 5264SOL     OW16678   2.994   2.562   4.418
 5264SOL    HW116679   3.042   2.644   4.406
 5264SOL    HW216680   2.946   2.574   4.500
 5265SOL     OW16681   3.635   2.463   3.952
 5265SOL    HW116682   3.611   2.456   3.859
 5265SOL    HW216683   3.599   2.384   3.992
 5266SOL     OW16684   2.602   2.996   4.773
 5266SOL    HW116685   2.537   3.036   4.831
 5266SOL    HW216686   2.644   3.071   4.730
 5267SOL     OW16687   2.738   2.621   5.548
 5267SOL    HW116688   2.716   2.691   5.610
 5267SOL    HW216689   2.760   2.668   5.467
 5268SOL     OW16690   2.546   2.855   4.367
 5268SOL    HW116691   2.613   2.849   4.435
 5268SOL    HW216692   2.479   2.913   4.404
 5269SOL     OW16693   2.584   3.017   5.537
 5269SOL    HW116694   2.629   3.094   5.571
 5269SOL    HW216695   2.503   3.052   5.500
 5270SOL     OW16696   2.195   3.276   4.790
 5270SOL    HW116697   2.119   3.238   4.745
 5270SOL    HW216698   2.237   3.330   4.723
 5271SOL     OW16699   3.319   3.365   5.087
 5271SOL    HW116700   3.374   3.442   5.097
 5271SOL    HW216701   3.250   3.375   5.153
 5272SOL     OW16702   3.465   2.302   4.472
 5272SOL    HW116703   3.397   2.321   4.407
 5272SOL    HW216704   3.465   2.378   4.531
 5273SOL     OW16705   2.085   3.577   4.204
 5273SOL    HW116706   2.112   3.637   4.274
 5273SOL    HW216707   2.159   3.578   4.143
 5274SOL     OW16708   2.999   3.205   5.420
 5274SOL    HW116709   3.041   3.196   5.505
 5274SOL    HW216710   2.948   3.125   5.410
 5275SOL     OW16711   2.094   3.305   4.261
 5275SOL    HW116712   2.076   3.399   4.263
 5275SOL    HW216713   2.036   3.268   4.327
 5276SOL     OW16714   2.130   2.962   4.611
 5276SOL    HW116715   2.127   2.873   4.647
 5276SOL    HW216716   2.072   3.013   4.668
 5277SOL     OW16717   2.461   3.646   5.151
 5277SOL    HW116718   2.380   3.633   5.201
 5277SOL    HW216719   2.490   3.734   5.175
 5278SOL     OW16720   2.439   2.854   3.864
 5278SOL    HW116721   2.489   2.897   3.794
 5278SOL    HW216722   2.477   2.887   3.945
 5279SOL     OW16723   3.455   1.991   5.187
 5279SOL    HW116724   3.482   2.071   5.142
 5279SOL    HW216725   3.434   2.019   5.276
 5280SOL     OW16726   1.991   2.518   4.289
 5280SOL    HW116727   1.955   2.432   4.309
 5280SOL    HW216728   1.977   2.570   4.369
 5281SOL     OW16729   3.699   3.609   4.068
 5281SOL    HW116730   3.772   3.584   4.125
 5281SOL    HW216731   3.716   3.701   4.046
 5282SOL     OW16732   1.898   3.447   3.843
 5282SOL    HW116733   1.881   3.355   3.862
 5282SOL    HW216734   1.875   3.493   3.923
 5283SOL     OW16735   3.554   2.784   4.377
 5283SOL    HW116736   3.636   2.738   4.358
 5283SOL    HW216737   3.534   2.831   4.297
 5284SOL     OW16738   3.505   2.962   4.157
 5284SOL    HW116739   3.590   2.964   4.114
 5284SOL    HW216740   3.512   3.027   4.227
 5285SOL     OW16741   1.975   2.639   5.277
 5285SOL    HW116742   2.061   2.677   5.293
 5285SOL    HW216743   1.915   2.714   5.277
 5286SOL     OW16744   2.481   3.256   4.458
 5286SOL    HW116745   2.436   3.172   4.466
 5286SOL    HW216746   2.463   3.284   4.368
 5287SOL     OW16747   3.145   3.096   5.144
 5287SOL    HW116748   3.176   3.028   5.084
 5287SOL    HW216749   3.206   3.091   5.218
 5288SOL     OW16750   2.697   1.866   4.237
 5288SOL    HW116751   2.735   1.950   4.211
 5288SOL    HW216752   2.603   1.883   4.240
 5289SOL     OW16753   2.050   2.826   5.007
 5289SOL    HW116754   2.136   2.789   4.990
 5289SOL    HW216755   1.991   2.780   4.947
 5290SOL     OW16756   3.386   2.864   3.926
 5290SOL    HW116757   3.318   2.806   3.959
 5290SOL    HW216758   3.430   2.897   4.005
 5291SOL     OW16759   3.094   3.671   5.354
 5291SOL    HW116760   3.062   3.732   5.287
 5291SOL    HW216761   3.090   3.585   5.312
 5292SOL     OW16762   3.326   3.281   4.668
 5292SOL    HW116763   3.262   3.296   4.737
 5292SOL    HW216764   3.315   3.189   4.644
 5293SOL     OW16765   3.502   3.612   4.304
 5293SOL    HW116766   3.495   3.575   4.216
 5293SOL    HW216767   3.490   3.537   4.363
 5294SOL     OW16768   2.474   2.606   4.003
 5294SOL    HW116769   2.472   2.685   3.950
 5294SOL    HW216770   2.408   2.622   4.071
 5295SOL     OW16771   3.139   2.233   4.660
 5295SOL    HW116772   3.051   2.196   4.667
 5295SOL    HW216773   3.193   2.178   4.716
 5296SOL     OW16774   3.433   3.541   4.034
 5296SOL    HW116775   3.526   3.561   4.029
 5296SOL    HW216776   3.407   3.523   3.943
 5297SOL     OW16777   2.656   2.479   5.171
 5297SOL    HW116778   2.631   2.454   5.260
 5297SOL    HW216779   2.614   2.413   5.115
 5298SOL     OW16780   3.257   2.335   5.399
 5298SOL    HW116781   3.262   2.381   5.484
 5298SOL    HW216782   3.311   2.257   5.411
 5299SOL     OW16783   2.811   2.746   5.311
 5299SOL    HW116784   2.867   2.680   5.271
 5299SOL    HW216785   2.763   2.785   5.237
 5300SOL     OW16786   2.861   2.275   4.957
 5300SOL    HW116787   2.775   2.292   4.995
 5300SOL    HW216788   2.842   2.230   4.874
 5301SOL     OW16789   2.918   2.562   4.148
 5301SOL    HW116790   2.938   2.556   4.241
 5301SOL    HW216791   2.834   2.517   4.138
 5302SOL     OW16792   1.951   2.684   4.505
 5302SOL    HW116793   2.033   2.687   4.553
 5302SOL    HW216794   1.902   2.759   4.537
 5303SOL     OW16795   1.974   3.724   5.301
 5303SOL    HW116796   1.985   3.704   5.394
 5303SOL    HW216797   1.884   3.699   5.282
 5304SOL     OW16798   2.749   2.217   3.927
 5304SOL    HW116799   2.799   2.263   3.860
 5304SOL    HW216800   2.704   2.147   3.879
 5305SOL     OW16801   3.568   2.432   5.556
 5305SOL    HW116802   3.532   2.506   5.506
 5305SOL    HW216803   3.593   2.368   5.489
 5306SOL     OW16804   3.241   3.003   4.263
 5306SOL    HW116805   3.320   2.991   4.212
 5306SOL    HW216806   3.189   3.066   4.212
 5307SOL     OW16807   2.452   2.063   4.631
 5307SOL    HW116808   2.358   2.070   4.651
 5307SOL    HW216809   2.474   2.147   4.592
 5308SOL     OW16810   2.860   3.308   4.191
 5308SOL    HW116811   2.829   3.384   4.142
 5308SOL    HW216812   2.836   3.327   4.282
 5309SOL     OW16813   2.213   3.678   4.558
 5309SOL    HW116814   2.263   3.598   4.577
 5309SOL    HW216815   2.270   3.749   4.585
 5310SOL     OW16816   3.671   2.924   4.595
 5310SOL    HW116817   3.620   2.893   4.520
 5310SOL    HW216818   3.608   2.926   4.667
 5311SOL     OW16819   3.087   3.401   5.237
 5311SOL    HW116820   3.076   3.329   5.299
 5311SOL    HW216821   3.017   3.390   5.173
 5312SOL     OW16822   2.174   2.818   3.981
 5312SOL    HW116823   2.254   2.840   3.933
 5312SOL    HW216824   2.146   2.735   3.944
 5313SOL     OW16825   3.344   2.616   4.444
 5313SOL    HW116826   3.342   2.574   4.531
 5313SOL    HW216827   3.423   2.670   4.446
 5314SOL     OW16828   2.337   3.132   5.460
 5314SOL    HW116829   2.310   3.137   5.369
 5314SOL    HW216830   2.254   3.126   5.509
 5315SOL     OW16831   2.978   3.646   3.941
 5315SOL    HW116832   2.911   3.602   3.994
 5315SOL    HW216833   3.009   3.578   3.881
 5316SOL     OW16834   3.484   3.251   3.814
 5316SOL    HW116835   3.441   3.335   3.796
 5316SOL    HW216836   3.418   3.185   3.792
 5317SOL     OW16837   2.325   3.603   4.049
 5317SOL    HW116838   2.366   3.664   4.110
 5317SOL    HW216839   2.397   3.575   3.992
 5318SOL     OW16840   3.262   1.969   4.169
 5318SOL    HW116841   3.257   1.943   4.077
 5318SOL    HW216842   3.356   1.976   4.187
 5319SOL     OW16843   2.123   3.651   4.938
 5319SOL    HW116844   2.168   3.577   4.978
 5319SOL    HW216845   2.102   3.622   4.849
 5320SOL     OW16846   2.802   3.567   4.620
 5320SOL    HW116847   2.881   3.517   4.644
 5320SOL    HW216848   2.761   3.515   4.551
 5321SOL     OW16849   2.258   2.543   4.196
 5321SOL    HW116850   2.265   2.461   4.148
 5321SOL    HW216851   2.167   2.546   4.225
 5322SOL     OW16852   3.387   2.086   5.447
 5322SOL    HW116853   3.398   2.105   5.540
 5322SOL    HW216854   3.320   2.018   5.445
 5323SOL     OW16855   2.548   1.984   3.820
 5323SOL    HW116856   2.588   1.904   3.856
 5323SOL    HW216857   2.475   1.951   3.766
 5324SOL     OW16858   2.621   2.138   5.472
 5324SOL    HW116859   2.701   2.085   5.466
 5324SOL    HW216860   2.605   2.148   5.565
 5325SOL     OW16861   2.737   3.383   4.920
 5325SOL    HW116862   2.719   3.345   4.834
 5325SOL    HW216863   2.807   3.328   4.956
 5326SOL     OW16864   3.201   2.453   5.157
 5326SOL    HW116865   3.232   2.421   5.242
 5326SOL    HW216866   3.238   2.540   5.149
 5327SOL     OW16867   2.681   3.248   4.673
 5327SOL    HW116868   2.766   3.238   4.631
 5327SOL    HW216869   2.619   3.257   4.601
 5328SOL     OW16870   2.790   2.369   4.622
 5328SOL    HW116871   2.765   2.360   4.530
 5328SOL    HW216872   2.823   2.282   4.646
 5329SOL     OW16873   2.429   1.916   4.235
 5329SOL    HW116874   2.375   1.892   4.310
 5329SOL    HW216875   2.406   2.007   4.217
 5330SOL     OW16876   3.289   3.065   3.761
 5330SOL    HW116877   3.319   2.990   3.813
 5330SOL    HW216878   3.203   3.086   3.798
 5331SOL     OW16879   2.809   2.113   4.178
 5331SOL    HW116880   2.784   2.148   4.092
 5331SOL    HW216881   2.903   2.128   4.184
 5332SOL     OW16882   2.945   2.550   5.180
 5332SOL    HW116883   2.881   2.478   5.188
 5332SOL    HW216884   3.029   2.505   5.175
 5333SOL     OW16885   3.078   3.436   4.519
 5333SOL    HW116886   3.093   3.501   4.451
 5333SOL    HW216887   3.150   3.448   4.581
 5334SOL     OW16888   2.337   3.018   4.446
 5334SOL    HW116889   2.270   3.001   4.512
 5334SOL    HW216890   2.292   3.006   4.363
 5335SOL     OW16891   3.123   3.651   4.336
 5335SOL    HW116892   3.173   3.715   4.286
 5335SOL    HW216893   3.047   3.699   4.369
 5336SOL     OW16894   2.888   2.391   3.749
 5336SOL    HW116895   2.844   2.474   3.732
 5336SOL    HW216896   2.950   2.411   3.820
 5337SOL     OW16897   1.943   2.431   5.101
 5337SOL    HW116898   2.037   2.421   5.086
 5337SOL    HW216899   1.935   2.504   5.162
 5338SOL     OW16900   2.725   2.317   4.359
 5338SOL    HW116901   2.691   2.375   4.291
 5338SOL    HW216902   2.753   2.239   4.312
 5339SOL     OW16903   2.877   1.917   4.470
 5339SOL    HW116904   2.821   1.907   4.393
 5339SOL    HW216905   2.854   1.842   4.526
 5340SOL     OW16906   3.304   3.021   4.581
 5340SOL    HW116907   3.232   2.958   4.581
 5340SOL    HW216908   3.329   3.028   4.489
 5341SOL     OW16909   3.327   2.474   4.688
 5341SOL    HW116910   3.269   2.398   4.691
 5341SOL    HW216911   3.384   2.465   4.764
 5342SOL     OW16912   3.724   2.675   4.099
 5342SOL    HW116913   3.766   2.619   4.164
 5342SOL    HW216914   3.688   2.613   4.035
 5343SOL     OW16915   2.352   3.283   3.874
 5343SOL    HW116916   2.276   3.255   3.925
 5343SOL    HW216917   2.346   3.232   3.793
 5344SOL     OW16918   3.533   3.129   4.363
 5344SOL    HW116919   3.628   3.129   4.374
 5344SOL    HW216920   3.506   3.218   4.385
 5345SOL     OW16921   3.256   2.435   3.795
 5345SOL    HW116922   3.193   2.413   3.864
 5345SOL    HW216923   3.340   2.404   3.829
 5346SOL     OW16924   3.610   3.093   5.279
 5346SOL    HW116925   3.698   3.059   5.262
 5346SOL    HW216926   3.624   3.183   5.308
 5347SOL     OW16927   2.914   3.213   5.054
 5347SOL    HW116928   2.839   3.182   5.104
 5347SOL    HW216929   2.990   3.172   5.097
 5348SOL     OW16930   3.470   3.493   5.384
 5348SOL    HW116931   3.459   3.528   5.296
 5348SOL    HW216932   3.548   3.438   5.379
 5349SOL     OW16933   2.999   3.075   4.825
 5349SOL    HW116934   2.939   3.113   4.889
 5349SOL    HW216935   2.970   3.111   4.741
 5350SOL     OW16936   3.485   2.954   4.797
 5350SOL    HW116937   3.474   3.017   4.868
 5350SOL    HW216938   3.412   2.972   4.738
 5351SOL     OW16939   2.794   1.947   5.114
 5351SOL    HW116940   2.815   1.930   5.022
 5351SOL    HW216941   2.873   1.988   5.149
 5352SOL     OW16942   2.847   2.977   5.446
 5352SOL    HW116943   2.756   2.994   5.471
 5352SOL    HW216944   2.843   2.898   5.393
 5353SOL     OW16945   2.572   2.925   4.095
 5353SOL    HW116946   2.558   2.903   4.187
 5353SOL    HW216947   2.648   2.871   4.070
 5354SOL     OW16948   2.285   2.687   4.980
 5354SOL    HW116949   2.354   2.698   5.046
 5354SOL    HW216950   2.250   2.599   4.997
 5355SOL     OW16951   3.128   2.237   5.007
 5355SOL    HW116952   3.160   2.315   5.052
 5355SOL    HW216953   3.038   2.258   4.983
 5356SOL     OW16954   1.938   3.435   5.081
 5356SOL    HW116955   1.910   3.509   5.027
 5356SOL    HW216956   2.034   3.435   5.074
 5357SOL     OW16957   2.195   2.983   4.211
 5357SOL    HW116958   2.196   3.058   4.151
 5357SOL    HW216959   2.193   2.906   4.154
 5358SOL     OW16960   2.434   2.378   4.564
 5358SOL    HW116961   2.442   2.443   4.494
 5358SOL    HW216962   2.497   2.406   4.630
 5359SOL     OW16963   3.108   3.213   4.115
 5359SOL    HW116964   3.164   3.283   4.148
 5359SOL    HW216965   3.021   3.234   4.148
 5360SOL     OW16966   3.154   3.324   4.873
 5360SOL    HW116967   3.210   3.330   4.951
 5360SOL    HW216968   3.100   3.246   4.889
 5361SOL     OW16969   3.434   2.478   4.212
 5361SOL    HW116970   3.386   2.527   4.279
 5361SOL    HW216971   3.475   2.545   4.157
 5362SOL     OW16972   2.207   3.394   5.030
 5362SOL    HW116973   2.197   3.347   4.948
 5362SOL    HW216974   2.302   3.405   5.040
 5363SOL     OW16975   2.291   2.602   5.337
 5363SOL    HW116976   2.350   2.645   5.274
 5363SOL    HW216977   2.345   2.533   5.377
 5364SOL     OW16978   3.472   2.642   5.413
 5364SOL    HW116979   3.386   2.684   5.408
 5364SOL    HW216980   3.524   2.685   5.345
 5365SOL     OW16981   2.858   1.996   5.469
 5365SOL    HW116982   2.917   2.070   5.452
 5365SOL    HW216983   2.910   1.919   5.447
 5366SOL     OW16984   2.359   1.880   5.499
 5366SOL    HW116985   2.307   1.835   5.433
 5366SOL    HW216986   2.298   1.944   5.538
 5367SOL     OW16987   2.451   2.736   4.760
 5367SOL    HW116988   2.488   2.824   4.762
 5367SOL    HW216989   2.393   2.731   4.836
 5368SOL     OW16990   3.205   2.721   4.741
 5368SOL    HW116991   3.119   2.703   4.703
 5368SOL    HW216992   3.253   2.639   4.731
 5369SOL     OW16993   3.059   2.388   3.984
 5369SOL    HW116994   3.068   2.310   4.038
 5369SOL    HW216995   3.018   2.453   4.041
 5370SOL     OW16996   1.906   3.175   4.998
 5370SOL    HW116997   1.940   3.120   5.068
 5370SOL    HW216998   1.913   3.264   5.031
 5371SOL     OW16999   2.578   2.483   4.773
 5371SOL    HW117000   2.660   2.476   4.725
 5371SOL    HW217001   2.551   2.575   4.760
 5372SOL     OW17002   3.592   2.821   5.595
 5372SOL    HW117003   3.554   2.752   5.540
 5372SOL    HW217004   3.525   2.838   5.662
 5373SOL     OW17005   3.486   2.244   4.081
 5373SOL    HW117006   3.511   2.176   4.144
 5373SOL    HW217007   3.460   2.319   4.135
 5374SOL     OW17008   2.889   2.619   4.681
 5374SOL    HW117009   2.879   2.635   4.774
 5374SOL    HW217010   2.864   2.527   4.669
 5375SOL     OW17011   2.849   3.432   5.449
 5375SOL    HW117012   2.827   3.470   5.364
 5375SOL    HW217013   2.889   3.347   5.427
 5376SOL     OW17014   3.701   3.353   5.320
 5376SOL    HW117015   3.727   3.385   5.234
 5376SOL    HW217016   3.780   3.359   5.373
 5377SOL     OW17017   2.211   2.788   5.527
 5377SOL    HW117018   2.287   2.807   5.582
 5377SOL    HW217019   2.240   2.718   5.469
 5378SOL     OW17020   3.389   2.133   3.849
 5378SOL    HW117021   3.326   2.067   3.878
 5378SOL    HW217022   3.423   2.171   3.930
 5379SOL     OW17023   3.147   2.685   3.751
 5379SOL    HW117024   3.190   2.599   3.756
 5379SOL    HW217025   3.181   2.724   3.670
 5380SOL     OW17026   2.931   3.203   4.582
 5380SOL    HW117027   2.938   3.131   4.519
 5380SOL    HW217028   2.988   3.271   4.546
 5381SOL     OW17029   2.175   2.691   4.668
 5381SOL    HW117030   2.267   2.718   4.663
 5381SOL    HW217031   2.178   2.599   4.691
 5382SOL     OW17032   2.217   2.427   4.716
 5382SOL    HW117033   2.173   2.346   4.691
 5382SOL    HW217034   2.298   2.427   4.665
 5383SOL     OW17035   3.000   2.234   5.406
 5383SOL    HW117036   2.952   2.289   5.468
 5383SOL    HW217037   3.087   2.274   5.401
 5384SOL     OW17038   3.030   2.058   5.195
 5384SOL    HW117039   3.015   2.120   5.267
 5384SOL    HW217040   3.073   2.110   5.127
 5385SOL     OW17041   1.870   3.175   3.917
 5385SOL    HW117042   1.782   3.192   3.883
 5385SOL    HW217043   1.865   3.086   3.952
 5386SOL     OW17044   1.963   3.631   4.665
 5386SOL    HW117045   1.930   3.555   4.617
 5386SOL    HW217046   2.045   3.653   4.620
 5387SOL     OW17047   2.350   3.439   4.627
 5387SOL    HW117048   2.418   3.502   4.651
 5387SOL    HW217049   2.395   3.377   4.569
 5388SOL     OW17050   2.831   2.645   4.946
 5388SOL    HW117051   2.895   2.629   5.015
 5388SOL    HW217052   2.749   2.611   4.981
 5389SOL     OW17053   1.896   2.405   4.835
 5389SOL    HW117054   1.969   2.443   4.787
 5389SOL    HW217055   1.918   2.416   4.927
 5390SOL     OW17056   2.009   2.423   5.432
 5390SOL    HW117057   2.077   2.392   5.372
 5390SOL    HW217058   1.974   2.501   5.391
 5391SOL     OW17059   3.244   2.793   5.381
 5391SOL    HW117060   3.265   2.887   5.377
 5391SOL    HW217061   3.239   2.766   5.289
 5392SOL     OW17062   2.680   2.434   4.099
 5392SOL    HW117063   2.686   2.362   4.037
 5392SOL    HW217064   2.611   2.490   4.065
 5393SOL     OW17065   3.500   2.463   4.901
 5393SOL    HW117066   3.488   2.402   4.975
 5393SOL    HW217067   3.587   2.444   4.868
 5394SOL     OW17068   2.099   3.408   5.443
 5394SOL    HW117069   2.079   3.474   5.509
 5394SOL    HW217070   2.108   3.327   5.493
 5395SOL     OW17071   2.552   2.315   4.985
 5395SOL    HW117072   2.525   2.229   4.953
 5395SOL    HW217073   2.552   2.370   4.906
 5396SOL     OW17074   2.784   3.531   5.197
 5396SOL    HW117075   2.758   3.489   5.115
 5396SOL    HW217076   2.776   3.624   5.179
 5397SOL     OW17077   2.334   2.383   3.951
 5397SOL    HW117078   2.397   2.455   3.954
 5397SOL    HW217079   2.255   2.421   3.912
 5398SOL     OW17080   2.003   3.010   5.200
 5398SOL    HW117081   2.004   2.965   5.284
 5398SOL    HW217082   2.020   2.942   5.135
 5399SOL     OW17083   3.178   2.903   4.942
 5399SOL    HW117084   3.199   2.840   4.873
 5399SOL    HW217085   3.114   2.962   4.902
 5400SOL     OW17086   3.177   2.717   4.027
 5400SOL    HW117087   3.103   2.684   4.079
 5400SOL    HW217088   3.150   2.703   3.936
 5401SOL     OW17089   3.646   3.595   4.886
 5401SOL    HW117090   3.703   3.622   4.814
 5401SOL    HW217091   3.614   3.509   4.860
 5402SOL     OW17092   3.107   3.593   4.827
 5402SOL    HW117093   3.191   3.617   4.786
 5402SOL    HW217094   3.116   3.501   4.848
 5403SOL     OW17095   1.950   3.126   4.735
 5403SOL    HW117096   1.931   3.142   4.827
 5403SOL    HW217097   1.877   3.072   4.705
 5404SOL     OW17098   2.544   3.532   5.466
 5404SOL    HW117099   2.484   3.606   5.469
 5404SOL    HW217100   2.606   3.553   5.397
 5405SOL     OW17101   3.567   2.020   4.232
 5405SOL    HW117102   3.635   2.007   4.166
 5405SOL    HW217103   3.556   1.934   4.272
 5406SOL     OW17104   3.253   3.430   4.217
 5406SOL    HW117105   3.310   3.465   4.148
 5406SOL    HW217106   3.203   3.505   4.248
 5407SOL     OW17107   2.007   3.656   5.559
 5407SOL    HW117108   1.954   3.592   5.607
 5407SOL    HW217109   2.053   3.705   5.627
 5408SOL     OW17110   3.139   2.791   4.395
 5408SOL    HW117111   3.213   2.732   4.406
 5408SOL    HW217112   3.173   2.862   4.341
 5409SOL     OW17113   2.663   3.140   5.146
 5409SOL    HW117114   2.637   3.182   5.228
 5409SOL    HW217115   2.591   3.159   5.085
 5410SOL     OW17116   2.535   3.483   3.885
 5410SOL    HW117117   2.546   3.503   3.792
 5410SOL    HW217118   2.475   3.408   3.886
 5411SOL     OW17119   3.478   3.590   5.116
 5411SOL    HW117120   3.535   3.591   5.039
 5411SOL    HW217121   3.463   3.682   5.136
 5412SOL     OW17122   3.702   2.042   4.688
 5412SOL    HW117123   3.733   1.955   4.665
 5412SOL    HW217124   3.615   2.047   4.648
 5413SOL     OW17125   3.069   3.460   3.762
 5413SOL    HW117126   3.060   3.369   3.787
 5413SOL    HW217127   3.007   3.473   3.691
 5414SOL     OW17128   2.687   2.870   5.100
 5414SOL    HW117129   2.729   2.865   5.014
 5414SOL    HW217130   2.681   2.964   5.118
 5415SOL     OW17131   2.780   2.774   4.017
 5415SOL    HW117132   2.839   2.807   3.949
 5415SOL    HW217133   2.831   2.706   4.062
 5416SOL     OW17134   3.346   3.502   3.769
 5416SOL    HW117135   3.253   3.486   3.752
 5416SOL    HW217136   3.386   3.506   3.682
 5417SOL     OW17137   2.231   3.169   5.215
 5417SOL    HW117138   2.217   3.246   5.160
 5417SOL    HW217139   2.153   3.116   5.202
 5418SOL     OW17140   3.458   3.142   4.999
 5418SOL    HW117141   3.526   3.129   5.064
 5418SOL    HW217142   3.401   3.210   5.035
 5419SOL     OW17143   2.926   2.974   4.437
 5419SOL    HW117144   2.853   2.923   4.473
 5419SOL    HW217145   2.990   2.908   4.411
 5420SOL     OW17146   2.886   2.105   4.687
 5420SOL    HW117147   2.882   2.058   4.604
 5420SOL    HW217148   2.883   2.036   4.754
 5421SOL     OW17149   2.469   3.354   4.203
 5421SOL    HW117150   2.518   3.302   4.139
 5421SOL    HW217151   2.397   3.391   4.152
 5422SOL     OW17152   3.591   2.248   5.102
 5422SOL    HW117153   3.663   2.311   5.098
 5422SOL    HW217154   3.617   2.177   5.043
 5423SOL     OW17155   2.125   3.202   4.017
 5423SOL    HW117156   2.033   3.198   3.992
 5423SOL    HW217157   2.125   3.244   4.103
 5424SOL     OW17158   1.975   2.904   5.453
 5424SOL    HW117159   1.901   2.870   5.503
 5424SOL    HW217160   2.051   2.859   5.489
 5425SOL     OW17161   2.553   2.036   5.214
 5425SOL    HW117162   2.641   2.014   5.184
 5425SOL    HW217163   2.566   2.077   5.300
 5426SOL     OW17164   1.880   2.254   3.767
 5426SOL    HW117165   1.819   2.223   3.700
 5426SOL    HW217166   1.928   2.325   3.724
 5427SOL     OW17167   3.284   2.719   5.120
 5427SOL    HW117168   3.233   2.780   5.067
 5427SOL    HW217169   3.372   2.722   5.083
 5428SOL     OW17170   3.039   3.194   3.843
 5428SOL    HW117171   2.948   3.165   3.843
 5428SOL    HW217172   3.065   3.194   3.935
 5429SOL     OW17173   2.486   2.693   5.160
 5429SOL    HW117174   2.542   2.769   5.147
 5429SOL    HW217175   2.547   2.619   5.168
 5430SOL     OW17176   3.350   3.647   4.708
 5430SOL    HW117177   3.373   3.709   4.638
 5430SOL    HW217178   3.433   3.608   4.734
 5431SOL     OW17179   2.571   2.422   5.422
 5431SOL    HW117180   2.621   2.476   5.484
 5431SOL    HW217181   2.587   2.332   5.450
 5432SOL     OW17182   3.335   3.054   5.350
 5432SOL    HW117183   3.326   3.071   5.444
 5432SOL    HW217184   3.428   3.070   5.332
 5433SOL     OW17185   2.229   3.608   5.294
 5433SOL    HW117186   2.146   3.652   5.275
 5433SOL    HW217187   2.203   3.525   5.333
 5434SOL     OW17188   3.522   2.741   4.982
 5434SOL    HW117189   3.522   2.655   4.939
 5434SOL    HW217190   3.515   2.804   4.911
 5435SOL     OW17191   3.080   2.182   4.180
 5435SOL    HW117192   3.141   2.108   4.175
 5435SOL    HW217193   3.109   2.232   4.257
 5436SOL     OW17194   2.445   2.592   4.394
 5436SOL    HW117195   2.484   2.678   4.379
 5436SOL    HW217196   2.381   2.582   4.324
 5437SOL     OW17197   3.614   2.228   5.375
 5437SOL    HW117198   3.600   2.242   5.282
 5437SOL    HW217199   3.542   2.170   5.402
 5438SOL     OW17200   3.621   2.787   5.235
 5438SOL    HW117201   3.609   2.880   5.255
 5438SOL    HW217202   3.593   2.778   5.144
 5439SOL     OW17203   2.728   3.228   3.772
 5439SOL    HW117204   2.687   3.254   3.854
 5439SOL    HW217205   2.740   3.310   3.724
 5440SOL     OW17206   2.524   3.646   4.655
 5440SOL    HW117207   2.504   3.738   4.639
 5440SOL    HW217208   2.619   3.641   4.653
 5441SOL     OW17209   2.732   2.834   4.577
 5441SOL    HW117210   2.781   2.761   4.614
 5441SOL    HW217211   2.692   2.876   4.653
 5442SOL     OW17212   2.938   2.849   3.812
 5442SOL    HW117213   2.918   2.902   3.734
 5442SOL    HW217214   3.012   2.795   3.785
 5443SOL     OW17215   3.706   3.415   4.563
 5443SOL    HW117216   3.626   3.397   4.514
 5443SOL    HW217217   3.712   3.343   4.626
 5444SOL     OW17218   2.091   3.158   5.574
 5444SOL    HW117219   2.032   3.091   5.539
 5444SOL    HW217220   2.063   3.168   5.665
 5445SOL     OW17221   1.954   3.088   4.389
 5445SOL    HW117222   1.971   3.046   4.474
 5445SOL    HW217223   2.019   3.051   4.330
 5446SOL     OW17224   2.550   3.273   5.356
 5446SOL    HW117225   2.471   3.230   5.389
 5446SOL    HW217226   2.548   3.361   5.394
 5447SOL     OW17227   3.670   2.035   4.959
 5447SOL    HW117228   3.662   1.940   4.960
 5447SOL    HW217229   3.688   2.057   4.867
 5448SOL     OW17230   3.552   3.350   4.818
 5448SOL    HW117231   3.476   3.328   4.765
 5448SOL    HW217232   3.559   3.279   4.881
 5449SOL     OW17233   2.204   2.425   5.012
 5449SOL    HW117234   2.247   2.353   5.058
 5449SOL    HW217235   2.231   2.414   4.921
 5450SOL     OW17236   2.694   3.441   4.400
 5450SOL    HW117237   2.667   3.498   4.328
 5450SOL    HW217238   2.621   3.379   4.409
 5451SOL     OW17239   3.290   2.093   4.839
 5451SOL    HW117240   3.305   2.006   4.878
 5451SOL    HW217241   3.241   2.141   4.906
 5452SOL     OW17242   2.874   1.879   4.855
 5452SOL    HW117243   2.817   1.814   4.814
 5452SOL    HW217244   2.960   1.838   4.856
 5453SOL     OW17245   2.637   3.195   4.048
 5453SOL    HW117246   2.610   3.103   4.056
 5453SOL    HW217247   2.719   3.201   4.097
 5454SOL     OW17248   2.482   3.415   5.011
 5454SOL    HW117249   2.481   3.496   5.061
 5454SOL    HW217250   2.571   3.410   4.975
 5455SOL     OW17251   3.224   1.912   3.899
 5455SOL    HW117252   3.258   1.840   3.846
 5455SOL    HW217253   3.134   1.886   3.919
 5456SOL     OW17254   3.157   2.327   4.401
 5456SOL    HW117255   3.105   2.408   4.405
 5456SOL    HW217256   3.152   2.292   4.490
 5457SOL     OW17257   3.441   2.054   4.606
 5457SOL    HW117258   3.389   2.081   4.682
 5457SOL    HW217259   3.443   2.130   4.549
 5458SOL     OW17260   1.904   2.924   4.034
 5458SOL    HW117261   1.997   2.916   4.014
 5458SOL    HW217262   1.876   2.835   4.058
 5459SOL     OW17263   2.752   3.529   4.063
 5459SOL    HW117264   2.678   3.510   4.004
 5459SOL    HW217265   2.721   3.601   4.117
 5460SOL     OW17266   2.109   2.486   5.676
 5460SOL    HW117267   2.044   2.440   5.728
 5460SOL    HW217268   2.082   2.472   5.585
 5461SOL     OW17269   1.822   2.225   6.192
 5461SOL    HW117270   1.826   2.319   6.172
 5461SOL    HW217271   1.881   2.185   6.129
 5462SOL     OW17272   2.443   3.158   6.767
 5462SOL    HW117273   2.357   3.157   6.726
 5462SOL    HW217274   2.454   3.248   6.799
 5463SOL     OW17275   3.432   3.375   6.296
 5463SOL    HW117276   3.389   3.350   6.378
 5463SOL    HW217277   3.361   3.378   6.232
 5464SOL     OW17278   2.990   2.566   6.280
 5464SOL    HW117279   3.042   2.645   6.263
 5464SOL    HW217280   2.957   2.578   6.368
 5465SOL     OW17281   3.631   2.464   5.816
 5465SOL    HW117282   3.610   2.457   5.722
 5465SOL    HW217283   3.598   2.382   5.854
 5466SOL     OW17284   2.665   3.022   6.657
 5466SOL    HW117285   2.585   3.038   6.706
 5466SOL    HW217286   2.681   3.104   6.610
 5467SOL     OW17287   2.562   2.871   6.223
 5467SOL    HW117288   2.620   2.857   6.297
 5467SOL    HW217289   2.485   2.915   6.260
 5468SOL     OW17290   2.600   3.029   7.364
 5468SOL    HW117291   2.641   3.108   7.401
 5468SOL    HW217292   2.513   3.057   7.337
 5469SOL     OW17293   2.198   3.277   6.653
 5469SOL    HW117294   2.120   3.241   6.611
 5469SOL    HW217295   2.239   3.331   6.585
 5470SOL     OW17296   3.318   3.364   6.949
 5470SOL    HW117297   3.373   3.442   6.959
 5470SOL    HW217298   3.249   3.374   7.014
 5471SOL     OW17299   3.468   2.303   6.335
 5471SOL    HW117300   3.407   2.326   6.265
 5471SOL    HW217301   3.472   2.382   6.389
 5472SOL     OW17302   2.087   3.575   6.066
 5472SOL    HW117303   2.112   3.636   6.136
 5472SOL    HW217304   2.160   3.578   6.005
 5473SOL     OW17305   2.999   3.203   7.282
 5473SOL    HW117306   3.039   3.195   7.369
 5473SOL    HW217307   2.953   3.120   7.269
 5474SOL     OW17308   2.090   3.303   6.122
 5474SOL    HW117309   2.078   3.398   6.122
 5474SOL    HW217310   2.032   3.271   6.191
 5475SOL     OW17311   2.122   2.968   6.459
 5475SOL    HW117312   2.107   2.875   6.476
 5475SOL    HW217313   2.075   3.013   6.529
 5476SOL     OW17314   2.460   3.646   7.013
 5476SOL    HW117315   2.380   3.633   7.064
 5476SOL    HW217316   2.489   3.734   7.037
 5477SOL     OW17317   2.436   2.863   5.712
 5477SOL    HW117318   2.491   2.907   5.647
 5477SOL    HW217319   2.482   2.875   5.795
 5478SOL     OW17320   3.457   1.990   7.049
 5478SOL    HW117321   3.483   2.070   7.005
 5478SOL    HW217322   3.434   2.017   7.138
 5479SOL     OW17323   3.699   3.610   5.930
 5479SOL    HW117324   3.772   3.584   5.987
 5479SOL    HW217325   3.717   3.701   5.908
 5480SOL     OW17326   1.896   3.460   5.701
 5480SOL    HW117327   1.883   3.367   5.719
 5480SOL    HW217328   1.874   3.504   5.783
 5481SOL     OW17329   3.553   2.783   6.238
 5481SOL    HW117330   3.635   2.738   6.220
 5481SOL    HW217331   3.533   2.831   6.158
 5482SOL     OW17332   3.505   2.962   6.019
 5482SOL    HW117333   3.590   2.964   5.976
 5482SOL    HW217334   3.513   3.027   6.089
 5483SOL     OW17335   2.481   3.258   6.318
 5483SOL    HW117336   2.438   3.173   6.324
 5483SOL    HW217337   2.465   3.287   6.228
 5484SOL     OW17338   3.146   3.096   7.006
 5484SOL    HW117339   3.176   3.029   6.946
 5484SOL    HW217340   3.206   3.091   7.080
 5485SOL     OW17341   2.050   2.831   6.856
 5485SOL    HW117342   2.138   2.793   6.851
 5485SOL    HW217343   1.994   2.769   6.809
 5486SOL     OW17344   3.387   2.865   5.788
 5486SOL    HW117345   3.319   2.806   5.821
 5486SOL    HW217346   3.431   2.897   5.867
 5487SOL     OW17347   3.096   3.671   7.215
 5487SOL    HW117348   3.062   3.731   7.149
 5487SOL    HW217349   3.090   3.584   7.174
 5488SOL     OW17350   3.327   3.281   6.530
 5488SOL    HW117351   3.262   3.296   6.599
 5488SOL    HW217352   3.316   3.189   6.507
 5489SOL     OW17353   3.502   3.612   6.167
 5489SOL    HW117354   3.495   3.575   6.078
 5489SOL    HW217355   3.490   3.537   6.225
 5490SOL     OW17356   3.147   2.226   6.527
 5490SOL    HW117357   3.065   2.178   6.523
 5490SOL    HW217358   3.203   2.175   6.586
 5491SOL     OW17359   3.433   3.541   5.896
 5491SOL    HW117360   3.526   3.562   5.891
 5491SOL    HW217361   3.407   3.523   5.805
 5492SOL     OW17362   3.270   2.340   7.258
 5492SOL    HW117363   3.268   2.383   7.343
 5492SOL    HW217364   3.320   2.259   7.273
 5493SOL     OW17365   2.829   2.742   7.154
 5493SOL    HW117366   2.870   2.664   7.118
 5493SOL    HW217367   2.786   2.784   7.079
 5494SOL     OW17368   2.931   2.560   6.009
 5494SOL    HW117369   2.953   2.561   6.102
 5494SOL    HW217370   2.856   2.501   6.003
 5495SOL     OW17371   1.974   3.725   7.163
 5495SOL    HW117372   1.985   3.705   7.257
 5495SOL    HW217373   1.885   3.698   7.144
 5496SOL     OW17374   2.739   2.210   5.722
 5496SOL    HW117375   2.790   2.279   5.680
 5496SOL    HW217376   2.803   2.143   5.746
 5497SOL     OW17377   3.570   2.431   7.417
 5497SOL    HW117378   3.533   2.505   7.369
 5497SOL    HW217379   3.593   2.367   7.350
 5498SOL     OW17380   3.242   3.004   6.125
 5498SOL    HW117381   3.322   2.993   6.074
 5498SOL    HW217382   3.190   3.067   6.075
 5499SOL     OW17383   2.861   3.308   6.053
 5499SOL    HW117384   2.829   3.384   6.003
 5499SOL    HW217385   2.836   3.327   6.144
 5500SOL     OW17386   2.213   3.677   6.420
 5500SOL    HW117387   2.263   3.598   6.439
 5500SOL    HW217388   2.270   3.749   6.447
 5501SOL     OW17389   3.670   2.923   6.457
 5501SOL    HW117390   3.619   2.894   6.382
 5501SOL    HW217391   3.608   2.926   6.529
 5502SOL     OW17392   3.087   3.400   7.099
 5502SOL    HW117393   3.076   3.328   7.161
 5502SOL    HW217394   3.018   3.386   7.033
 5503SOL     OW17395   2.193   2.831   5.837
 5503SOL    HW117396   2.277   2.853   5.796
 5503SOL    HW217397   2.169   2.747   5.799
 5504SOL     OW17398   3.344   2.615   6.308
 5504SOL    HW117399   3.341   2.577   6.396
 5504SOL    HW217400   3.422   2.671   6.308
 5505SOL     OW17401   2.340   3.134   7.317
 5505SOL    HW117402   2.305   3.141   7.228
 5505SOL    HW217403   2.262   3.134   7.374
 5506SOL     OW17404   2.978   3.645   5.803
 5506SOL    HW117405   2.911   3.602   5.856
 5506SOL    HW217406   3.009   3.578   5.743
 5507SOL     OW17407   3.484   3.251   5.676
 5507SOL    HW117408   3.441   3.335   5.658
 5507SOL    HW217409   3.418   3.185   5.654
 5508SOL     OW17410   2.326   3.602   5.911
 5508SOL    HW117411   2.366   3.664   5.972
 5508SOL    HW217412   2.397   3.575   5.854
 5509SOL     OW17413   3.268   1.966   6.032
 5509SOL    HW117414   3.261   1.942   5.940
 5509SOL    HW217415   3.362   1.975   6.047
 5510SOL     OW17416   2.123   3.650   6.801
 5510SOL    HW117417   2.169   3.577   6.841
 5510SOL    HW217418   2.104   3.621   6.712
 5511SOL     OW17419   2.801   3.569   6.482
 5511SOL    HW117420   2.877   3.517   6.509
 5511SOL    HW217421   2.760   3.517   6.413
 5512SOL     OW17422   3.386   2.084   7.308
 5512SOL    HW117423   3.396   2.102   7.402
 5512SOL    HW217424   3.316   2.020   7.303
 5513SOL     OW17425   2.497   1.965   5.728
 5513SOL    HW117426   2.586   1.931   5.720
 5513SOL    HW217427   2.455   1.942   5.645
 5514SOL     OW17428   2.739   3.388   6.783
 5514SOL    HW117429   2.722   3.352   6.696
 5514SOL    HW217430   2.807   3.331   6.820
 5515SOL     OW17431   3.199   2.460   7.021
 5515SOL    HW117432   3.235   2.429   7.104
 5515SOL    HW217433   3.236   2.548   7.010
 5516SOL     OW17434   2.684   3.265   6.531
 5516SOL    HW117435   2.767   3.250   6.486
 5516SOL    HW217436   2.619   3.264   6.461
 5517SOL     OW17437   2.852   2.399   6.499
 5517SOL    HW117438   2.832   2.373   6.409
 5517SOL    HW217439   2.797   2.342   6.553
 5518SOL     OW17440   2.421   1.891   6.076
 5518SOL    HW117441   2.434   1.906   6.170
 5518SOL    HW217442   2.454   1.970   6.034
 5519SOL     OW17443   3.289   3.065   5.623
 5519SOL    HW117444   3.319   2.990   5.675
 5519SOL    HW217445   3.203   3.086   5.660
 5520SOL     OW17446   2.927   2.506   7.038
 5520SOL    HW117447   2.902   2.433   7.095
 5520SOL    HW217448   3.022   2.499   7.030
 5521SOL     OW17449   3.080   3.434   6.380
 5521SOL    HW117450   3.094   3.501   6.313
 5521SOL    HW217451   3.150   3.448   6.443
 5522SOL     OW17452   2.337   3.021   6.299
 5522SOL    HW117453   2.272   3.001   6.367
 5522SOL    HW217454   2.291   3.005   6.217
 5523SOL     OW17455   3.123   3.651   6.198
 5523SOL    HW117456   3.172   3.716   6.148
 5523SOL    HW217457   3.047   3.699   6.232
 5524SOL     OW17458   2.897   2.401   5.602
 5524SOL    HW117459   2.851   2.483   5.588
 5524SOL    HW217460   2.957   2.418   5.674
 5525SOL     OW17461   3.304   3.020   6.444
 5525SOL    HW117462   3.232   2.957   6.447
 5525SOL    HW217463   3.325   3.027   6.351
 5526SOL     OW17464   3.325   2.477   6.553
 5526SOL    HW117465   3.273   2.397   6.555
 5526SOL    HW217466   3.384   2.469   6.628
 5527SOL     OW17467   3.725   2.675   5.960
 5527SOL    HW117468   3.767   2.619   6.026
 5527SOL    HW217469   3.687   2.613   5.897
 5528SOL     OW17470   2.351   3.283   5.736
 5528SOL    HW117471   2.274   3.256   5.785
 5528SOL    HW217472   2.349   3.230   5.656
 5529SOL     OW17473   3.534   3.129   6.225
 5529SOL    HW117474   3.629   3.130   6.236
 5529SOL    HW217475   3.506   3.218   6.247
 5530SOL     OW17476   3.261   2.436   5.652
 5530SOL    HW117477   3.197   2.412   5.720
 5530SOL    HW217478   3.344   2.404   5.686
 5531SOL     OW17479   3.610   3.093   7.141
 5531SOL    HW117480   3.698   3.059   7.124
 5531SOL    HW217481   3.624   3.183   7.170
 5532SOL     OW17482   2.915   3.219   6.922
 5532SOL    HW117483   2.839   3.185   6.969
 5532SOL    HW217484   2.990   3.174   6.960
 5533SOL     OW17485   3.470   3.494   7.247
 5533SOL    HW117486   3.458   3.528   7.159
 5533SOL    HW217487   3.548   3.438   7.241
 5534SOL     OW17488   3.002   3.079   6.685
 5534SOL    HW117489   2.932   3.102   6.746
 5534SOL    HW217490   2.971   3.111   6.600
 5535SOL     OW17491   3.486   2.954   6.659
 5535SOL    HW117492   3.475   3.017   6.730
 5535SOL    HW217493   3.412   2.972   6.600
 5536SOL     OW17494   2.796   1.993   6.960
 5536SOL    HW117495   2.828   1.963   6.875
 5536SOL    HW217496   2.875   2.007   7.013
 5537SOL     OW17497   2.860   2.964   7.306
 5537SOL    HW117498   2.767   2.984   7.321
 5537SOL    HW217499   2.858   2.885   7.253
 5538SOL     OW17500   2.577   2.922   5.949
 5538SOL    HW117501   2.564   2.905   6.043
 5538SOL    HW217502   2.653   2.868   5.926
 5539SOL     OW17503   2.284   2.688   6.852
 5539SOL    HW117504   2.361   2.713   6.903
 5539SOL    HW217505   2.272   2.595   6.871
 5540SOL     OW17506   3.133   2.238   6.875
 5540SOL    HW117507   3.164   2.312   6.927
 5540SOL    HW217508   3.063   2.274   6.821
 5541SOL     OW17509   1.939   3.433   6.942
 5541SOL    HW117510   1.912   3.508   6.889
 5541SOL    HW217511   2.035   3.433   6.936
 5542SOL     OW17512   2.186   2.983   6.067
 5542SOL    HW117513   2.196   3.064   6.017
 5542SOL    HW217514   2.198   2.914   6.003
 5543SOL     OW17515   3.108   3.212   5.978
 5543SOL    HW117516   3.164   3.283   6.010
 5543SOL    HW217517   3.021   3.234   6.010
 5544SOL     OW17518   3.152   3.323   6.733
 5544SOL    HW117519   3.205   3.327   6.813
 5544SOL    HW217520   3.097   3.246   6.744
 5545SOL     OW17521   3.435   2.475   6.078
 5545SOL    HW117522   3.388   2.529   6.142
 5545SOL    HW217523   3.475   2.538   6.019
 5546SOL     OW17524   2.208   3.393   6.894
 5546SOL    HW117525   2.199   3.347   6.811
 5546SOL    HW217526   2.303   3.404   6.905
 5547SOL     OW17527   3.473   2.642   7.276
 5547SOL    HW117528   3.387   2.684   7.271
 5547SOL    HW217529   3.524   2.685   7.207
 5548SOL     OW17530   2.298   1.868   7.326
 5548SOL    HW117531   2.210   1.833   7.312
 5548SOL    HW217532   2.285   1.944   7.383
 5549SOL     OW17533   3.201   2.724   6.600
 5549SOL    HW117534   3.111   2.705   6.574
 5549SOL    HW217535   3.247   2.641   6.590
 5550SOL     OW17536   3.064   2.389   5.836
 5550SOL    HW117537   3.080   2.313   5.892
 5550SOL    HW217538   3.031   2.456   5.896
 5551SOL     OW17539   1.896   3.173   6.861
 5551SOL    HW117540   1.935   3.118   6.928
 5551SOL    HW217541   1.908   3.263   6.894
 5552SOL     OW17542   2.627   2.550   6.693
 5552SOL    HW117543   2.630   2.476   6.631
 5552SOL    HW217544   2.556   2.605   6.661
 5553SOL     OW17545   3.593   2.820   7.457
 5553SOL    HW117546   3.555   2.752   7.402
 5553SOL    HW217547   3.526   2.838   7.524
 5554SOL     OW17548   3.487   2.243   5.943
 5554SOL    HW117549   3.512   2.175   6.005
 5554SOL    HW217550   3.460   2.317   5.998
 5555SOL     OW17551   2.929   2.650   6.554
 5555SOL    HW117552   2.912   2.670   6.646
 5555SOL    HW217553   2.902   2.559   6.544
 5556SOL     OW17554   2.851   3.433   7.310
 5556SOL    HW117555   2.828   3.471   7.225
 5556SOL    HW217556   2.889   3.348   7.288
 5557SOL     OW17557   3.701   3.353   7.182
 5557SOL    HW117558   3.727   3.385   7.096
 5557SOL    HW217559   3.780   3.358   7.235
 5558SOL     OW17560   3.389   2.134   5.711
 5558SOL    HW117561   3.326   2.068   5.740
 5558SOL    HW217562   3.424   2.172   5.791
 5559SOL     OW17563   3.148   2.685   5.613
 5559SOL    HW117564   3.191   2.600   5.617
 5559SOL    HW217565   3.180   2.724   5.532
 5560SOL     OW17566   2.931   3.204   6.440
 5560SOL    HW117567   2.939   3.133   6.377
 5560SOL    HW217568   2.988   3.273   6.406
 5561SOL     OW17569   3.004   2.281   7.230
 5561SOL    HW117570   2.969   2.328   7.305
 5561SOL    HW217571   3.098   2.298   7.232
 5562SOL     OW17572   3.040   2.052   7.076
 5562SOL    HW117573   3.014   2.120   7.138
 5562SOL    HW217574   3.078   2.100   7.002
 5563SOL     OW17575   1.866   3.199   5.770
 5563SOL    HW117576   1.778   3.214   5.734
 5563SOL    HW217577   1.862   3.111   5.809
 5564SOL     OW17578   1.963   3.631   6.526
 5564SOL    HW117579   1.930   3.555   6.478
 5564SOL    HW217580   2.045   3.653   6.482
 5565SOL     OW17581   2.350   3.439   6.487
 5565SOL    HW117582   2.418   3.502   6.512
 5565SOL    HW217583   2.395   3.377   6.430
 5566SOL     OW17584   2.851   2.652   6.812
 5566SOL    HW117585   2.876   2.605   6.892
 5566SOL    HW217586   2.766   2.615   6.788
 5567SOL     OW17587   3.246   2.793   7.243
 5567SOL    HW117588   3.265   2.887   7.239
 5567SOL    HW217589   3.240   2.767   7.151
 5568SOL     OW17590   3.500   2.462   6.763
 5568SOL    HW117591   3.489   2.403   6.838
 5568SOL    HW217592   3.588   2.443   6.730
 5569SOL     OW17593   2.099   3.407   7.304
 5569SOL    HW117594   2.081   3.472   7.373
 5569SOL    HW217595   2.112   3.325   7.352
 5570SOL     OW17596   2.782   3.533   7.060
 5570SOL    HW117597   2.758   3.488   6.979
 5570SOL    HW217598   2.774   3.626   7.040
 5571SOL     OW17599   2.003   3.008   7.057
 5571SOL    HW117600   2.004   2.959   7.140
 5571SOL    HW217601   2.017   2.942   6.990
 5572SOL     OW17602   3.181   2.905   6.802
 5572SOL    HW117603   3.199   2.842   6.732
 5572SOL    HW217604   3.118   2.966   6.763
 5573SOL     OW17605   3.179   2.714   5.888
 5573SOL    HW117606   3.104   2.684   5.938
 5573SOL    HW217607   3.153   2.703   5.797
 5574SOL     OW17608   3.646   3.595   6.748
 5574SOL    HW117609   3.703   3.622   6.676
 5574SOL    HW217610   3.614   3.508   6.722
 5575SOL     OW17611   3.107   3.594   6.689
 5575SOL    HW117612   3.191   3.616   6.649
 5575SOL    HW217613   3.116   3.501   6.711
 5576SOL     OW17614   1.954   3.146   6.596
 5576SOL    HW117615   1.930   3.153   6.689
 5576SOL    HW217616   1.891   3.083   6.560
 5577SOL     OW17617   2.547   3.537   7.331
 5577SOL    HW117618   2.486   3.611   7.332
 5577SOL    HW217619   2.608   3.557   7.260
 5578SOL     OW17620   3.566   2.019   6.093
 5578SOL    HW117621   3.635   2.007   6.028
 5578SOL    HW217622   3.557   1.933   6.134
 5579SOL     OW17623   3.253   3.429   6.079
 5579SOL    HW117624   3.310   3.465   6.010
 5579SOL    HW217625   3.203   3.505   6.110
 5580SOL     OW17626   2.006   3.657   7.421
 5580SOL    HW117627   1.954   3.593   7.468
 5580SOL    HW217628   2.053   3.706   7.489
 5581SOL     OW17629   3.139   2.788   6.248
 5581SOL    HW117630   3.215   2.732   6.265
 5581SOL    HW217631   3.175   2.861   6.198
 5582SOL     OW17632   2.663   3.142   7.007
 5582SOL    HW117633   2.635   3.186   7.088
 5582SOL    HW217634   2.591   3.157   6.946
 5583SOL     OW17635   2.534   3.484   5.747
 5583SOL    HW117636   2.546   3.504   5.654
 5583SOL    HW217637   2.475   3.409   5.748
 5584SOL     OW17638   3.477   3.590   6.978
 5584SOL    HW117639   3.535   3.591   6.901
 5584SOL    HW217640   3.463   3.682   6.998
 5585SOL     OW17641   3.702   2.042   6.549
 5585SOL    HW117642   3.734   1.954   6.527
 5585SOL    HW217643   3.615   2.046   6.509
 5586SOL     OW17644   3.069   3.461   5.624
 5586SOL    HW117645   3.060   3.369   5.650
 5586SOL    HW217646   3.007   3.473   5.553
 5587SOL     OW17647   2.695   2.875   6.956
 5587SOL    HW117648   2.734   2.875   6.868
 5587SOL    HW217649   2.686   2.967   6.979
 5588SOL     OW17650   2.788   2.770   5.878
 5588SOL    HW117651   2.844   2.807   5.809
 5588SOL    HW217652   2.844   2.706   5.922
 5589SOL     OW17653   3.346   3.503   5.631
 5589SOL    HW117654   3.253   3.486   5.614
 5589SOL    HW217655   3.386   3.506   5.544
 5590SOL     OW17656   2.227   3.170   7.077
 5590SOL    HW117657   2.214   3.246   7.021
 5590SOL    HW217658   2.149   3.116   7.062
 5591SOL     OW17659   3.459   3.142   6.861
 5591SOL    HW117660   3.525   3.129   6.929
 5591SOL    HW217661   3.401   3.210   6.896
 5592SOL     OW17662   2.932   2.977   6.293
 5592SOL    HW117663   2.858   2.928   6.329
 5592SOL    HW217664   2.995   2.910   6.267
 5593SOL     OW17665   2.469   3.355   6.063
 5593SOL    HW117666   2.518   3.302   6.000
 5593SOL    HW217667   2.398   3.393   6.011
 5594SOL     OW17668   3.590   2.249   6.963
 5594SOL    HW117669   3.663   2.311   6.961
 5594SOL    HW217670   3.617   2.178   6.905
 5595SOL     OW17671   2.120   3.209   5.875
 5595SOL    HW117672   2.029   3.216   5.847
 5595SOL    HW217673   2.121   3.247   5.963
 5596SOL     OW17674   1.983   2.908   7.324
 5596SOL    HW117675   1.897   2.864   7.328
 5596SOL    HW217676   2.046   2.839   7.344
 5597SOL     OW17677   1.885   2.270   5.626
 5597SOL    HW117678   1.815   2.225   5.579
 5597SOL    HW217679   1.927   2.326   5.561
 5598SOL     OW17680   3.283   2.722   6.981
 5598SOL    HW117681   3.233   2.783   6.927
 5598SOL    HW217682   3.372   2.724   6.944
 5599SOL     OW17683   3.039   3.194   5.705
 5599SOL    HW117684   2.948   3.165   5.705
 5599SOL    HW217685   3.065   3.194   5.797
 5600SOL     OW17686   2.503   2.691   7.009
 5600SOL    HW117687   2.563   2.763   6.993
 5600SOL    HW217688   2.550   2.632   7.068
 5601SOL     OW17689   3.350   3.648   6.571
 5601SOL    HW117690   3.373   3.709   6.500
 5601SOL    HW217691   3.433   3.608   6.596
 5602SOL     OW17692   3.336   3.054   7.212
 5602SOL    HW117693   3.326   3.071   7.306
 5602SOL    HW217694   3.428   3.071   7.195
 5603SOL     OW17695   2.229   3.609   7.157
 5603SOL    HW117696   2.146   3.652   7.138
 5603SOL    HW217697   2.204   3.524   7.195
 5604SOL     OW17698   3.523   2.741   6.844
 5604SOL    HW117699   3.523   2.656   6.800
 5604SOL    HW217700   3.515   2.805   6.773
 5605SOL     OW17701   3.111   2.200   6.028
 5605SOL    HW117702   3.161   2.118   6.031
 5605SOL    HW217703   3.127   2.241   6.112
 5606SOL     OW17704   3.614   2.227   7.237
 5606SOL    HW117705   3.599   2.242   7.144
 5606SOL    HW217706   3.542   2.169   7.264
 5607SOL     OW17707   3.621   2.787   7.097
 5607SOL    HW117708   3.609   2.880   7.117
 5607SOL    HW217709   3.593   2.778   7.006
 5608SOL     OW17710   2.729   3.231   5.635
 5608SOL    HW117711   2.688   3.255   5.717
 5608SOL    HW217712   2.741   3.313   5.588
 5609SOL     OW17713   2.524   3.646   6.518
 5609SOL    HW117714   2.505   3.739   6.501
 5609SOL    HW217715   2.619   3.641   6.515
 5610SOL     OW17716   2.744   2.841   6.447
 5610SOL    HW117717   2.804   2.776   6.484
 5610SOL    HW217718   2.719   2.895   6.522
 5611SOL     OW17719   2.943   2.856   5.675
 5611SOL    HW117720   2.919   2.905   5.597
 5611SOL    HW217721   3.015   2.799   5.647
 5612SOL     OW17722   3.706   3.415   6.425
 5612SOL    HW117723   3.625   3.398   6.376
 5612SOL    HW217724   3.710   3.344   6.490
 5613SOL     OW17725   2.081   3.153   7.429
 5613SOL    HW117726   2.042   3.076   7.388
 5613SOL    HW217727   2.023   3.172   7.503
 5614SOL     OW17728   1.948   3.082   6.248
 5614SOL    HW117729   1.975   3.053   6.335
 5614SOL    HW217730   2.017   3.052   6.190
 5615SOL     OW17731   2.544   3.285   7.209
 5615SOL    HW117732   2.468   3.239   7.244
 5615SOL    HW217733   2.542   3.370   7.253
 5616SOL     OW17734   3.670   2.036   6.820
 5616SOL    HW117735   3.662   1.941   6.822
 5616SOL    HW217736   3.688   2.057   6.729
 5617SOL     OW17737   3.552   3.350   6.680
 5617SOL    HW117738   3.476   3.328   6.627
 5617SOL    HW217739   3.559   3.278   6.743
 5618SOL     OW17740   2.694   3.442   6.261
 5618SOL    HW117741   2.667   3.498   6.188
 5618SOL    HW217742   2.622   3.380   6.271
 5619SOL     OW17743   3.294   2.088   6.706
 5619SOL    HW117744   3.309   1.999   6.738
 5619SOL    HW217745   3.250   2.132   6.778
 5620SOL     OW17746   2.889   1.894   6.723
 5620SOL    HW117747   2.813   1.837   6.713
 5620SOL    HW217748   2.964   1.837   6.710
 5621SOL     OW17749   2.636   3.195   5.910
 5621SOL    HW117750   2.610   3.103   5.914
 5621SOL    HW217751   2.718   3.199   5.959
 5622SOL     OW17752   2.482   3.416   6.870
 5622SOL    HW117753   2.481   3.497   6.922
 5622SOL    HW217754   2.572   3.411   6.836
 5623SOL     OW17755   3.225   1.912   5.762
 5623SOL    HW117756   3.260   1.842   5.707
 5623SOL    HW217757   3.136   1.886   5.782
 5624SOL     OW17758   3.150   2.325   6.269
 5624SOL    HW117759   3.105   2.409   6.274
 5624SOL    HW217760   3.155   2.294   6.359
 5625SOL     OW17761   3.441   2.055   6.467
 5625SOL    HW117762   3.393   2.082   6.545
 5625SOL    HW217763   3.443   2.133   6.412
 5626SOL     OW17764   1.884   2.957   5.882
 5626SOL    HW117765   1.978   2.950   5.897
 5626SOL    HW217766   1.859   2.874   5.841
 5627SOL     OW17767   2.752   3.529   5.925
 5627SOL    HW117768   2.678   3.510   5.866
 5627SOL    HW217769   2.721   3.602   5.979
 5628SOL     OW17770   1.841   2.249   8.162
 5628SOL    HW117771   1.748   2.262   8.182
 5628SOL    HW217772   1.841   2.205   8.078
 5629SOL     OW17773   2.429   3.160   8.632
 5629SOL    HW117774   2.344   3.169   8.589
 5629SOL    HW217775   2.448   3.247   8.667
 5630SOL     OW17776   3.432   3.375   8.158
 5630SOL    HW117777   3.389   3.351   8.240
 5630SOL    HW217778   3.361   3.379   8.094
 5631SOL     OW17779   3.001   2.567   8.154
 5631SOL    HW117780   3.050   2.649   8.143
 5631SOL    HW217781   2.953   2.579   8.236
 5632SOL     OW17782   3.631   2.464   7.677
 5632SOL    HW117783   3.610   2.458   7.584
 5632SOL    HW217784   3.598   2.383   7.715
 5633SOL     OW17785   2.600   2.996   8.494
 5633SOL    HW117786   2.535   3.035   8.553
 5633SOL    HW217787   2.643   3.070   8.452
 5634SOL     OW17788   2.738   2.619   9.273
 5634SOL    HW117789   2.730   2.688   9.339
 5634SOL    HW217790   2.760   2.666   9.192
 5635SOL     OW17791   2.540   2.845   8.103
 5635SOL    HW117792   2.610   2.845   8.168
 5635SOL    HW217793   2.477   2.908   8.135
 5636SOL     OW17794   2.578   3.013   9.267
 5636SOL    HW117795   2.625   3.090   9.300
 5636SOL    HW217796   2.498   3.049   9.228
 5637SOL     OW17797   2.197   3.275   8.514
 5637SOL    HW117798   2.119   3.238   8.471
 5637SOL    HW217799   2.237   3.330   8.447
 5638SOL     OW17800   3.320   3.365   8.811
 5638SOL    HW117801   3.375   3.442   8.821
 5638SOL    HW217802   3.251   3.376   8.877
 5639SOL     OW17803   3.467   2.301   8.197
 5639SOL    HW117804   3.401   2.323   8.131
 5639SOL    HW217805   3.471   2.378   8.253
 5640SOL     OW17806   2.086   3.578   7.928
 5640SOL    HW117807   2.111   3.640   7.996
 5640SOL    HW217808   2.159   3.579   7.866
 5641SOL     OW17809   3.000   3.204   9.143
 5641SOL    HW117810   3.042   3.196   9.228
 5641SOL    HW217811   2.947   3.125   9.134
 5642SOL     OW17812   2.092   3.308   7.989
 5642SOL    HW117813   2.077   3.403   7.988
 5642SOL    HW217814   2.032   3.275   8.056
 5643SOL     OW17815   2.133   2.961   8.337
 5643SOL    HW117816   2.130   2.874   8.377
 5643SOL    HW217817   2.075   3.014   8.391
 5644SOL     OW17818   2.461   3.645   8.876
 5644SOL    HW117819   2.380   3.632   8.925
 5644SOL    HW217820   2.490   3.733   8.898
 5645SOL     OW17821   2.454   2.986   7.595
 5645SOL    HW117822   2.510   2.970   7.519
 5645SOL    HW217823   2.502   2.946   7.668
 5646SOL     OW17824   3.453   1.991   8.910
 5646SOL    HW117825   3.484   2.070   8.865
 5646SOL    HW217826   3.434   2.020   8.999
 5647SOL     OW17827   3.699   3.610   7.792
 5647SOL    HW117828   3.772   3.585   7.849
 5647SOL    HW217829   3.717   3.701   7.770
 5648SOL     OW17830   1.899   3.460   7.563
 5648SOL    HW117831   1.886   3.367   7.582
 5648SOL    HW217832   1.875   3.504   7.645
 5649SOL     OW17833   3.554   2.783   8.101
 5649SOL    HW117834   3.636   2.737   8.082
 5649SOL    HW217835   3.533   2.830   8.020
 5650SOL     OW17836   3.505   2.962   7.883
 5650SOL    HW117837   3.590   2.964   7.839
 5650SOL    HW217838   3.512   3.027   7.953
 5651SOL     OW17839   1.990   2.596   9.038
 5651SOL    HW117840   2.082   2.619   9.053
 5651SOL    HW217841   1.944   2.679   9.049
 5652SOL     OW17842   2.481   3.258   8.182
 5652SOL    HW117843   2.437   3.173   8.190
 5652SOL    HW217844   2.463   3.286   8.092
 5653SOL     OW17845   3.145   3.096   8.868
 5653SOL    HW117846   3.176   3.028   8.808
 5653SOL    HW217847   3.206   3.091   8.942
 5654SOL     OW17848   2.051   2.826   8.730
 5654SOL    HW117849   2.134   2.783   8.711
 5654SOL    HW217850   1.986   2.778   8.679
 5655SOL     OW17851   3.389   2.865   7.650
 5655SOL    HW117852   3.321   2.805   7.682
 5655SOL    HW217853   3.432   2.897   7.730
 5656SOL     OW17854   3.092   3.671   9.079
 5656SOL    HW117855   3.062   3.732   9.012
 5656SOL    HW217856   3.090   3.585   9.036
 5657SOL     OW17857   3.326   3.282   8.392
 5657SOL    HW117858   3.261   3.297   8.462
 5657SOL    HW217859   3.315   3.190   8.368
 5658SOL     OW17860   3.502   3.612   8.028
 5658SOL    HW117861   3.495   3.576   7.940
 5658SOL    HW217862   3.491   3.537   8.086
 5659SOL     OW17863   3.139   2.232   8.387
 5659SOL    HW117864   3.051   2.196   8.397
 5659SOL    HW217865   3.194   2.178   8.443
 5660SOL     OW17866   3.433   3.541   7.758
 5660SOL    HW117867   3.526   3.561   7.753
 5660SOL    HW217868   3.407   3.523   7.668
 5661SOL     OW17869   2.652   2.477   8.891
 5661SOL    HW117870   2.630   2.454   8.981
 5661SOL    HW217871   2.606   2.412   8.838
 5662SOL     OW17872   3.255   2.336   9.126
 5662SOL    HW117873   3.260   2.380   9.211
 5662SOL    HW217874   3.310   2.258   9.137
 5663SOL     OW17875   2.809   2.746   9.035
 5663SOL    HW117876   2.866   2.680   8.996
 5663SOL    HW217877   2.762   2.784   8.961
 5664SOL     OW17878   2.862   2.276   8.683
 5664SOL    HW117879   2.777   2.294   8.723
 5664SOL    HW217880   2.841   2.231   8.601
 5665SOL     OW17881   2.946   2.568   7.884
 5665SOL    HW117882   2.973   2.569   7.976
 5665SOL    HW217883   2.865   2.519   7.884
 5666SOL     OW17884   1.934   2.693   8.266
 5666SOL    HW117885   2.023   2.693   8.302
 5666SOL    HW217886   1.896   2.776   8.296
 5667SOL     OW17887   1.974   3.723   9.028
 5667SOL    HW117888   1.984   3.702   9.121
 5667SOL    HW217889   1.884   3.700   9.007
 5668SOL     OW17890   3.565   2.431   9.280
 5668SOL    HW117891   3.531   2.505   9.230
 5668SOL    HW217892   3.592   2.368   9.213
 5669SOL     OW17893   3.240   3.004   7.985
 5669SOL    HW117894   3.320   2.991   7.934
 5669SOL    HW217895   3.189   3.067   7.934
 5670SOL     OW17896   2.453   2.063   8.356
 5670SOL    HW117897   2.359   2.075   8.365
 5670SOL    HW217898   2.484   2.146   8.319
 5671SOL     OW17899   2.862   3.310   7.916
 5671SOL    HW117900   2.830   3.385   7.865
 5671SOL    HW217901   2.836   3.330   8.006
 5672SOL     OW17902   2.212   3.678   8.282
 5672SOL    HW117903   2.263   3.599   8.302
 5672SOL    HW217904   2.269   3.750   8.309
 5673SOL     OW17905   3.671   2.923   8.320
 5673SOL    HW117906   3.620   2.893   8.245
 5673SOL    HW217907   3.608   2.925   8.392
 5674SOL     OW17908   3.088   3.402   8.961
 5674SOL    HW117909   3.076   3.329   9.022
 5674SOL    HW217910   3.016   3.392   8.898
 5675SOL     OW17911   3.344   2.617   8.170
 5675SOL    HW117912   3.343   2.575   8.256
 5675SOL    HW217913   3.423   2.670   8.170
 5676SOL     OW17914   2.333   3.130   9.185
 5676SOL    HW117915   2.307   3.135   9.093
 5676SOL    HW217916   2.251   3.127   9.233
 5677SOL     OW17917   2.978   3.645   7.665
 5677SOL    HW117918   2.910   3.602   7.717
 5677SOL    HW217919   3.009   3.578   7.605
 5678SOL     OW17920   3.484   3.252   7.539
 5678SOL    HW117921   3.441   3.335   7.520
 5678SOL    HW217922   3.419   3.185   7.517
 5679SOL     OW17923   2.325   3.602   7.774
 5679SOL    HW117924   2.367   3.664   7.834
 5679SOL    HW217925   2.396   3.573   7.716
 5680SOL     OW17926   3.266   1.967   7.895
 5680SOL    HW117927   3.265   1.940   7.804
 5680SOL    HW217928   3.359   1.976   7.917
 5681SOL     OW17929   2.123   3.651   8.662
 5681SOL    HW117930   2.168   3.577   8.701
 5681SOL    HW217931   2.101   3.622   8.573
 5682SOL     OW17932   2.803   3.567   8.344
 5682SOL    HW117933   2.883   3.518   8.365
 5682SOL    HW217934   2.762   3.515   8.275
 5683SOL     OW17935   3.388   2.086   9.171
 5683SOL    HW117936   3.399   2.106   9.264
 5683SOL    HW217937   3.321   2.017   9.169
 5684SOL     OW17938   2.628   2.147   9.198
 5684SOL    HW117939   2.709   2.097   9.192
 5684SOL    HW217940   2.580   2.108   9.271
 5685SOL     OW17941   2.737   3.382   8.644
 5685SOL    HW117942   2.719   3.345   8.558
 5685SOL    HW217943   2.807   3.328   8.680
 5686SOL     OW17944   3.201   2.453   8.883
 5686SOL    HW117945   3.232   2.422   8.968
 5686SOL    HW217946   3.239   2.540   8.874
 5687SOL     OW17947   2.682   3.246   8.397
 5687SOL    HW117948   2.767   3.238   8.355
 5687SOL    HW217949   2.620   3.258   8.325
 5688SOL     OW17950   2.791   2.368   8.357
 5688SOL    HW117951   2.771   2.361   8.264
 5688SOL    HW217952   2.825   2.281   8.380
 5689SOL     OW17953   2.403   1.911   7.945
 5689SOL    HW117954   2.345   1.862   8.002
 5689SOL    HW217955   2.355   1.990   7.923
 5690SOL     OW17956   3.290   3.065   7.485
 5690SOL    HW117957   3.320   2.990   7.537
 5690SOL    HW217958   3.203   3.085   7.520
 5691SOL     OW17959   2.945   2.549   8.905
 5691SOL    HW117960   2.884   2.476   8.914
 5691SOL    HW217961   3.031   2.507   8.900
 5692SOL     OW17962   3.076   3.437   8.245
 5692SOL    HW117963   3.091   3.502   8.176
 5692SOL    HW217964   3.150   3.449   8.305
 5693SOL     OW17965   2.336   3.020   8.171
 5693SOL    HW117966   2.272   3.002   8.240
 5693SOL    HW217967   2.285   3.019   8.090
 5694SOL     OW17968   3.122   3.651   8.060
 5694SOL    HW117969   3.172   3.715   8.009
 5694SOL    HW217970   3.047   3.700   8.093
 5695SOL     OW17971   2.943   2.431   7.449
 5695SOL    HW117972   2.855   2.449   7.481
 5695SOL    HW217973   2.995   2.418   7.529
 5696SOL     OW17974   1.946   2.427   8.830
 5696SOL    HW117975   2.040   2.422   8.813
 5696SOL    HW217976   1.938   2.485   8.906
 5697SOL     OW17977   2.731   2.328   8.094
 5697SOL    HW117978   2.650   2.363   8.058
 5697SOL    HW217979   2.764   2.268   8.027
 5698SOL     OW17980   2.874   1.916   8.207
 5698SOL    HW117981   2.816   1.911   8.132
 5698SOL    HW217982   2.852   1.838   8.259
 5699SOL     OW17983   3.306   3.021   8.305
 5699SOL    HW117984   3.233   2.959   8.301
 5699SOL    HW217985   3.335   3.030   8.214
 5700SOL     OW17986   3.327   2.475   8.414
 5700SOL    HW117987   3.271   2.397   8.417
 5700SOL    HW217988   3.384   2.466   8.490
 5701SOL     OW17989   3.724   2.675   7.823
 5701SOL    HW117990   3.766   2.619   7.888
 5701SOL    HW217991   3.687   2.614   7.759
 5702SOL     OW17992   2.349   3.281   7.601
 5702SOL    HW117993   2.274   3.250   7.651
 5702SOL    HW217994   2.376   3.205   7.550
 5703SOL     OW17995   3.532   3.127   8.090
 5703SOL    HW117996   3.628   3.128   8.100
 5703SOL    HW217997   3.506   3.217   8.110
 5704SOL     OW17998   3.262   2.433   7.515
 5704SOL    HW117999   3.200   2.412   7.584
 5704SOL    HW218000   3.347   2.405   7.549
 5705SOL     OW18001   3.610   3.092   9.004
 5705SOL    HW118002   3.698   3.059   8.986
 5705SOL    HW218003   3.624   3.182   9.033
 5706SOL     OW18004   2.915   3.211   8.776
 5706SOL    HW118005   2.840   3.182   8.827
 5706SOL    HW218006   2.990   3.171   8.820
 5707SOL     OW18007   3.469   3.493   9.108
 5707SOL    HW118008   3.459   3.528   9.020
 5707SOL    HW218009   3.547   3.438   9.103
 5708SOL     OW18010   2.995   3.071   8.548
 5708SOL    HW118011   2.939   3.113   8.613
 5708SOL    HW218012   2.969   3.111   8.465
 5709SOL     OW18013   3.485   2.953   8.521
 5709SOL    HW118014   3.473   3.016   8.592
 5709SOL    HW218015   3.412   2.972   8.461
 5710SOL     OW18016   2.795   1.948   8.840
 5710SOL    HW118017   2.818   1.932   8.748
 5710SOL    HW218018   2.874   1.988   8.877
 5711SOL     OW18019   2.846   2.978   9.170
 5711SOL    HW118020   2.755   2.994   9.196
 5711SOL    HW218021   2.841   2.898   9.117
 5712SOL     OW18022   2.591   2.929   7.838
 5712SOL    HW118023   2.576   2.902   7.928
 5712SOL    HW218024   2.665   2.876   7.809
 5713SOL     OW18025   2.281   2.673   8.700
 5713SOL    HW118026   2.348   2.688   8.766
 5713SOL    HW218027   2.244   2.588   8.723
 5714SOL     OW18028   3.129   2.237   8.732
 5714SOL    HW118029   3.161   2.315   8.777
 5714SOL    HW218030   3.039   2.258   8.708
 5715SOL     OW18031   1.938   3.436   8.805
 5715SOL    HW118032   1.909   3.509   8.751
 5715SOL    HW218033   2.033   3.436   8.797
 5716SOL     OW18034   2.185   2.992   7.935
 5716SOL    HW118035   2.178   3.068   7.878
 5716SOL    HW218036   2.244   2.933   7.889
 5717SOL     OW18037   2.422   2.374   8.293
 5717SOL    HW118038   2.428   2.442   8.226
 5717SOL    HW218039   2.466   2.411   8.369
 5718SOL     OW18040   3.108   3.212   7.840
 5718SOL    HW118041   3.164   3.283   7.872
 5718SOL    HW218042   3.021   3.235   7.872
 5719SOL     OW18043   3.154   3.324   8.599
 5719SOL    HW118044   3.211   3.331   8.675
 5719SOL    HW218045   3.099   3.248   8.617
 5720SOL     OW18046   3.435   2.476   7.937
 5720SOL    HW118047   3.387   2.529   8.001
 5720SOL    HW218048   3.476   2.540   7.879
 5721SOL     OW18049   2.207   3.394   8.754
 5721SOL    HW118050   2.197   3.346   8.672
 5721SOL    HW218051   2.302   3.404   8.764
 5722SOL     OW18052   2.291   2.606   9.064
 5722SOL    HW118053   2.348   2.648   9.000
 5722SOL    HW218054   2.341   2.530   9.094
 5723SOL     OW18055   3.471   2.642   9.136
 5723SOL    HW118056   3.386   2.685   9.131
 5723SOL    HW218057   3.524   2.685   9.069
 5724SOL     OW18058   2.856   1.997   9.189
 5724SOL    HW118059   2.917   2.070   9.177
 5724SOL    HW218060   2.907   1.919   9.170
 5725SOL     OW18061   2.356   1.894   9.219
 5725SOL    HW118062   2.304   1.844   9.155
 5725SOL    HW218063   2.298   1.965   9.247
 5726SOL     OW18064   2.451   2.739   8.482
 5726SOL    HW118065   2.491   2.826   8.485
 5726SOL    HW218066   2.396   2.735   8.560
 5727SOL     OW18067   3.206   2.721   8.467
 5727SOL    HW118068   3.121   2.704   8.428
 5727SOL    HW218069   3.255   2.639   8.456
 5728SOL     OW18070   3.067   2.389   7.703
 5728SOL    HW118071   3.078   2.313   7.759
 5728SOL    HW218072   3.036   2.458   7.762
 5729SOL     OW18073   1.910   3.174   8.721
 5729SOL    HW118074   1.941   3.119   8.793
 5729SOL    HW218075   1.914   3.263   8.756
 5730SOL     OW18076   2.572   2.483   8.496
 5730SOL    HW118077   2.654   2.469   8.448
 5730SOL    HW218078   2.552   2.576   8.483
 5731SOL     OW18079   3.591   2.821   9.319
 5731SOL    HW118080   3.554   2.752   9.264
 5731SOL    HW218081   3.525   2.837   9.386
 5732SOL     OW18082   3.485   2.243   7.804
 5732SOL    HW118083   3.511   2.176   7.867
 5732SOL    HW218084   3.459   2.318   7.859
 5733SOL     OW18085   2.888   2.619   8.408
 5733SOL    HW118086   2.879   2.637   8.502
 5733SOL    HW218087   2.863   2.527   8.399
 5734SOL     OW18088   2.848   3.430   9.173
 5734SOL    HW118089   2.827   3.469   9.088
 5734SOL    HW218090   2.889   3.347   9.151
 5735SOL     OW18091   3.700   3.353   9.044
 5735SOL    HW118092   3.727   3.385   8.958
 5735SOL    HW218093   3.780   3.359   9.097
 5736SOL     OW18094   2.214   2.779   9.262
 5736SOL    HW118095   2.294   2.803   9.309
 5736SOL    HW218096   2.243   2.719   9.194
 5737SOL     OW18097   3.389   2.129   7.573
 5737SOL    HW118098   3.330   2.060   7.605
 5737SOL    HW218099   3.423   2.169   7.653
 5738SOL     OW18100   3.155   2.690   7.480
 5738SOL    HW118101   3.188   2.600   7.478
 5738SOL    HW218102   3.183   2.728   7.397
 5739SOL     OW18103   2.933   3.203   8.307
 5739SOL    HW118104   2.939   3.132   8.244
 5739SOL    HW218105   2.988   3.272   8.271
 5740SOL     OW18106   2.182   2.687   8.392
 5740SOL    HW118107   2.275   2.711   8.392
 5740SOL    HW218108   2.181   2.597   8.426
 5741SOL     OW18109   2.997   2.235   9.132
 5741SOL    HW118110   2.950   2.287   9.197
 5741SOL    HW218111   3.084   2.276   9.129
 5742SOL     OW18112   3.030   2.060   8.921
 5742SOL    HW118113   3.016   2.121   8.993
 5742SOL    HW218114   3.074   2.111   8.853
 5743SOL     OW18115   1.875   3.193   7.626
 5743SOL    HW118116   1.787   3.212   7.593
 5743SOL    HW218117   1.864   3.113   7.677
 5744SOL     OW18118   1.963   3.630   8.390
 5744SOL    HW118119   1.930   3.554   8.341
 5744SOL    HW218120   2.045   3.652   8.345
 5745SOL     OW18121   2.350   3.440   8.351
 5745SOL    HW118122   2.418   3.503   8.375
 5745SOL    HW218123   2.395   3.378   8.293
 5746SOL     OW18124   2.830   2.646   8.673
 5746SOL    HW118125   2.896   2.630   8.740
 5746SOL    HW218126   2.748   2.612   8.711
 5747SOL     OW18127   1.878   2.387   8.567
 5747SOL    HW118128   1.948   2.403   8.503
 5747SOL    HW218129   1.918   2.409   8.651
 5748SOL     OW18130   3.244   2.793   9.104
 5748SOL    HW118131   3.266   2.887   9.101
 5748SOL    HW218132   3.240   2.766   9.013
 5749SOL     OW18133   3.500   2.462   8.626
 5749SOL    HW118134   3.489   2.402   8.700
 5749SOL    HW218135   3.588   2.443   8.592
 5750SOL     OW18136   2.100   3.408   9.167
 5750SOL    HW118137   2.078   3.476   9.231
 5750SOL    HW218138   2.107   3.327   9.219
 5751SOL     OW18139   2.534   2.317   8.706
 5751SOL    HW118140   2.525   2.228   8.673
 5751SOL    HW218141   2.546   2.371   8.627
 5752SOL     OW18142   2.784   3.530   8.920
 5752SOL    HW118143   2.757   3.489   8.838
 5752SOL    HW218144   2.778   3.624   8.904
 5753SOL     OW18145   2.001   3.007   8.926
 5753SOL    HW118146   2.002   2.960   9.009
 5753SOL    HW218147   2.019   2.940   8.860
 5754SOL     OW18148   3.177   2.903   8.667
 5754SOL    HW118149   3.200   2.841   8.597
 5754SOL    HW218150   3.112   2.961   8.626
 5755SOL     OW18151   3.182   2.714   7.754
 5755SOL    HW118152   3.105   2.682   7.802
 5755SOL    HW218153   3.158   2.704   7.662
 5756SOL     OW18154   3.646   3.596   8.610
 5756SOL    HW118155   3.703   3.622   8.538
 5756SOL    HW218156   3.614   3.509   8.584
 5757SOL     OW18157   3.108   3.593   8.551
 5757SOL    HW118158   3.191   3.617   8.510
 5757SOL    HW218159   3.117   3.501   8.572
 5758SOL     OW18160   1.955   3.128   8.459
 5758SOL    HW118161   1.934   3.143   8.551
 5758SOL    HW218162   1.882   3.077   8.425
 5759SOL     OW18163   2.543   3.531   9.190
 5759SOL    HW118164   2.483   3.605   9.193
 5759SOL    HW218165   2.605   3.553   9.120
 5760SOL     OW18166   3.566   2.020   7.955
 5760SOL    HW118167   3.634   2.008   7.889
 5760SOL    HW218168   3.557   1.934   7.996
 5761SOL     OW18169   3.254   3.430   7.941
 5761SOL    HW118170   3.310   3.464   7.873
 5761SOL    HW218171   3.203   3.505   7.972
 5762SOL     OW18172   2.004   3.649   9.286
 5762SOL    HW118173   1.952   3.585   9.335
 5762SOL    HW218174   2.050   3.699   9.353
 5763SOL     OW18175   3.142   2.795   8.122
 5763SOL    HW118176   3.216   2.736   8.131
 5763SOL    HW218177   3.174   2.865   8.066
 5764SOL     OW18178   2.664   3.140   8.871
 5764SOL    HW118179   2.637   3.181   8.953
 5764SOL    HW218180   2.593   3.161   8.810
 5765SOL     OW18181   2.531   3.484   7.609
 5765SOL    HW118182   2.544   3.504   7.516
 5765SOL    HW218183   2.471   3.410   7.609
 5766SOL     OW18184   3.478   3.590   8.839
 5766SOL    HW118185   3.535   3.591   8.763
 5766SOL    HW218186   3.463   3.682   8.860
 5767SOL     OW18187   3.701   2.042   8.411
 5767SOL    HW118188   3.734   1.955   8.389
 5767SOL    HW218189   3.614   2.046   8.371
 5768SOL     OW18190   3.069   3.461   7.486
 5768SOL    HW118191   3.060   3.369   7.511
 5768SOL    HW218192   3.007   3.472   7.414
 5769SOL     OW18193   2.685   2.870   8.824
 5769SOL    HW118194   2.731   2.865   8.740
 5769SOL    HW218195   2.680   2.964   8.843
 5770SOL     OW18196   2.800   2.779   7.760
 5770SOL    HW118197   2.846   2.812   7.683
 5770SOL    HW218198   2.861   2.717   7.801
 5771SOL     OW18199   3.346   3.503   7.493
 5771SOL    HW118200   3.253   3.486   7.475
 5771SOL    HW218201   3.386   3.506   7.406
 5772SOL     OW18202   2.230   3.167   8.939
 5772SOL    HW118203   2.216   3.244   8.884
 5772SOL    HW218204   2.151   3.114   8.926
 5773SOL     OW18205   3.457   3.141   8.722
 5773SOL    HW118206   3.528   3.130   8.786
 5773SOL    HW218207   3.401   3.210   8.759
 5774SOL     OW18208   2.925   2.974   8.162
 5774SOL    HW118209   2.853   2.922   8.198
 5774SOL    HW218210   2.990   2.910   8.135
 5775SOL     OW18211   2.885   2.106   8.419
 5775SOL    HW118212   2.883   2.058   8.336
 5775SOL    HW218213   2.883   2.037   8.486
 5776SOL     OW18214   2.466   3.354   7.928
 5776SOL    HW118215   2.518   3.304   7.865
 5776SOL    HW218216   2.396   3.393   7.876
 5777SOL     OW18217   3.590   2.248   8.826
 5777SOL    HW118218   3.663   2.310   8.823
 5777SOL    HW218219   3.617   2.177   8.767
 5778SOL     OW18220   2.126   3.193   7.753
 5778SOL    HW118221   2.042   3.208   7.709
 5778SOL    HW218222   2.120   3.244   7.834
 5779SOL     OW18223   1.978   2.896   9.176
 5779SOL    HW118224   1.901   2.869   9.226
 5779SOL    HW218225   2.051   2.852   9.219
 5780SOL     OW18226   2.556   2.033   8.943
 5780SOL    HW118227   2.643   2.011   8.911
 5780SOL    HW218228   2.571   2.080   9.025
 5781SOL     OW18229   3.284   2.719   8.844
 5781SOL    HW118230   3.233   2.780   8.791
 5781SOL    HW218231   3.372   2.722   8.807
 5782SOL     OW18232   3.039   3.195   7.566
 5782SOL    HW118233   2.948   3.165   7.565
 5782SOL    HW218234   3.064   3.193   7.658
 5783SOL     OW18235   2.482   2.692   8.880
 5783SOL    HW118236   2.538   2.769   8.868
 5783SOL    HW218237   2.544   2.619   8.889
 5784SOL     OW18238   3.350   3.647   8.432
 5784SOL    HW118239   3.372   3.709   8.362
 5784SOL    HW218240   3.433   3.608   8.457
 5785SOL     OW18241   2.573   2.423   9.145
 5785SOL    HW118242   2.621   2.478   9.206
 5785SOL    HW218243   2.589   2.334   9.175
 5786SOL     OW18244   3.336   3.054   9.074
 5786SOL    HW118245   3.326   3.070   9.168
 5786SOL    HW218246   3.428   3.070   9.056
 5787SOL     OW18247   2.229   3.608   9.019
 5787SOL    HW118248   2.146   3.652   9.000
 5787SOL    HW218249   2.204   3.524   9.057
 5788SOL     OW18250   3.522   2.741   8.706
 5788SOL    HW118251   3.523   2.656   8.663
 5788SOL    HW218252   3.515   2.804   8.635
 5789SOL     OW18253   3.104   2.199   7.900
 5789SOL    HW118254   3.158   2.119   7.901
 5789SOL    HW218255   3.127   2.244   7.981
 5790SOL     OW18256   2.455   2.579   8.107
 5790SOL    HW118257   2.496   2.665   8.109
 5790SOL    HW218258   2.378   2.591   8.050
 5791SOL     OW18259   3.614   2.228   9.099
 5791SOL    HW118260   3.600   2.242   9.005
 5791SOL    HW218261   3.543   2.170   9.126
 5792SOL     OW18262   3.620   2.787   8.960
 5792SOL    HW118263   3.610   2.880   8.979
 5792SOL    HW218264   3.593   2.778   8.868
 5793SOL     OW18265   2.731   3.238   7.493
 5793SOL    HW118266   2.685   3.262   7.573
 5793SOL    HW218267   2.744   3.321   7.447
 5794SOL     OW18268   2.524   3.646   8.380
 5794SOL    HW118269   2.504   3.738   8.363
 5794SOL    HW218270   2.620   3.642   8.377
 5795SOL     OW18271   2.732   2.831   8.303
 5795SOL    HW118272   2.784   2.760   8.342
 5795SOL    HW218273   2.694   2.877   8.379
 5796SOL     OW18274   2.945   2.855   7.544
 5796SOL    HW118275   2.917   2.898   7.464
 5796SOL    HW218276   3.016   2.797   7.517
 5797SOL     OW18277   3.707   3.415   8.286
 5797SOL    HW118278   3.626   3.397   8.238
 5797SOL    HW218279   3.712   3.343   8.350
 5798SOL     OW18280   2.088   3.158   9.300
 5798SOL    HW118281   2.029   3.092   9.263
 5798SOL    HW218282   2.056   3.171   9.389
 5799SOL     OW18283   1.951   3.089   8.113
 5799SOL    HW118284   1.956   3.044   8.197
 5799SOL    HW218285   2.025   3.054   8.063
 5800SOL     OW18286   2.549   3.271   9.082
 5800SOL    HW118287   2.470   3.229   9.114
 5800SOL    HW218288   2.548   3.359   9.119
 5801SOL     OW18289   3.666   2.035   8.682
 5801SOL    HW118290   3.662   1.939   8.683
 5801SOL    HW218291   3.686   2.057   8.591
 5802SOL     OW18292   3.552   3.351   8.542
 5802SOL    HW118293   3.475   3.329   8.489
 5802SOL    HW218294   3.559   3.279   8.605
 5803SOL     OW18295   2.213   2.404   8.744
 5803SOL    HW118296   2.196   2.321   8.788
 5803SOL    HW218297   2.300   2.394   8.706
 5804SOL     OW18298   2.695   3.442   8.124
 5804SOL    HW118299   2.670   3.501   8.052
 5804SOL    HW218300   2.621   3.381   8.131
 5805SOL     OW18301   3.291   2.093   8.564
 5805SOL    HW118302   3.313   2.010   8.606
 5805SOL    HW218303   3.243   2.141   8.631
 5806SOL     OW18304   2.875   1.879   8.582
 5806SOL    HW118305   2.816   1.811   8.551
 5806SOL    HW218306   2.962   1.839   8.579
 5807SOL     OW18307   2.637   3.202   7.773
 5807SOL    HW118308   2.609   3.111   7.778
 5807SOL    HW218309   2.721   3.204   7.818
 5808SOL     OW18310   2.482   3.413   8.736
 5808SOL    HW118311   2.481   3.495   8.785
 5808SOL    HW218312   2.571   3.410   8.699
 5809SOL     OW18313   3.235   1.898   7.627
 5809SOL    HW118314   3.271   1.837   7.562
 5809SOL    HW218315   3.155   1.856   7.657
 5810SOL     OW18316   3.160   2.331   8.132
 5810SOL    HW118317   3.110   2.413   8.139
 5810SOL    HW218318   3.155   2.293   8.220
 5811SOL     OW18319   3.439   2.053   8.329
 5811SOL    HW118320   3.388   2.081   8.406
 5811SOL    HW218321   3.443   2.130   8.273
 5812SOL     OW18322   1.888   2.954   7.752
 5812SOL    HW118323   1.979   2.951   7.780
 5812SOL    HW218324   1.882   2.888   7.683
 5813SOL     OW18325   2.751   3.529   7.787
 5813SOL    HW118326   2.677   3.509   7.729
 5813SOL    HW218327   2.720   3.602   7.841
 5814SOL     OW18328   2.087   2.514   9.451
 5814SOL    HW118329   2.004   2.483   9.488
 5814SOL    HW218330   2.075   2.507   9.356
 5815SOL     OW18331   1.856   2.288   9.927
 5815SOL    HW118332   1.768   2.282   9.963
 5815SOL    HW218333   1.864   2.212   9.869
 5816SOL     OW18334   2.429   3.161  10.495
 5816SOL    HW118335   2.344   3.169  10.451
 5816SOL    HW218336   2.447   3.248  10.529
 5817SOL     OW18337   3.432   3.375  10.020
 5817SOL    HW118338   3.389   3.351  10.102
 5817SOL    HW218339   3.361   3.379   9.956
 5818SOL     OW18340   2.994   2.562  10.004
 5818SOL    HW118341   3.042   2.644   9.992
 5818SOL    HW218342   2.947   2.574  10.087
 5819SOL     OW18343   3.634   2.463   9.538
 5819SOL    HW118344   3.610   2.456   9.445
 5819SOL    HW218345   3.599   2.384   9.578
 5820SOL     OW18346   2.601   2.996  10.358
 5820SOL    HW118347   2.536   3.036  10.416
 5820SOL    HW218348   2.644   3.070  10.315
 5821SOL     OW18349   2.738   2.619  11.135
 5821SOL    HW118350   2.730   2.688  11.201
 5821SOL    HW218351   2.760   2.666  11.054
 5822SOL     OW18352   2.546   2.853   9.953
 5822SOL    HW118353   2.613   2.848  10.021
 5822SOL    HW218354   2.479   2.911   9.990
 5823SOL     OW18355   2.577   3.013  11.130
 5823SOL    HW118356   2.625   3.089  11.162
 5823SOL    HW218357   2.498   3.049  11.090
 5824SOL     OW18358   2.195   3.276  10.375
 5824SOL    HW118359   2.119   3.238  10.331
 5824SOL    HW218360   2.237   3.330  10.309
 5825SOL     OW18361   3.319   3.365  10.673
 5825SOL    HW118362   3.374   3.442  10.683
 5825SOL    HW218363   3.250   3.376  10.739
 5826SOL     OW18364   3.465   2.302  10.058
 5826SOL    HW118365   3.398   2.321   9.993
 5826SOL    HW218366   3.466   2.378  10.116
 5827SOL     OW18367   2.085   3.577   9.790
 5827SOL    HW118368   2.111   3.638   9.859
 5827SOL    HW218369   2.159   3.578   9.729
 5828SOL     OW18370   3.000   3.204  11.005
 5828SOL    HW118371   3.042   3.196  11.091
 5828SOL    HW218372   2.948   3.124  10.996
 5829SOL     OW18373   2.094   3.305   9.847
 5829SOL    HW118374   2.076   3.399   9.849
 5829SOL    HW218375   2.036   3.269   9.914
 5830SOL     OW18376   2.131   2.961  10.198
 5830SOL    HW118377   2.127   2.873  10.235
 5830SOL    HW218378   2.072   3.013  10.253
 5831SOL     OW18379   2.461   3.645  10.737
 5831SOL    HW118380   2.380   3.633  10.787
 5831SOL    HW218381   2.490   3.734  10.760
 5832SOL     OW18382   2.439   2.854   9.450
 5832SOL    HW118383   2.489   2.897   9.380
 5832SOL    HW218384   2.477   2.887   9.531
 5833SOL     OW18385   3.454   1.991  10.773
 5833SOL    HW118386   3.482   2.070  10.727
 5833SOL    HW218387   3.434   2.020  10.862
 5834SOL     OW18388   1.992   2.522   9.873
 5834SOL    HW118389   1.951   2.437   9.889
 5834SOL    HW218390   1.979   2.572   9.953
 5835SOL     OW18391   3.699   3.609   9.654
 5835SOL    HW118392   3.772   3.584   9.711
 5835SOL    HW218393   3.717   3.701   9.632
 5836SOL     OW18394   1.898   3.447   9.429
 5836SOL    HW118395   1.881   3.355   9.448
 5836SOL    HW218396   1.875   3.494   9.509
 5837SOL     OW18397   3.554   2.784   9.963
 5837SOL    HW118398   3.636   2.738   9.945
 5837SOL    HW218399   3.534   2.831   9.882
 5838SOL     OW18400   3.505   2.962   9.743
 5838SOL    HW118401   3.590   2.964   9.700
 5838SOL    HW218402   3.512   3.027   9.813
 5839SOL     OW18403   1.991   2.596  10.899
 5839SOL    HW118404   2.084   2.617  10.914
 5839SOL    HW218405   1.946   2.679  10.911
 5840SOL     OW18406   2.480   3.256  10.044
 5840SOL    HW118407   2.436   3.172  10.051
 5840SOL    HW218408   2.463   3.284   9.954
 5841SOL     OW18409   3.145   3.096  10.730
 5841SOL    HW118410   3.176   3.028  10.670
 5841SOL    HW218411   3.206   3.091  10.804
 5842SOL     OW18412   2.700   1.866   9.823
 5842SOL    HW118413   2.739   1.950   9.798
 5842SOL    HW218414   2.606   1.882   9.822
 5843SOL     OW18415   2.050   2.827  10.592
 5843SOL    HW118416   2.134   2.785  10.575
 5843SOL    HW218417   1.987   2.780  10.536
 5844SOL     OW18418   3.386   2.864   9.512
 5844SOL    HW118419   3.318   2.806   9.546
 5844SOL    HW218420   3.430   2.897   9.591
 5845SOL     OW18421   3.092   3.671  10.940
 5845SOL    HW118422   3.062   3.732  10.874
 5845SOL    HW218423   3.090   3.585  10.898
 5846SOL     OW18424   3.326   3.281  10.254
 5846SOL    HW118425   3.262   3.296  10.323
 5846SOL    HW218426   3.315   3.189  10.230
 5847SOL     OW18427   3.502   3.612   9.891
 5847SOL    HW118428   3.495   3.575   9.802
 5847SOL    HW218429   3.490   3.537   9.949
 5848SOL     OW18430   2.473   2.605   9.589
 5848SOL    HW118431   2.472   2.685   9.537
 5848SOL    HW218432   2.409   2.620   9.658
 5849SOL     OW18433   3.139   2.233  10.246
 5849SOL    HW118434   3.051   2.196  10.253
 5849SOL    HW218435   3.193   2.178  10.302
 5850SOL     OW18436   3.433   3.541   9.620
 5850SOL    HW118437   3.526   3.561   9.615
 5850SOL    HW218438   3.407   3.523   9.529
 5851SOL     OW18439   2.652   2.473  10.752
 5851SOL    HW118440   2.630   2.452  10.842
 5851SOL    HW218441   2.601   2.411  10.700
 5852SOL     OW18442   3.255   2.336  10.988
 5852SOL    HW118443   3.260   2.380  11.073
 5852SOL    HW218444   3.310   2.258  10.999
 5853SOL     OW18445   2.809   2.746  10.897
 5853SOL    HW118446   2.866   2.680  10.857
 5853SOL    HW218447   2.762   2.784  10.823
 5854SOL     OW18448   2.865   2.275  10.542
 5854SOL    HW118449   2.780   2.295  10.583
 5854SOL    HW218450   2.843   2.233  10.459
 5855SOL     OW18451   2.918   2.561   9.734
 5855SOL    HW118452   2.938   2.556   9.827
 5855SOL    HW218453   2.834   2.517   9.724
 5856SOL     OW18454   1.951   2.683  10.091
 5856SOL    HW118455   2.034   2.683  10.139
 5856SOL    HW218456   1.904   2.759  10.124
 5857SOL     OW18457   1.974   3.723  10.890
 5857SOL    HW118458   1.984   3.701  10.983
 5857SOL    HW218459   1.884   3.700  10.869
 5858SOL     OW18460   2.751   2.217   9.512
 5858SOL    HW118461   2.801   2.266   9.447
 5858SOL    HW218462   2.709   2.146   9.463
 5859SOL     OW18463   3.566   2.431  11.142
 5859SOL    HW118464   3.531   2.505  11.092
 5859SOL    HW218465   3.592   2.367  11.075
 5860SOL     OW18466   3.240   3.003   9.849
 5860SOL    HW118467   3.320   2.991   9.798
 5860SOL    HW218468   3.189   3.066   9.798
 5861SOL     OW18469   2.450   2.065  10.215
 5861SOL    HW118470   2.355   2.076  10.218
 5861SOL    HW218471   2.483   2.149  10.181
 5862SOL     OW18472   2.860   3.308   9.777
 5862SOL    HW118473   2.829   3.384   9.728
 5862SOL    HW218474   2.836   3.327   9.868
 5863SOL     OW18475   2.213   3.678  10.144
 5863SOL    HW118476   2.263   3.599  10.163
 5863SOL    HW218477   2.270   3.750  10.171
 5864SOL     OW18478   3.671   2.923  10.182
 5864SOL    HW118479   3.620   2.893  10.106
 5864SOL    HW218480   3.608   2.926  10.254
 5865SOL     OW18481   3.087   3.402  10.823
 5865SOL    HW118482   3.076   3.329  10.884
 5865SOL    HW218483   3.017   3.390  10.759
 5866SOL     OW18484   2.173   2.819   9.568
 5866SOL    HW118485   2.253   2.840   9.520
 5866SOL    HW218486   2.144   2.736   9.531
 5867SOL     OW18487   3.344   2.616  10.030
 5867SOL    HW118488   3.342   2.574  10.117
 5867SOL    HW218489   3.423   2.670  10.032
 5868SOL     OW18490   2.333   3.130  11.047
 5868SOL    HW118491   2.307   3.136  10.955
 5868SOL    HW218492   2.251   3.127  11.095
 5869SOL     OW18493   2.978   3.646   9.527
 5869SOL    HW118494   2.911   3.602   9.580
 5869SOL    HW218495   3.009   3.578   9.467
 5870SOL     OW18496   3.484   3.251   9.400
 5870SOL    HW118497   3.441   3.335   9.382
 5870SOL    HW218498   3.418   3.185   9.378
 5871SOL     OW18499   2.325   3.603   9.635
 5871SOL    HW118500   2.366   3.664   9.696
 5871SOL    HW218501   2.397   3.575   9.579
 5872SOL     OW18502   3.262   1.969   9.755
 5872SOL    HW118503   3.258   1.943   9.663
 5872SOL    HW218504   3.356   1.976   9.773
 5873SOL     OW18505   2.123   3.651  10.524
 5873SOL    HW118506   2.168   3.577  10.564
 5873SOL    HW218507   2.102   3.622  10.436
 5874SOL     OW18508   2.803   3.567  10.206
 5874SOL    HW118509   2.881   3.517  10.229
 5874SOL    HW218510   2.761   3.515  10.137
 5875SOL     OW18511   2.260   2.541   9.783
 5875SOL    HW118512   2.266   2.459   9.734
 5875SOL    HW218513   2.168   2.546   9.811
 5876SOL     OW18514   3.387   2.086  11.033
 5876SOL    HW118515   3.398   2.106  11.126
 5876SOL    HW218516   3.321   2.017  11.031
 5877SOL     OW18517   2.540   1.983   9.404
 5877SOL    HW118518   2.576   1.903   9.441
 5877SOL    HW218519   2.471   1.952   9.345
 5878SOL     OW18520   2.628   2.148  11.062
 5878SOL    HW118521   2.709   2.097  11.056
 5878SOL    HW218522   2.580   2.108  11.134
 5879SOL     OW18523   2.737   3.383  10.506
 5879SOL    HW118524   2.719   3.345  10.420
 5879SOL    HW218525   2.807   3.328  10.542
 5880SOL     OW18526   3.200   2.453  10.745
 5880SOL    HW118527   3.232   2.422  10.830
 5880SOL    HW218528   3.238   2.541  10.736
 5881SOL     OW18529   2.681   3.247  10.259
 5881SOL    HW118530   2.766   3.237  10.217
 5881SOL    HW218531   2.619   3.257  10.187
 5882SOL     OW18532   2.787   2.368  10.209
 5882SOL    HW118533   2.762   2.360  10.117
 5882SOL    HW218534   2.822   2.282  10.231
 5883SOL     OW18535   2.433   1.911   9.808
 5883SOL    HW118536   2.380   1.890   9.884
 5883SOL    HW218537   2.408   2.001   9.785
 5884SOL     OW18538   3.289   3.065   9.347
 5884SOL    HW118539   3.319   2.990   9.399
 5884SOL    HW218540   3.203   3.087   9.384
 5885SOL     OW18541   2.810   2.114   9.764
 5885SOL    HW118542   2.785   2.149   9.678
 5885SOL    HW218543   2.904   2.129   9.770
 5886SOL     OW18544   2.944   2.549  10.766
 5886SOL    HW118545   2.882   2.476  10.774
 5886SOL    HW218546   3.030   2.507  10.761
 5887SOL     OW18547   3.077   3.436  10.106
 5887SOL    HW118548   3.092   3.501  10.037
 5887SOL    HW218549   3.150   3.448  10.167
 5888SOL     OW18550   2.337   3.018  10.032
 5888SOL    HW118551   2.271   3.000  10.098
 5888SOL    HW218552   2.292   3.006   9.948
 5889SOL     OW18553   3.123   3.651   9.922
 5889SOL    HW118554   3.172   3.715   9.872
 5889SOL    HW218555   3.047   3.699   9.955
 5890SOL     OW18556   2.888   2.391   9.336
 5890SOL    HW118557   2.844   2.474   9.319
 5890SOL    HW218558   2.951   2.412   9.405
 5891SOL     OW18559   1.946   2.426  10.691
 5891SOL    HW118560   2.040   2.422  10.673
 5891SOL    HW218561   1.938   2.484  10.767
 5892SOL     OW18562   2.725   2.316   9.946
 5892SOL    HW118563   2.690   2.375   9.878
 5892SOL    HW218564   2.753   2.238   9.898
 5893SOL     OW18565   2.877   1.917  10.057
 5893SOL    HW118566   2.821   1.907   9.979
 5893SOL    HW218567   2.854   1.842  10.112
 5894SOL     OW18568   3.304   3.021  10.167
 5894SOL    HW118569   3.232   2.958  10.166
 5894SOL    HW218570   3.330   3.028  10.075
 5895SOL     OW18571   3.327   2.474  10.274
 5895SOL    HW118572   3.269   2.398  10.277
 5895SOL    HW218573   3.384   2.465  10.350
 5896SOL     OW18574   3.724   2.675   9.685
 5896SOL    HW118575   3.766   2.619   9.750
 5896SOL    HW218576   3.688   2.613   9.621
 5897SOL     OW18577   2.351   3.282   9.460
 5897SOL    HW118578   2.276   3.255   9.511
 5897SOL    HW218579   2.345   3.233   9.379
 5898SOL     OW18580   3.533   3.128   9.949
 5898SOL    HW118581   3.628   3.129   9.961
 5898SOL    HW218582   3.506   3.218   9.971
 5899SOL     OW18583   3.256   2.435   9.381
 5899SOL    HW118584   3.193   2.413   9.450
 5899SOL    HW218585   3.340   2.405   9.414
 5900SOL     OW18586   3.610   3.093  10.865
 5900SOL    HW118587   3.698   3.059  10.848
 5900SOL    HW218588   3.624   3.183  10.894
 5901SOL     OW18589   2.915   3.213  10.640
 5901SOL    HW118590   2.839   3.182  10.690
 5901SOL    HW218591   2.990   3.172  10.683
 5902SOL     OW18592   3.469   3.493  10.970
 5902SOL    HW118593   3.459   3.528  10.882
 5902SOL    HW218594   3.548   3.438  10.965
 5903SOL     OW18595   2.999   3.075  10.411
 5903SOL    HW118596   2.939   3.114  10.475
 5903SOL    HW218597   2.970   3.111  10.327
 5904SOL     OW18598   3.485   2.954  10.383
 5904SOL    HW118599   3.474   3.017  10.454
 5904SOL    HW218600   3.412   2.971  10.324
 5905SOL     OW18601   2.795   1.947  10.699
 5905SOL    HW118602   2.815   1.930  10.608
 5905SOL    HW218603   2.874   1.988  10.735
 5906SOL     OW18604   2.846   2.977  11.032
 5906SOL    HW118605   2.755   2.994  11.058
 5906SOL    HW218606   2.841   2.898  10.979
 5907SOL     OW18607   2.572   2.924   9.682
 5907SOL    HW118608   2.557   2.902   9.773
 5907SOL    HW218609   2.648   2.871   9.656
 5908SOL     OW18610   2.279   2.675  10.562
 5908SOL    HW118611   2.347   2.689  10.627
 5908SOL    HW218612   2.244   2.588  10.582
 5909SOL     OW18613   3.131   2.236  10.594
 5909SOL    HW118614   3.161   2.315  10.639
 5909SOL    HW218615   3.040   2.257  10.569
 5910SOL     OW18616   1.938   3.435  10.667
 5910SOL    HW118617   1.910   3.509  10.613
 5910SOL    HW218618   2.033   3.435  10.660
 5911SOL     OW18619   2.195   2.984   9.797
 5911SOL    HW118620   2.196   3.058   9.737
 5911SOL    HW218621   2.193   2.907   9.741
 5912SOL     OW18622   2.404   2.383  10.169
 5912SOL    HW118623   2.411   2.448  10.100
 5912SOL    HW218624   2.462   2.415  10.239
 5913SOL     OW18625   3.108   3.213   9.701
 5913SOL    HW118626   3.164   3.283   9.734
 5913SOL    HW218627   3.021   3.234   9.734
 5914SOL     OW18628   3.154   3.324  10.460
 5914SOL    HW118629   3.210   3.330  10.537
 5914SOL    HW218630   3.100   3.246  10.475
 5915SOL     OW18631   3.434   2.478   9.798
 5915SOL    HW118632   3.386   2.527   9.864
 5915SOL    HW218633   3.476   2.544   9.743
 5916SOL     OW18634   2.207   3.394  10.616
 5916SOL    HW118635   2.197   3.346  10.534
 5916SOL    HW218636   2.302   3.404  10.626
 5917SOL     OW18637   2.291   2.605  10.925
 5917SOL    HW118638   2.348   2.647  10.861
 5917SOL    HW218639   2.341   2.530  10.956
 5918SOL     OW18640   3.472   2.642  10.999
 5918SOL    HW118641   3.386   2.685  10.993
 5918SOL    HW218642   3.524   2.685  10.931
 5919SOL     OW18643   2.856   1.997  11.052
 5919SOL    HW118644   2.917   2.070  11.039
 5919SOL    HW218645   2.907   1.919  11.032
 5920SOL     OW18646   2.356   1.893  11.077
 5920SOL    HW118647   2.305   1.845  11.011
 5920SOL    HW218648   2.300   1.967  11.101
 5921SOL     OW18649   2.459   2.736  10.348
 5921SOL    HW118650   2.493   2.826  10.348
 5921SOL    HW218651   2.395   2.735  10.419
 5922SOL     OW18652   3.205   2.721  10.327
 5922SOL    HW118653   3.119   2.703  10.289
 5922SOL    HW218654   3.253   2.639  10.317
 5923SOL     OW18655   3.059   2.388   9.570
 5923SOL    HW118656   3.069   2.310   9.624
 5923SOL    HW218657   3.018   2.453   9.627
 5924SOL     OW18658   1.909   3.174  10.584
 5924SOL    HW118659   1.940   3.119  10.655
 5924SOL    HW218660   1.914   3.263  10.618
 5925SOL     OW18661   2.578   2.483  10.360
 5925SOL    HW118662   2.654   2.468  10.303
 5925SOL    HW218663   2.554   2.575  10.345
 5926SOL     OW18664   3.591   2.822  11.180
 5926SOL    HW118665   3.554   2.752  11.126
 5926SOL    HW218666   3.525   2.838  11.248
 5927SOL     OW18667   3.485   2.244   9.667
 5927SOL    HW118668   3.511   2.176   9.730
 5927SOL    HW218669   3.460   2.319   9.721
 5928SOL     OW18670   2.889   2.618  10.266
 5928SOL    HW118671   2.879   2.635  10.360
 5928SOL    HW218672   2.862   2.527  10.255
 5929SOL     OW18673   2.848   3.430  11.035
 5929SOL    HW118674   2.827   3.469  10.950
 5929SOL    HW218675   2.889   3.347  11.013
 5930SOL     OW18676   3.701   3.353  10.906
 5930SOL    HW118677   3.727   3.385  10.820
 5930SOL    HW218678   3.780   3.359  10.959
 5931SOL     OW18679   2.214   2.778  11.124
 5931SOL    HW118680   2.293   2.803  11.171
 5931SOL    HW218681   2.243   2.718  11.055
 5932SOL     OW18682   3.389   2.133   9.435
 5932SOL    HW118683   3.327   2.067   9.464
 5932SOL    HW218684   3.423   2.171   9.516
 5933SOL     OW18685   3.147   2.685   9.337
 5933SOL    HW118686   3.190   2.600   9.342
 5933SOL    HW218687   3.181   2.724   9.256
 5934SOL     OW18688   2.932   3.203  10.168
 5934SOL    HW118689   2.938   3.131  10.105
 5934SOL    HW218690   2.988   3.271  10.132
 5935SOL     OW18691   2.180   2.684  10.249
 5935SOL    HW118692   2.269   2.707  10.224
 5935SOL    HW218693   2.189   2.602  10.298
 5936SOL     OW18694   2.997   2.235  10.994
 5936SOL    HW118695   2.949   2.287  11.059
 5936SOL    HW218696   3.084   2.276  10.991
 5937SOL     OW18697   3.029   2.059  10.782
 5937SOL    HW118698   3.015   2.121  10.854
 5937SOL    HW218699   3.073   2.110  10.715
 5938SOL     OW18700   1.871   3.175   9.502
 5938SOL    HW118701   1.783   3.192   9.469
 5938SOL    HW218702   1.866   3.086   9.538
 5939SOL     OW18703   1.963   3.630  10.251
 5939SOL    HW118704   1.930   3.555  10.203
 5939SOL    HW218705   2.045   3.653  10.207
 5940SOL     OW18706   2.350   3.439  10.213
 5940SOL    HW118707   2.418   3.502  10.237
 5940SOL    HW218708   2.395   3.377  10.155
 5941SOL     OW18709   2.832   2.647  10.532
 5941SOL    HW118710   2.895   2.630  10.602
 5941SOL    HW218711   2.749   2.611  10.565
 5942SOL     OW18712   1.884   2.396  10.427
 5942SOL    HW118713   1.962   2.409  10.373
 5942SOL    HW218714   1.914   2.412  10.517
 5943SOL     OW18715   3.244   2.793  10.967
 5943SOL    HW118716   3.265   2.887  10.963
 5943SOL    HW218717   3.240   2.766  10.875
 5944SOL     OW18718   2.680   2.434   9.685
 5944SOL    HW118719   2.686   2.362   9.623
 5944SOL    HW218720   2.610   2.490   9.650
 5945SOL     OW18721   3.500   2.463  10.488
 5945SOL    HW118722   3.488   2.402  10.561
 5945SOL    HW218723   3.587   2.443  10.454
 5946SOL     OW18724   2.100   3.408  11.029
 5946SOL    HW118725   2.078   3.475  11.094
 5946SOL    HW218726   2.107   3.327  11.081
 5947SOL     OW18727   2.520   2.321  10.567
 5947SOL    HW118728   2.522   2.231  10.535
 5947SOL    HW218729   2.541   2.375  10.490
 5948SOL     OW18730   2.783   3.530  10.783
 5948SOL    HW118731   2.757   3.489  10.701
 5948SOL    HW218732   2.777   3.624  10.766
 5949SOL     OW18733   2.327   2.386   9.537
 5949SOL    HW118734   2.392   2.457   9.540
 5949SOL    HW218735   2.248   2.427   9.501
 5950SOL     OW18736   2.001   3.007  10.788
 5950SOL    HW118737   2.002   2.960  10.871
 5950SOL    HW218738   2.019   2.940  10.722
 5951SOL     OW18739   3.178   2.903  10.528
 5951SOL    HW118740   3.199   2.840  10.459
 5951SOL    HW218741   3.114   2.962  10.488
 5952SOL     OW18742   3.176   2.717   9.613
 5952SOL    HW118743   3.103   2.684   9.664
 5952SOL    HW218744   3.150   2.703   9.522
 5953SOL     OW18745   3.646   3.596  10.472
 5953SOL    HW118746   3.703   3.622  10.400
 5953SOL    HW218747   3.614   3.509  10.446
 5954SOL     OW18748   3.107   3.593  10.413
 5954SOL    HW118749   3.191   3.617  10.372
 5954SOL    HW218750   3.116   3.500  10.434
 5955SOL     OW18751   1.951   3.125  10.321
 5955SOL    HW118752   1.932   3.142  10.413
 5955SOL    HW218753   1.877   3.072  10.291
 5956SOL     OW18754   2.543   3.531  11.052
 5956SOL    HW118755   2.483   3.605  11.055
 5956SOL    HW218756   2.605   3.553  10.983
 5957SOL     OW18757   3.567   2.020   9.817
 5957SOL    HW118758   3.635   2.007   9.751
 5957SOL    HW218759   3.556   1.934   9.858
 5958SOL     OW18760   3.253   3.430   9.803
 5958SOL    HW118761   3.310   3.465   9.734
 5958SOL    HW218762   3.203   3.505   9.834
 5959SOL     OW18763   2.004   3.649  11.148
 5959SOL    HW118764   1.952   3.585  11.197
 5959SOL    HW218765   2.050   3.699  11.215
 5960SOL     OW18766   3.139   2.791   9.981
 5960SOL    HW118767   3.213   2.732   9.992
 5960SOL    HW218768   3.173   2.862   9.927
 5961SOL     OW18769   2.663   3.139  10.733
 5961SOL    HW118770   2.637   3.181  10.815
 5961SOL    HW218771   2.592   3.160  10.671
 5962SOL     OW18772   2.535   3.483   9.471
 5962SOL    HW118773   2.546   3.503   9.378
 5962SOL    HW218774   2.475   3.408   9.472
 5963SOL     OW18775   3.478   3.590  10.702
 5963SOL    HW118776   3.535   3.591  10.625
 5963SOL    HW218777   3.463   3.682  10.722
 5964SOL     OW18778   3.702   2.042  10.274
 5964SOL    HW118779   3.733   1.955  10.251
 5964SOL    HW218780   3.615   2.047  10.234
 5965SOL     OW18781   3.069   3.461   9.348
 5965SOL    HW118782   3.059   3.369   9.373
 5965SOL    HW218783   3.007   3.473   9.277
 5966SOL     OW18784   2.685   2.869  10.686
 5966SOL    HW118785   2.728   2.864  10.601
 5966SOL    HW218786   2.680   2.963  10.704
 5967SOL     OW18787   2.780   2.774   9.602
 5967SOL    HW118788   2.839   2.806   9.534
 5967SOL    HW218789   2.831   2.706   9.648
 5968SOL     OW18790   3.346   3.502   9.355
 5968SOL    HW118791   3.253   3.486   9.337
 5968SOL    HW218792   3.386   3.505   9.268
 5969SOL     OW18793   2.230   3.167  10.801
 5969SOL    HW118794   2.216   3.244  10.746
 5969SOL    HW218795   2.151   3.114  10.788
 5970SOL     OW18796   3.457   3.142  10.584
 5970SOL    HW118797   3.527   3.130  10.649
 5970SOL    HW218798   3.401   3.210  10.621
 5971SOL     OW18799   2.926   2.974  10.023
 5971SOL    HW118800   2.853   2.923  10.059
 5971SOL    HW218801   2.990   2.908   9.997
 5972SOL     OW18802   2.886   2.105  10.274
 5972SOL    HW118803   2.882   2.058  10.190
 5972SOL    HW218804   2.883   2.036  10.340
 5973SOL     OW18805   2.469   3.354   9.789
 5973SOL    HW118806   2.518   3.302   9.725
 5973SOL    HW218807   2.397   3.392   9.739
 5974SOL     OW18808   3.590   2.248  10.688
 5974SOL    HW118809   3.663   2.311  10.684
 5974SOL    HW218810   3.617   2.177  10.629
 5975SOL     OW18811   2.126   3.202   9.605
 5975SOL    HW118812   2.034   3.198   9.578
 5975SOL    HW218813   2.125   3.244   9.690
 5976SOL     OW18814   1.977   2.894  11.037
 5976SOL    HW118815   1.900   2.868  11.087
 5976SOL    HW218816   2.051   2.852  11.081
 5977SOL     OW18817   2.557   2.033  10.807
 5977SOL    HW118818   2.644   2.011  10.774
 5977SOL    HW218819   2.574   2.081  10.888
 5978SOL     OW18820   1.897   2.279   9.322
 5978SOL    HW118821   1.817   2.227   9.331
 5978SOL    HW218822   1.894   2.312   9.233
 5979SOL     OW18823   3.284   2.719  10.706
 5979SOL    HW118824   3.233   2.780  10.652
 5979SOL    HW218825   3.372   2.722  10.669
 5980SOL     OW18826   3.039   3.194   9.429
 5980SOL    HW118827   2.948   3.166   9.429
 5980SOL    HW218828   3.064   3.194   9.521
 5981SOL     OW18829   2.482   2.691  10.742
 5981SOL    HW118830   2.538   2.768  10.729
 5981SOL    HW218831   2.544   2.618  10.750
 5982SOL     OW18832   3.350   3.647  10.294
 5982SOL    HW118833   3.373   3.709  10.224
 5982SOL    HW218834   3.433   3.608  10.320
 5983SOL     OW18835   2.572   2.423  11.006
 5983SOL    HW118836   2.620   2.479  11.068
 5983SOL    HW218837   2.589   2.334  11.037
 5984SOL     OW18838   3.336   3.054  10.936
 5984SOL    HW118839   3.326   3.070  11.030
 5984SOL    HW218840   3.428   3.070  10.918
 5985SOL     OW18841   2.229   3.608  10.881
 5985SOL    HW118842   2.146   3.652  10.862
 5985SOL    HW218843   2.204   3.524  10.919
 5986SOL     OW18844   3.522   2.741  10.568
 5986SOL    HW118845   3.522   2.655  10.525
 5986SOL    HW218846   3.515   2.804  10.497
 5987SOL     OW18847   3.080   2.182   9.766
 5987SOL    HW118848   3.141   2.109   9.761
 5987SOL    HW218849   3.109   2.232   9.842
 5988SOL     OW18850   2.434   2.594   9.992
 5988SOL    HW118851   2.479   2.676   9.972
 5988SOL    HW218852   2.376   2.580   9.917
 5989SOL     OW18853   3.614   2.228  10.961
 5989SOL    HW118854   3.600   2.242  10.867
 5989SOL    HW218855   3.543   2.171  10.988
 5990SOL     OW18856   3.620   2.787  10.821
 5990SOL    HW118857   3.610   2.880  10.841
 5990SOL    HW218858   3.593   2.778  10.730
 5991SOL     OW18859   2.728   3.228   9.358
 5991SOL    HW118860   2.687   3.254   9.440
 5991SOL    HW218861   2.740   3.310   9.310
 5992SOL     OW18862   2.524   3.646  10.241
 5992SOL    HW118863   2.504   3.738  10.225
 5992SOL    HW218864   2.619   3.641  10.239
 5993SOL     OW18865   2.732   2.834  10.163
 5993SOL    HW118866   2.781   2.760  10.199
 5993SOL    HW218867   2.692   2.876  10.239
 5994SOL     OW18868   2.937   2.849   9.397
 5994SOL    HW118869   2.918   2.902   9.320
 5994SOL    HW218870   3.012   2.795   9.371
 5995SOL     OW18871   3.706   3.415  10.149
 5995SOL    HW118872   3.626   3.397  10.100
 5995SOL    HW218873   3.712   3.343  10.212
 5996SOL     OW18874   2.088   3.158  11.162
 5996SOL    HW118875   2.028   3.093  11.126
 5996SOL    HW218876   2.058   3.171  11.252
 5997SOL     OW18877   1.954   3.088   9.975
 5997SOL    HW118878   1.970   3.046  10.059
 5997SOL    HW218879   2.019   3.051   9.916
 5998SOL     OW18880   2.549   3.271  10.943
 5998SOL    HW118881   2.470   3.229  10.976
 5998SOL    HW218882   2.548   3.359  10.981
 5999SOL     OW18883   3.669   2.035  10.544
 5999SOL    HW118884   3.662   1.939  10.545
 5999SOL    HW218885   3.687   2.057  10.453
 6000SOL     OW18886   3.552   3.351  10.404
 6000SOL    HW118887   3.476   3.328  10.351
 6000SOL    HW218888   3.560   3.278  10.467
 6001SOL     OW18889   2.214   2.405  10.598
 6001SOL    HW118890   2.194   2.320  10.638
 6001SOL    HW218891   2.304   2.396  10.567
 6002SOL     OW18892   2.694   3.441   9.986
 6002SOL    HW118893   2.668   3.499   9.914
 6002SOL    HW218894   2.621   3.379   9.995
 6003SOL     OW18895   3.290   2.092  10.425
 6003SOL    HW118896   3.306   2.007  10.464
 6003SOL    HW218897   3.242   2.141  10.492
 6004SOL     OW18898   2.873   1.879  10.441
 6004SOL    HW118899   2.817   1.814  10.398
 6004SOL    HW218900   2.960   1.838  10.442
 6005SOL     OW18901   2.637   3.195   9.634
 6005SOL    HW118902   2.610   3.103   9.643
 6005SOL    HW218903   2.719   3.201   9.683
 6006SOL     OW18904   2.482   3.414  10.597
 6006SOL    HW118905   2.480   3.496  10.647
 6006SOL    HW218906   2.571   3.410  10.561
 6007SOL     OW18907   3.224   1.912   9.485
 6007SOL    HW118908   3.259   1.839   9.433
 6007SOL    HW218909   3.134   1.886   9.505
 6008SOL     OW18910   3.156   2.327   9.987
 6008SOL    HW118911   3.104   2.408   9.991
 6008SOL    HW218912   3.152   2.292  10.076
 6009SOL     OW18913   3.441   2.054  10.192
 6009SOL    HW118914   3.389   2.081  10.267
 6009SOL    HW218915   3.443   2.130  10.135
 6010SOL     OW18916   1.904   2.925   9.620
 6010SOL    HW118917   1.997   2.916   9.601
 6010SOL    HW218918   1.876   2.836   9.643
 6011SOL     OW18919   2.752   3.529   9.649
 6011SOL    HW118920   2.678   3.510   9.590
 6011SOL    HW218921   2.721   3.601   9.703
 6012SOL     OW18922   2.084   2.515  11.313
 6012SOL    HW118923   2.002   2.482  11.350
 6012SOL    HW218924   2.072   2.512  11.219
 6013SOL     OW18925   1.851   2.291  11.787
 6013SOL    HW118926   1.764   2.286  11.826
 6013SOL    HW218927   1.856   2.216  11.728
 6014SOL     OW18928   2.429   3.161  12.357
 6014SOL    HW118929   2.344   3.169  12.314
 6014SOL    HW218930   2.447   3.248  12.391
 6015SOL     OW18931   3.432   3.375  11.882
 6015SOL    HW118932   3.389   3.351  11.964
 6015SOL    HW218933   3.361   3.379  11.818
 6016SOL     OW18934   2.994   2.562  11.866
 6016SOL    HW118935   3.042   2.644  11.854
 6016SOL    HW218936   2.947   2.574  11.949
 6017SOL     OW18937   3.634   2.463  11.400
 6017SOL    HW118938   3.611   2.456  11.307
 6017SOL    HW218939   3.599   2.384  11.440
 6018SOL     OW18940   2.601   2.996  12.220
 6018SOL    HW118941   2.537   3.036  12.278
 6018SOL    HW218942   2.644   3.070  12.177
 6019SOL     OW18943   2.738   2.620  12.996
 6019SOL    HW118944   2.732   2.690  13.061
 6019SOL    HW218945   2.760   2.665  12.914
 6020SOL     OW18946   2.546   2.853  11.815
 6020SOL    HW118947   2.613   2.848  11.883
 6020SOL    HW218948   2.479   2.911  11.852
 6021SOL     OW18949   2.577   3.013  12.991
 6021SOL    HW118950   2.626   3.090  13.023
 6021SOL    HW218951   2.498   3.050  12.951
 6022SOL     OW18952   2.195   3.276  12.237
 6022SOL    HW118953   2.119   3.238  12.193
 6022SOL    HW218954   2.237   3.330  12.171
 6023SOL     OW18955   3.319   3.365  12.535
 6023SOL    HW118956   3.374   3.442  12.545
 6023SOL    HW218957   3.250   3.376  12.600
 6024SOL     OW18958   3.465   2.302  11.920
 6024SOL    HW118959   3.398   2.321  11.855
 6024SOL    HW218960   3.466   2.378  11.978
 6025SOL     OW18961   2.085   3.578  11.652
 6025SOL    HW118962   2.111   3.638  11.722
 6025SOL    HW218963   2.159   3.578  11.591
 6026SOL     OW18964   3.000   3.204  12.866
 6026SOL    HW118965   3.041   3.196  12.952
 6026SOL    HW218966   2.948   3.124  12.857
 6027SOL     OW18967   2.094   3.305  11.709
 6027SOL    HW118968   2.076   3.399  11.711
 6027SOL    HW218969   2.036   3.268  11.776
 6028SOL     OW18970   2.131   2.961  12.060
 6028SOL    HW118971   2.127   2.873  12.098
 6028SOL    HW218972   2.072   3.013  12.115
 6029SOL     OW18973   2.461   3.646  12.599
 6029SOL    HW118974   2.380   3.633  12.649
 6029SOL    HW218975   2.490   3.734  12.623
 6030SOL     OW18976   2.439   2.853  11.312
 6030SOL    HW118977   2.489   2.896  11.243
 6030SOL    HW218978   2.476   2.886  11.393
 6031SOL     OW18979   3.454   1.991  12.635
 6031SOL    HW118980   3.482   2.070  12.589
 6031SOL    HW218981   3.434   2.020  12.724
 6032SOL     OW18982   1.992   2.522  11.735
 6032SOL    HW118983   1.949   2.439  11.750
 6032SOL    HW218984   1.979   2.572  11.815
 6033SOL     OW18985   3.699   3.609  11.516
 6033SOL    HW118986   3.772   3.584  11.573
 6033SOL    HW218987   3.717   3.701  11.494
 6034SOL     OW18988   1.898   3.447  11.291
 6034SOL    HW118989   1.881   3.355  11.310
 6034SOL    HW218990   1.875   3.494  11.371
 6035SOL     OW18991   3.554   2.784  11.825
 6035SOL    HW118992   3.636   2.738  11.807
 6035SOL    HW218993   3.534   2.831  11.745
 6036SOL     OW18994   3.505   2.962  11.605
 6036SOL    HW118995   3.590   2.964  11.562
 6036SOL    HW218996   3.512   3.027  11.675
 6037SOL     OW18997   1.993   2.601  12.756
 6037SOL    HW118998   2.085   2.621  12.773
 6037SOL    HW218999   1.947   2.684  12.771
 6038SOL     OW19000   2.481   3.256  11.906
 6038SOL    HW119001   2.436   3.172  11.913
 6038SOL    HW219002   2.463   3.284  11.816
 6039SOL     OW19003   3.145   3.096  12.592
 6039SOL    HW119004   3.176   3.028  12.532
 6039SOL    HW219005   3.206   3.091  12.666
 6040SOL     OW19006   2.702   1.866  11.686
 6040SOL    HW119007   2.740   1.950  11.660
 6040SOL    HW219008   2.608   1.881  11.684
 6041SOL     OW19009   2.050   2.828  12.454
 6041SOL    HW119010   2.134   2.786  12.436
 6041SOL    HW219011   1.987   2.778  12.402
 6042SOL     OW19012   3.386   2.864  11.374
 6042SOL    HW119013   3.318   2.806  11.407
 6042SOL    HW219014   3.430   2.897  11.453
 6043SOL     OW19015   3.092   3.670  12.802
 6043SOL    HW119016   3.062   3.732  12.735
 6043SOL    HW219017   3.090   3.585  12.759
 6044SOL     OW19018   3.326   3.281  12.116
 6044SOL    HW119019   3.262   3.296  12.185
 6044SOL    HW219020   3.315   3.189  12.092
 6045SOL     OW19021   3.502   3.612  11.752
 6045SOL    HW119022   3.495   3.575  11.664
 6045SOL    HW219023   3.490   3.537  11.811
 6046SOL     OW19024   2.472   2.603  11.451
 6046SOL    HW119025   2.472   2.684  11.399
 6046SOL    HW219026   2.408   2.618  11.520
 6047SOL     OW19027   3.139   2.233  12.108
 6047SOL    HW119028   3.051   2.196  12.115
 6047SOL    HW219029   3.193   2.178  12.164
 6048SOL     OW19030   3.433   3.541  11.482
 6048SOL    HW119031   3.526   3.561  11.477
 6048SOL    HW219032   3.407   3.523  11.391
 6049SOL     OW19033   2.653   2.476  12.616
 6049SOL    HW119034   2.630   2.453  12.706
 6049SOL    HW219035   2.606   2.412  12.562
 6050SOL     OW19036   3.255   2.336  12.850
 6050SOL    HW119037   3.260   2.380  12.935
 6050SOL    HW219038   3.310   2.258  12.860
 6051SOL     OW19039   2.809   2.746  12.759
 6051SOL    HW119040   2.866   2.680  12.719
 6051SOL    HW219041   2.762   2.784  12.685
 6052SOL     OW19042   2.863   2.275  12.404
 6052SOL    HW119043   2.778   2.294  12.443
 6052SOL    HW219044   2.843   2.232  12.321
 6053SOL     OW19045   2.918   2.561  11.596
 6053SOL    HW119046   2.937   2.556  11.689
 6053SOL    HW219047   2.834   2.516  11.586
 6054SOL     OW19048   1.952   2.684  11.952
 6054SOL    HW119049   2.034   2.684  12.001
 6054SOL    HW219050   1.904   2.760  11.986
 6055SOL     OW19051   1.974   3.723  12.752
 6055SOL    HW119052   1.984   3.702  12.845
 6055SOL    HW219053   1.884   3.700  12.731
 6056SOL     OW19054   2.752   2.217  11.374
 6056SOL    HW119055   2.802   2.267  11.309
 6056SOL    HW219056   2.713   2.146  11.324
 6057SOL     OW19057   3.566   2.432  13.004
 6057SOL    HW119058   3.531   2.506  12.954
 6057SOL    HW219059   3.591   2.368  12.937
 6058SOL     OW19060   3.241   3.003  11.711
 6058SOL    HW119061   3.320   2.991  11.660
 6058SOL    HW219062   3.189   3.066  11.660
 6059SOL     OW19063   2.448   2.064  12.077
 6059SOL    HW119064   2.353   2.076  12.076
 6059SOL    HW219065   2.482   2.147  12.044
 6060SOL     OW19066   2.860   3.308  11.639
 6060SOL    HW119067   2.829   3.384  11.590
 6060SOL    HW219068   2.836   3.327  11.730
 6061SOL     OW19069   2.213   3.678  12.006
 6061SOL    HW119070   2.263   3.598  12.025
 6061SOL    HW219071   2.270   3.749  12.033
 6062SOL     OW19072   3.671   2.923  12.044
 6062SOL    HW119073   3.620   2.893  11.968
 6062SOL    HW219074   3.608   2.926  12.116
 6063SOL     OW19075   3.087   3.402  12.684
 6063SOL    HW119076   3.076   3.329  12.746
 6063SOL    HW219077   3.017   3.390  12.621
 6064SOL     OW19078   2.173   2.819  11.430
 6064SOL    HW119079   2.253   2.839  11.382
 6064SOL    HW219080   2.144   2.735  11.393
 6065SOL     OW19081   3.344   2.616  11.892
 6065SOL    HW119082   3.342   2.574  11.979
 6065SOL    HW219083   3.423   2.670  11.894
 6066SOL     OW19084   2.333   3.130  12.909
 6066SOL    HW119085   2.307   3.135  12.817
 6066SOL    HW219086   2.250   3.127  12.957
 6067SOL     OW19087   2.978   3.646  11.389
 6067SOL    HW119088   2.911   3.602  11.442
 6067SOL    HW219089   3.009   3.578  11.329
 6068SOL     OW19090   3.484   3.251  11.262
 6068SOL    HW119091   3.441   3.335  11.244
 6068SOL    HW219092   3.418   3.185  11.240
 6069SOL     OW19093   2.325   3.603  11.497
 6069SOL    HW119094   2.366   3.664  11.558
 6069SOL    HW219095   2.397   3.575  11.441
 6070SOL     OW19096   3.262   1.969  11.617
 6070SOL    HW119097   3.258   1.943  11.525
 6070SOL    HW219098   3.356   1.976  11.635
 6071SOL     OW19099   2.123   3.651  12.386
 6071SOL    HW119100   2.168   3.577  12.426
 6071SOL    HW219101   2.102   3.622  12.298
 6072SOL     OW19102   2.803   3.567  12.068
 6072SOL    HW119103   2.881   3.517  12.091
 6072SOL    HW219104   2.761   3.515  11.999
 6073SOL     OW19105   2.259   2.541  11.644
 6073SOL    HW119106   2.264   2.458  11.596
 6073SOL    HW219107   2.168   2.547  11.673
 6074SOL     OW19108   3.387   2.086  12.895
 6074SOL    HW119109   3.398   2.106  12.988
 6074SOL    HW219110   3.321   2.017  12.893
 6075SOL     OW19111   2.537   1.982  11.264
 6075SOL    HW119112   2.575   1.902  11.302
 6075SOL    HW219113   2.469   1.950  11.205
 6076SOL     OW19114   2.628   2.148  12.923
 6076SOL    HW119115   2.709   2.097  12.917
 6076SOL    HW219116   2.581   2.107  12.996
 6077SOL     OW19117   2.737   3.383  12.368
 6077SOL    HW119118   2.719   3.345  12.282
 6077SOL    HW219119   2.807   3.328  12.404
 6078SOL     OW19120   3.200   2.453  12.607
 6078SOL    HW119121   3.232   2.422  12.691
 6078SOL    HW219122   3.238   2.540  12.598
 6079SOL     OW19123   2.681   3.248  12.121
 6079SOL    HW119124   2.766   3.237  12.079
 6079SOL    HW219125   2.619   3.257  12.049
 6080SOL     OW19126   2.787   2.368  12.071
 6080SOL    HW119127   2.762   2.360  11.979
 6080SOL    HW219128   2.822   2.282  12.093
 6081SOL     OW19129   2.434   1.908  11.668
 6081SOL    HW119130   2.380   1.887  11.745
 6081SOL    HW219131   2.409   1.997  11.645
 6082SOL     OW19132   3.289   3.065  11.209
 6082SOL    HW119133   3.319   2.990  11.261
 6082SOL    HW219134   3.203   3.086  11.246
 6083SOL     OW19135   2.810   2.114  11.625
 6083SOL    HW119136   2.786   2.150  11.540
 6083SOL    HW219137   2.904   2.129  11.632
 6084SOL     OW19138   2.944   2.549  12.628
 6084SOL    HW119139   2.882   2.477  12.635
 6084SOL    HW219140   3.030   2.507  12.623
 6085SOL     OW19141   3.078   3.436  11.968
 6085SOL    HW119142   3.092   3.501  11.899
 6085SOL    HW219143   3.150   3.448  12.029
 6086SOL     OW19144   2.337   3.018  11.894
 6086SOL    HW119145   2.271   3.000  11.960
 6086SOL    HW219146   2.292   3.006  11.811
 6087SOL     OW19147   3.123   3.651  11.784
 6087SOL    HW119148   3.172   3.715  11.734
 6087SOL    HW219149   3.047   3.699  11.817
 6088SOL     OW19150   2.889   2.392  11.198
 6088SOL    HW119151   2.844   2.474  11.180
 6088SOL    HW219152   2.951   2.412  11.267
 6089SOL     OW19153   1.943   2.427  12.553
 6089SOL    HW119154   2.037   2.422  12.536
 6089SOL    HW219155   1.936   2.484  12.629
 6090SOL     OW19156   2.725   2.316  11.808
 6090SOL    HW119157   2.690   2.375  11.740
 6090SOL    HW219158   2.754   2.239  11.760
 6091SOL     OW19159   2.877   1.916  11.919
 6091SOL    HW119160   2.822   1.906  11.841
 6091SOL    HW219161   2.854   1.842  11.975
 6092SOL     OW19162   3.304   3.021  12.029
 6092SOL    HW119163   3.232   2.958  12.029
 6092SOL    HW219164   3.330   3.028  11.937
 6093SOL     OW19165   3.327   2.474  12.136
 6093SOL    HW119166   3.269   2.398  12.139
 6093SOL    HW219167   3.384   2.465  12.212
 6094SOL     OW19168   3.724   2.675  11.547
 6094SOL    HW119169   3.766   2.619  11.612
 6094SOL    HW219170   3.688   2.613  11.483
 6095SOL     OW19171   2.351   3.283  11.322
 6095SOL    HW119172   2.276   3.255  11.373
 6095SOL    HW219173   2.345   3.232  11.241
 6096SOL     OW19174   3.533   3.129  11.811
 6096SOL    HW119175   3.628   3.129  11.822
 6096SOL    HW219176   3.506   3.218  11.833
 6097SOL     OW19177   3.256   2.435  11.243
 6097SOL    HW119178   3.193   2.413  11.312
 6097SOL    HW219179   3.340   2.405  11.276
 6098SOL     OW19180   3.610   3.093  12.727
 6098SOL    HW119181   3.698   3.059  12.710
 6098SOL    HW219182   3.624   3.183  12.757
 6099SOL     OW19183   2.914   3.213  12.502
 6099SOL    HW119184   2.839   3.182  12.552
 6099SOL    HW219185   2.990   3.172  12.544
 6100SOL     OW19186   3.469   3.493  12.832
 6100SOL    HW119187   3.459   3.528  12.743
 6100SOL    HW219188   3.548   3.438  12.827
 6101SOL     OW19189   2.999   3.075  12.273
 6101SOL    HW119190   2.939   3.114  12.337
 6101SOL    HW219191   2.970   3.111  12.189
 6102SOL     OW19192   3.485   2.954  12.245
 6102SOL    HW119193   3.474   3.017  12.316
 6102SOL    HW219194   3.412   2.972  12.186
 6103SOL     OW19195   2.793   1.948  12.562
 6103SOL    HW119196   2.814   1.931  12.470
 6103SOL    HW219197   2.872   1.988  12.597
 6104SOL     OW19198   2.846   2.977  12.894
 6104SOL    HW119199   2.755   2.994  12.919
 6104SOL    HW219200   2.842   2.898  12.841
 6105SOL     OW19201   2.572   2.924  11.544
 6105SOL    HW119202   2.557   2.902  11.636
 6105SOL    HW219203   2.648   2.871  11.518
 6106SOL     OW19204   2.279   2.676  12.423
 6106SOL    HW119205   2.347   2.689  12.489
 6106SOL    HW219206   2.243   2.589  12.443
 6107SOL     OW19207   3.130   2.236  12.456
 6107SOL    HW119208   3.161   2.315  12.501
 6107SOL    HW219209   3.039   2.257  12.432
 6108SOL     OW19210   1.938   3.436  12.529
 6108SOL    HW119211   1.910   3.509  12.475
 6108SOL    HW219212   2.033   3.435  12.522
 6109SOL     OW19213   2.195   2.984  11.659
 6109SOL    HW119214   2.196   3.058  11.599
 6109SOL    HW219215   2.193   2.907  11.603
 6110SOL     OW19216   2.403   2.384  12.032
 6110SOL    HW119217   2.410   2.449  11.962
 6110SOL    HW219218   2.461   2.416  12.101
 6111SOL     OW19219   3.108   3.213  11.563
 6111SOL    HW119220   3.164   3.283  11.596
 6111SOL    HW219221   3.021   3.234  11.596
 6112SOL     OW19222   3.154   3.324  12.322
 6112SOL    HW119223   3.210   3.330  12.399
 6112SOL    HW219224   3.100   3.246  12.337
 6113SOL     OW19225   3.434   2.478  11.660
 6113SOL    HW119226   3.386   2.527  11.726
 6113SOL    HW219227   3.475   2.544  11.605
 6114SOL     OW19228   2.207   3.394  12.478
 6114SOL    HW119229   2.197   3.346  12.396
 6114SOL    HW219230   2.302   3.404  12.488
 6115SOL     OW19231   2.291   2.607  12.788
 6115SOL    HW119232   2.348   2.648  12.724
 6115SOL    HW219233   2.339   2.530  12.818
 6116SOL     OW19234   3.471   2.642  12.861
 6116SOL    HW119235   3.386   2.685  12.855
 6116SOL    HW219236   3.524   2.685  12.793
 6117SOL     OW19237   2.856   1.997  12.914
 6117SOL    HW119238   2.918   2.070  12.901
 6117SOL    HW219239   2.907   1.919  12.894
 6118SOL     OW19240   2.348   1.899  12.940
 6118SOL    HW119241   2.301   1.850  12.872
 6118SOL    HW219242   2.290   1.972  12.962
 6119SOL     OW19243   2.459   2.736  12.210
 6119SOL    HW119244   2.492   2.826  12.209
 6119SOL    HW219245   2.395   2.735  12.281
 6120SOL     OW19246   3.205   2.721  12.189
 6120SOL    HW119247   3.119   2.703  12.151
 6120SOL    HW219248   3.253   2.639  12.179
 6121SOL     OW19249   3.060   2.388  11.432
 6121SOL    HW119250   3.069   2.310  11.486
 6121SOL    HW219251   3.018   2.453  11.489
 6122SOL     OW19252   1.909   3.174  12.445
 6122SOL    HW119253   1.940   3.119  12.517
 6122SOL    HW219254   1.914   3.264  12.480
 6123SOL     OW19255   2.577   2.483  12.221
 6123SOL    HW119256   2.653   2.468  12.166
 6123SOL    HW219257   2.554   2.575  12.207
 6124SOL     OW19258   3.592   2.820  13.044
 6124SOL    HW119259   3.554   2.751  12.989
 6124SOL    HW219260   3.524   2.837  13.110
 6125SOL     OW19261   3.485   2.244  11.529
 6125SOL    HW119262   3.511   2.176  11.592
 6125SOL    HW219263   3.460   2.319  11.583
 6126SOL     OW19264   2.889   2.618  12.128
 6126SOL    HW119265   2.879   2.635  12.222
 6126SOL    HW219266   2.862   2.527  12.118
 6127SOL     OW19267   2.848   3.431  12.896
 6127SOL    HW119268   2.827   3.470  12.812
 6127SOL    HW219269   2.889   3.347  12.874
 6128SOL     OW19270   3.701   3.353  12.768
 6128SOL    HW119271   3.727   3.385  12.682
 6128SOL    HW219272   3.780   3.359  12.821
 6129SOL     OW19273   2.213   2.778  12.988
 6129SOL    HW119274   2.293   2.803  13.033
 6129SOL    HW219275   2.242   2.718  12.918
 6130SOL     OW19276   3.389   2.133  11.297
 6130SOL    HW119277   3.327   2.067  11.326
 6130SOL    HW219278   3.423   2.171  11.378
 6131SOL     OW19279   3.147   2.685  11.199
 6131SOL    HW119280   3.190   2.600  11.204
 6131SOL    HW219281   3.181   2.724  11.118
 6132SOL     OW19282   2.932   3.203  12.030
 6132SOL    HW119283   2.938   3.131  11.967
 6132SOL    HW219284   2.988   3.271  11.994
 6133SOL     OW19285   2.179   2.684  12.111
 6133SOL    HW119286   2.269   2.706  12.085
 6133SOL    HW219287   2.188   2.603  12.162
 6134SOL     OW19288   2.997   2.235  12.856
 6134SOL    HW119289   2.949   2.287  12.921
 6134SOL    HW219290   3.084   2.275  12.853
 6135SOL     OW19291   3.029   2.059  12.644
 6135SOL    HW119292   3.015   2.121  12.716
 6135SOL    HW219293   3.073   2.110  12.576
 6136SOL     OW19294   1.871   3.175  11.364
 6136SOL    HW119295   1.783   3.192  11.331
 6136SOL    HW219296   1.865   3.086  11.400
 6137SOL     OW19297   1.963   3.631  12.113
 6137SOL    HW119298   1.930   3.555  12.065
 6137SOL    HW219299   2.045   3.653  12.068
 6138SOL     OW19300   2.350   3.439  12.075
 6138SOL    HW119301   2.418   3.502  12.099
 6138SOL    HW219302   2.395   3.377  12.017
 6139SOL     OW19303   2.832   2.647  12.394
 6139SOL    HW119304   2.895   2.630  12.464
 6139SOL    HW219305   2.749   2.611  12.427
 6140SOL     OW19306   1.884   2.397  12.289
 6140SOL    HW119307   1.963   2.409  12.237
 6140SOL    HW219308   1.913   2.411  12.380
 6141SOL     OW19309   3.244   2.794  12.828
 6141SOL    HW119310   3.265   2.887  12.825
 6141SOL    HW219311   3.240   2.766  12.737
 6142SOL     OW19312   2.680   2.434  11.547
 6142SOL    HW119313   2.686   2.361  11.485
 6142SOL    HW219314   2.610   2.489  11.512
 6143SOL     OW19315   3.500   2.463  12.350
 6143SOL    HW119316   3.488   2.402  12.423
 6143SOL    HW219317   3.587   2.443  12.316
 6144SOL     OW19318   2.100   3.408  12.891
 6144SOL    HW119319   2.078   3.476  12.955
 6144SOL    HW219320   2.107   3.328  12.943
 6145SOL     OW19321   2.533   2.318  12.430
 6145SOL    HW119322   2.524   2.229  12.395
 6145SOL    HW219323   2.547   2.372  12.352
 6146SOL     OW19324   2.783   3.530  12.645
 6146SOL    HW119325   2.757   3.489  12.563
 6146SOL    HW219326   2.776   3.624  12.628
 6147SOL     OW19327   2.324   2.386  11.394
 6147SOL    HW119328   2.389   2.457  11.398
 6147SOL    HW219329   2.245   2.428  11.361
 6148SOL     OW19330   2.000   3.007  12.649
 6148SOL    HW119331   2.002   2.959  12.732
 6148SOL    HW219332   2.019   2.941  12.583
 6149SOL     OW19333   3.178   2.903  12.390
 6149SOL    HW119334   3.199   2.840  12.320
 6149SOL    HW219335   3.114   2.962  12.350
 6150SOL     OW19336   3.177   2.717  11.475
 6150SOL    HW119337   3.103   2.684  11.526
 6150SOL    HW219338   3.150   2.703  11.384
 6151SOL     OW19339   3.646   3.596  12.334
 6151SOL    HW119340   3.703   3.622  12.262
 6151SOL    HW219341   3.614   3.509  12.308
 6152SOL     OW19342   3.107   3.593  12.275
 6152SOL    HW119343   3.191   3.617  12.234
 6152SOL    HW219344   3.116   3.501  12.296
 6153SOL     OW19345   1.951   3.125  12.183
 6153SOL    HW119346   1.932   3.142  12.275
 6153SOL    HW219347   1.877   3.072  12.153
 6154SOL     OW19348   2.543   3.530  12.913
 6154SOL    HW119349   2.484   3.605  12.917
 6154SOL    HW219350   2.606   3.553  12.844
 6155SOL     OW19351   3.567   2.020  11.679
 6155SOL    HW119352   3.635   2.007  11.613
 6155SOL    HW219353   3.556   1.934  11.720
 6156SOL     OW19354   3.253   3.430  11.665
 6156SOL    HW119355   3.310   3.465  11.596
 6156SOL    HW219356   3.203   3.505  11.696
 6157SOL     OW19357   2.004   3.649  13.010
 6157SOL    HW119358   1.952   3.585  13.059
 6157SOL    HW219359   2.049   3.700  13.077
 6158SOL     OW19360   3.139   2.791  11.843
 6158SOL    HW119361   3.213   2.732  11.854
 6158SOL    HW219362   3.173   2.862  11.789
 6159SOL     OW19363   2.663   3.139  12.595
 6159SOL    HW119364   2.637   3.181  12.677
 6159SOL    HW219365   2.592   3.160  12.533
 6160SOL     OW19366   2.535   3.483  11.333
 6160SOL    HW119367   2.546   3.503  11.240
 6160SOL    HW219368   2.475   3.408  11.334
 6161SOL     OW19369   3.478   3.590  12.563
 6161SOL    HW119370   3.535   3.591  12.487
 6161SOL    HW219371   3.463   3.682  12.584
 6162SOL     OW19372   3.702   2.042  12.136
 6162SOL    HW119373   3.733   1.955  12.113
 6162SOL    HW219374   3.615   2.047  12.096
 6163SOL     OW19375   3.069   3.461  11.210
 6163SOL    HW119376   3.060   3.369  11.235
 6163SOL    HW219377   3.007   3.473  11.139
 6164SOL     OW19378   2.685   2.869  12.548
 6164SOL    HW119379   2.728   2.864  12.463
 6164SOL    HW219380   2.680   2.963  12.566
 6165SOL     OW19381   2.780   2.774  11.464
 6165SOL    HW119382   2.839   2.806  11.396
 6165SOL    HW219383   2.830   2.706  11.510
 6166SOL     OW19384   3.346   3.502  11.217
 6166SOL    HW119385   3.253   3.486  11.200
 6166SOL    HW219386   3.386   3.506  11.130
 6167SOL     OW19387   2.229   3.167  12.664
 6167SOL    HW119388   2.216   3.244  12.608
 6167SOL    HW219389   2.151   3.114  12.650
 6168SOL     OW19390   3.458   3.142  12.447
 6168SOL    HW119391   3.526   3.130  12.512
 6168SOL    HW219392   3.401   3.210  12.483
 6169SOL     OW19393   2.926   2.974  11.885
 6169SOL    HW119394   2.853   2.923  11.921
 6169SOL    HW219395   2.990   2.908  11.859
 6170SOL     OW19396   2.886   2.105  12.136
 6170SOL    HW119397   2.882   2.058  12.052
 6170SOL    HW219398   2.883   2.036  12.202
 6171SOL     OW19399   2.469   3.354  11.651
 6171SOL    HW119400   2.518   3.302  11.587
 6171SOL    HW219401   2.397   3.392  11.600
 6172SOL     OW19402   3.591   2.248  12.550
 6172SOL    HW119403   3.663   2.311  12.546
 6172SOL    HW219404   3.617   2.177  12.491
 6173SOL     OW19405   2.126   3.202  11.466
 6173SOL    HW119406   2.033   3.198  11.440
 6173SOL    HW219407   2.125   3.244  11.552
 6174SOL     OW19408   1.977   2.893  12.898
 6174SOL    HW119409   1.900   2.867  12.949
 6174SOL    HW219410   2.050   2.851  12.943
 6175SOL     OW19411   2.554   2.034  12.670
 6175SOL    HW119412   2.641   2.013  12.636
 6175SOL    HW219413   2.571   2.082  12.751
 6176SOL     OW19414   1.895   2.281  11.184
 6176SOL    HW119415   1.813   2.232  11.190
 6176SOL    HW219416   1.899   2.308  11.092
 6177SOL     OW19417   3.284   2.719  12.568
 6177SOL    HW119418   3.233   2.780  12.514
 6177SOL    HW219419   3.372   2.722  12.531
 6178SOL     OW19420   3.039   3.194  11.291
 6178SOL    HW119421   2.948   3.166  11.291
 6178SOL    HW219422   3.065   3.194  11.383
 6179SOL     OW19423   2.482   2.691  12.604
 6179SOL    HW119424   2.537   2.768  12.591
 6179SOL    HW219425   2.544   2.618  12.612
 6180SOL     OW19426   3.350   3.647  12.156
 6180SOL    HW119427   3.373   3.709  12.086
 6180SOL    HW219428   3.433   3.608  12.182
 6181SOL     OW19429   2.572   2.423  12.869
 6181SOL    HW119430   2.621   2.478  12.930
 6181SOL    HW219431   2.590   2.333  12.899
 6182SOL     OW19432   3.336   3.054  12.798
 6182SOL    HW119433   3.326   3.070  12.892
 6182SOL    HW219434   3.428   3.070  12.780
 6183SOL     OW19435   2.229   3.608  12.742
 6183SOL    HW119436   2.146   3.652  12.724
 6183SOL    HW219437   2.204   3.524  12.781
 6184SOL     OW19438   3.522   2.741  12.430
 6184SOL    HW119439   3.522   2.655  12.387
 6184SOL    HW219440   3.515   2.804  12.359
 6185SOL     OW19441   3.080   2.182  11.628
 6185SOL    HW119442   3.141   2.108  11.623
 6185SOL    HW219443   3.109   2.232  11.704
 6186SOL     OW19444   2.434   2.594  11.853
 6186SOL    HW119445   2.479   2.676  11.834
 6186SOL    HW219446   2.376   2.580  11.778
 6187SOL     OW19447   3.614   2.229  12.823
 6187SOL    HW119448   3.600   2.242  12.729
 6187SOL    HW219449   3.542   2.171  12.850
 6188SOL     OW19450   3.620   2.787  12.683
 6188SOL    HW119451   3.610   2.880  12.703
 6188SOL    HW219452   3.593   2.778  12.592
 6189SOL     OW19453   2.728   3.228  11.220
 6189SOL    HW119454   2.687   3.254  11.302
 6189SOL    HW219455   2.740   3.310  11.172
 6190SOL     OW19456   2.524   3.646  12.103
 6190SOL    HW119457   2.504   3.738  12.087
 6190SOL    HW219458   2.619   3.641  12.101
 6191SOL     OW19459   2.732   2.834  12.025
 6191SOL    HW119460   2.781   2.760  12.061
 6191SOL    HW219461   2.692   2.876  12.101
 6192SOL     OW19462   2.937   2.849  11.259
 6192SOL    HW119463   2.918   2.902  11.182
 6192SOL    HW219464   3.012   2.795  11.233
 6193SOL     OW19465   3.706   3.415  12.011
 6193SOL    HW119466   3.626   3.397  11.962
 6193SOL    HW219467   3.712   3.343  12.074
 6194SOL     OW19468   2.088   3.158  13.024
 6194SOL    HW119469   2.028   3.093  12.987
 6194SOL    HW219470   2.056   3.172  13.113
 6195SOL     OW19471   1.954   3.089  11.837
 6195SOL    HW119472   1.970   3.046  11.921
 6195SOL    HW219473   2.019   3.051  11.778
 6196SOL     OW19474   2.549   3.271  12.805
 6196SOL    HW119475   2.469   3.229  12.838
 6196SOL    HW219476   2.548   3.359  12.842
 6197SOL     OW19477   3.669   2.035  12.406
 6197SOL    HW119478   3.662   1.939  12.407
 6197SOL    HW219479   3.687   2.057  12.315
 6198SOL     OW19480   3.552   3.350  12.266
 6198SOL    HW119481   3.476   3.328  12.213
 6198SOL    HW219482   3.559   3.279  12.329
 6199SOL     OW19483   2.210   2.407  12.453
 6199SOL    HW119484   2.189   2.321  12.492
 6199SOL    HW219485   2.299   2.397  12.420
 6200SOL     OW19486   2.694   3.441  11.848
 6200SOL    HW119487   2.667   3.498  11.776
 6200SOL    HW219488   2.621   3.379  11.857
 6201SOL     OW19489   3.290   2.092  12.287
 6201SOL    HW119490   3.306   2.007  12.326
 6201SOL    HW219491   3.242   2.141  12.354
 6202SOL     OW19492   2.873   1.879  12.303
 6202SOL    HW119493   2.817   1.814  12.261
 6202SOL    HW219494   2.960   1.838  12.304
 6203SOL     OW19495   2.637   3.195  11.496
 6203SOL    HW119496   2.610   3.103  11.505
 6203SOL    HW219497   2.719   3.201  11.545
 6204SOL     OW19498   2.482   3.414  12.459
 6204SOL    HW119499   2.480   3.496  12.509
 6204SOL    HW219500   2.571   3.410  12.423
 6205SOL     OW19501   3.224   1.912  11.347
 6205SOL    HW119502   3.259   1.840  11.295
 6205SOL    HW219503   3.134   1.886  11.367
 6206SOL     OW19504   3.156   2.327  11.849
 6206SOL    HW119505   3.104   2.408  11.853
 6206SOL    HW219506   3.152   2.292  11.938
 6207SOL     OW19507   3.441   2.054  12.054
 6207SOL    HW119508   3.389   2.081  12.129
 6207SOL    HW219509   3.443   2.130  11.997
 6208SOL     OW19510   1.904   2.925  11.482
 6208SOL    HW119511   1.997   2.916  11.463
 6208SOL    HW219512   1.876   2.836  11.505
 6209SOL     OW19513   2.752   3.529  11.511
 6209SOL    HW119514   2.678   3.510  11.452
 6209SOL    HW219515   2.721   3.601  11.565
 6210SOL     OW19516   2.078   2.514  13.171
 6210SOL    HW119517   1.992   2.495  13.210
 6210SOL    HW219518   2.061   2.519  13.077
 6211SOL     OW19519   1.857   2.273  13.647
 6211SOL    HW119520   1.761   2.279  13.657
 6211SOL    HW219521   1.869   2.219  13.570
 6212SOL     OW19522   3.375   3.354  13.733
 6212SOL    HW119523   3.329   3.275  13.761
 6212SOL    HW219524   3.330   3.381  13.653
 6213SOL     OW19525   2.995   2.555  13.723
 6213SOL    HW119526   3.044   2.636  13.709
 6213SOL    HW219527   2.945   2.572  13.803
 6214SOL     OW19528   3.651   2.461  13.258
 6214SOL    HW119529   3.621   2.456  13.167
 6214SOL    HW219530   3.608   2.389  13.302
 6215SOL     OW19531   2.542   2.871  13.671
 6215SOL    HW119532   2.595   2.855  13.749
 6215SOL    HW219533   2.466   2.921  13.702
 6216SOL     OW19534   3.475   2.320  13.754
 6216SOL    HW119535   3.388   2.303  13.718
 6216SOL    HW219536   3.465   2.402  13.803
 6217SOL     OW19537   2.090   3.579  13.523
 6217SOL    HW119538   2.126   3.628  13.597
 6217SOL    HW219539   2.160   3.580  13.458
 6218SOL     OW19540   2.095   3.303  13.570
 6218SOL    HW119541   2.079   3.398  13.574
 6218SOL    HW219542   2.037   3.266  13.635
 6219SOL     OW19543   2.102   2.977   0.032
 6219SOL    HW119544   2.121   2.914   0.100
 6219SOL    HW219545   2.031   3.031   0.068
 6220SOL     OW19546   2.438   2.854  13.171
 6220SOL    HW119547   2.488   2.897  13.102
 6220SOL    HW219548   2.476   2.887  13.252
 6221SOL     OW19549   1.992   2.518  13.598
 6221SOL    HW119550   1.950   2.434  13.616
 6221SOL    HW219551   1.974   2.570  13.677
 6222SOL     OW19552   3.699   3.610  13.375
 6222SOL    HW119553   3.773   3.584  13.430
 6222SOL    HW219554   3.715   3.703  13.356
 6223SOL     OW19555   1.897   3.448  13.153
 6223SOL    HW119556   1.880   3.356  13.174
 6223SOL    HW219557   1.877   3.494  13.235
 6224SOL     OW19558   3.550   2.782  13.672
 6224SOL    HW119559   3.633   2.742  13.644
 6224SOL    HW219560   3.525   2.838  13.598
 6225SOL     OW19561   3.503   2.964  13.463
 6225SOL    HW119562   3.588   2.964  13.419
 6225SOL    HW219563   3.512   3.032  13.531
 6226SOL     OW19564   2.466   3.242  13.755
 6226SOL    HW119565   2.419   3.158  13.760
 6226SOL    HW219566   2.442   3.277  13.669
 6227SOL     OW19567   2.706   1.867  13.542
 6227SOL    HW119568   2.739   1.954  13.519
 6227SOL    HW219569   2.611   1.877  13.546
 6228SOL     OW19570   3.385   2.863  13.235
 6228SOL    HW119571   3.317   2.805  13.269
 6228SOL    HW219572   3.428   2.898  13.314
 6229SOL     OW19573   3.507   3.598  13.617
 6229SOL    HW119574   3.492   3.570  13.527
 6229SOL    HW219575   3.501   3.518  13.669
 6230SOL     OW19576   2.472   2.605  13.309
 6230SOL    HW119577   2.470   2.685  13.257
 6230SOL    HW219578   2.406   2.620  13.377
 6231SOL     OW19579   3.114   2.184   0.037
 6231SOL    HW119580   3.038   2.135   0.066
 6231SOL    HW219581   3.189   2.135   0.070
 6232SOL     OW19582   3.433   3.546  13.341
 6232SOL    HW119583   3.527   3.566  13.338
 6232SOL    HW219584   3.410   3.526  13.251
 6233SOL     OW19585   2.915   2.559  13.456
 6233SOL    HW119586   2.935   2.548  13.549
 6233SOL    HW219587   2.832   2.514  13.444
 6234SOL     OW19588   1.948   2.686  13.810
 6234SOL    HW119589   2.019   2.681  13.874
 6234SOL    HW219590   1.893   2.758  13.842
 6235SOL     OW19591   2.752   2.217  13.234
 6235SOL    HW119592   2.802   2.266  13.170
 6235SOL    HW219593   2.714   2.144  13.185
 6236SOL     OW19594   3.222   2.995  13.545
 6236SOL    HW119595   3.312   2.994  13.512
 6236SOL    HW219596   3.181   3.067  13.498
 6237SOL     OW19597   2.855   3.303  13.499
 6237SOL    HW119598   2.829   3.381  13.450
 6237SOL    HW219599   2.820   3.316  13.587
 6238SOL     OW19600   2.266   3.673  13.786
 6238SOL    HW119601   2.202   3.625  13.840
 6238SOL    HW219602   2.338   3.693  13.846
 6239SOL     OW19603   3.656   2.904   0.004
 6239SOL    HW119604   3.605   2.891  13.824
 6239SOL    HW219605   3.590   2.903   0.074
 6240SOL     OW19606   2.175   2.820  13.292
 6240SOL    HW119607   2.254   2.842  13.243
 6240SOL    HW219608   2.145   2.738  13.253
 6241SOL     OW19609   3.359   2.598  13.745
 6241SOL    HW119610   3.351   2.568  13.836
 6241SOL    HW219611   3.430   2.662  13.748
 6242SOL     OW19612   2.978   3.647  13.250
 6242SOL    HW119613   2.913   3.604  13.305
 6242SOL    HW219614   3.009   3.578  13.191
 6243SOL     OW19615   3.484   3.251  13.124
 6243SOL    HW119616   3.441   3.334  13.106
 6243SOL    HW219617   3.418   3.185  13.102
 6244SOL     OW19618   2.325   3.601  13.356
 6244SOL    HW119619   2.364   3.661  13.420
 6244SOL    HW219620   2.397   3.576  13.299
 6245SOL     OW19621   3.265   1.978  13.472
 6245SOL    HW119622   3.259   1.947  13.382
 6245SOL    HW219623   3.359   1.978  13.492
 6246SOL     OW19624   2.791   3.540   0.002
 6246SOL    HW119625   2.797   3.474   0.071
 6246SOL    HW219626   2.749   3.495  13.828
 6247SOL     OW19627   2.257   2.543  13.502
 6247SOL    HW119628   2.265   2.460  13.456
 6247SOL    HW219629   2.166   2.546  13.532
 6248SOL     OW19630   2.534   1.983  13.124
 6248SOL    HW119631   2.569   1.903  13.164
 6248SOL    HW219632   2.465   1.953  13.066
 6249SOL     OW19633   2.434   1.894  13.539
 6249SOL    HW119634   2.386   1.874  13.619
 6249SOL    HW219635   2.409   1.984  13.518
 6250SOL     OW19636   3.289   3.064  13.071
 6250SOL    HW119637   3.319   2.990  13.123
 6250SOL    HW219638   3.203   3.086  13.107
 6251SOL     OW19639   2.809   2.116  13.487
 6251SOL    HW119640   2.785   2.151  13.401
 6251SOL    HW219641   2.904   2.130  13.493
 6252SOL     OW19642   2.320   3.007  13.763
 6252SOL    HW119643   2.251   2.995  13.828
 6252SOL    HW219644   2.276   2.997  13.678
 6253SOL     OW19645   3.123   3.658  13.628
 6253SOL    HW119646   3.171   3.727  13.582
 6253SOL    HW219647   3.052   3.704  13.673
 6254SOL     OW19648   2.888   2.392  13.059
 6254SOL    HW119649   2.844   2.475  13.042
 6254SOL    HW219650   2.951   2.412  13.129
 6255SOL     OW19651   2.755   2.329  13.671
 6255SOL    HW119652   2.706   2.382  13.609
 6255SOL    HW219653   2.771   2.246  13.626
 6256SOL     OW19654   2.887   1.891  13.766
 6256SOL    HW119655   2.831   1.891  13.688
 6256SOL    HW219656   2.861   1.812  13.814
 6257SOL     OW19657   3.730   2.673  13.412
 6257SOL    HW119658   3.779   2.618  13.473
 6257SOL    HW219659   3.696   2.611  13.347
 6258SOL     OW19660   2.352   3.282  13.184
 6258SOL    HW119661   2.276   3.255  13.235
 6258SOL    HW219662   2.345   3.232  13.102
 6259SOL     OW19663   3.545   3.138  13.658
 6259SOL    HW119664   3.639   3.134  13.674
 6259SOL    HW219665   3.516   3.219  13.700
 6260SOL     OW19666   3.256   2.435  13.105
 6260SOL    HW119667   3.193   2.413  13.174
 6260SOL    HW219668   3.340   2.404  13.138
 6261SOL     OW19669   2.572   2.928  13.400
 6261SOL    HW119670   2.557   2.909  13.493
 6261SOL    HW219671   2.648   2.874  13.378
 6262SOL     OW19672   2.195   2.983  13.521
 6262SOL    HW119673   2.197   3.059  13.463
 6262SOL    HW219674   2.193   2.907  13.463
 6263SOL     OW19675   2.404   2.428  13.893
 6263SOL    HW119676   2.416   2.490  13.821
 6263SOL    HW219677   2.493   2.399   0.015
 6264SOL     OW19678   3.103   3.217  13.418
 6264SOL    HW119679   3.158   3.290  13.446
 6264SOL    HW219680   3.017   3.237  13.453
 6265SOL     OW19681   3.439   2.486  13.499
 6265SOL    HW119682   3.399   2.518  13.579
 6265SOL    HW219683   3.464   2.565  13.451
 6266SOL     OW19684   3.059   2.388  13.292
 6266SOL    HW119685   3.068   2.310  13.347
 6266SOL    HW219686   3.017   2.452  13.350
 6267SOL     OW19687   3.487   2.243  13.389
 6267SOL    HW119688   3.508   2.178  13.456
 6267SOL    HW219689   3.462   2.321  13.438
 6268SOL     OW19690   3.389   2.133  13.158
 6268SOL    HW119691   3.326   2.067  13.188
 6268SOL    HW219692   3.424   2.171  13.239
 6269SOL     OW19693   3.146   2.684  13.060
 6269SOL    HW119694   3.189   2.599  13.065
 6269SOL    HW219695   3.180   2.724  12.979
 6270SOL     OW19696   1.871   3.175  13.226
 6270SOL    HW119697   1.783   3.193  13.192
 6270SOL    HW219698   1.866   3.086  13.262
 6271SOL     OW19699   2.679   2.434  13.404
 6271SOL    HW119700   2.684   2.360  13.344
 6271SOL    HW219701   2.608   2.488  13.370
 6272SOL     OW19702   2.321   2.388  13.262
 6272SOL    HW119703   2.387   2.456  13.261
 6272SOL    HW219704   2.243   2.429  13.224
 6273SOL     OW19705   3.179   2.711  13.335
 6273SOL    HW119706   3.103   2.684  13.387
 6273SOL    HW219707   3.152   2.699  13.244
 6274SOL     OW19708   3.570   2.017  13.542
 6274SOL    HW119709   3.636   2.006  13.474
 6274SOL    HW219710   3.559   1.930  13.580
 6275SOL     OW19711   3.242   3.438  13.510
 6275SOL    HW119712   3.301   3.477  13.445
 6275SOL    HW219713   3.195   3.513  13.547
 6276SOL     OW19714   3.152   2.774  13.684
 6276SOL    HW119715   3.229   2.718  13.672
 6276SOL    HW219716   3.175   2.855  13.637
 6277SOL     OW19717   2.535   3.484  13.194
 6277SOL    HW119718   2.547   3.503  13.101
 6277SOL    HW219719   2.476   3.408  13.196
 6278SOL     OW19720   3.675   2.029   0.090
 6278SOL    HW119721   3.681   1.945   0.044
 6278SOL    HW219722   3.581   2.050   0.089
 6279SOL     OW19723   3.070   3.461  13.072
 6279SOL    HW119724   3.060   3.369  13.096
 6279SOL    HW219725   3.007   3.474  13.000
 6280SOL     OW19726   2.785   2.778  13.334
 6280SOL    HW119727   2.841   2.807  13.262
 6280SOL    HW219728   2.832   2.704  13.373
 6281SOL     OW19729   3.346   3.502  13.078
 6281SOL    HW119730   3.254   3.486  13.061
 6281SOL    HW219731   3.386   3.505  12.991
 6282SOL     OW19732   2.913   2.952  13.754
 6282SOL    HW119733   2.830   2.919  13.720
 6282SOL    HW219734   2.978   2.923  13.690
 6283SOL     OW19735   2.459   3.354  13.501
 6283SOL    HW119736   2.509   3.303  13.437
 6283SOL    HW219737   2.392   3.399  13.450
 6284SOL     OW19738   2.126   3.201  13.327
 6284SOL    HW119739   2.034   3.197  13.302
 6284SOL    HW219740   2.126   3.243  13.413
 6285SOL     OW19741   3.038   3.193  13.149
 6285SOL    HW119742   2.946   3.167  13.149
 6285SOL    HW219743   3.063   3.196  13.241
 6286SOL     OW19744   3.080   2.184  13.488
 6286SOL    HW119745   3.141   2.110  13.480
 6286SOL    HW219746   3.112   2.233  13.564
 6287SOL     OW19747   2.449   2.605  13.690
 6287SOL    HW119748   2.483   2.692  13.670
 6287SOL    HW219749   2.383   2.588  13.623
 6288SOL     OW19750   2.729   3.227  13.081
 6288SOL    HW119751   2.687   3.252  13.163
 6288SOL    HW219752   2.740   3.310  13.034
 6289SOL     OW19753   2.512   3.723   0.060
 6289SOL    HW119754   2.499   3.814   0.086
 6289SOL    HW219755   2.606   3.708   0.073
 6290SOL     OW19756   2.678   2.831   0.005
 6290SOL    HW119757   2.690   2.743   0.040
 6290SOL    HW219758   2.742   2.885   0.051
 6291SOL     OW19759   2.935   2.846  13.121
 6291SOL    HW119760   2.916   2.900  13.045
 6291SOL    HW219761   3.010   2.793  13.095
 6292SOL     OW19762   1.957   3.086  13.697
 6292SOL    HW119763   1.960   3.031  13.776
 6292SOL    HW219764   2.024   3.049  13.640
 6293SOL     OW19765   3.544   3.312   0.362
 6293SOL    HW119766   3.512   3.290   0.274
 6293SOL    HW219767   3.637   3.287   0.360
 6294SOL     OW19768   2.676   3.406  13.700
 6294SOL    HW119769   2.640   3.456  13.627
 6294SOL    HW219770   2.606   3.346  13.726
 6295SOL     OW19771   2.635   3.197  13.351
 6295SOL    HW119772   2.609   3.105  13.361
 6295SOL    HW219773   2.715   3.205  13.402
 6296SOL     OW19774   3.224   1.912  13.206
 6296SOL    HW119775   3.258   1.839  13.155
 6296SOL    HW219776   3.134   1.886  13.226
 6297SOL     OW19777   3.169   2.323  13.708
 6297SOL    HW119778   3.116   2.403  13.713
 6297SOL    HW219779   3.149   2.276  13.789
 6298SOL     OW19780   1.905   2.924  13.342
 6298SOL    HW119781   1.998   2.916  13.324
 6298SOL    HW219782   1.878   2.835  13.365
 6299SOL     OW19783   2.752   3.528  13.374
 6299SOL    HW119784   2.678   3.511  13.316
 6299SOL    HW219785   2.723   3.600  13.430
 6300SOL     OW19786   2.095   3.979   0.975
 6300SOL    HW119787   2.118   3.961   1.066
 6300SOL    HW219788   2.002   3.953   0.969
 6301SOL     OW19789   1.875   0.063   0.716
 6301SOL    HW119790   1.799   0.091   0.666
 6301SOL    HW219791   1.934   0.022   0.652
 6302SOL     OW19792   3.657   0.360   0.260
 6302SOL    HW119793   3.639   0.299   0.189
 6302SOL    HW219794   3.574   0.366   0.308
 6303SOL     OW19795   2.306   0.091   1.503
 6303SOL    HW119796   2.374   0.041   1.457
 6303SOL    HW219797   2.225   0.042   1.486
 6304SOL     OW19798   3.452   3.853   1.454
 6304SOL    HW119799   3.462   3.940   1.415
 6304SOL    HW219800   3.436   3.870   1.546
 6305SOL     OW19801   2.674   3.729   0.514
 6305SOL    HW119802   2.699   3.821   0.503
 6305SOL    HW219803   2.578   3.731   0.522
 6306SOL     OW19804   3.129   0.062   0.930
 6306SOL    HW119805   3.051   0.012   0.905
 6306SOL    HW219806   3.181   0.001   0.982
 6307SOL     OW19807   2.417   3.902   0.896
 6307SOL    HW119808   2.412   3.921   0.989
 6307SOL    HW219809   2.414   3.988   0.853
 6308SOL     OW19810   2.056   3.978   1.487
 6308SOL    HW119811   2.000   0.053   1.509
 6308SOL    HW219812   2.015   3.904   1.532
 6309SOL     OW19813   3.270   3.831   0.441
 6309SOL    HW119814   3.266   3.796   0.352
 6309SOL    HW219815   3.360   3.817   0.469
 6310SOL     OW19816   3.399   3.934   1.721
 6310SOL    HW119817   3.424   3.936   1.813
 6310SOL    HW219818   3.325   3.874   1.717
 6311SOL     OW19819   2.633   3.951   1.737
 6311SOL    HW119820   2.682   3.922   1.814
 6311SOL    HW219821   2.547   3.975   1.772
 6312SOL     OW19822   2.402   3.779   0.525
 6312SOL    HW119823   2.353   3.776   0.607
 6312SOL    HW219824   2.407   3.872   0.503
 6313SOL     OW19825   2.131   3.751   0.206
 6313SOL    HW119826   2.168   3.838   0.192
 6313SOL    HW219827   2.206   3.699   0.237
 6314SOL     OW19828   2.418   3.945   1.173
 6314SOL    HW119829   2.463   3.883   1.231
 6314SOL    HW219830   2.326   3.937   1.196
 6315SOL     OW19831   2.884   3.764   0.721
 6315SOL    HW119832   2.817   3.752   0.653
 6315SOL    HW219833   2.860   3.702   0.790
 6316SOL     OW19834   2.787   3.798   1.392
 6316SOL    HW119835   2.817   3.777   1.304
 6316SOL    HW219836   2.861   3.844   1.432
 6317SOL     OW19837   3.128   0.069   1.266
 6317SOL    HW119838   3.129   0.141   1.330
 6317SOL    HW219839   3.055   0.090   1.208
 6318SOL     OW19840   2.373   3.751   1.760
 6318SOL    HW119841   2.313   3.707   1.700
 6318SOL    HW219842   2.349   3.843   1.755
 6319SOL     OW19843   2.155   3.917   1.246
 6319SOL    HW119844   2.111   3.936   1.329
 6319SOL    HW219845   2.143   3.823   1.233
 6320SOL     OW19846   3.464   3.926   0.163
 6320SOL    HW119847   3.383   3.876   0.155
 6320SOL    HW219848   3.436   0.011   0.197
 6321SOL     OW19849   3.024   3.915   1.473
 6321SOL    HW119850   3.023   3.992   1.531
 6321SOL    HW219851   3.070   3.945   1.395
 6322SOL     OW19852   2.788   3.823   0.143
 6322SOL    HW119853   2.818   3.819   0.052
 6322SOL    HW219854   2.850   3.770   0.192
 6323SOL     OW19855   3.593   3.863   0.543
 6323SOL    HW119856   3.658   3.849   0.474
 6323SOL    HW219857   3.569   3.774   0.572
 6324SOL     OW19858   3.700   3.894   0.961
 6324SOL    HW119859   3.732   3.806   0.939
 6324SOL    HW219860   3.614   3.899   0.920
 6325SOL     OW19861   2.543   3.904   1.481
 6325SOL    HW119862   2.627   3.889   1.438
 6325SOL    HW219863   2.566   3.928   1.571
 6326SOL     OW19864   1.919   3.853   0.343
 6326SOL    HW119865   1.919   3.947   0.325
 6326SOL    HW219866   1.995   3.819   0.297
 6327SOL     OW19867   3.054   0.008   0.464
 6327SOL    HW119868   3.112   3.932   0.471
 6327SOL    HW219869   3.073   0.059   0.543
 6328SOL     OW19870   3.647   0.044   1.624
 6328SOL    HW119871   3.600   0.084   1.550
 6328SOL    HW219872   3.581   3.992   1.669
 6329SOL     OW19873   3.673   3.908   1.232
 6329SOL    HW119874   3.659   3.816   1.255
 6329SOL    HW219875   3.686   3.908   1.138
 6330SOL     OW19876   3.299   3.929   1.115
 6330SOL    HW119877   3.322   3.844   1.153
 6330SOL    HW219878   3.243   3.970   1.181
 6331SOL     OW19879   2.883   3.739   1.142
 6331SOL    HW119880   2.825   3.686   1.087
 6331SOL    HW219881   2.967   3.694   1.138
 6332SOL     OW19882   3.220   3.783   0.152
 6332SOL    HW119883   3.262   3.710   0.107
 6332SOL    HW219884   3.136   3.747   0.181
 6333SOL     OW19885   3.147   0.163   0.674
 6333SOL    HW119886   3.145   0.258   0.682
 6333SOL    HW219887   3.148   0.131   0.765
 6334SOL     OW19888   3.441   3.928   0.883
 6334SOL    HW119889   3.391   3.930   0.964
 6334SOL    HW219890   3.438   0.018   0.850
 6335SOL     OW19891   2.096   3.976   2.835
 6335SOL    HW119892   2.119   3.960   2.927
 6335SOL    HW219893   2.003   3.953   2.830
 6336SOL     OW19894   1.873   0.058   2.581
 6336SOL    HW119895   1.804   0.094   2.526
 6336SOL    HW219896   1.936   0.020   2.519
 6337SOL     OW19897   3.627   0.311   2.039
 6337SOL    HW119898   3.550   0.294   1.984
 6337SOL    HW219899   3.591   0.343   2.121
 6338SOL     OW19900   2.306   0.091   3.365
 6338SOL    HW119901   2.374   0.041   3.319
 6338SOL    HW219902   2.225   0.042   3.348
 6339SOL     OW19903   3.452   3.854   3.315
 6339SOL    HW119904   3.462   3.941   3.277
 6339SOL    HW219905   3.436   3.870   3.408
 6340SOL     OW19906   2.672   3.733   2.374
 6340SOL    HW119907   2.696   3.825   2.366
 6340SOL    HW219908   2.577   3.733   2.381
 6341SOL     OW19909   3.127   0.062   2.797
 6341SOL    HW119910   3.051   0.012   2.768
 6341SOL    HW219911   3.180   0.000   2.846
 6342SOL     OW19912   2.417   3.903   2.757
 6342SOL    HW119913   2.412   3.921   2.851
 6342SOL    HW219914   2.415   3.990   2.716
 6343SOL     OW19915   2.056   3.978   3.349
 6343SOL    HW119916   2.001   0.054   3.371
 6343SOL    HW219917   2.015   3.905   3.394
 6344SOL     OW19918   3.268   3.821   2.303
 6344SOL    HW119919   3.262   3.794   2.211
 6344SOL    HW219920   3.360   3.809   2.326
 6345SOL     OW19921   3.399   3.934   3.583
 6345SOL    HW119922   3.424   3.936   3.675
 6345SOL    HW219923   3.325   3.874   3.579
 6346SOL     OW19924   2.494   3.845   1.997
 6346SOL    HW119925   2.585   3.817   1.990
 6346SOL    HW219926   2.449   3.798   1.926
 6347SOL     OW19927   2.633   3.951   3.599
 6347SOL    HW119928   2.682   3.922   3.676
 6347SOL    HW219929   2.547   3.975   3.634
 6348SOL     OW19930   2.400   3.782   2.383
 6348SOL    HW119931   2.355   3.783   2.468
 6348SOL    HW219932   2.405   3.874   2.357
 6349SOL     OW19933   2.144   3.768   2.044
 6349SOL    HW119934   2.182   3.857   2.044
 6349SOL    HW219935   2.213   3.713   2.082
 6350SOL     OW19936   2.418   3.944   3.035
 6350SOL    HW119937   2.463   3.883   3.093
 6350SOL    HW219938   2.326   3.936   3.058
 6351SOL     OW19939   2.883   3.764   2.582
 6351SOL    HW119940   2.816   3.750   2.515
 6351SOL    HW219941   2.860   3.702   2.651
 6352SOL     OW19942   2.787   3.798   3.254
 6352SOL    HW119943   2.817   3.777   3.166
 6352SOL    HW219944   2.861   3.844   3.294
 6353SOL     OW19945   3.128   0.068   3.128
 6353SOL    HW119946   3.129   0.140   3.192
 6353SOL    HW219947   3.057   0.090   3.069
 6354SOL     OW19948   2.373   3.751   3.622
 6354SOL    HW119949   2.313   3.707   3.562
 6354SOL    HW219950   2.349   3.843   3.617
 6355SOL     OW19951   2.155   3.917   3.107
 6355SOL    HW119952   2.111   3.936   3.191
 6355SOL    HW219953   2.143   3.823   3.095
 6356SOL     OW19954   3.444   3.949   1.983
 6356SOL    HW119955   3.377   3.894   2.023
 6356SOL    HW219956   3.462   0.017   2.048
 6357SOL     OW19957   3.024   3.915   3.335
 6357SOL    HW119958   3.023   3.992   3.393
 6357SOL    HW219959   3.070   3.945   3.257
 6358SOL     OW19960   2.763   3.808   1.955
 6358SOL    HW119961   2.817   3.757   1.894
 6358SOL    HW219962   2.811   3.803   2.038
 6359SOL     OW19963   3.600   3.859   2.396
 6359SOL    HW119964   3.665   3.844   2.328
 6359SOL    HW219965   3.573   3.771   2.424
 6360SOL     OW19966   3.700   3.894   2.824
 6360SOL    HW119967   3.732   3.806   2.802
 6360SOL    HW219968   3.614   3.899   2.783
 6361SOL     OW19969   2.542   3.904   3.343
 6361SOL    HW119970   2.627   3.889   3.300
 6361SOL    HW219971   2.565   3.928   3.433
 6362SOL     OW19972   1.904   0.052   1.895
 6362SOL    HW119973   1.871   0.024   1.810
 6362SOL    HW219974   1.932   0.143   1.881
 6363SOL     OW19975   1.915   3.859   2.165
 6363SOL    HW119976   1.907   3.951   2.137
 6363SOL    HW219977   1.996   3.828   2.124
 6364SOL     OW19978   3.073   0.018   2.314
 6364SOL    HW119979   3.127   3.940   2.326
 6364SOL    HW219980   3.081   0.065   2.397
 6365SOL     OW19981   3.647   0.044   3.485
 6365SOL    HW119982   3.600   0.084   3.412
 6365SOL    HW219983   3.581   3.992   3.531
 6366SOL     OW19984   3.673   3.908   3.095
 6366SOL    HW119985   3.659   3.816   3.118
 6366SOL    HW219986   3.686   3.908   3.001
 6367SOL     OW19987   3.300   3.928   2.978
 6367SOL    HW119988   3.324   3.844   3.018
 6367SOL    HW219989   3.244   3.970   3.043
 6368SOL     OW19990   2.883   3.739   3.004
 6368SOL    HW119991   2.825   3.686   2.949
 6368SOL    HW219992   2.967   3.694   3.000
 6369SOL     OW19993   3.221   3.771   2.028
 6369SOL    HW119994   3.259   3.700   1.976
 6369SOL    HW219995   3.132   3.740   2.049
 6370SOL     OW19996   3.142   0.162   2.540
 6370SOL    HW119997   3.149   0.257   2.546
 6370SOL    HW219998   3.145   0.132   2.632
 6371SOL     OW19999   3.441   3.927   2.745
 6371SOL    HW120000   3.391   3.930   2.827
 6371SOL    HW220001   3.438   0.017   2.712
 6372SOL     OW20002   2.096   3.976   4.697
 6372SOL    HW120003   2.119   3.960   4.789
 6372SOL    HW220004   2.003   3.953   4.692
 6373SOL     OW20005   1.873   0.058   4.443
 6373SOL    HW120006   1.804   0.094   4.388
 6373SOL    HW220007   1.936   0.020   4.381
 6374SOL     OW20008   3.627   0.311   3.901
 6374SOL    HW120009   3.550   0.294   3.846
 6374SOL    HW220010   3.591   0.343   3.983
 6375SOL     OW20011   2.306   0.091   5.227
 6375SOL    HW120012   2.374   0.041   5.181
 6375SOL    HW220013   2.225   0.042   5.210
 6376SOL     OW20014   3.452   3.854   5.177
 6376SOL    HW120015   3.462   3.941   5.139
 6376SOL    HW220016   3.436   3.870   5.270
 6377SOL     OW20017   2.672   3.733   4.236
 6377SOL    HW120018   2.696   3.825   4.228
 6377SOL    HW220019   2.576   3.733   4.243
 6378SOL     OW20020   3.127   0.062   4.659
 6378SOL    HW120021   3.051   0.012   4.630
 6378SOL    HW220022   3.180   0.000   4.708
 6379SOL     OW20023   2.417   3.903   4.619
 6379SOL    HW120024   2.412   3.921   4.713
 6379SOL    HW220025   2.415   3.990   4.578
 6380SOL     OW20026   2.056   3.978   5.211
 6380SOL    HW120027   2.000   0.052   5.233
 6380SOL    HW220028   2.015   3.903   5.255
 6381SOL     OW20029   3.268   3.821   4.165
 6381SOL    HW120030   3.262   3.794   4.073
 6381SOL    HW220031   3.360   3.809   4.187
 6382SOL     OW20032   3.399   3.934   5.445
 6382SOL    HW120033   3.423   3.936   5.537
 6382SOL    HW220034   3.325   3.874   5.441
 6383SOL     OW20035   2.494   3.845   3.859
 6383SOL    HW120036   2.585   3.817   3.852
 6383SOL    HW220037   2.449   3.798   3.788
 6384SOL     OW20038   2.633   3.951   5.461
 6384SOL    HW120039   2.683   3.922   5.538
 6384SOL    HW220040   2.547   3.975   5.496
 6385SOL     OW20041   2.400   3.782   4.245
 6385SOL    HW120042   2.355   3.783   4.330
 6385SOL    HW220043   2.405   3.874   4.219
 6386SOL     OW20044   2.144   3.769   3.906
 6386SOL    HW120045   2.182   3.857   3.906
 6386SOL    HW220046   2.213   3.713   3.944
 6387SOL     OW20047   2.418   3.944   4.897
 6387SOL    HW120048   2.463   3.882   4.954
 6387SOL    HW220049   2.326   3.936   4.920
 6388SOL     OW20050   2.883   3.764   4.444
 6388SOL    HW120051   2.816   3.750   4.377
 6388SOL    HW220052   2.860   3.702   4.514
 6389SOL     OW20053   2.787   3.798   5.116
 6389SOL    HW120054   2.816   3.777   5.028
 6389SOL    HW220055   2.861   3.844   5.156
 6390SOL     OW20056   3.128   0.068   4.990
 6390SOL    HW120057   3.129   0.140   5.053
 6390SOL    HW220058   3.057   0.090   4.930
 6391SOL     OW20059   2.373   3.751   5.484
 6391SOL    HW120060   2.313   3.707   5.424
 6391SOL    HW220061   2.349   3.843   5.478
 6392SOL     OW20062   2.155   3.917   4.969
 6392SOL    HW120063   2.111   3.936   5.053
 6392SOL    HW220064   2.143   3.823   4.957
 6393SOL     OW20065   3.444   3.949   3.845
 6393SOL    HW120066   3.377   3.894   3.885
 6393SOL    HW220067   3.462   0.017   3.910
 6394SOL     OW20068   3.024   3.915   5.197
 6394SOL    HW120069   3.023   3.992   5.255
 6394SOL    HW220070   3.070   3.945   5.119
 6395SOL     OW20071   2.763   3.808   3.817
 6395SOL    HW120072   2.817   3.757   3.756
 6395SOL    HW220073   2.811   3.803   3.900
 6396SOL     OW20074   3.600   3.859   4.258
 6396SOL    HW120075   3.665   3.844   4.190
 6396SOL    HW220076   3.573   3.771   4.286
 6397SOL     OW20077   3.700   3.894   4.686
 6397SOL    HW120078   3.732   3.806   4.664
 6397SOL    HW220079   3.614   3.899   4.645
 6398SOL     OW20080   2.543   3.904   5.205
 6398SOL    HW120081   2.627   3.888   5.162
 6398SOL    HW220082   2.566   3.928   5.295
 6399SOL     OW20083   1.905   0.052   3.757
 6399SOL    HW120084   1.871   0.024   3.672
 6399SOL    HW220085   1.932   0.143   3.743
 6400SOL     OW20086   1.915   3.859   4.027
 6400SOL    HW120087   1.907   3.951   3.999
 6400SOL    HW220088   1.996   3.828   3.986
 6401SOL     OW20089   3.073   0.018   4.176
 6401SOL    HW120090   3.127   3.940   4.188
 6401SOL    HW220091   3.081   0.065   4.259
 6402SOL     OW20092   3.647   0.044   5.348
 6402SOL    HW120093   3.600   0.084   5.274
 6402SOL    HW220094   3.581   3.992   5.394
 6403SOL     OW20095   3.674   3.908   4.958
 6403SOL    HW120096   3.659   3.816   4.980
 6403SOL    HW220097   3.686   3.908   4.863
 6404SOL     OW20098   3.300   3.928   4.840
 6404SOL    HW120099   3.324   3.844   4.879
 6404SOL    HW220100   3.244   3.970   4.905
 6405SOL     OW20101   2.883   3.739   4.866
 6405SOL    HW120102   2.825   3.686   4.811
 6405SOL    HW220103   2.967   3.694   4.862
 6406SOL     OW20104   3.221   3.771   3.890
 6406SOL    HW120105   3.259   3.700   3.839
 6406SOL    HW220106   3.132   3.740   3.910
 6407SOL     OW20107   3.142   0.162   4.403
 6407SOL    HW120108   3.149   0.257   4.408
 6407SOL    HW220109   3.145   0.133   4.494
 6408SOL     OW20110   3.441   3.927   4.607
 6408SOL    HW120111   3.391   3.930   4.689
 6408SOL    HW220112   3.438   0.017   4.574
 6409SOL     OW20113   2.096   3.976   6.560
 6409SOL    HW120114   2.119   3.960   6.651
 6409SOL    HW220115   2.003   3.953   6.554
 6410SOL     OW20116   1.873   0.059   6.305
 6410SOL    HW120117   1.804   0.094   6.250
 6410SOL    HW220118   1.936   0.021   6.243
 6411SOL     OW20119   3.627   0.312   5.763
 6411SOL    HW120120   3.550   0.294   5.708
 6411SOL    HW220121   3.590   0.343   5.846
 6412SOL     OW20122   2.306   0.090   7.089
 6412SOL    HW120123   2.373   0.039   7.043
 6412SOL    HW220124   2.225   0.042   7.073
 6413SOL     OW20125   3.452   3.853   7.039
 6413SOL    HW120126   3.462   3.941   7.001
 6413SOL    HW220127   3.436   3.870   7.132
 6414SOL     OW20128   2.672   3.733   6.097
 6414SOL    HW120129   2.696   3.826   6.090
 6414SOL    HW220130   2.577   3.734   6.104
 6415SOL     OW20131   3.126   0.063   6.521
 6415SOL    HW120132   3.051   0.011   6.492
 6415SOL    HW220133   3.180   0.001   6.570
 6416SOL     OW20134   2.417   3.904   6.480
 6416SOL    HW120135   2.412   3.921   6.574
 6416SOL    HW220136   2.415   3.990   6.440
 6417SOL     OW20137   2.056   3.976   7.074
 6417SOL    HW120138   1.997   0.048   7.097
 6417SOL    HW220139   2.018   3.899   7.116
 6418SOL     OW20140   3.267   3.822   6.026
 6418SOL    HW120141   3.261   3.794   5.935
 6418SOL    HW220142   3.359   3.808   6.049
 6419SOL     OW20143   3.398   3.934   7.306
 6419SOL    HW120144   3.423   3.936   7.399
 6419SOL    HW220145   3.325   3.873   7.302
 6420SOL     OW20146   2.494   3.845   5.721
 6420SOL    HW120147   2.585   3.817   5.714
 6420SOL    HW220148   2.449   3.799   5.650
 6421SOL     OW20149   2.633   3.952   7.324
 6421SOL    HW120150   2.682   3.922   7.400
 6421SOL    HW220151   2.547   3.975   7.358
 6422SOL     OW20152   2.400   3.782   6.107
 6422SOL    HW120153   2.355   3.783   6.192
 6422SOL    HW220154   2.404   3.874   6.081
 6423SOL     OW20155   2.145   3.769   5.769
 6423SOL    HW120156   2.183   3.857   5.769
 6423SOL    HW220157   2.213   3.714   5.807
 6424SOL     OW20158   2.418   3.944   6.758
 6424SOL    HW120159   2.463   3.881   6.814
 6424SOL    HW220160   2.326   3.936   6.782
 6425SOL     OW20161   2.883   3.764   6.306
 6425SOL    HW120162   2.817   3.750   6.238
 6425SOL    HW220163   2.860   3.702   6.375
 6426SOL     OW20164   2.786   3.800   6.977
 6426SOL    HW120165   2.816   3.778   6.889
 6426SOL    HW220166   2.860   3.844   7.018
 6427SOL     OW20167   3.128   0.068   6.852
 6427SOL    HW120168   3.128   0.140   6.916
 6427SOL    HW220169   3.056   0.089   6.793
 6428SOL     OW20170   2.372   3.752   7.346
 6428SOL    HW120171   2.312   3.707   7.287
 6428SOL    HW220172   2.348   3.845   7.340
 6429SOL     OW20173   2.155   3.917   6.832
 6429SOL    HW120174   2.111   3.936   6.915
 6429SOL    HW220175   2.143   3.823   6.819
 6430SOL     OW20176   3.444   3.949   5.707
 6430SOL    HW120177   3.376   3.894   5.747
 6430SOL    HW220178   3.461   0.017   5.772
 6431SOL     OW20179   3.023   3.915   7.059
 6431SOL    HW120180   3.023   3.992   7.117
 6431SOL    HW220181   3.070   3.944   6.981
 6432SOL     OW20182   2.763   3.807   5.679
 6432SOL    HW120183   2.816   3.757   5.618
 6432SOL    HW220184   2.811   3.802   5.762
 6433SOL     OW20185   3.600   3.859   6.120
 6433SOL    HW120186   3.665   3.844   6.052
 6433SOL    HW220187   3.573   3.771   6.148
 6434SOL     OW20188   3.700   3.894   6.548
 6434SOL    HW120189   3.732   3.806   6.527
 6434SOL    HW220190   3.614   3.899   6.507
 6435SOL     OW20191   2.543   3.904   7.068
 6435SOL    HW120192   2.626   3.887   7.025
 6435SOL    HW220193   2.566   3.929   7.157
 6436SOL     OW20194   1.903   0.053   5.620
 6436SOL    HW120195   1.870   0.024   5.535
 6436SOL    HW220196   1.931   0.143   5.606
 6437SOL     OW20197   1.915   3.860   5.888
 6437SOL    HW120198   1.907   3.950   5.859
 6437SOL    HW220199   1.996   3.828   5.848
 6438SOL     OW20200   3.072   0.018   6.038
 6438SOL    HW120201   3.126   3.940   6.049
 6438SOL    HW220202   3.081   0.065   6.122
 6439SOL     OW20203   3.647   0.044   7.210
 6439SOL    HW120204   3.600   0.083   7.137
 6439SOL    HW220205   3.581   3.992   7.256
 6440SOL     OW20206   3.674   3.908   6.820
 6440SOL    HW120207   3.658   3.816   6.842
 6440SOL    HW220208   3.687   3.908   6.725
 6441SOL     OW20209   3.300   3.928   6.701
 6441SOL    HW120210   3.322   3.843   6.739
 6441SOL    HW220211   3.244   3.969   6.767
 6442SOL     OW20212   2.883   3.740   6.728
 6442SOL    HW120213   2.824   3.686   6.674
 6442SOL    HW220214   2.967   3.694   6.724
 6443SOL     OW20215   3.221   3.770   5.752
 6443SOL    HW120216   3.259   3.699   5.700
 6443SOL    HW220217   3.132   3.740   5.772
 6444SOL     OW20218   3.142   0.162   6.265
 6444SOL    HW120219   3.149   0.257   6.270
 6444SOL    HW220220   3.145   0.132   6.356
 6445SOL     OW20221   3.441   3.927   6.469
 6445SOL    HW120222   3.392   3.930   6.550
 6445SOL    HW220223   3.438   0.017   6.435
 6446SOL     OW20224   2.096   3.976   8.422
 6446SOL    HW120225   2.119   3.960   8.513
 6446SOL    HW220226   2.003   3.952   8.416
 6447SOL     OW20227   1.874   0.058   8.167
 6447SOL    HW120228   1.804   0.095   8.113
 6447SOL    HW220229   1.935   0.020   8.104
 6448SOL     OW20230   3.627   0.313   7.625
 6448SOL    HW120231   3.551   0.295   7.569
 6448SOL    HW220232   3.589   0.343   7.708
 6449SOL     OW20233   2.306   0.090   8.951
 6449SOL    HW120234   2.373   0.041   8.905
 6449SOL    HW220235   2.225   0.042   8.934
 6450SOL     OW20236   3.451   3.853   8.902
 6450SOL    HW120237   3.463   3.940   8.863
 6450SOL    HW220238   3.436   3.871   8.995
 6451SOL     OW20239   2.672   3.733   7.961
 6451SOL    HW120240   2.696   3.825   7.953
 6451SOL    HW220241   2.577   3.733   7.968
 6452SOL     OW20242   3.126   0.063   8.384
 6452SOL    HW120243   3.051   0.012   8.354
 6452SOL    HW220244   3.180   0.000   8.432
 6453SOL     OW20245   2.417   3.903   8.343
 6453SOL    HW120246   2.412   3.921   8.437
 6453SOL    HW220247   2.414   3.989   8.302
 6454SOL     OW20248   2.056   3.978   8.935
 6454SOL    HW120249   2.000   0.053   8.957
 6454SOL    HW220250   2.015   3.904   8.980
 6455SOL     OW20251   3.267   3.822   7.888
 6455SOL    HW120252   3.261   3.794   7.797
 6455SOL    HW220253   3.359   3.808   7.911
 6456SOL     OW20254   3.399   3.935   9.169
 6456SOL    HW120255   3.424   3.937   9.261
 6456SOL    HW220256   3.325   3.874   9.165
 6457SOL     OW20257   2.494   3.845   7.583
 6457SOL    HW120258   2.585   3.817   7.576
 6457SOL    HW220259   2.449   3.799   7.512
 6458SOL     OW20260   2.633   3.951   9.185
 6458SOL    HW120261   2.682   3.922   9.262
 6458SOL    HW220262   2.547   3.976   9.220
 6459SOL     OW20263   2.401   3.782   7.969
 6459SOL    HW120264   2.354   3.784   8.053
 6459SOL    HW220265   2.405   3.874   7.942
 6460SOL     OW20266   2.145   3.769   7.631
 6460SOL    HW120267   2.183   3.857   7.631
 6460SOL    HW220268   2.213   3.714   7.669
 6461SOL     OW20269   2.418   3.945   8.621
 6461SOL    HW120270   2.463   3.883   8.679
 6461SOL    HW220271   2.326   3.937   8.644
 6462SOL     OW20272   2.883   3.764   8.169
 6462SOL    HW120273   2.816   3.751   8.101
 6462SOL    HW220274   2.859   3.702   8.238
 6463SOL     OW20275   2.787   3.798   8.841
 6463SOL    HW120276   2.817   3.777   8.752
 6463SOL    HW220277   2.862   3.843   8.880
 6464SOL     OW20278   3.128   0.068   8.714
 6464SOL    HW120279   3.129   0.140   8.778
 6464SOL    HW220280   3.057   0.090   8.654
 6465SOL     OW20281   2.373   3.751   9.208
 6465SOL    HW120282   2.313   3.707   9.148
 6465SOL    HW220283   2.349   3.843   9.203
 6466SOL     OW20284   2.155   3.918   8.694
 6466SOL    HW120285   2.111   3.936   8.777
 6466SOL    HW220286   2.143   3.823   8.681
 6467SOL     OW20287   3.443   3.948   7.569
 6467SOL    HW120288   3.377   3.893   7.609
 6467SOL    HW220289   3.463   0.015   7.635
 6468SOL     OW20290   3.025   3.915   8.922
 6468SOL    HW120291   3.023   3.992   8.979
 6468SOL    HW220292   3.071   3.944   8.843
 6469SOL     OW20293   2.764   3.807   7.540
 6469SOL    HW120294   2.814   3.755   7.478
 6469SOL    HW220295   2.813   3.801   7.622
 6470SOL     OW20296   3.601   3.859   7.982
 6470SOL    HW120297   3.665   3.844   7.913
 6470SOL    HW220298   3.573   3.771   8.009
 6471SOL     OW20299   3.700   3.893   8.411
 6471SOL    HW120300   3.732   3.806   8.389
 6471SOL    HW220301   3.614   3.899   8.369
 6472SOL     OW20302   2.543   3.903   8.929
 6472SOL    HW120303   2.627   3.888   8.886
 6472SOL    HW220304   2.566   3.928   9.019
 6473SOL     OW20305   1.905   0.052   7.481
 6473SOL    HW120306   1.872   0.024   7.396
 6473SOL    HW220307   1.932   0.143   7.467
 6474SOL     OW20308   1.915   3.860   7.751
 6474SOL    HW120309   1.907   3.950   7.722
 6474SOL    HW220310   1.996   3.828   7.711
 6475SOL     OW20311   3.070   0.017   7.902
 6475SOL    HW120312   3.126   3.940   7.912
 6475SOL    HW220313   3.081   0.065   7.985
 6476SOL     OW20314   3.647   0.044   9.072
 6476SOL    HW120315   3.600   0.084   8.998
 6476SOL    HW220316   3.581   3.992   9.118
 6477SOL     OW20317   3.673   3.908   8.682
 6477SOL    HW120318   3.659   3.816   8.703
 6477SOL    HW220319   3.686   3.908   8.587
 6478SOL     OW20320   3.300   3.928   8.564
 6478SOL    HW120321   3.325   3.844   8.603
 6478SOL    HW220322   3.244   3.970   8.629
 6479SOL     OW20323   2.883   3.739   8.589
 6479SOL    HW120324   2.825   3.686   8.535
 6479SOL    HW220325   2.967   3.694   8.586
 6480SOL     OW20326   3.221   3.770   7.614
 6480SOL    HW120327   3.259   3.699   7.562
 6480SOL    HW220328   3.132   3.739   7.634
 6481SOL     OW20329   3.142   0.162   8.127
 6481SOL    HW120330   3.149   0.257   8.132
 6481SOL    HW220331   3.145   0.133   8.218
 6482SOL     OW20332   3.441   3.927   8.331
 6482SOL    HW120333   3.391   3.930   8.413
 6482SOL    HW220334   3.438   0.017   8.297
 6483SOL     OW20335   2.096   3.976  10.283
 6483SOL    HW120336   2.119   3.960  10.375
 6483SOL    HW220337   2.003   3.952  10.278
 6484SOL     OW20338   1.874   0.058  10.029
 6484SOL    HW120339   1.804   0.094   9.974
 6484SOL    HW220340   1.936   0.020   9.967
 6485SOL     OW20341   3.627   0.311   9.487
 6485SOL    HW120342   3.550   0.294   9.432
 6485SOL    HW220343   3.590   0.343   9.569
 6486SOL     OW20344   2.306   0.091  10.813
 6486SOL    HW120345   2.374   0.041  10.767
 6486SOL    HW220346   2.225   0.042  10.796
 6487SOL     OW20347   3.452   3.853  10.764
 6487SOL    HW120348   3.462   3.940  10.725
 6487SOL    HW220349   3.436   3.870  10.856
 6488SOL     OW20350   2.672   3.733   9.822
 6488SOL    HW120351   2.696   3.825   9.814
 6488SOL    HW220352   2.576   3.733   9.829
 6489SOL     OW20353   3.127   0.063  10.245
 6489SOL    HW120354   3.051   0.012  10.216
 6489SOL    HW220355   3.180   0.000  10.294
 6490SOL     OW20356   2.417   3.903  10.205
 6490SOL    HW120357   2.412   3.921  10.299
 6490SOL    HW220358   2.415   3.989  10.164
 6491SOL     OW20359   2.056   3.978  10.797
 6491SOL    HW120360   2.001   0.054  10.818
 6491SOL    HW220361   2.014   3.905  10.842
 6492SOL     OW20362   3.268   3.821   9.751
 6492SOL    HW120363   3.262   3.794   9.659
 6492SOL    HW220364   3.360   3.809   9.774
 6493SOL     OW20365   3.399   3.934  11.031
 6493SOL    HW120366   3.424   3.936  11.123
 6493SOL    HW220367   3.325   3.874  11.027
 6494SOL     OW20368   2.494   3.845   9.445
 6494SOL    HW120369   2.585   3.817   9.438
 6494SOL    HW220370   2.449   3.799   9.374
 6495SOL     OW20371   2.633   3.951  11.047
 6495SOL    HW120372   2.682   3.922  11.124
 6495SOL    HW220373   2.547   3.976  11.082
 6496SOL     OW20374   2.400   3.782   9.831
 6496SOL    HW120375   2.355   3.784   9.915
 6496SOL    HW220376   2.405   3.874   9.805
 6497SOL     OW20377   2.144   3.769   9.492
 6497SOL    HW120378   2.182   3.857   9.492
 6497SOL    HW220379   2.213   3.714   9.530
 6498SOL     OW20380   2.418   3.944  10.483
 6498SOL    HW120381   2.463   3.883  10.541
 6498SOL    HW220382   2.326   3.936  10.506
 6499SOL     OW20383   2.883   3.764  10.030
 6499SOL    HW120384   2.816   3.750   9.963
 6499SOL    HW220385   2.859   3.702  10.100
 6500SOL     OW20386   2.787   3.798  10.702
 6500SOL    HW120387   2.817   3.777  10.614
 6500SOL    HW220388   2.861   3.844  10.742
 6501SOL     OW20389   3.128   0.068  10.576
 6501SOL    HW120390   3.129   0.140  10.639
 6501SOL    HW220391   3.057   0.090  10.516
 6502SOL     OW20392   2.373   3.751  11.070
 6502SOL    HW120393   2.313   3.707  11.010
 6502SOL    HW220394   2.349   3.843  11.065
 6503SOL     OW20395   2.155   3.917  10.556
 6503SOL    HW120396   2.111   3.936  10.639
 6503SOL    HW220397   2.143   3.823  10.543
 6504SOL     OW20398   3.444   3.949   9.431
 6504SOL    HW120399   3.377   3.894   9.471
 6504SOL    HW220400   3.463   0.016   9.496
 6505SOL     OW20401   3.024   3.915  10.784
 6505SOL    HW120402   3.023   3.992  10.841
 6505SOL    HW220403   3.071   3.945  10.705
 6506SOL     OW20404   2.763   3.808   9.403
 6506SOL    HW120405   2.817   3.757   9.342
 6506SOL    HW220406   2.811   3.803   9.486
 6507SOL     OW20407   3.600   3.859   9.844
 6507SOL    HW120408   3.665   3.844   9.776
 6507SOL    HW220409   3.573   3.771   9.871
 6508SOL     OW20410   3.700   3.894  10.272
 6508SOL    HW120411   3.732   3.806  10.250
 6508SOL    HW220412   3.614   3.899  10.231
 6509SOL     OW20413   2.543   3.904  10.791
 6509SOL    HW120414   2.627   3.889  10.748
 6509SOL    HW220415   2.566   3.928  10.881
 6510SOL     OW20416   1.905   0.052   9.343
 6510SOL    HW120417   1.871   0.024   9.258
 6510SOL    HW220418   1.932   0.143   9.329
 6511SOL     OW20419   1.915   3.859   9.613
 6511SOL    HW120420   1.907   3.950   9.585
 6511SOL    HW220421   1.996   3.828   9.572
 6512SOL     OW20422   3.072   0.018   9.763
 6512SOL    HW120423   3.127   3.940   9.774
 6512SOL    HW220424   3.081   0.065   9.846
 6513SOL     OW20425   3.647   0.044  10.934
 6513SOL    HW120426   3.600   0.084  10.860
 6513SOL    HW220427   3.581   3.992  10.979
 6514SOL     OW20428   3.673   3.908  10.543
 6514SOL    HW120429   3.659   3.816  10.565
 6514SOL    HW220430   3.686   3.908  10.449
 6515SOL     OW20431   3.300   3.928  10.426
 6515SOL    HW120432   3.324   3.844  10.466
 6515SOL    HW220433   3.244   3.970  10.491
 6516SOL     OW20434   2.883   3.739  10.452
 6516SOL    HW120435   2.825   3.686  10.397
 6516SOL    HW220436   2.967   3.694  10.448
 6517SOL     OW20437   3.221   3.771   9.476
 6517SOL    HW120438   3.259   3.700   9.425
 6517SOL    HW220439   3.132   3.740   9.497
 6518SOL     OW20440   3.142   0.162   9.989
 6518SOL    HW120441   3.149   0.257   9.994
 6518SOL    HW220442   3.145   0.133  10.080
 6519SOL     OW20443   3.441   3.927  10.193
 6519SOL    HW120444   3.391   3.930  10.275
 6519SOL    HW220445   3.438   0.017  10.160
 6520SOL     OW20446   2.096   3.976  12.145
 6520SOL    HW120447   2.119   3.960  12.237
 6520SOL    HW220448   2.003   3.952  12.140
 6521SOL     OW20449   1.874   0.058  11.891
 6521SOL    HW120450   1.804   0.094  11.836
 6521SOL    HW220451   1.936   0.020  11.829
 6522SOL     OW20452   3.627   0.311  11.349
 6522SOL    HW120453   3.550   0.294  11.294
 6522SOL    HW220454   3.590   0.343  11.431
 6523SOL     OW20455   2.306   0.091  12.674
 6523SOL    HW120456   2.373   0.040  12.629
 6523SOL    HW220457   2.225   0.042  12.658
 6524SOL     OW20458   3.451   3.854  12.626
 6524SOL    HW120459   3.462   3.941  12.588
 6524SOL    HW220460   3.435   3.870  12.719
 6525SOL     OW20461   2.672   3.733  11.684
 6525SOL    HW120462   2.696   3.825  11.676
 6525SOL    HW220463   2.576   3.733  11.691
 6526SOL     OW20464   3.127   0.063  12.107
 6526SOL    HW120465   3.051   0.012  12.078
 6526SOL    HW220466   3.180   0.000  12.156
 6527SOL     OW20467   2.417   3.903  12.067
 6527SOL    HW120468   2.412   3.921  12.161
 6527SOL    HW220469   2.415   3.990  12.026
 6528SOL     OW20470   2.056   3.978  12.659
 6528SOL    HW120471   2.000   0.052  12.681
 6528SOL    HW220472   2.016   3.903  12.704
 6529SOL     OW20473   3.268   3.821  11.613
 6529SOL    HW120474   3.262   3.794  11.521
 6529SOL    HW220475   3.360   3.809  11.635
 6530SOL     OW20476   3.399   3.936  12.896
 6530SOL    HW120477   3.423   3.940  12.989
 6530SOL    HW220478   3.326   3.874  12.893
 6531SOL     OW20479   2.494   3.845  11.307
 6531SOL    HW120480   2.585   3.817  11.300
 6531SOL    HW220481   2.449   3.799  11.236
 6532SOL     OW20482   2.634   3.952  12.910
 6532SOL    HW120483   2.683   3.921  12.986
 6532SOL    HW220484   2.547   3.974  12.944
 6533SOL     OW20485   2.400   3.782  11.693
 6533SOL    HW120486   2.355   3.783  11.777
 6533SOL    HW220487   2.405   3.874  11.667
 6534SOL     OW20488   2.144   3.769  11.354
 6534SOL    HW120489   2.182   3.857  11.354
 6534SOL    HW220490   2.213   3.714  11.392
 6535SOL     OW20491   2.418   3.944  12.345
 6535SOL    HW120492   2.463   3.883  12.403
 6535SOL    HW220493   2.326   3.936  12.368
 6536SOL     OW20494   2.883   3.764  11.892
 6536SOL    HW120495   2.816   3.750  11.825
 6536SOL    HW220496   2.859   3.702  11.962
 6537SOL     OW20497   2.787   3.798  12.564
 6537SOL    HW120498   2.817   3.777  12.476
 6537SOL    HW220499   2.861   3.844  12.604
 6538SOL     OW20500   3.128   0.068  12.438
 6538SOL    HW120501   3.129   0.140  12.501
 6538SOL    HW220502   3.057   0.090  12.378
 6539SOL     OW20503   2.374   3.750  12.931
 6539SOL    HW120504   2.313   3.707  12.872
 6539SOL    HW220505   2.349   3.843  12.927
 6540SOL     OW20506   2.155   3.918  12.418
 6540SOL    HW120507   2.111   3.936  12.501
 6540SOL    HW220508   2.143   3.823  12.405
 6541SOL     OW20509   3.444   3.949  11.293
 6541SOL    HW120510   3.377   3.894  11.333
 6541SOL    HW220511   3.462   0.017  11.358
 6542SOL     OW20512   3.024   3.915  12.645
 6542SOL    HW120513   3.023   3.991  12.703
 6542SOL    HW220514   3.070   3.945  12.567
 6543SOL     OW20515   2.763   3.808  11.265
 6543SOL    HW120516   2.817   3.757  11.204
 6543SOL    HW220517   2.811   3.803  11.348
 6544SOL     OW20518   3.600   3.859  11.706
 6544SOL    HW120519   3.665   3.844  11.638
 6544SOL    HW220520   3.573   3.771  11.734
 6545SOL     OW20521   3.700   3.894  12.134
 6545SOL    HW120522   3.732   3.806  12.112
 6545SOL    HW220523   3.614   3.899  12.093
 6546SOL     OW20524   2.543   3.904  12.653
 6546SOL    HW120525   2.627   3.888  12.610
 6546SOL    HW220526   2.566   3.928  12.743
 6547SOL     OW20527   1.905   0.052  11.205
 6547SOL    HW120528   1.871   0.024  11.120
 6547SOL    HW220529   1.932   0.143  11.191
 6548SOL     OW20530   1.915   3.859  11.475
 6548SOL    HW120531   1.907   3.951  11.447
 6548SOL    HW220532   1.996   3.828  11.434
 6549SOL     OW20533   3.072   0.018  11.625
 6549SOL    HW120534   3.127   3.940  11.636
 6549SOL    HW220535   3.081   0.065  11.707
 6550SOL     OW20536   3.647   0.044  12.796
 6550SOL    HW120537   3.599   0.083  12.722
 6550SOL    HW220538   3.581   3.993  12.842
 6551SOL     OW20539   3.673   3.908  12.406
 6551SOL    HW120540   3.659   3.816  12.428
 6551SOL    HW220541   3.686   3.908  12.311
 6552SOL     OW20542   3.300   3.928  12.288
 6552SOL    HW120543   3.324   3.844  12.327
 6552SOL    HW220544   3.244   3.970  12.353
 6553SOL     OW20545   2.883   3.739  12.314
 6553SOL    HW120546   2.825   3.686  12.259
 6553SOL    HW220547   2.967   3.694  12.310
 6554SOL     OW20548   3.221   3.771  11.338
 6554SOL    HW120549   3.259   3.700  11.287
 6554SOL    HW220550   3.132   3.740  11.359
 6555SOL     OW20551   3.142   0.162  11.851
 6555SOL    HW120552   3.149   0.257  11.856
 6555SOL    HW220553   3.145   0.133  11.942
 6556SOL     OW20554   3.441   3.927  12.055
 6556SOL    HW120555   3.391   3.930  12.137
 6556SOL    HW220556   3.438   0.017  12.022
 6557SOL     OW20557   1.871   0.092  13.684
 6557SOL    HW120558   1.788   0.117  13.724
 6557SOL    HW220559   1.861   3.999  13.662
 6558SOL     OW20560   3.627   0.309  13.211
 6558SOL    HW120561   3.552   0.290  13.156
 6558SOL    HW220562   3.589   0.339  13.294
 6559SOL     OW20563   3.469   0.174  13.772
 6559SOL    HW120564   3.382   0.142  13.749
 6559SOL    HW220565   3.457   0.268  13.784
 6560SOL     OW20566   2.675   3.735  13.543
 6560SOL    HW120567   2.696   3.828  13.535
 6560SOL    HW220568   2.580   3.732  13.552
 6561SOL     OW20569   3.272   3.833  13.468
 6561SOL    HW120570   3.268   3.798  13.379
 6561SOL    HW220571   3.364   3.825  13.494
 6562SOL     OW20572   2.494   3.846  13.167
 6562SOL    HW120573   2.585   3.817  13.162
 6562SOL    HW220574   2.449   3.798  13.098
 6563SOL     OW20575   2.402   3.773  13.554
 6563SOL    HW120576   2.350   3.757  13.633
 6563SOL    HW220577   2.399   3.868  13.543
 6564SOL     OW20578   2.143   3.769  13.215
 6564SOL    HW120579   2.181   3.857  13.216
 6564SOL    HW220580   2.210   3.714  13.255
 6565SOL     OW20581   2.874   3.757  13.763
 6565SOL    HW120582   2.815   3.752  13.687
 6565SOL    HW220583   2.853   3.679  13.815
 6566SOL     OW20584   3.448   3.954  13.159
 6566SOL    HW120585   3.387   3.893  13.201
 6566SOL    HW220586   3.491   3.998  13.233
 6567SOL     OW20587   2.764   3.808  13.126
 6567SOL    HW120588   2.818   3.757  13.066
 6567SOL    HW220589   2.809   3.801  13.210
 6568SOL     OW20590   3.592   3.854  13.569
 6568SOL    HW120591   3.662   3.841  13.505
 6568SOL    HW220592   3.572   3.767  13.602
 6569SOL     OW20593   3.714   3.906   0.046
 6569SOL    HW120594   3.756   3.820   0.056
 6569SOL    HW220595   3.628   3.895   0.085
 6570SOL     OW20596   1.906   0.051  13.059
 6570SOL    HW120597   1.871   0.027  12.974
 6570SOL    HW220598   1.932   0.143  13.049
 6571SOL     OW20599   1.914   3.862  13.341
 6571SOL    HW120600   1.913   3.957  13.329
 6571SOL    HW220601   1.992   3.833  13.294
 6572SOL     OW20602   3.058   0.002  13.521
 6572SOL    HW120603   3.130   3.941  13.502
 6572SOL    HW220604   3.091   0.055  13.594
 6573SOL     OW20605   3.223   3.771  13.197
 6573SOL    HW120606   3.259   3.698  13.146
 6573SOL    HW220607   3.134   3.742  13.220
 6574SOL     OW20608   3.181   0.148  13.738
 6574SOL    HW120609   3.147   0.237  13.729
 6574SOL    HW220610   3.158   0.122  13.827
 6575SOL     OW20611   3.951   0.623   0.133
 6575SOL    HW120612   3.895   0.636   0.210
 6575SOL    HW220613   3.898   0.571   0.074
 6576SOL     OW20614   3.954   0.308   1.003
 6576SOL    HW120615   3.962   0.276   1.093
 6576SOL    HW220616   3.871   0.271   0.973
 6577SOL     OW20617   3.732   0.396   0.634
 6577SOL    HW120618   3.645   0.408   0.672
 6577SOL    HW220619   3.722   0.321   0.575
 6578SOL     OW20620   0.015   1.530   1.060
 6578SOL    HW120621   3.953   1.460   1.041
 6578SOL    HW220622   0.077   1.528   0.987
 6579SOL     OW20623   3.948   1.714   0.478
 6579SOL    HW120624   3.939   1.788   0.539
 6579SOL    HW220625   0.042   1.707   0.462
 6580SOL     OW20626   3.937   1.435   0.505
 6580SOL    HW120627   3.928   1.530   0.507
 6580SOL    HW220628   3.881   1.404   0.577
 6581SOL     OW20629   3.801   0.652   0.559
 6581SOL    HW120630   3.783   0.561   0.583
 6581SOL    HW220631   3.807   0.698   0.642
 6582SOL     OW20632   3.690   1.616   0.093
 6582SOL    HW120633   3.729   1.531   0.111
 6582SOL    HW220634   3.699   1.664   0.176
 6583SOL     OW20635   3.820   0.756   1.570
 6583SOL    HW120636   3.896   0.811   1.589
 6583SOL    HW220637   3.748   0.817   1.560
 6584SOL     OW20638   3.808   0.822   0.771
 6584SOL    HW120639   3.902   0.820   0.786
 6584SOL    HW220640   3.776   0.891   0.829
 6585SOL     OW20641   3.848   1.886   1.570
 6585SOL    HW120642   3.846   1.856   1.661
 6585SOL    HW220643   3.775   1.841   1.528
 6586SOL     OW20644   3.924   0.308   1.520
 6586SOL    HW120645   3.857   0.365   1.482
 6586SOL    HW220646   3.876   0.251   1.580
 6587SOL     OW20647   3.814   0.545   1.393
 6587SOL    HW120648   3.909   0.547   1.379
 6587SOL    HW220649   3.796   0.622   1.448
 6588SOL     OW20650   3.792   1.575   1.354
 6588SOL    HW120651   3.764   1.637   1.287
 6588SOL    HW220652   3.888   1.583   1.355
 6589SOL     OW20653   0.070   1.109   0.549
 6589SOL    HW120654   0.069   1.155   0.465
 6589SOL    HW220655   0.151   1.058   0.548
 6590SOL     OW20656   4.000   0.212   1.253
 6590SOL    HW120657   3.970   0.236   1.341
 6590SOL    HW220658   3.998   0.117   1.252
 6591SOL     OW20659   3.751   1.315   1.274
 6591SOL    HW120660   3.791   1.263   1.344
 6591SOL    HW220661   3.763   1.406   1.301
 6592SOL     OW20662   3.746   1.324   0.172
 6592SOL    HW120663   3.660   1.338   0.132
 6592SOL    HW220664   3.737   1.240   0.217
 6593SOL     OW20665   3.803   1.790   0.941
 6593SOL    HW120666   3.777   1.712   0.892
 6593SOL    HW220667   3.897   1.797   0.928
 6594SOL     OW20668   0.206   1.545   0.860
 6594SOL    HW120669   0.298   1.569   0.854
 6594SOL    HW220670   0.196   1.473   0.798
 6595SOL     OW20671   3.751   0.538   1.118
 6595SOL    HW120672   3.829   0.535   1.063
 6595SOL    HW220673   3.785   0.544   1.207
 6596SOL     OW20674   3.898   0.536   1.713
 6596SOL    HW120675   3.939   0.483   1.644
 6596SOL    HW220676   3.860   0.611   1.667
 6597SOL     OW20677   3.937   1.531   1.726
 6597SOL    HW120678   3.921   1.622   1.752
 6597SOL    HW220679   3.987   1.493   1.798
 6598SOL     OW20680   3.860   1.142   1.469
 6598SOL    HW120681   3.940   1.153   1.521
 6598SOL    HW220682   3.886   1.086   1.396
 6599SOL     OW20683   3.814   1.272   1.010
 6599SOL    HW120684   3.784   1.284   1.100
 6599SOL    HW220685   3.756   1.205   0.974
 6600SOL     OW20686   3.849   1.787   1.820
 6600SOL    HW120687   3.797   1.724   1.871
 6600SOL    HW220688   3.899   1.835   1.886
 6601SOL     OW20689   3.800   0.417   0.004
 6601SOL    HW120690   3.761   0.338   0.043
 6601SOL    HW220691   3.778   0.411  13.811
 6602SOL     OW20692   3.795   0.147   0.358
 6602SOL    HW120693   3.757   0.225   0.316
 6602SOL    HW220694   3.889   0.162   0.354
 6603SOL     OW20695   3.804   1.230   0.667
 6603SOL    HW120696   3.791   1.184   0.749
 6603SOL    HW220697   3.885   1.194   0.631
 6604SOL     OW20698   3.755   1.085   0.309
 6604SOL    HW120699   3.849   1.095   0.327
 6604SOL    HW220700   3.737   0.993   0.326
 6605SOL     OW20701   3.955   0.636   1.968
 6605SOL    HW120702   3.874   0.636   2.019
 6605SOL    HW220703   3.929   0.602   1.883
 6606SOL     OW20704   3.954   0.305   2.864
 6606SOL    HW120705   3.962   0.275   2.955
 6606SOL    HW220706   3.870   0.270   2.835
 6607SOL     OW20707   3.731   0.395   2.497
 6607SOL    HW120708   3.644   0.407   2.534
 6607SOL    HW220709   3.721   0.320   2.438
 6608SOL     OW20710   0.015   1.530   2.921
 6608SOL    HW120711   3.953   1.459   2.903
 6608SOL    HW220712   0.077   1.527   2.848
 6609SOL     OW20713   3.941   1.721   2.340
 6609SOL    HW120714   3.941   1.792   2.404
 6609SOL    HW220715   0.033   1.709   2.317
 6610SOL     OW20716   3.949   1.438   2.368
 6610SOL    HW120717   3.927   1.531   2.366
 6610SOL    HW220718   3.889   1.399   2.432
 6611SOL     OW20719   3.798   0.652   2.424
 6611SOL    HW120720   3.783   0.561   2.448
 6611SOL    HW220721   3.806   0.698   2.507
 6612SOL     OW20722   3.765   1.596   1.992
 6612SOL    HW120723   3.741   1.504   2.008
 6612SOL    HW220724   3.731   1.643   2.068
 6613SOL     OW20725   3.820   0.756   3.432
 6613SOL    HW120726   3.896   0.811   3.451
 6613SOL    HW220727   3.748   0.818   3.422
 6614SOL     OW20728   3.808   0.822   2.636
 6614SOL    HW120729   3.903   0.820   2.650
 6614SOL    HW220730   3.777   0.893   2.692
 6615SOL     OW20731   3.848   1.886   3.432
 6615SOL    HW120732   3.846   1.855   3.523
 6615SOL    HW220733   3.775   1.841   3.390
 6616SOL     OW20734   3.924   0.308   3.382
 6616SOL    HW120735   3.857   0.365   3.343
 6616SOL    HW220736   3.876   0.252   3.442
 6617SOL     OW20737   3.814   0.545   3.256
 6617SOL    HW120738   3.909   0.547   3.242
 6617SOL    HW220739   3.796   0.622   3.310
 6618SOL     OW20740   0.265   0.297   2.191
 6618SOL    HW120741   0.332   0.232   2.168
 6618SOL    HW220742   0.309   0.381   2.180
 6619SOL     OW20743   3.792   1.575   3.216
 6619SOL    HW120744   3.764   1.637   3.148
 6619SOL    HW220745   3.888   1.583   3.217
 6620SOL     OW20746   0.058   1.105   2.404
 6620SOL    HW120747   0.044   1.127   2.312
 6620SOL    HW220748   0.133   1.045   2.403
 6621SOL     OW20749   0.000   0.213   3.115
 6621SOL    HW120750   3.970   0.236   3.203
 6621SOL    HW220751   3.998   0.117   3.113
 6622SOL     OW20752   3.751   1.315   3.136
 6622SOL    HW120753   3.791   1.263   3.206
 6622SOL    HW220754   3.763   1.405   3.163
 6623SOL     OW20755   3.728   1.327   2.047
 6623SOL    HW120756   3.642   1.341   2.007
 6623SOL    HW220757   3.719   1.244   2.094
 6624SOL     OW20758   3.803   1.791   2.803
 6624SOL    HW120759   3.778   1.713   2.755
 6624SOL    HW220760   3.898   1.798   2.790
 6625SOL     OW20761   0.205   1.543   2.722
 6625SOL    HW120762   0.298   1.568   2.716
 6625SOL    HW220763   0.196   1.471   2.659
 6626SOL     OW20764   3.751   0.538   2.981
 6626SOL    HW120765   3.829   0.536   2.925
 6626SOL    HW220766   3.785   0.543   3.070
 6627SOL     OW20767   3.898   0.536   3.575
 6627SOL    HW120768   3.939   0.484   3.506
 6627SOL    HW220769   3.860   0.611   3.529
 6628SOL     OW20770   3.937   1.531   3.588
 6628SOL    HW120771   3.921   1.622   3.614
 6628SOL    HW220772   3.987   1.494   3.660
 6629SOL     OW20773   3.860   1.142   3.331
 6629SOL    HW120774   3.940   1.153   3.382
 6629SOL    HW220775   3.886   1.086   3.258
 6630SOL     OW20776   3.813   1.274   2.872
 6630SOL    HW120777   3.783   1.284   2.962
 6630SOL    HW220778   3.757   1.205   2.836
 6631SOL     OW20779   3.849   1.787   3.682
 6631SOL    HW120780   3.798   1.724   3.733
 6631SOL    HW220781   3.899   1.835   3.748
 6632SOL     OW20782   3.823   0.317   1.859
 6632SOL    HW120783   3.754   0.330   1.924
 6632SOL    HW220784   3.817   0.394   1.803
 6633SOL     OW20785   3.772   0.148   2.205
 6633SOL    HW120786   3.736   0.201   2.135
 6633SOL    HW220787   3.867   0.159   2.198
 6634SOL     OW20788   3.806   1.234   2.527
 6634SOL    HW120789   3.795   1.187   2.609
 6634SOL    HW220790   3.880   1.191   2.483
 6635SOL     OW20791   3.754   1.084   2.176
 6635SOL    HW120792   3.844   1.084   2.145
 6635SOL    HW220793   3.736   0.991   2.194
 6636SOL     OW20794   3.955   0.636   3.830
 6636SOL    HW120795   3.874   0.636   3.881
 6636SOL    HW220796   3.929   0.602   3.745
 6637SOL     OW20797   3.954   0.305   4.726
 6637SOL    HW120798   3.963   0.275   4.817
 6637SOL    HW220799   3.870   0.270   4.697
 6638SOL     OW20800   3.731   0.395   4.359
 6638SOL    HW120801   3.644   0.407   4.396
 6638SOL    HW220802   3.721   0.320   4.299
 6639SOL     OW20803   0.015   1.530   4.783
 6639SOL    HW120804   3.953   1.459   4.765
 6639SOL    HW220805   0.077   1.527   4.710
 6640SOL     OW20806   3.941   1.720   4.202
 6640SOL    HW120807   3.941   1.792   4.266
 6640SOL    HW220808   0.033   1.709   4.179
 6641SOL     OW20809   3.949   1.438   4.230
 6641SOL    HW120810   3.927   1.531   4.228
 6641SOL    HW220811   3.889   1.400   4.294
 6642SOL     OW20812   3.798   0.652   4.286
 6642SOL    HW120813   3.783   0.561   4.310
 6642SOL    HW220814   3.806   0.698   4.369
 6643SOL     OW20815   3.765   1.596   3.854
 6643SOL    HW120816   3.741   1.504   3.870
 6643SOL    HW220817   3.731   1.643   3.930
 6644SOL     OW20818   3.820   0.756   5.294
 6644SOL    HW120819   3.896   0.811   5.313
 6644SOL    HW220820   3.748   0.818   5.284
 6645SOL     OW20821   3.808   0.821   4.498
 6645SOL    HW120822   3.903   0.820   4.512
 6645SOL    HW220823   3.777   0.893   4.554
 6646SOL     OW20824   3.848   1.886   5.295
 6646SOL    HW120825   3.845   1.856   5.385
 6646SOL    HW220826   3.775   1.841   5.252
 6647SOL     OW20827   3.924   0.308   5.243
 6647SOL    HW120828   3.857   0.365   5.205
 6647SOL    HW220829   3.875   0.252   5.304
 6648SOL     OW20830   3.814   0.545   5.118
 6648SOL    HW120831   3.909   0.547   5.104
 6648SOL    HW220832   3.797   0.622   5.172
 6649SOL     OW20833   0.265   0.297   4.053
 6649SOL    HW120834   0.333   0.232   4.030
 6649SOL    HW220835   0.309   0.381   4.042
 6650SOL     OW20836   3.792   1.575   5.078
 6650SOL    HW120837   3.764   1.637   5.010
 6650SOL    HW220838   3.888   1.583   5.079
 6651SOL     OW20839   0.059   1.105   4.266
 6651SOL    HW120840   0.044   1.128   4.174
 6651SOL    HW220841   0.134   1.046   4.264
 6652SOL     OW20842   0.000   0.213   4.977
 6652SOL    HW120843   3.970   0.236   5.065
 6652SOL    HW220844   3.998   0.117   4.975
 6653SOL     OW20845   3.750   1.315   4.998
 6653SOL    HW120846   3.792   1.263   5.068
 6653SOL    HW220847   3.763   1.406   5.025
 6654SOL     OW20848   3.728   1.327   3.909
 6654SOL    HW120849   3.642   1.341   3.869
 6654SOL    HW220850   3.719   1.244   3.957
 6655SOL     OW20851   3.803   1.791   4.665
 6655SOL    HW120852   3.778   1.713   4.617
 6655SOL    HW220853   3.898   1.798   4.652
 6656SOL     OW20854   0.205   1.543   4.584
 6656SOL    HW120855   0.297   1.568   4.578
 6656SOL    HW220856   0.196   1.472   4.521
 6657SOL     OW20857   3.751   0.538   4.843
 6657SOL    HW120858   3.829   0.535   4.787
 6657SOL    HW220859   3.785   0.543   4.932
 6658SOL     OW20860   3.898   0.536   5.437
 6658SOL    HW120861   3.939   0.484   5.368
 6658SOL    HW220862   3.861   0.611   5.391
 6659SOL     OW20863   3.937   1.531   5.450
 6659SOL    HW120864   3.921   1.622   5.476
 6659SOL    HW220865   3.987   1.494   5.522
 6660SOL     OW20866   3.860   1.142   5.193
 6660SOL    HW120867   3.941   1.153   5.244
 6660SOL    HW220868   3.886   1.086   5.120
 6661SOL     OW20869   3.813   1.274   4.734
 6661SOL    HW120870   3.783   1.284   4.824
 6661SOL    HW220871   3.756   1.205   4.698
 6662SOL     OW20872   3.850   1.787   5.545
 6662SOL    HW120873   3.798   1.724   5.595
 6662SOL    HW220874   3.899   1.835   5.610
 6663SOL     OW20875   3.823   0.317   3.721
 6663SOL    HW120876   3.754   0.330   3.786
 6663SOL    HW220877   3.817   0.395   3.665
 6664SOL     OW20878   3.772   0.148   4.067
 6664SOL    HW120879   3.736   0.201   3.997
 6664SOL    HW220880   3.867   0.159   4.060
 6665SOL     OW20881   3.806   1.234   4.389
 6665SOL    HW120882   3.796   1.187   4.471
 6665SOL    HW220883   3.880   1.191   4.345
 6666SOL     OW20884   3.754   1.083   4.038
 6666SOL    HW120885   3.844   1.084   4.006
 6666SOL    HW220886   3.736   0.991   4.057
 6667SOL     OW20887   3.955   0.635   5.692
 6667SOL    HW120888   3.874   0.636   5.743
 6667SOL    HW220889   3.929   0.602   5.606
 6668SOL     OW20890   3.954   0.305   6.588
 6668SOL    HW120891   3.962   0.275   6.678
 6668SOL    HW220892   3.870   0.270   6.558
 6669SOL     OW20893   3.731   0.394   6.220
 6669SOL    HW120894   3.644   0.407   6.258
 6669SOL    HW220895   3.721   0.320   6.161
 6670SOL     OW20896   0.015   1.530   6.645
 6670SOL    HW120897   3.954   1.459   6.627
 6670SOL    HW220898   0.077   1.527   6.572
 6671SOL     OW20899   3.941   1.720   6.065
 6671SOL    HW120900   3.941   1.791   6.128
 6671SOL    HW220901   0.033   1.709   6.041
 6672SOL     OW20902   3.949   1.438   6.092
 6672SOL    HW120903   3.927   1.531   6.090
 6672SOL    HW220904   3.888   1.400   6.156
 6673SOL     OW20905   3.797   0.652   6.148
 6673SOL    HW120906   3.783   0.560   6.172
 6673SOL    HW220907   3.806   0.698   6.231
 6674SOL     OW20908   3.766   1.596   5.717
 6674SOL    HW120909   3.741   1.505   5.733
 6674SOL    HW220910   3.732   1.643   5.793
 6675SOL     OW20911   3.821   0.756   7.156
 6675SOL    HW120912   3.897   0.811   7.174
 6675SOL    HW220913   3.749   0.818   7.146
 6676SOL     OW20914   3.808   0.822   6.360
 6676SOL    HW120915   3.902   0.820   6.374
 6676SOL    HW220916   3.777   0.893   6.417
 6677SOL     OW20917   3.848   1.886   7.157
 6677SOL    HW120918   3.845   1.855   7.247
 6677SOL    HW220919   3.775   1.842   7.114
 6678SOL     OW20920   3.924   0.308   7.105
 6678SOL    HW120921   3.858   0.365   7.067
 6678SOL    HW220922   3.876   0.251   7.165
 6679SOL     OW20923   3.814   0.545   6.980
 6679SOL    HW120924   3.909   0.547   6.966
 6679SOL    HW220925   3.797   0.622   7.034
 6680SOL     OW20926   0.265   0.297   5.915
 6680SOL    HW120927   0.332   0.232   5.892
 6680SOL    HW220928   0.309   0.381   5.903
 6681SOL     OW20929   3.793   1.575   6.940
 6681SOL    HW120930   3.765   1.637   6.872
 6681SOL    HW220931   3.888   1.583   6.941
 6682SOL     OW20932   0.059   1.105   6.127
 6682SOL    HW120933   0.044   1.127   6.035
 6682SOL    HW220934   0.135   1.047   6.126
 6683SOL     OW20935   4.000   0.213   6.839
 6683SOL    HW120936   3.970   0.236   6.927
 6683SOL    HW220937   3.998   0.117   6.837
 6684SOL     OW20938   3.748   1.315   6.861
 6684SOL    HW120939   3.791   1.263   6.929
 6684SOL    HW220940   3.762   1.406   6.887
 6685SOL     OW20941   3.728   1.327   5.771
 6685SOL    HW120942   3.642   1.341   5.732
 6685SOL    HW220943   3.719   1.244   5.819
 6686SOL     OW20944   3.804   1.791   6.528
 6686SOL    HW120945   3.778   1.713   6.479
 6686SOL    HW220946   3.898   1.798   6.514
 6687SOL     OW20947   0.205   1.543   6.445
 6687SOL    HW120948   0.298   1.567   6.441
 6687SOL    HW220949   0.196   1.471   6.383
 6688SOL     OW20950   3.751   0.538   6.705
 6688SOL    HW120951   3.829   0.535   6.649
 6688SOL    HW220952   3.786   0.543   6.794
 6689SOL     OW20953   3.897   0.536   7.299
 6689SOL    HW120954   3.940   0.484   7.231
 6689SOL    HW220955   3.861   0.612   7.253
 6690SOL     OW20956   3.935   1.530   7.311
 6690SOL    HW120957   3.921   1.620   7.341
 6690SOL    HW220958   3.993   1.492   7.378
 6691SOL     OW20959   3.860   1.141   7.055
 6691SOL    HW120960   3.940   1.153   7.105
 6691SOL    HW220961   3.886   1.086   6.981
 6692SOL     OW20962   3.812   1.274   6.596
 6692SOL    HW120963   3.782   1.284   6.686
 6692SOL    HW220964   3.756   1.205   6.560
 6693SOL     OW20965   3.849   1.787   7.407
 6693SOL    HW120966   3.797   1.724   7.458
 6693SOL    HW220967   3.898   1.836   7.473
 6694SOL     OW20968   3.823   0.317   5.583
 6694SOL    HW120969   3.754   0.330   5.648
 6694SOL    HW220970   3.817   0.394   5.526
 6695SOL     OW20971   3.772   0.148   5.929
 6695SOL    HW120972   3.736   0.202   5.859
 6695SOL    HW220973   3.867   0.159   5.922
 6696SOL     OW20974   3.805   1.235   6.251
 6696SOL    HW120975   3.795   1.187   6.333
 6696SOL    HW220976   3.879   1.192   6.207
 6697SOL     OW20977   3.754   1.083   5.900
 6697SOL    HW120978   3.844   1.084   5.868
 6697SOL    HW220979   3.736   0.991   5.918
 6698SOL     OW20980   3.955   0.635   7.554
 6698SOL    HW120981   3.874   0.636   7.605
 6698SOL    HW220982   3.929   0.601   7.468
 6699SOL     OW20983   3.954   0.305   8.450
 6699SOL    HW120984   3.962   0.276   8.541
 6699SOL    HW220985   3.870   0.270   8.421
 6700SOL     OW20986   3.731   0.394   8.082
 6700SOL    HW120987   3.644   0.406   8.120
 6700SOL    HW220988   3.722   0.319   8.023
 6701SOL     OW20989   0.014   1.529   8.506
 6701SOL    HW120990   3.954   1.457   8.488
 6701SOL    HW220991   0.077   1.527   8.434
 6702SOL     OW20992   3.941   1.720   7.927
 6702SOL    HW120993   3.941   1.792   7.990
 6702SOL    HW220994   0.032   1.709   7.903
 6703SOL     OW20995   3.949   1.438   7.955
 6703SOL    HW120996   3.927   1.531   7.952
 6703SOL    HW220997   3.888   1.401   8.019
 6704SOL     OW20998   3.796   0.652   8.010
 6704SOL    HW120999   3.783   0.560   8.034
 6704SOL    HW221000   3.806   0.698   8.094
 6705SOL     OW21001   3.765   1.596   7.579
 6705SOL    HW121002   3.741   1.505   7.595
 6705SOL    HW221003   3.731   1.643   7.656
 6706SOL     OW21004   3.821   0.756   9.018
 6706SOL    HW121005   3.897   0.810   9.036
 6706SOL    HW221006   3.748   0.818   9.008
 6707SOL     OW21007   3.808   0.822   8.223
 6707SOL    HW121008   3.903   0.819   8.235
 6707SOL    HW221009   3.778   0.893   8.280
 6708SOL     OW21010   3.848   1.886   9.019
 6708SOL    HW121011   3.845   1.856   9.110
 6708SOL    HW221012   3.776   1.840   8.976
 6709SOL     OW21013   3.924   0.308   8.968
 6709SOL    HW121014   3.857   0.365   8.930
 6709SOL    HW221015   3.876   0.251   9.028
 6710SOL     OW21016   3.814   0.545   8.842
 6710SOL    HW121017   3.909   0.546   8.827
 6710SOL    HW221018   3.797   0.622   8.896
 6711SOL     OW21019   0.265   0.297   7.777
 6711SOL    HW121020   0.333   0.233   7.755
 6711SOL    HW221021   0.308   0.382   7.767
 6712SOL     OW21022   3.793   1.575   8.801
 6712SOL    HW121023   3.766   1.637   8.734
 6712SOL    HW221024   3.888   1.582   8.803
 6713SOL     OW21025   0.061   1.105   7.988
 6713SOL    HW121026   0.046   1.128   7.897
 6713SOL    HW221027   0.141   1.053   7.987
 6714SOL     OW21028   4.000   0.213   8.701
 6714SOL    HW121029   3.970   0.236   8.789
 6714SOL    HW221030   3.998   0.117   8.699
 6715SOL     OW21031   3.748   1.315   8.722
 6715SOL    HW121032   3.791   1.263   8.790
 6715SOL    HW221033   3.762   1.406   8.749
 6716SOL     OW21034   3.728   1.327   7.635
 6716SOL    HW121035   3.642   1.342   7.595
 6716SOL    HW221036   3.719   1.244   7.681
 6717SOL     OW21037   3.804   1.791   8.390
 6717SOL    HW121038   3.778   1.713   8.341
 6717SOL    HW221039   3.898   1.799   8.376
 6718SOL     OW21040   0.206   1.543   8.308
 6718SOL    HW121041   0.298   1.568   8.303
 6718SOL    HW221042   0.197   1.472   8.244
 6719SOL     OW21043   3.751   0.538   8.566
 6719SOL    HW121044   3.829   0.535   8.511
 6719SOL    HW221045   3.786   0.543   8.656
 6720SOL     OW21046   3.898   0.536   9.161
 6720SOL    HW121047   3.939   0.484   9.093
 6720SOL    HW221048   3.861   0.611   9.115
 6721SOL     OW21049   3.936   1.531   9.174
 6721SOL    HW121050   3.921   1.621   9.202
 6721SOL    HW221051   3.989   1.493   9.244
 6722SOL     OW21052   3.859   1.142   8.916
 6722SOL    HW121053   3.938   1.153   8.970
 6722SOL    HW221054   3.888   1.087   8.843
 6723SOL     OW21055   3.812   1.276   8.457
 6723SOL    HW121056   3.782   1.285   8.548
 6723SOL    HW221057   3.757   1.205   8.422
 6724SOL     OW21058   3.849   1.787   9.269
 6724SOL    HW121059   3.797   1.724   9.320
 6724SOL    HW221060   3.899   1.836   9.335
 6725SOL     OW21061   3.823   0.317   7.445
 6725SOL    HW121062   3.754   0.331   7.510
 6725SOL    HW221063   3.817   0.394   7.388
 6726SOL     OW21064   3.772   0.149   7.792
 6726SOL    HW121065   3.737   0.202   7.721
 6726SOL    HW221066   3.867   0.159   7.785
 6727SOL     OW21067   3.804   1.234   8.112
 6727SOL    HW121068   3.798   1.187   8.195
 6727SOL    HW221069   3.878   1.193   8.067
 6728SOL     OW21070   3.754   1.083   7.762
 6728SOL    HW121071   3.844   1.084   7.729
 6728SOL    HW221072   3.736   0.991   7.780
 6729SOL     OW21073   3.955   0.636   9.416
 6729SOL    HW121074   3.874   0.636   9.467
 6729SOL    HW221075   3.929   0.602   9.331
 6730SOL     OW21076   3.954   0.305  10.312
 6730SOL    HW121077   3.962   0.275  10.403
 6730SOL    HW221078   3.870   0.270  10.283
 6731SOL     OW21079   3.731   0.395   9.945
 6731SOL    HW121080   3.644   0.407   9.982
 6731SOL    HW221081   3.721   0.320   9.885
 6732SOL     OW21082   0.015   1.530  10.369
 6732SOL    HW121083   3.954   1.459  10.351
 6732SOL    HW221084   0.077   1.527  10.296
 6733SOL     OW21085   3.941   1.720   9.788
 6733SOL    HW121086   3.941   1.792   9.852
 6733SOL    HW221087   0.033   1.709   9.765
 6734SOL     OW21088   3.949   1.438   9.816
 6734SOL    HW121089   3.927   1.531   9.814
 6734SOL    HW221090   3.889   1.400   9.880
 6735SOL     OW21091   3.798   0.652   9.872
 6735SOL    HW121092   3.783   0.561   9.896
 6735SOL    HW221093   3.806   0.698   9.955
 6736SOL     OW21094   3.765   1.596   9.440
 6736SOL    HW121095   3.741   1.504   9.456
 6736SOL    HW221096   3.731   1.643   9.517
 6737SOL     OW21097   3.820   0.756  10.880
 6737SOL    HW121098   3.896   0.811  10.899
 6737SOL    HW221099   3.748   0.818  10.870
 6738SOL     OW21100   3.808   0.822  10.084
 6738SOL    HW121101   3.903   0.820  10.098
 6738SOL    HW221102   3.777   0.893  10.141
 6739SOL     OW21103   3.848   1.886  10.881
 6739SOL    HW121104   3.845   1.856  10.971
 6739SOL    HW221105   3.776   1.841  10.838
 6740SOL     OW21106   3.924   0.308  10.830
 6740SOL    HW121107   3.857   0.365  10.791
 6740SOL    HW221108   3.876   0.252  10.890
 6741SOL     OW21109   3.814   0.545  10.704
 6741SOL    HW121110   3.909   0.547  10.690
 6741SOL    HW221111   3.797   0.622  10.758
 6742SOL     OW21112   0.265   0.297   9.639
 6742SOL    HW121113   0.332   0.232   9.616
 6742SOL    HW221114   0.309   0.381   9.628
 6743SOL     OW21115   3.792   1.575  10.664
 6743SOL    HW121116   3.764   1.637  10.596
 6743SOL    HW221117   3.888   1.583  10.665
 6744SOL     OW21118   0.059   1.105   9.852
 6744SOL    HW121119   0.044   1.128   9.760
 6744SOL    HW221120   0.135   1.047   9.850
 6745SOL     OW21121   4.000   0.213  10.563
 6745SOL    HW121122   3.970   0.236  10.651
 6745SOL    HW221123   3.998   0.117  10.561
 6746SOL     OW21124   3.750   1.315  10.584
 6746SOL    HW121125   3.791   1.263  10.653
 6746SOL    HW221126   3.763   1.406  10.611
 6747SOL     OW21127   3.728   1.327   9.495
 6747SOL    HW121128   3.642   1.341   9.455
 6747SOL    HW221129   3.719   1.244   9.543
 6748SOL     OW21130   3.803   1.791  10.251
 6748SOL    HW121131   3.778   1.713  10.203
 6748SOL    HW221132   3.898   1.798  10.238
 6749SOL     OW21133   0.205   1.543  10.170
 6749SOL    HW121134   0.298   1.568  10.164
 6749SOL    HW221135   0.196   1.472  10.107
 6750SOL     OW21136   3.751   0.538  10.429
 6750SOL    HW121137   3.829   0.535  10.373
 6750SOL    HW221138   3.785   0.543  10.518
 6751SOL     OW21139   3.898   0.536  11.023
 6751SOL    HW121140   3.939   0.484  10.955
 6751SOL    HW221141   3.860   0.611  10.977
 6752SOL     OW21142   3.936   1.531  11.036
 6752SOL    HW121143   3.921   1.621  11.063
 6752SOL    HW221144   3.988   1.493  11.107
 6753SOL     OW21145   3.860   1.142  10.779
 6753SOL    HW121146   3.940   1.153  10.830
 6753SOL    HW221147   3.886   1.086  10.706
 6754SOL     OW21148   3.813   1.274  10.320
 6754SOL    HW121149   3.783   1.284  10.410
 6754SOL    HW221150   3.757   1.205  10.284
 6755SOL     OW21151   3.849   1.787  11.131
 6755SOL    HW121152   3.797   1.724  11.181
 6755SOL    HW221153   3.899   1.835  11.196
 6756SOL     OW21154   3.823   0.317   9.307
 6756SOL    HW121155   3.754   0.330   9.372
 6756SOL    HW221156   3.817   0.394   9.251
 6757SOL     OW21157   3.772   0.148   9.653
 6757SOL    HW121158   3.736   0.202   9.583
 6757SOL    HW221159   3.867   0.159   9.646
 6758SOL     OW21160   3.806   1.234   9.975
 6758SOL    HW121161   3.796   1.187  10.057
 6758SOL    HW221162   3.880   1.191   9.931
 6759SOL     OW21163   3.754   1.084   9.624
 6759SOL    HW121164   3.844   1.084   9.592
 6759SOL    HW221165   3.736   0.991   9.642
 6760SOL     OW21166   3.955   0.636  11.278
 6760SOL    HW121167   3.874   0.636  11.329
 6760SOL    HW221168   3.929   0.602  11.193
 6761SOL     OW21169   3.954   0.305  12.174
 6761SOL    HW121170   3.962   0.275  12.265
 6761SOL    HW221171   3.870   0.270  12.145
 6762SOL     OW21172   3.731   0.394  11.807
 6762SOL    HW121173   3.644   0.407  11.844
 6762SOL    HW221174   3.721   0.320  11.747
 6763SOL     OW21175   0.015   1.530  12.231
 6763SOL    HW121176   3.953   1.459  12.213
 6763SOL    HW221177   0.077   1.527  12.158
 6764SOL     OW21178   3.941   1.720  11.650
 6764SOL    HW121179   3.941   1.792  11.714
 6764SOL    HW221180   0.033   1.709  11.627
 6765SOL     OW21181   3.949   1.438  11.678
 6765SOL    HW121182   3.927   1.531  11.676
 6765SOL    HW221183   3.889   1.400  11.742
 6766SOL     OW21184   3.798   0.652  11.734
 6766SOL    HW121185   3.783   0.561  11.758
 6766SOL    HW221186   3.806   0.698  11.817
 6767SOL     OW21187   3.765   1.596  11.302
 6767SOL    HW121188   3.741   1.504  11.318
 6767SOL    HW221189   3.731   1.643  11.379
 6768SOL     OW21190   3.820   0.756  12.742
 6768SOL    HW121191   3.897   0.811  12.760
 6768SOL    HW221192   3.748   0.818  12.732
 6769SOL     OW21193   3.808   0.821  11.947
 6769SOL    HW121194   3.903   0.820  11.960
 6769SOL    HW221195   3.777   0.893  12.003
 6770SOL     OW21196   3.848   1.886  12.743
 6770SOL    HW121197   3.846   1.856  12.834
 6770SOL    HW221198   3.775   1.840  12.701
 6771SOL     OW21199   3.924   0.308  12.692
 6771SOL    HW121200   3.857   0.365  12.653
 6771SOL    HW221201   3.876   0.251  12.751
 6772SOL     OW21202   3.814   0.545  12.566
 6772SOL    HW121203   3.909   0.547  12.552
 6772SOL    HW221204   3.797   0.622  12.620
 6773SOL     OW21205   0.265   0.297  11.501
 6773SOL    HW121206   0.332   0.232  11.478
 6773SOL    HW221207   0.309   0.381  11.490
 6774SOL     OW21208   3.792   1.575  12.526
 6774SOL    HW121209   3.764   1.637  12.458
 6774SOL    HW221210   3.888   1.583  12.527
 6775SOL     OW21211   0.059   1.105  11.713
 6775SOL    HW121212   0.044   1.128  11.622
 6775SOL    HW221213   0.135   1.047  11.712
 6776SOL     OW21214   0.000   0.213  12.425
 6776SOL    HW121215   3.970   0.236  12.513
 6776SOL    HW221216   3.998   0.117  12.423
 6777SOL     OW21217   3.749   1.315  12.446
 6777SOL    HW121218   3.792   1.263  12.515
 6777SOL    HW221219   3.763   1.406  12.473
 6778SOL     OW21220   3.728   1.327  11.357
 6778SOL    HW121221   3.642   1.341  11.317
 6778SOL    HW221222   3.719   1.244  11.405
 6779SOL     OW21223   3.803   1.791  12.113
 6779SOL    HW121224   3.778   1.713  12.065
 6779SOL    HW221225   3.898   1.798  12.100
 6780SOL     OW21226   0.205   1.543  12.032
 6780SOL    HW121227   0.298   1.568  12.026
 6780SOL    HW221228   0.196   1.472  11.969
 6781SOL     OW21229   3.751   0.538  12.291
 6781SOL    HW121230   3.829   0.535  12.235
 6781SOL    HW221231   3.785   0.543  12.380
 6782SOL     OW21232   3.899   0.537  12.885
 6782SOL    HW121233   3.939   0.484  12.816
 6782SOL    HW221234   3.862   0.612  12.839
 6783SOL     OW21235   3.936   1.531  12.899
 6783SOL    HW121236   3.921   1.622  12.925
 6783SOL    HW221237   3.985   1.493  12.971
 6784SOL     OW21238   3.860   1.142  12.641
 6784SOL    HW121239   3.940   1.153  12.691
 6784SOL    HW221240   3.886   1.086  12.567
 6785SOL     OW21241   3.813   1.274  12.182
 6785SOL    HW121242   3.783   1.284  12.272
 6785SOL    HW221243   3.757   1.205  12.146
 6786SOL     OW21244   3.850   1.788  12.994
 6786SOL    HW121245   3.798   1.725  13.044
 6786SOL    HW221246   3.899   1.837  13.060
 6787SOL     OW21247   3.823   0.317  11.169
 6787SOL    HW121248   3.754   0.330  11.234
 6787SOL    HW221249   3.817   0.394  11.113
 6788SOL     OW21250   3.772   0.148  11.515
 6788SOL    HW121251   3.736   0.202  11.445
 6788SOL    HW221252   3.867   0.159  11.508
 6789SOL     OW21253   3.806   1.234  11.837
 6789SOL    HW121254   3.796   1.187  11.919
 6789SOL    HW221255   3.880   1.191  11.793
 6790SOL     OW21256   3.754   1.083  11.486
 6790SOL    HW121257   3.844   1.084  11.454
 6790SOL    HW221258   3.736   0.991  11.505
 6791SOL     OW21259   3.951   0.633  13.142
 6791SOL    HW121260   3.867   0.633  13.190
 6791SOL    HW221261   3.928   0.601  13.055
 6792SOL     OW21262   3.718   0.384  13.645
 6792SOL    HW121263   3.626   0.399  13.664
 6792SOL    HW221264   3.723   0.294  13.616
 6793SOL     OW21265   3.940   1.713  13.505
 6793SOL    HW121266   3.938   1.786  13.567
 6793SOL    HW221267   0.033   1.702  13.484
 6794SOL     OW21268   3.949   1.434  13.531
 6794SOL    HW121269   3.929   1.527  13.530
 6794SOL    HW221270   3.887   1.396  13.594
 6795SOL     OW21271   3.930   1.099   0.013
 6795SOL    HW121272   3.973   1.058   0.088
 6795SOL    HW221273   3.837   1.089   0.031
 6796SOL     OW21274   3.823   0.642  13.596
 6796SOL    HW121275   3.778   0.558  13.611
 6796SOL    HW221276   3.812   0.690  13.678
 6797SOL     OW21277   3.763   1.596  13.163
 6797SOL    HW121278   3.740   1.504  13.180
 6797SOL    HW221279   3.729   1.643  13.239
 6798SOL     OW21280   3.796   0.806  13.811
 6798SOL    HW121281   3.891   0.818  13.823
 6798SOL    HW221282   3.757   0.883  13.852
 6799SOL     OW21283   0.096   1.814  13.891
 6799SOL    HW121284   0.060   1.734   0.030
 6799SOL    HW221285   0.163   1.843   0.053
 6800SOL     OW21286   0.268   0.296  13.367
 6800SOL    HW121287   0.328   0.225  13.346
 6800SOL    HW221288   0.318   0.376  13.353
 6801SOL     OW21289   0.065   1.107  13.565
 6801SOL    HW121290   0.054   1.129  13.473
 6801SOL    HW221291   0.144   1.052  13.567
 6802SOL     OW21292   3.727   1.326  13.219
 6802SOL    HW121293   3.642   1.341  13.180
 6802SOL    HW221294   3.718   1.244  13.267
 6803SOL     OW21295   0.306   1.536   0.013
 6803SOL    HW121296   0.233   1.582   0.055
 6803SOL    HW221297   0.264   1.478  13.850
 6804SOL     OW21298   3.822   0.318  13.030
 6804SOL    HW121299   3.753   0.330  13.096
 6804SOL    HW221300   3.815   0.395  12.974
 6805SOL     OW21301   3.784   0.147  13.367
 6805SOL    HW121302   3.744   0.203  13.301
 6805SOL    HW221303   3.878   0.158  13.354
 6806SOL     OW21304   3.815   1.228  13.682
 6806SOL    HW121305   3.822   1.180  13.764
 6806SOL    HW221306   3.886   1.193  13.628
 6807SOL     OW21307   3.753   1.080  13.346
 6807SOL    HW121308   3.842   1.083  13.311
 6807SOL    HW221309   3.738   0.988  13.367
 6808SOL     OW21310   3.951   2.496   0.137
 6808SOL    HW121311   3.890   2.508   0.210
 6808SOL    HW221312   3.902   2.448   0.071
 6809SOL     OW21313   3.963   2.126   0.989
 6809SOL    HW121314   3.966   2.117   1.085
 6809SOL    HW221315   3.870   2.113   0.967
 6810SOL     OW21316   3.720   2.245   0.637
 6810SOL    HW121317   3.641   2.269   0.686
 6810SOL    HW221318   3.698   2.162   0.596
 6811SOL     OW21319   0.016   3.388   1.060
 6811SOL    HW121320   3.955   3.318   1.037
 6811SOL    HW221321   0.076   3.393   0.986
 6812SOL     OW21322   3.936   3.570   0.480
 6812SOL    HW121323   3.945   3.644   0.540
 6812SOL    HW221324   0.024   3.559   0.444
 6813SOL     OW21325   3.933   3.293   0.507
 6813SOL    HW121326   3.925   3.388   0.502
 6813SOL    HW221327   3.879   3.268   0.582
 6814SOL     OW21328   3.808   2.502   0.559
 6814SOL    HW121329   3.777   2.415   0.585
 6814SOL    HW221330   3.808   2.552   0.641
 6815SOL     OW21331   3.761   3.463   0.119
 6815SOL    HW121332   3.735   3.373   0.138
 6815SOL    HW221333   3.727   3.514   0.192
 6816SOL     OW21334   3.820   2.605   1.580
 6816SOL    HW121335   3.898   2.657   1.600
 6816SOL    HW221336   3.750   2.669   1.568
 6817SOL     OW21337   3.807   2.682   0.766
 6817SOL    HW121338   3.902   2.681   0.782
 6817SOL    HW221339   3.774   2.750   0.825
 6818SOL     OW21340   3.849   3.728   1.569
 6818SOL    HW121341   3.845   3.701   1.661
 6818SOL    HW221342   3.769   3.693   1.530
 6819SOL     OW21343   3.920   2.150   1.517
 6819SOL    HW121344   3.838   2.193   1.494
 6819SOL    HW221345   3.893   2.063   1.547
 6820SOL     OW21346   3.814   2.405   1.393
 6820SOL    HW121347   3.909   2.402   1.383
 6820SOL    HW221348   3.799   2.479   1.452
 6821SOL     OW21349   3.793   3.437   1.354
 6821SOL    HW121350   3.765   3.499   1.286
 6821SOL    HW221351   3.888   3.445   1.356
 6822SOL     OW21352   0.077   2.965   0.547
 6822SOL    HW121353   0.067   3.014   0.466
 6822SOL    HW221354   0.165   2.927   0.542
 6823SOL     OW21355   4.000   2.071   1.254
 6823SOL    HW121356   3.970   2.104   1.339
 6823SOL    HW221357   0.012   1.977   1.268
 6824SOL     OW21358   3.749   3.177   1.274
 6824SOL    HW121359   3.791   3.125   1.342
 6824SOL    HW221360   3.763   3.268   1.300
 6825SOL     OW21361   3.983   1.921   0.657
 6825SOL    HW121362   4.000   2.015   0.667
 6825SOL    HW221363   0.012   1.883   0.740
 6826SOL     OW21364   3.740   3.178   0.177
 6826SOL    HW121365   3.657   3.189   0.131
 6826SOL    HW221366   3.733   3.093   0.220
 6827SOL     OW21367   3.802   3.646   0.941
 6827SOL    HW121368   3.779   3.568   0.892
 6827SOL    HW221369   3.897   3.654   0.929
 6828SOL     OW21370   0.205   3.420   0.863
 6828SOL    HW121371   0.284   3.474   0.856
 6828SOL    HW221372   0.215   3.354   0.794
 6829SOL     OW21373   3.757   2.405   1.121
 6829SOL    HW121374   3.840   2.404   1.073
 6829SOL    HW221375   3.783   2.406   1.214
 6830SOL     OW21376   3.894   2.378   1.726
 6830SOL    HW121377   3.918   2.315   1.658
 6830SOL    HW221378   3.857   2.452   1.678
 6831SOL     OW21379   3.936   3.391   1.728
 6831SOL    HW121380   3.920   3.482   1.752
 6831SOL    HW221381   3.988   3.356   1.800
 6832SOL     OW21382   3.859   3.005   1.469
 6832SOL    HW121383   3.937   3.015   1.523
 6832SOL    HW221384   3.888   2.950   1.396
 6833SOL     OW21385   3.812   3.134   1.010
 6833SOL    HW121386   3.783   3.146   1.100
 6833SOL    HW221387   3.755   3.065   0.975
 6834SOL     OW21388   3.845   3.643   1.822
 6834SOL    HW121389   3.795   3.580   1.874
 6834SOL    HW221390   3.890   3.697   1.886
 6835SOL     OW21391   3.773   2.279   0.034
 6835SOL    HW121392   3.741   2.194   0.066
 6835SOL    HW221393   3.754   2.278  13.841
 6836SOL     OW21394   3.780   2.015   0.345
 6836SOL    HW121395   3.753   2.036   0.255
 6836SOL    HW221396   3.875   2.023   0.344
 6837SOL     OW21397   3.799   3.092   0.670
 6837SOL    HW121398   3.791   3.045   0.753
 6837SOL    HW221399   3.885   3.067   0.636
 6838SOL     OW21400   3.752   2.936   0.310
 6838SOL    HW121401   3.846   2.946   0.325
 6838SOL    HW221402   3.736   2.842   0.323
 6839SOL     OW21403   3.952   2.496   1.973
 6839SOL    HW121404   3.872   2.491   2.025
 6839SOL    HW221405   3.928   2.459   1.888
 6840SOL     OW21406   3.963   2.125   2.852
 6840SOL    HW121407   3.966   2.116   2.947
 6840SOL    HW221408   3.871   2.113   2.830
 6841SOL     OW21409   3.717   2.242   2.499
 6841SOL    HW121410   3.639   2.268   2.549
 6841SOL    HW221411   3.693   2.161   2.456
 6842SOL     OW21412   0.014   3.388   2.922
 6842SOL    HW121413   3.954   3.317   2.900
 6842SOL    HW221414   0.075   3.391   2.849
 6843SOL     OW21415   3.939   3.578   2.340
 6843SOL    HW121416   3.946   3.652   2.401
 6843SOL    HW221417   0.029   3.561   2.312
 6844SOL     OW21418   3.944   3.297   2.365
 6844SOL    HW121419   3.927   3.391   2.367
 6844SOL    HW221420   3.888   3.262   2.434
 6845SOL     OW21421   3.812   2.499   2.425
 6845SOL    HW121422   3.779   2.412   2.448
 6845SOL    HW221423   3.809   2.549   2.507
 6846SOL     OW21424   3.760   3.455   1.996
 6846SOL    HW121425   3.738   3.363   2.010
 6846SOL    HW221426   3.727   3.500   2.073
 6847SOL     OW21427   3.820   2.605   3.442
 6847SOL    HW121428   3.898   2.657   3.462
 6847SOL    HW221429   3.751   2.669   3.430
 6848SOL     OW21430   3.807   2.680   2.632
 6848SOL    HW121431   3.902   2.680   2.646
 6848SOL    HW221432   3.775   2.750   2.688
 6849SOL     OW21433   3.849   3.728   3.431
 6849SOL    HW121434   3.845   3.701   3.523
 6849SOL    HW221435   3.769   3.693   3.392
 6850SOL     OW21436   3.920   2.150   3.379
 6850SOL    HW121437   3.838   2.193   3.356
 6850SOL    HW221438   3.893   2.063   3.409
 6851SOL     OW21439   4.000   1.898   2.019
 6851SOL    HW121440   0.041   1.983   2.003
 6851SOL    HW221441   0.054   1.857   2.086
 6852SOL     OW21442   3.814   2.405   3.255
 6852SOL    HW121443   3.909   2.402   3.245
 6852SOL    HW221444   3.799   2.479   3.314
 6853SOL     OW21445   0.280   2.150   2.179
 6853SOL    HW121446   0.295   2.072   2.126
 6853SOL    HW221447   0.331   2.219   2.136
 6854SOL     OW21448   3.793   3.437   3.216
 6854SOL    HW121449   3.766   3.499   3.148
 6854SOL    HW221450   3.888   3.445   3.218
 6855SOL     OW21451   0.062   2.963   2.402
 6855SOL    HW121452   0.044   2.989   2.312
 6855SOL    HW221453   0.144   2.914   2.398
 6856SOL     OW21454   4.000   2.071   3.117
 6856SOL    HW121455   3.970   2.104   3.202
 6856SOL    HW221456   0.012   1.977   3.131
 6857SOL     OW21457   3.749   3.177   3.135
 6857SOL    HW121458   3.791   3.125   3.204
 6857SOL    HW221459   3.763   3.268   3.162
 6858SOL     OW21460   3.990   1.924   2.518
 6858SOL    HW121461   3.995   2.018   2.533
 6858SOL    HW221462   0.016   1.885   2.601
 6859SOL     OW21463   3.726   3.185   2.049
 6859SOL    HW121464   3.640   3.201   2.010
 6859SOL    HW221465   3.717   3.102   2.095
 6860SOL     OW21466   3.803   3.647   2.803
 6860SOL    HW121467   3.779   3.568   2.755
 6860SOL    HW221468   3.898   3.654   2.792
 6861SOL     OW21469   0.204   3.417   2.725
 6861SOL    HW121470   0.284   3.469   2.717
 6861SOL    HW221471   0.212   3.350   2.657
 6862SOL     OW21472   3.757   2.405   2.984
 6862SOL    HW121473   3.839   2.404   2.935
 6862SOL    HW221474   3.784   2.406   3.075
 6863SOL     OW21475   3.894   2.378   3.587
 6863SOL    HW121476   3.918   2.315   3.520
 6863SOL    HW221477   3.857   2.452   3.540
 6864SOL     OW21478   3.936   3.391   3.590
 6864SOL    HW121479   3.920   3.482   3.614
 6864SOL    HW221480   3.988   3.356   3.662
 6865SOL     OW21481   3.859   3.005   3.331
 6865SOL    HW121482   3.937   3.016   3.385
 6865SOL    HW221483   3.887   2.949   3.258
 6866SOL     OW21484   3.811   3.137   2.871
 6866SOL    HW121485   3.783   3.147   2.961
 6866SOL    HW221486   3.756   3.067   2.836
 6867SOL     OW21487   3.845   3.643   3.684
 6867SOL    HW121488   3.795   3.580   3.736
 6867SOL    HW221489   3.890   3.697   3.748
 6868SOL     OW21490   3.800   2.189   1.906
 6868SOL    HW121491   3.716   2.155   1.873
 6868SOL    HW221492   3.819   2.264   1.849
 6869SOL     OW21493   3.760   2.027   2.173
 6869SOL    HW121494   3.753   2.081   2.094
 6869SOL    HW221495   3.849   2.042   2.205
 6870SOL     OW21496   3.804   3.097   2.529
 6870SOL    HW121497   3.795   3.049   2.611
 6870SOL    HW221498   3.879   3.056   2.485
 6871SOL     OW21499   3.751   2.937   2.177
 6871SOL    HW121500   3.841   2.940   2.144
 6871SOL    HW221501   3.735   2.845   2.194
 6872SOL     OW21502   3.952   2.496   3.835
 6872SOL    HW121503   3.872   2.491   3.887
 6872SOL    HW221504   3.928   2.459   3.750
 6873SOL     OW21505   3.963   2.125   4.714
 6873SOL    HW121506   3.966   2.117   4.809
 6873SOL    HW221507   3.871   2.113   4.692
 6874SOL     OW21508   3.717   2.242   4.361
 6874SOL    HW121509   3.639   2.268   4.411
 6874SOL    HW221510   3.693   2.161   4.318
 6875SOL     OW21511   0.014   3.388   4.785
 6875SOL    HW121512   3.955   3.317   4.763
 6875SOL    HW221513   0.076   3.392   4.711
 6876SOL     OW21514   3.939   3.578   4.202
 6876SOL    HW121515   3.946   3.652   4.263
 6876SOL    HW221516   0.029   3.561   4.174
 6877SOL     OW21517   3.944   3.297   4.227
 6877SOL    HW121518   3.927   3.391   4.229
 6877SOL    HW221519   3.888   3.262   4.296
 6878SOL     OW21520   3.812   2.499   4.287
 6878SOL    HW121521   3.779   2.412   4.310
 6878SOL    HW221522   3.809   2.549   4.369
 6879SOL     OW21523   3.760   3.455   3.858
 6879SOL    HW121524   3.738   3.363   3.872
 6879SOL    HW221525   3.727   3.500   3.936
 6880SOL     OW21526   3.820   2.605   5.304
 6880SOL    HW121527   3.898   2.657   5.323
 6880SOL    HW221528   3.751   2.669   5.292
 6881SOL     OW21529   3.807   2.680   4.494
 6881SOL    HW121530   3.902   2.680   4.508
 6881SOL    HW221531   3.775   2.750   4.551
 6882SOL     OW21532   3.849   3.728   5.293
 6882SOL    HW121533   3.845   3.701   5.385
 6882SOL    HW221534   3.769   3.693   5.254
 6883SOL     OW21535   3.920   2.150   5.241
 6883SOL    HW121536   3.838   2.193   5.217
 6883SOL    HW221537   3.893   2.063   5.271
 6884SOL     OW21538   4.000   1.898   3.881
 6884SOL    HW121539   0.041   1.983   3.865
 6884SOL    HW221540   0.054   1.857   3.948
 6885SOL     OW21541   3.814   2.405   5.117
 6885SOL    HW121542   3.909   2.402   5.107
 6885SOL    HW221543   3.799   2.479   5.176
 6886SOL     OW21544   0.280   2.150   4.041
 6886SOL    HW121545   0.295   2.072   3.988
 6886SOL    HW221546   0.331   2.219   3.998
 6887SOL     OW21547   3.793   3.437   5.078
 6887SOL    HW121548   3.765   3.499   5.010
 6887SOL    HW221549   3.888   3.445   5.080
 6888SOL     OW21550   0.062   2.963   4.264
 6888SOL    HW121551   0.044   2.988   4.174
 6888SOL    HW221552   0.144   2.913   4.260
 6889SOL     OW21553   4.000   2.071   4.979
 6889SOL    HW121554   3.970   2.104   5.064
 6889SOL    HW221555   0.012   1.978   4.992
 6890SOL     OW21556   3.749   3.177   4.997
 6890SOL    HW121557   3.791   3.125   5.066
 6890SOL    HW221558   3.763   3.268   5.024
 6891SOL     OW21559   3.990   1.924   4.380
 6891SOL    HW121560   3.995   2.018   4.395
 6891SOL    HW221561   0.016   1.885   4.463
 6892SOL     OW21562   3.726   3.185   3.911
 6892SOL    HW121563   3.640   3.201   3.872
 6892SOL    HW221564   3.717   3.102   3.957
 6893SOL     OW21565   3.803   3.647   4.665
 6893SOL    HW121566   3.779   3.568   4.617
 6893SOL    HW221567   3.898   3.654   4.654
 6894SOL     OW21568   0.204   3.417   4.587
 6894SOL    HW121569   0.284   3.468   4.579
 6894SOL    HW221570   0.212   3.349   4.519
 6895SOL     OW21571   3.757   2.405   4.846
 6895SOL    HW121572   3.839   2.404   4.796
 6895SOL    HW221573   3.784   2.406   4.937
 6896SOL     OW21574   3.894   2.378   5.450
 6896SOL    HW121575   3.918   2.315   5.382
 6896SOL    HW221576   3.857   2.452   5.402
 6897SOL     OW21577   3.936   3.391   5.452
 6897SOL    HW121578   3.920   3.482   5.476
 6897SOL    HW221579   3.988   3.356   5.524
 6898SOL     OW21580   3.859   3.005   5.193
 6898SOL    HW121581   3.937   3.016   5.246
 6898SOL    HW221582   3.887   2.949   5.120
 6899SOL     OW21583   3.811   3.137   4.733
 6899SOL    HW121584   3.782   3.147   4.823
 6899SOL    HW221585   3.756   3.067   4.698
 6900SOL     OW21586   3.845   3.643   5.546
 6900SOL    HW121587   3.795   3.580   5.598
 6900SOL    HW221588   3.890   3.698   5.610
 6901SOL     OW21589   3.800   2.189   3.768
 6901SOL    HW121590   3.716   2.155   3.735
 6901SOL    HW221591   3.819   2.264   3.711
 6902SOL     OW21592   3.760   2.027   4.035
 6902SOL    HW121593   3.753   2.081   3.956
 6902SOL    HW221594   3.849   2.042   4.067
 6903SOL     OW21595   3.804   3.097   4.391
 6903SOL    HW121596   3.795   3.049   4.473
 6903SOL    HW221597   3.879   3.056   4.347
 6904SOL     OW21598   3.751   2.937   4.039
 6904SOL    HW121599   3.841   2.940   4.006
 6904SOL    HW221600   3.735   2.845   4.056
 6905SOL     OW21601   3.953   2.496   5.697
 6905SOL    HW121602   3.872   2.491   5.748
 6905SOL    HW221603   3.929   2.459   5.612
 6906SOL     OW21604   3.963   2.125   6.576
 6906SOL    HW121605   3.966   2.117   6.671
 6906SOL    HW221606   3.871   2.113   6.554
 6907SOL     OW21607   3.719   2.242   6.223
 6907SOL    HW121608   3.641   2.266   6.274
 6907SOL    HW221609   3.694   2.160   6.179
 6908SOL     OW21610   0.014   3.388   6.646
 6908SOL    HW121611   3.954   3.317   6.624
 6908SOL    HW221612   0.076   3.392   6.573
 6909SOL     OW21613   3.939   3.578   6.064
 6909SOL    HW121614   3.946   3.652   6.125
 6909SOL    HW221615   0.029   3.561   6.036
 6910SOL     OW21616   3.945   3.297   6.089
 6910SOL    HW121617   3.927   3.392   6.091
 6910SOL    HW221618   3.888   3.262   6.158
 6911SOL     OW21619   3.812   2.499   6.149
 6911SOL    HW121620   3.780   2.412   6.173
 6911SOL    HW221621   3.809   2.549   6.231
 6912SOL     OW21622   3.761   3.455   5.720
 6912SOL    HW121623   3.739   3.363   5.734
 6912SOL    HW221624   3.727   3.500   5.798
 6913SOL     OW21625   3.820   2.605   7.166
 6913SOL    HW121626   3.897   2.657   7.186
 6913SOL    HW221627   3.750   2.669   7.154
 6914SOL     OW21628   3.807   2.680   6.356
 6914SOL    HW121629   3.901   2.680   6.370
 6914SOL    HW221630   3.774   2.750   6.412
 6915SOL     OW21631   3.849   3.728   7.155
 6915SOL    HW121632   3.845   3.701   7.247
 6915SOL    HW221633   3.770   3.692   7.116
 6916SOL     OW21634   3.919   2.150   7.103
 6916SOL    HW121635   3.837   2.193   7.080
 6916SOL    HW221636   3.893   2.063   7.133
 6917SOL     OW21637   4.000   1.899   5.742
 6917SOL    HW121638   0.042   1.983   5.725
 6917SOL    HW221639   0.055   1.858   5.809
 6918SOL     OW21640   3.814   2.405   6.979
 6918SOL    HW121641   3.909   2.402   6.969
 6918SOL    HW221642   3.799   2.479   7.038
 6919SOL     OW21643   0.282   2.150   5.905
 6919SOL    HW121644   0.296   2.071   5.851
 6919SOL    HW221645   0.332   2.218   5.861
 6920SOL     OW21646   3.793   3.437   6.940
 6920SOL    HW121647   3.765   3.499   6.872
 6920SOL    HW221648   3.888   3.445   6.942
 6921SOL     OW21649   0.062   2.963   6.126
 6921SOL    HW121650   0.044   2.988   6.036
 6921SOL    HW221651   0.144   2.913   6.121
 6922SOL     OW21652   0.000   2.072   6.841
 6922SOL    HW121653   3.970   2.104   6.926
 6922SOL    HW221654   0.012   1.977   6.854
 6923SOL     OW21655   3.751   3.177   6.859
 6923SOL    HW121656   3.792   3.125   6.929
 6923SOL    HW221657   3.764   3.268   6.886
 6924SOL     OW21658   3.987   1.923   6.243
 6924SOL    HW121659   3.994   2.018   6.257
 6924SOL    HW221660   0.015   1.885   6.326
 6925SOL     OW21661   3.726   3.185   5.773
 6925SOL    HW121662   3.640   3.201   5.733
 6925SOL    HW221663   3.717   3.102   5.819
 6926SOL     OW21664   3.803   3.647   6.527
 6926SOL    HW121665   3.779   3.568   6.479
 6926SOL    HW221666   3.898   3.654   6.516
 6927SOL     OW21667   0.204   3.417   6.449
 6927SOL    HW121668   0.284   3.469   6.441
 6927SOL    HW221669   0.212   3.350   6.381
 6928SOL     OW21670   3.757   2.405   6.707
 6928SOL    HW121671   3.839   2.405   6.658
 6928SOL    HW221672   3.783   2.406   6.799
 6929SOL     OW21673   3.894   2.378   7.311
 6929SOL    HW121674   3.917   2.315   7.243
 6929SOL    HW221675   3.857   2.452   7.264
 6930SOL     OW21676   3.936   3.391   7.314
 6930SOL    HW121677   3.921   3.483   7.338
 6930SOL    HW221678   3.988   3.356   7.386
 6931SOL     OW21679   3.859   3.005   7.055
 6931SOL    HW121680   3.938   3.016   7.108
 6931SOL    HW221681   3.886   2.949   6.982
 6932SOL     OW21682   3.811   3.136   6.595
 6932SOL    HW121683   3.783   3.147   6.685
 6932SOL    HW221684   3.755   3.067   6.560
 6933SOL     OW21685   3.845   3.643   7.408
 6933SOL    HW121686   3.795   3.581   7.460
 6933SOL    HW221687   3.890   3.698   7.472
 6934SOL     OW21688   3.799   2.190   5.630
 6934SOL    HW121689   3.717   2.155   5.596
 6934SOL    HW221690   3.819   2.265   5.574
 6935SOL     OW21691   3.760   2.028   5.898
 6935SOL    HW121692   3.754   2.081   5.818
 6935SOL    HW221693   3.850   2.042   5.929
 6936SOL     OW21694   3.804   3.097   6.253
 6936SOL    HW121695   3.796   3.050   6.336
 6936SOL    HW221696   3.880   3.057   6.209
 6937SOL     OW21697   3.752   2.937   5.901
 6937SOL    HW121698   3.842   2.941   5.868
 6937SOL    HW221699   3.736   2.845   5.918
 6938SOL     OW21700   3.953   2.495   7.559
 6938SOL    HW121701   3.872   2.492   7.610
 6938SOL    HW221702   3.929   2.459   7.474
 6939SOL     OW21703   3.962   2.124   8.438
 6939SOL    HW121704   3.965   2.115   8.533
 6939SOL    HW221705   3.870   2.113   8.416
 6940SOL     OW21706   3.719   2.242   8.085
 6940SOL    HW121707   3.640   2.266   8.135
 6940SOL    HW221708   3.695   2.160   8.041
 6941SOL     OW21709   0.014   3.388   8.508
 6941SOL    HW121710   3.955   3.316   8.486
 6941SOL    HW221711   0.076   3.392   8.435
 6942SOL     OW21712   3.939   3.578   7.926
 6942SOL    HW121713   3.946   3.651   7.987
 6942SOL    HW221714   0.029   3.562   7.898
 6943SOL     OW21715   3.945   3.298   7.952
 6943SOL    HW121716   3.928   3.392   7.952
 6943SOL    HW221717   3.888   3.263   8.021
 6944SOL     OW21718   3.811   2.499   8.011
 6944SOL    HW121719   3.780   2.412   8.035
 6944SOL    HW221720   3.809   2.549   8.093
 6945SOL     OW21721   3.761   3.455   7.582
 6945SOL    HW121722   3.739   3.363   7.596
 6945SOL    HW221723   3.727   3.500   7.660
 6946SOL     OW21724   3.821   2.605   9.028
 6946SOL    HW121725   3.899   2.657   9.046
 6946SOL    HW221726   3.751   2.669   9.016
 6947SOL     OW21727   3.807   2.679   8.219
 6947SOL    HW121728   3.902   2.679   8.232
 6947SOL    HW221729   3.775   2.750   8.275
 6948SOL     OW21730   3.849   3.728   9.017
 6948SOL    HW121731   3.845   3.701   9.109
 6948SOL    HW221732   3.769   3.693   8.978
 6949SOL     OW21733   3.920   2.150   8.965
 6949SOL    HW121734   3.839   2.194   8.942
 6949SOL    HW221735   3.893   2.063   8.996
 6950SOL     OW21736   3.999   1.899   7.605
 6950SOL    HW121737   0.042   1.982   7.587
 6950SOL    HW221738   0.055   1.857   7.670
 6951SOL     OW21739   3.814   2.405   8.842
 6951SOL    HW121740   3.909   2.402   8.831
 6951SOL    HW221741   3.799   2.479   8.900
 6952SOL     OW21742   0.282   2.150   7.767
 6952SOL    HW121743   0.294   2.072   7.713
 6952SOL    HW221744   0.332   2.218   7.722
 6953SOL     OW21745   3.793   3.437   8.801
 6953SOL    HW121746   3.766   3.499   8.734
 6953SOL    HW221747   3.889   3.445   8.804
 6954SOL     OW21748   0.063   2.963   7.988
 6954SOL    HW121749   0.044   2.988   7.897
 6954SOL    HW221750   0.147   2.917   7.983
 6955SOL     OW21751   3.998   2.070   8.703
 6955SOL    HW121752   3.971   2.103   8.788
 6955SOL    HW221753   0.016   1.977   8.717
 6956SOL     OW21754   3.747   3.177   8.722
 6956SOL    HW121755   3.791   3.125   8.790
 6956SOL    HW221756   3.763   3.268   8.748
 6957SOL     OW21757   3.988   1.924   8.105
 6957SOL    HW121758   3.996   2.018   8.119
 6957SOL    HW221759   0.016   1.885   8.188
 6958SOL     OW21760   3.726   3.185   7.635
 6958SOL    HW121761   3.640   3.201   7.596
 6958SOL    HW221762   3.716   3.102   7.681
 6959SOL     OW21763   3.803   3.647   8.390
 6959SOL    HW121764   3.779   3.568   8.341
 6959SOL    HW221765   3.898   3.654   8.378
 6960SOL     OW21766   0.204   3.417   8.311
 6960SOL    HW121767   0.285   3.469   8.303
 6960SOL    HW221768   0.212   3.350   8.243
 6961SOL     OW21769   3.757   2.404   8.570
 6961SOL    HW121770   3.839   2.404   8.520
 6961SOL    HW221771   3.784   2.405   8.662
 6962SOL     OW21772   3.894   2.378   9.174
 6962SOL    HW121773   3.919   2.316   9.106
 6962SOL    HW221774   3.857   2.453   9.126
 6963SOL     OW21775   3.936   3.391   9.176
 6963SOL    HW121776   3.920   3.482   9.200
 6963SOL    HW221777   3.989   3.356   9.247
 6964SOL     OW21778   3.859   3.004   8.917
 6964SOL    HW121779   3.937   3.015   8.971
 6964SOL    HW221780   3.889   2.950   8.843
 6965SOL     OW21781   3.811   3.137   8.457
 6965SOL    HW121782   3.782   3.147   8.547
 6965SOL    HW221783   3.756   3.066   8.422
 6966SOL     OW21784   3.845   3.643   9.270
 6966SOL    HW121785   3.795   3.580   9.322
 6966SOL    HW221786   3.890   3.698   9.334
 6967SOL     OW21787   3.799   2.189   7.492
 6967SOL    HW121788   3.716   2.155   7.457
 6967SOL    HW221789   3.818   2.265   7.436
 6968SOL     OW21790   3.760   2.028   7.760
 6968SOL    HW121791   3.754   2.080   7.680
 6968SOL    HW221792   3.849   2.042   7.791
 6969SOL     OW21793   3.803   3.097   8.114
 6969SOL    HW121794   3.797   3.050   8.197
 6969SOL    HW221795   3.878   3.058   8.070
 6970SOL     OW21796   3.751   2.938   7.763
 6970SOL    HW121797   3.840   2.941   7.729
 6970SOL    HW221798   3.735   2.845   7.780
 6971SOL     OW21799   3.952   2.496   9.422
 6971SOL    HW121800   3.872   2.491   9.473
 6971SOL    HW221801   3.928   2.459   9.336
 6972SOL     OW21802   3.963   2.125  10.300
 6972SOL    HW121803   3.966   2.116  10.395
 6972SOL    HW221804   3.871   2.113  10.278
 6973SOL     OW21805   3.718   2.242   9.947
 6973SOL    HW121806   3.640   2.268   9.997
 6973SOL    HW221807   3.693   2.161   9.904
 6974SOL     OW21808   0.014   3.388  10.370
 6974SOL    HW121809   3.954   3.316  10.348
 6974SOL    HW221810   0.076   3.392  10.297
 6975SOL     OW21811   3.939   3.578   9.788
 6975SOL    HW121812   3.946   3.652   9.849
 6975SOL    HW221813   0.029   3.562   9.760
 6976SOL     OW21814   3.944   3.297   9.814
 6976SOL    HW121815   3.927   3.392   9.815
 6976SOL    HW221816   3.888   3.262   9.882
 6977SOL     OW21817   3.811   2.499   9.873
 6977SOL    HW121818   3.779   2.412   9.896
 6977SOL    HW221819   3.809   2.549   9.955
 6978SOL     OW21820   3.760   3.455   9.444
 6978SOL    HW121821   3.739   3.363   9.458
 6978SOL    HW221822   3.727   3.500   9.522
 6979SOL     OW21823   3.821   2.605  10.890
 6979SOL    HW121824   3.898   2.657  10.909
 6979SOL    HW221825   3.751   2.669  10.878
 6980SOL     OW21826   3.807   2.680  10.080
 6980SOL    HW121827   3.902   2.680  10.094
 6980SOL    HW221828   3.775   2.750  10.137
 6981SOL     OW21829   3.849   3.728  10.879
 6981SOL    HW121830   3.845   3.701  10.971
 6981SOL    HW221831   3.769   3.693  10.840
 6982SOL     OW21832   3.920   2.150  10.827
 6982SOL    HW121833   3.838   2.193  10.804
 6982SOL    HW221834   3.893   2.063  10.857
 6983SOL     OW21835   4.000   1.898   9.467
 6983SOL    HW121836   0.041   1.983   9.450
 6983SOL    HW221837   0.055   1.857   9.534
 6984SOL     OW21838   3.814   2.405  10.703
 6984SOL    HW121839   3.909   2.402  10.693
 6984SOL    HW221840   3.799   2.479  10.762
 6985SOL     OW21841   0.280   2.150   9.627
 6985SOL    HW121842   0.295   2.072   9.574
 6985SOL    HW221843   0.331   2.219   9.584
 6986SOL     OW21844   3.793   3.437  10.663
 6986SOL    HW121845   3.766   3.499  10.596
 6986SOL    HW221846   3.889   3.445  10.666
 6987SOL     OW21847   0.063   2.963   9.850
 6987SOL    HW121848   0.045   2.988   9.760
 6987SOL    HW221849   0.145   2.914   9.845
 6988SOL     OW21850   4.000   2.071  10.565
 6988SOL    HW121851   3.970   2.104  10.650
 6988SOL    HW221852   0.013   1.977  10.579
 6989SOL     OW21853   3.749   3.177  10.584
 6989SOL    HW121854   3.791   3.125  10.652
 6989SOL    HW221855   3.763   3.268  10.610
 6990SOL     OW21856   3.990   1.924   9.966
 6990SOL    HW121857   3.995   2.018   9.981
 6990SOL    HW221858   0.016   1.885  10.049
 6991SOL     OW21859   3.726   3.185   9.497
 6991SOL    HW121860   3.640   3.201   9.458
 6991SOL    HW221861   3.717   3.102   9.544
 6992SOL     OW21862   3.803   3.647  10.251
 6992SOL    HW121863   3.779   3.568  10.203
 6992SOL    HW221864   3.898   3.654  10.240
 6993SOL     OW21865   0.204   3.417  10.173
 6993SOL    HW121866   0.284   3.469  10.165
 6993SOL    HW221867   0.212   3.350  10.105
 6994SOL     OW21868   3.757   2.405  10.432
 6994SOL    HW121869   3.839   2.404  10.382
 6994SOL    HW221870   3.784   2.406  10.524
 6995SOL     OW21871   3.894   2.378  11.036
 6995SOL    HW121872   3.918   2.315  10.968
 6995SOL    HW221873   3.857   2.452  10.988
 6996SOL     OW21874   3.936   3.391  11.038
 6996SOL    HW121875   3.920   3.482  11.062
 6996SOL    HW221876   3.988   3.356  11.110
 6997SOL     OW21877   3.859   3.005  10.779
 6997SOL    HW121878   3.937   3.015  10.833
 6997SOL    HW221879   3.888   2.950  10.706
 6998SOL     OW21880   3.811   3.137  10.319
 6998SOL    HW121881   3.782   3.147  10.409
 6998SOL    HW221882   3.756   3.067  10.284
 6999SOL     OW21883   3.845   3.643  11.132
 6999SOL    HW121884   3.795   3.580  11.184
 6999SOL    HW221885   3.890   3.697  11.196
 7000SOL     OW21886   3.800   2.190   9.354
 7000SOL    HW121887   3.717   2.155   9.321
 7000SOL    HW221888   3.819   2.264   9.298
 7001SOL     OW21889   3.760   2.027   9.621
 7001SOL    HW121890   3.754   2.081   9.542
 7001SOL    HW221891   3.849   2.042   9.653
 7002SOL     OW21892   3.804   3.097   9.977
 7002SOL    HW121893   3.795   3.049  10.059
 7002SOL    HW221894   3.879   3.057   9.933
 7003SOL     OW21895   3.751   2.937   9.625
 7003SOL    HW121896   3.841   2.940   9.592
 7003SOL    HW221897   3.735   2.845   9.642
 7004SOL     OW21898   3.952   2.496  11.283
 7004SOL    HW121899   3.872   2.491  11.335
 7004SOL    HW221900   3.928   2.459  11.198
 7005SOL     OW21901   3.963   2.125  12.162
 7005SOL    HW121902   3.966   2.116  12.257
 7005SOL    HW221903   3.871   2.113  12.140
 7006SOL     OW21904   3.717   2.242  11.809
 7006SOL    HW121905   3.640   2.268  11.859
 7006SOL    HW221906   3.693   2.161  11.766
 7007SOL     OW21907   0.014   3.388  12.232
 7007SOL    HW121908   3.955   3.317  12.210
 7007SOL    HW221909   0.076   3.392  12.159
 7008SOL     OW21910   3.939   3.578  11.650
 7008SOL    HW121911   3.946   3.652  11.711
 7008SOL    HW221912   0.029   3.562  11.622
 7009SOL     OW21913   3.944   3.297  11.675
 7009SOL    HW121914   3.927   3.392  11.677
 7009SOL    HW221915   3.888   3.262  11.744
 7010SOL     OW21916   3.812   2.499  11.735
 7010SOL    HW121917   3.779   2.412  11.758
 7010SOL    HW221918   3.809   2.549  11.817
 7011SOL     OW21919   3.760   3.455  11.306
 7011SOL    HW121920   3.738   3.363  11.320
 7011SOL    HW221921   3.727   3.500  11.384
 7012SOL     OW21922   3.821   2.605  12.752
 7012SOL    HW121923   3.899   2.657  12.771
 7012SOL    HW221924   3.751   2.669  12.740
 7013SOL     OW21925   3.807   2.680  11.942
 7013SOL    HW121926   3.902   2.680  11.956
 7013SOL    HW221927   3.775   2.750  11.999
 7014SOL     OW21928   3.849   3.728  12.743
 7014SOL    HW121929   3.846   3.702  12.835
 7014SOL    HW221930   3.770   3.692  12.704
 7015SOL     OW21931   3.920   2.150  12.689
 7015SOL    HW121932   3.838   2.193  12.666
 7015SOL    HW221933   3.893   2.063  12.720
 7016SOL     OW21934   4.000   1.898  11.329
 7016SOL    HW121935   0.041   1.983  11.312
 7016SOL    HW221936   0.055   1.857  11.396
 7017SOL     OW21937   3.814   2.405  12.565
 7017SOL    HW121938   3.909   2.402  12.555
 7017SOL    HW221939   3.799   2.479  12.624
 7018SOL     OW21940   0.280   2.150  11.489
 7018SOL    HW121941   0.295   2.072  11.436
 7018SOL    HW221942   0.331   2.219  11.446
 7019SOL     OW21943   3.793   3.437  12.525
 7019SOL    HW121944   3.765   3.499  12.458
 7019SOL    HW221945   3.889   3.445  12.528
 7020SOL     OW21946   0.063   2.963  11.712
 7020SOL    HW121947   0.044   2.988  11.622
 7020SOL    HW221948   0.144   2.914  11.708
 7021SOL     OW21949   3.999   2.071  12.427
 7021SOL    HW121950   3.971   2.104  12.512
 7021SOL    HW221951   0.013   1.977  12.441
 7022SOL     OW21952   3.749   3.177  12.446
 7022SOL    HW121953   3.791   3.125  12.514
 7022SOL    HW221954   3.763   3.268  12.472
 7023SOL     OW21955   3.990   1.924  11.828
 7023SOL    HW121956   3.995   2.018  11.843
 7023SOL    HW221957   0.016   1.885  11.911
 7024SOL     OW21958   3.726   3.185  11.359
 7024SOL    HW121959   3.640   3.201  11.320
 7024SOL    HW221960   3.717   3.102  11.405
 7025SOL     OW21961   3.803   3.647  12.113
 7025SOL    HW121962   3.779   3.568  12.065
 7025SOL    HW221963   3.898   3.654  12.102
 7026SOL     OW21964   0.204   3.417  12.035
 7026SOL    HW121965   0.284   3.468  12.027
 7026SOL    HW221966   0.212   3.350  11.967
 7027SOL     OW21967   3.757   2.405  12.294
 7027SOL    HW121968   3.839   2.404  12.245
 7027SOL    HW221969   3.784   2.406  12.386
 7028SOL     OW21970   3.894   2.378  12.898
 7028SOL    HW121971   3.918   2.315  12.830
 7028SOL    HW221972   3.857   2.452  12.850
 7029SOL     OW21973   3.936   3.392  12.901
 7029SOL    HW121974   3.920   3.483  12.926
 7029SOL    HW221975   3.985   3.355  12.974
 7030SOL     OW21976   3.859   3.005  12.641
 7030SOL    HW121977   3.937   3.016  12.695
 7030SOL    HW221978   3.887   2.949  12.568
 7031SOL     OW21979   3.811   3.137  12.181
 7031SOL    HW121980   3.782   3.147  12.271
 7031SOL    HW221981   3.756   3.067  12.146
 7032SOL     OW21982   3.846   3.645  12.996
 7032SOL    HW121983   3.796   3.582  13.048
 7032SOL    HW221984   3.890   3.700  13.062
 7033SOL     OW21985   3.800   2.189  11.216
 7033SOL    HW121986   3.717   2.155  11.183
 7033SOL    HW221987   3.819   2.264  11.160
 7034SOL     OW21988   3.760   2.027  11.483
 7034SOL    HW121989   3.753   2.081  11.404
 7034SOL    HW221990   3.849   2.042  11.515
 7035SOL     OW21991   3.804   3.097  11.839
 7035SOL    HW121992   3.795   3.049  11.921
 7035SOL    HW221993   3.879   3.057  11.795
 7036SOL     OW21994   3.751   2.937  11.487
 7036SOL    HW121995   3.841   2.940  11.454
 7036SOL    HW221996   3.735   2.845  11.504
 7037SOL     OW21997   3.948   2.494  13.148
 7037SOL    HW121998   3.866   2.487  13.196
 7037SOL    HW221999   3.928   2.458  13.061
 7038SOL     OW22000   3.715   2.245  13.663
 7038SOL    HW122001   3.628   2.274  13.690
 7038SOL    HW222002   3.700   2.162  13.619
 7039SOL     OW22003   3.942   3.575  13.503
 7039SOL    HW122004   3.936   3.651  13.561
 7039SOL    HW222005   0.036   3.565  13.487
 7040SOL     OW22006   3.946   3.295  13.529
 7040SOL    HW122007   3.931   3.390  13.530
 7040SOL    HW222008   3.887   3.262  13.596
 7041SOL     OW22009   3.930   2.960   0.013
 7041SOL    HW122010   3.974   2.920   0.089
 7041SOL    HW222011   3.837   2.951   0.032
 7042SOL     OW22012   3.836   2.498  13.597
 7042SOL    HW122013   3.784   2.419  13.611
 7042SOL    HW222014   3.819   2.551  13.675
 7043SOL     OW22015   3.757   3.456  13.164
 7043SOL    HW122016   3.737   3.363  13.180
 7043SOL    HW222017   3.724   3.500  13.243
 7044SOL     OW22018   3.803   2.671  13.803
 7044SOL    HW122019   3.896   2.685  13.818
 7044SOL    HW222020   3.760   2.742  13.851
 7045SOL     OW22021   0.125   3.644  13.844
 7045SOL    HW122022   0.081   3.580  13.900
 7045SOL    HW222023   0.189   3.685   0.001
 7046SOL     OW22024   0.001   1.900  13.191
 7046SOL    HW122025   0.046   1.982  13.170
 7046SOL    HW222026   0.058   1.858  13.257
 7047SOL     OW22027   0.275   2.153  13.339
 7047SOL    HW122028   0.297   2.073  13.291
 7047SOL    HW222029   0.335   2.219  13.305
 7048SOL     OW22030   0.067   2.968  13.565
 7048SOL    HW122031   0.054   2.993  13.474
 7048SOL    HW222032   0.149   2.920  13.565
 7049SOL     OW22033   3.978   1.922  13.674
 7049SOL    HW122034   3.993   2.016  13.686
 7049SOL    HW222035   0.020   1.881  13.749
 7050SOL     OW22036   3.726   3.185  13.221
 7050SOL    HW122037   3.640   3.201  13.182
 7050SOL    HW222038   3.716   3.103  13.268
 7051SOL     OW22039   0.317   3.407   0.006
 7051SOL    HW122040   0.246   3.453   0.050
 7051SOL    HW222041   0.274   3.350  13.843
 7052SOL     OW22042   3.799   2.188  13.078
 7052SOL    HW122043   3.716   2.155  13.045
 7052SOL    HW222044   3.819   2.264  13.022
 7053SOL     OW22045   3.763   2.029  13.345
 7053SOL    HW122046   3.756   2.081  13.265
 7053SOL    HW222047   3.852   2.043  13.376
 7054SOL     OW22048   3.813   3.089  13.683
 7054SOL    HW122049   3.820   3.039  13.764
 7054SOL    HW222050   3.884   3.057  13.628
 7055SOL     OW22051   3.751   2.936  13.347
 7055SOL    HW122052   3.840   2.940  13.311
 7055SOL    HW222053   3.737   2.843  13.365
 7056SOL     OW22054   3.968   3.972   0.989
 7056SOL    HW122055   3.967   3.965   1.085
 7056SOL    HW222056   3.878   3.950   0.963
 7057SOL     OW22057   3.750   0.047   0.691
 7057SOL    HW122058   3.677   0.109   0.690
 7057SOL    HW222059   3.712   3.967   0.654
 7058SOL     OW22060   3.903   3.990   1.515
 7058SOL    HW122061   3.818   0.028   1.537
 7058SOL    HW222062   3.899   3.900   1.547
 7059SOL     OW22063   3.972   3.776   0.177
 7059SOL    HW122064   0.003   3.846   0.119
 7059SOL    HW222065   0.046   3.716   0.184
 7060SOL     OW22066   3.992   3.933   1.259
 7060SOL    HW122067   3.947   3.942   1.343
 7060SOL    HW222068   0.027   3.844   1.260
 7061SOL     OW22069   0.022   3.773   0.647
 7061SOL    HW122070   0.044   3.866   0.649
 7061SOL    HW222071   0.031   3.743   0.737
 7062SOL     OW22072   3.781   3.869   0.346
 7062SOL    HW122073   3.787   3.965   0.341
 7062SOL    HW222074   3.854   3.838   0.292
 7063SOL     OW22075   3.969   3.970   2.850
 7063SOL    HW122076   3.968   3.964   2.945
 7063SOL    HW222077   3.879   3.950   2.824
 7064SOL     OW22078   3.746   0.046   2.555
 7064SOL    HW122079   3.672   0.108   2.552
 7064SOL    HW222080   3.712   3.966   2.517
 7065SOL     OW22081   3.904   3.990   3.377
 7065SOL    HW122082   3.819   0.028   3.399
 7065SOL    HW222083   3.899   3.900   3.409
 7066SOL     OW22084   3.986   3.777   2.016
 7066SOL    HW122085   0.027   3.848   1.967
 7066SOL    HW222086   0.056   3.744   2.073
 7067SOL     OW22087   3.992   3.934   3.120
 7067SOL    HW122088   3.947   3.943   3.204
 7067SOL    HW222089   0.026   3.844   3.121
 7068SOL     OW22090   0.012   3.776   2.515
 7068SOL    HW122091   0.046   3.865   2.517
 7068SOL    HW222092   0.026   3.744   2.604
 7069SOL     OW22093   3.806   0.048   1.875
 7069SOL    HW122094   3.743   0.021   1.808
 7069SOL    HW222095   3.805   0.143   1.872
 7070SOL     OW22096   3.779   3.867   2.184
 7070SOL    HW122097   3.777   3.963   2.179
 7070SOL    HW222098   3.858   3.842   2.136
 7071SOL     OW22099   3.969   3.970   4.712
 7071SOL    HW122100   3.968   3.964   4.807
 7071SOL    HW222101   3.879   3.950   4.686
 7072SOL     OW22102   3.746   0.046   4.418
 7072SOL    HW122103   3.672   0.108   4.414
 7072SOL    HW222104   3.712   3.966   4.379
 7073SOL     OW22105   3.903   3.990   5.239
 7073SOL    HW122106   3.818   0.028   5.260
 7073SOL    HW222107   3.898   3.900   5.271
 7074SOL     OW22108   3.986   3.777   3.878
 7074SOL    HW122109   0.027   3.848   3.829
 7074SOL    HW222110   0.056   3.744   3.935
 7075SOL     OW22111   3.992   3.934   4.982
 7075SOL    HW122112   3.947   3.943   5.066
 7075SOL    HW222113   0.026   3.844   4.983
 7076SOL     OW22114   0.012   3.776   4.377
 7076SOL    HW122115   0.046   3.865   4.378
 7076SOL    HW222116   0.026   3.744   4.466
 7077SOL     OW22117   3.806   0.048   3.737
 7077SOL    HW122118   3.743   0.021   3.670
 7077SOL    HW222119   3.805   0.143   3.734
 7078SOL     OW22120   3.779   3.867   4.046
 7078SOL    HW122121   3.777   3.963   4.041
 7078SOL    HW222122   3.858   3.842   3.998
 7079SOL     OW22123   3.969   3.970   6.574
 7079SOL    HW122124   3.968   3.964   6.669
 7079SOL    HW222125   3.879   3.950   6.548
 7080SOL     OW22126   3.746   0.046   6.280
 7080SOL    HW122127   3.672   0.107   6.275
 7080SOL    HW222128   3.712   3.965   6.241
 7081SOL     OW22129   3.904   3.990   7.101
 7081SOL    HW122130   3.818   0.028   7.122
 7081SOL    HW222131   3.898   3.900   7.132
 7082SOL     OW22132   3.986   3.777   5.740
 7082SOL    HW122133   0.027   3.849   5.691
 7082SOL    HW222134   0.056   3.744   5.796
 7083SOL     OW22135   3.992   3.934   6.844
 7083SOL    HW122136   3.947   3.943   6.928
 7083SOL    HW222137   0.026   3.844   6.844
 7084SOL     OW22138   0.012   3.776   6.239
 7084SOL    HW122139   0.046   3.865   6.240
 7084SOL    HW222140   0.026   3.744   6.328
 7085SOL     OW22141   3.806   0.048   5.599
 7085SOL    HW122142   3.743   0.021   5.531
 7085SOL    HW222143   3.805   0.143   5.596
 7086SOL     OW22144   3.778   3.867   5.907
 7086SOL    HW122145   3.777   3.963   5.902
 7086SOL    HW222146   3.857   3.842   5.859
 7087SOL     OW22147   3.969   3.970   8.436
 7087SOL    HW122148   3.968   3.964   8.531
 7087SOL    HW222149   3.879   3.950   8.410
 7088SOL     OW22150   3.745   0.047   8.142
 7088SOL    HW122151   3.671   0.107   8.136
 7088SOL    HW222152   3.713   3.965   8.103
 7089SOL     OW22153   3.904   3.990   8.963
 7089SOL    HW122154   3.819   0.028   8.984
 7089SOL    HW222155   3.899   3.900   8.995
 7090SOL     OW22156   3.986   3.777   7.602
 7090SOL    HW122157   0.027   3.849   7.552
 7090SOL    HW222158   0.057   3.744   7.657
 7091SOL     OW22159   3.992   3.934   8.706
 7091SOL    HW122160   3.947   3.943   8.790
 7091SOL    HW222161   0.027   3.844   8.707
 7092SOL     OW22162   0.011   3.776   8.101
 7092SOL    HW122163   0.047   3.865   8.101
 7092SOL    HW222164   0.025   3.744   8.190
 7093SOL     OW22165   3.805   0.048   7.461
 7093SOL    HW122166   3.744   0.022   7.392
 7093SOL    HW222167   3.805   0.144   7.458
 7094SOL     OW22168   3.779   3.868   7.769
 7094SOL    HW122169   3.777   3.963   7.763
 7094SOL    HW222170   3.858   3.842   7.721
 7095SOL     OW22171   3.969   3.970  10.298
 7095SOL    HW122172   3.968   3.964  10.393
 7095SOL    HW222173   3.879   3.950  10.272
 7096SOL     OW22174   3.745   0.046  10.004
 7096SOL    HW122175   3.672   0.108  10.000
 7096SOL    HW222176   3.712   3.966   9.965
 7097SOL     OW22177   3.904   3.990  10.825
 7097SOL    HW122178   3.819   0.028  10.846
 7097SOL    HW222179   3.899   3.900  10.857
 7098SOL     OW22180   3.986   3.777   9.464
 7098SOL    HW122181   0.027   3.849   9.414
 7098SOL    HW222182   0.056   3.744   9.520
 7099SOL     OW22183   3.992   3.934  10.568
 7099SOL    HW122184   3.947   3.943  10.652
 7099SOL    HW222185   0.026   3.844  10.569
 7100SOL     OW22186   0.012   3.776   9.963
 7100SOL    HW122187   0.046   3.865   9.964
 7100SOL    HW222188   0.025   3.744  10.052
 7101SOL     OW22189   3.805   0.048   9.323
 7101SOL    HW122190   3.743   0.021   9.255
 7101SOL    HW222191   3.805   0.143   9.320
 7102SOL     OW22192   3.779   3.867   9.632
 7102SOL    HW122193   3.777   3.963   9.626
 7102SOL    HW222194   3.858   3.842   9.584
 7103SOL     OW22195   3.969   3.970  12.160
 7103SOL    HW122196   3.968   3.964  12.255
 7103SOL    HW222197   3.879   3.950  12.134
 7104SOL     OW22198   3.745   0.046  11.866
 7104SOL    HW122199   3.672   0.108  11.862
 7104SOL    HW222200   3.712   3.966  11.827
 7105SOL     OW22201   3.903   3.990  12.687
 7105SOL    HW122202   3.818   0.027  12.708
 7105SOL    HW222203   3.899   3.900  12.719
 7106SOL     OW22204   3.986   3.777  11.326
 7106SOL    HW122205   0.027   3.848  11.277
 7106SOL    HW222206   0.056   3.744  11.382
 7107SOL     OW22207   3.992   3.934  12.430
 7107SOL    HW122208   3.946   3.943  12.514
 7107SOL    HW222209   0.026   3.844  12.431
 7108SOL     OW22210   0.012   3.776  11.825
 7108SOL    HW122211   0.046   3.865  11.826
 7108SOL    HW222212   0.026   3.744  11.914
 7109SOL     OW22213   3.806   0.048  11.185
 7109SOL    HW122214   3.743   0.021  11.117
 7109SOL    HW222215   3.805   0.143  11.182
 7110SOL     OW22216   3.779   3.867  11.494
 7110SOL    HW122217   3.777   3.963  11.488
 7110SOL    HW222218   3.858   3.842  11.446
 7111SOL     OW22219   3.737   0.080  13.683
 7111SOL    HW122220   3.662   0.111  13.733
 7111SOL    HW222221   3.719   3.987  13.668
 7112SOL     OW22222   3.987   3.779  13.193
 7112SOL    HW122223   0.029   3.848  13.142
 7112SOL    HW222224   0.057   3.743  13.246
 7113SOL     OW22225   3.969   3.785  13.674
 7113SOL    HW122226   0.018   3.867  13.665
 7113SOL    HW222227   0.019   3.735  13.738
 7114SOL     OW22228   3.807   0.047  13.044
 7114SOL    HW122229   3.744   0.022  12.976
 7114SOL    HW222230   3.806   0.143  13.043
 7115SOL     OW22231   3.776   3.869  13.355
 7115SOL    HW122232   3.778   3.964  13.354
 7115SOL    HW222233   3.853   3.843  13.305
   4.00000   4.00000  13.90000
