Built with Packmol
22029
    1LIG      O    1   2.412   2.336   0.053
    1LIG      C    2   2.340   2.374   0.173
    1LIG     C1    3   2.417   2.332   0.301
    1LIG     O1    4   2.346   2.369   0.423
    1LIG     C2    5   2.417   2.331   0.544
    1LIG     C3    6   2.337   2.373   0.670
    1LIG     O2    7   2.408   2.334   0.791
    1LIG     C4    8   2.336   2.371   0.912
    1LIG     C5    9   2.416   2.328   1.038
    1LIG     O3   10   2.344   2.365   1.160
    1LIG     C6   11   2.415   2.326   1.280
    1LIG     C7   12   2.335   2.368   1.406
    1LIG     O4   13   2.405   2.330   1.528
    1LIG     C8   14   2.334   2.367   1.649
    1LIG     C9   15   2.414   2.324   1.774
    1LIG     O5   16   2.343   2.361   1.895
    1LIG    C10   17   2.414   2.323   2.016
    1LIG    C11   18   2.333   2.366   2.142
    1LIG     O6   19   2.404   2.328   2.263
    1LIG    C12   20   2.333   2.365   2.384
    1LIG    C13   21   2.414   2.322   2.509
    1LIG     O7   22   2.342   2.360   2.631
    1LIG    C14   23   2.413   2.322   2.752
    1LIG    C15   24   2.333   2.364   2.878
    1LIG     O8   25   2.404   2.326   3.000
    1LIG    C16   26   2.332   2.364   3.121
    1LIG    C17   27   2.412   2.321   3.247
    1LIG     O9   28   2.341   2.359   3.369
    1LIG    C18   29   2.413   2.320   3.489
    1LIG    C19   30   2.333   2.363   3.614
    1LIG    O10   31   2.404   2.325   3.736
    1LIG    C20   32   2.332   2.363   3.857
    1LIG    C21   33   2.413   2.320   3.982
    1LIG    O11   34   2.341   2.358   4.103
    1LIG    C22   35   2.413   2.320   4.224
    1LIG    C23   36   2.332   2.363   4.350
    1LIG    O12   37   2.403   2.325   4.471
    1LIG    C24   38   2.332   2.362   4.593
    1LIG    C25   39   2.412   2.319   4.719
    1LIG    O13   40   2.341   2.357   4.841
    1LIG    C26   41   2.413   2.319   4.961
    1LIG    C27   42   2.332   2.362   5.086
    1LIG    O14   43   2.404   2.324   5.208
    1LIG    C28   44   2.332   2.362   5.329
    1LIG    C29   45   2.413   2.320   5.455
    1LIG    O15   46   2.341   2.358   5.577
    1LIG    C30   47   2.413   2.320   5.697
    1LIG    C31   48   2.333   2.363   5.822
    1LIG    O16   49   2.404   2.325   5.943
    1LIG    C32   50   2.333   2.363   6.065
    1LIG    C33   51   2.413   2.321   6.191
    1LIG    O17   52   2.342   2.358   6.312
    1LIG    C34   53   2.414   2.321   6.433
    1LIG    C35   54   2.334   2.362   6.559
    1LIG    O18   55   2.405   2.325   6.680
    1LIG    C36   56   2.333   2.363   6.801
    1LIG    C37   57   2.413   2.321   6.927
    1LIG    O19   58   2.342   2.359   7.049
    1LIG    C38   59   2.414   2.322   7.169
    1LIG    C39   60   2.335   2.364   7.295
    1LIG    O20   61   2.406   2.326   7.417
    1LIG    C40   62   2.334   2.364   7.538
    1LIG    C41   63   2.414   2.323   7.664
    1LIG    O21   64   2.343   2.360   7.786
    1LIG    C42   65   2.415   2.323   7.906
    1LIG    C43   66   2.335   2.365   8.031
    1LIG    O22   67   2.406   2.328   8.153
    1LIG    C44   68   2.335   2.366   8.274
    1LIG    C45   69   2.416   2.324   8.399
    1LIG    O23   70   2.345   2.361   8.521
    1LIG    C46   71   2.416   2.324   8.642
    1LIG    C47   72   2.335   2.366   8.767
    1LIG    O24   73   2.407   2.329   8.888
    1LIG    C48   74   2.336   2.366   9.010
    1LIG    C49   75   2.417   2.324   9.135
    1LIG    O25   76   2.346   2.362   9.256
    1LIG    C50   77   2.416   2.325   9.378
    1LIG    C51   78   2.336   2.367   9.503
    1LIG    O26   79   2.407   2.330   9.624
    1LIG    C52   80   2.337   2.368   9.746
    1LIG    C53   81   2.418   2.326   9.871
    1LIG    O27   82   2.346   2.363   9.991
    1LIG    C54   83   2.417   2.327  10.113
    1LIG    C55   84   2.337   2.369  10.240
    1LIG    O28   85   2.409   2.332  10.361
    1LIG    C56   86   2.338   2.369  10.482
    1LIG    C57   87   2.418   2.328  10.609
    1LIG    O29   88   2.347   2.366  10.731
    1LIG    C58   89   2.419   2.328  10.852
    1LIG    C59   90   2.340   2.370  10.978
    1LIG      H   91   2.241   2.326   0.171
    1LIG     H1   92   2.324   2.483   0.172
    1LIG     H2   93   2.516   2.380   0.301
    1LIG     H3   94   2.433   2.224   0.300
    1LIG     H4   95   2.516   2.379   0.546
    1LIG     H5   96   2.433   2.222   0.545
    1LIG     H6   97   2.238   2.325   0.668
    1LIG     H7   98   2.321   2.481   0.669
    1LIG     H8   99   2.237   2.323   0.913
    1LIG     H9  100   2.321   2.479   0.914
    1LIG    H10  101   2.514   2.376   1.037
    1LIG    H11  102   2.431   2.219   1.036
    1LIG    H12  103   2.514   2.374   1.282
    1LIG    H13  104   2.431   2.218   1.281
    1LIG    H14  105   2.236   2.320   1.404
    1LIG    H15  106   2.319   2.476   1.405
    1LIG    H16  107   2.235   2.319   1.650
    1LIG    H17  108   2.318   2.476   1.651
    1LIG    H18  109   2.513   2.372   1.772
    1LIG    H19  110   2.430   2.215   1.772
    1LIG    H20  111   2.512   2.371   2.018
    1LIG    H21  112   2.429   2.215   2.018
    1LIG    H22  113   2.235   2.318   2.140
    1LIG    H23  114   2.318   2.474   2.140
    1LIG    H24  115   2.235   2.317   2.386
    1LIG    H25  116   2.318   2.473   2.386
    1LIG    H26  117   2.512   2.370   2.508
    1LIG    H27  118   2.429   2.213   2.508
    1LIG    H28  119   2.512   2.370   2.754
    1LIG    H29  120   2.429   2.213   2.753
    1LIG    H30  121   2.235   2.315   2.877
    1LIG    H31  122   2.318   2.472   2.877
    1LIG    H32  123   2.234   2.316   3.122
    1LIG    H33  124   2.317   2.472   3.122
    1LIG    H34  125   2.510   2.370   3.245
    1LIG    H35  126   2.428   2.213   3.245
    1LIG    H36  127   2.512   2.369   3.490
    1LIG    H37  128   2.429   2.212   3.490
    1LIG    H38  129   2.234   2.315   3.613
    1LIG    H39  130   2.317   2.471   3.613
    1LIG    H40  131   2.234   2.315   3.858
    1LIG    H41  132   2.317   2.471   3.858
    1LIG    H42  133   2.511   2.369   3.981
    1LIG    H43  134   2.428   2.212   3.980
    1LIG    H44  135   2.511   2.368   4.226
    1LIG    H45  136   2.428   2.212   4.226
    1LIG    H46  137   2.234   2.314   4.348
    1LIG    H47  138   2.316   2.471   4.349
    1LIG    H48  139   2.234   2.314   4.594
    1LIG    H49  140   2.317   2.470   4.594
    1LIG    H50  141   2.511   2.368   4.718
    1LIG    H51  142   2.428   2.211   4.717
    1LIG    H52  143   2.511   2.367   4.963
    1LIG    H53  144   2.428   2.210   4.963
    1LIG    H54  145   2.234   2.313   5.085
    1LIG    H55  146   2.317   2.470   5.085
    1LIG    H56  147   2.234   2.314   5.331
    1LIG    H57  148   2.317   2.471   5.330
    1LIG    H58  149   2.511   2.368   5.453
    1LIG    H59  150   2.428   2.211   5.454
    1LIG    H60  151   2.511   2.368   5.699
    1LIG    H61  152   2.429   2.212   5.699
    1LIG    H62  153   2.234   2.314   5.821
    1LIG    H63  154   2.317   2.471   5.821
    1LIG    H64  155   2.235   2.314   6.066
    1LIG    H65  156   2.317   2.471   6.066
    1LIG    H66  157   2.512   2.369   6.189
    1LIG    H67  158   2.429   2.212   6.189
    1LIG    H68  159   2.512   2.369   6.434
    1LIG    H69  160   2.429   2.212   6.434
    1LIG    H70  161   2.235   2.314   6.558
    1LIG    H71  162   2.318   2.471   6.557
    1LIG    H72  163   2.235   2.315   6.802
    1LIG    H73  164   2.318   2.472   6.802
    1LIG    H74  165   2.512   2.370   6.926
    1LIG    H75  166   2.429   2.213   6.926
    1LIG    H76  167   2.513   2.370   7.170
    1LIG    H77  168   2.430   2.213   7.171
    1LIG    H78  169   2.236   2.316   7.294
    1LIG    H79  170   2.319   2.472   7.294
    1LIG    H80  171   2.236   2.316   7.539
    1LIG    H81  172   2.318   2.473   7.539
    1LIG    H82  173   2.513   2.371   7.662
    1LIG    H83  174   2.430   2.214   7.663
    1LIG    H84  175   2.514   2.371   7.907
    1LIG    H85  176   2.431   2.214   7.907
    1LIG    H86  177   2.237   2.316   8.030
    1LIG    H87  178   2.319   2.473   8.029
    1LIG    H88  179   2.236   2.317   8.276
    1LIG    H89  180   2.319   2.474   8.275
    1LIG    H90  181   2.514   2.372   8.398
    1LIG    H91  182   2.432   2.215   8.398
    1LIG    H92  183   2.514   2.372   8.644
    1LIG    H93  184   2.432   2.215   8.644
    1LIG    H94  185   2.237   2.318   8.766
    1LIG    H95  186   2.319   2.475   8.766
    1LIG    H96  187   2.238   2.318   9.012
    1LIG    H97  188   2.320   2.475   9.011
    1LIG    H98  189   2.515   2.373   9.133
    1LIG    H99  190   2.433   2.216   9.134
    1LIG   H100  191   2.515   2.373   9.379
    1LIG   H101  192   2.433   2.217   9.380
    1LIG   H102  193   2.238   2.319   9.502
    1LIG   H103  194   2.320   2.476   9.501
    1LIG   H104  195   2.238   2.319   9.747
    1LIG   H105  196   2.321   2.476   9.747
    1LIG   H106  197   2.516   2.374   9.869
    1LIG   H107  198   2.434   2.217   9.870
    1LIG   H108  199   2.515   2.375  10.114
    1LIG   H109  200   2.433   2.218  10.115
    1LIG   H110  201   2.239   2.320  10.239
    1LIG   H111  202   2.321   2.477  10.238
    1LIG   H112  203   2.239   2.321  10.484
    1LIG   H113  204   2.321   2.478  10.483
    1LIG   H114  205   2.516   2.377  10.607
    1LIG   H115  206   2.434   2.220  10.608
    1LIG   H116  207   2.517   2.378  10.852
    1LIG   H117  208   2.434   2.220  10.853
    1LIG   H118  209   2.323   2.478  10.978
    1LIG   H119  210   2.393   2.343  11.073
    1LIG      O  211   2.112   2.115   0.053
    1LIG      C  212   2.177   2.165   0.173
    1LIG     C1  213   2.107   2.112   0.301
    1LIG     O1  214   2.170   2.161   0.423
    1LIG     C2  215   2.105   2.113   0.544
    1LIG     C3  216   2.177   2.168   0.670
    1LIG     O2  217   2.112   2.120   0.791
    1LIG     C4  218   2.176   2.169   0.912
    1LIG     C5  219   2.103   2.115   1.038
    1LIG     O3  220   2.166   2.165   1.160
    1LIG     C6  221   2.102   2.116   1.280
    1LIG     C7  222   2.173   2.172   1.406
    1LIG     O4  223   2.110   2.124   1.528
    1LIG     C8  224   2.173   2.173   1.649
    1LIG     C9  225   2.100   2.118   1.774
    1LIG     O5  226   2.164   2.167   1.895
    1LIG    C10  227   2.100   2.119   2.016
    1LIG    C11  228   2.172   2.174   2.142
    1LIG     O6  229   2.108   2.125   2.263
    1LIG    C12  230   2.171   2.174   2.384
    1LIG    C13  231   2.099   2.119   2.509
    1LIG     O7  232   2.163   2.169   2.631
    1LIG    C14  233   2.099   2.120   2.752
    1LIG    C15  234   2.170   2.175   2.878
    1LIG     O8  235   2.106   2.126   3.000
    1LIG    C16  236   2.171   2.176   3.121
    1LIG    C17  237   2.099   2.121   3.247
    1LIG     O9  238   2.162   2.170   3.369
    1LIG    C18  239   2.097   2.120   3.489
    1LIG    C19  240   2.169   2.176   3.614
    1LIG    O10  241   2.106   2.127   3.736
    1LIG    C20  242   2.170   2.176   3.857
    1LIG    C21  243   2.098   2.121   3.982
    1LIG    O11  244   2.161   2.170   4.103
    1LIG    C22  245   2.098   2.121   4.224
    1LIG    C23  246   2.170   2.177   4.350
    1LIG    O12  247   2.105   2.128   4.471
    1LIG    C24  248   2.169   2.177   4.593
    1LIG    C25  249   2.097   2.122   4.719
    1LIG    O13  250   2.161   2.171   4.841
    1LIG    C26  251   2.096   2.121   4.961
    1LIG    C27  252   2.169   2.177   5.086
    1LIG    O14  253   2.105   2.127   5.208
    1LIG    C28  254   2.169   2.176   5.329
    1LIG    C29  255   2.097   2.121   5.455
    1LIG    O15  256   2.161   2.170   5.577
    1LIG    C30  257   2.097   2.121   5.697
    1LIG    C31  258   2.170   2.176   5.822
    1LIG    O16  259   2.105   2.127   5.943
    1LIG    C32  260   2.169   2.176   6.065
    1LIG    C33  261   2.098   2.120   6.191
    1LIG    O17  262   2.162   2.170   6.312
    1LIG    C34  263   2.098   2.120   6.433
    1LIG    C35  264   2.169   2.175   6.559
    1LIG    O18  265   2.105   2.126   6.680
    1LIG    C36  266   2.170   2.175   6.801
    1LIG    C37  267   2.098   2.120   6.927
    1LIG    O19  268   2.162   2.169   7.049
    1LIG    C38  269   2.098   2.119   7.169
    1LIG    C39  270   2.169   2.174   7.295
    1LIG    O20  271   2.106   2.124   7.417
    1LIG    C40  272   2.170   2.174   7.538
    1LIG    C41  273   2.099   2.118   7.664
    1LIG    O21  274   2.163   2.168   7.786
    1LIG    C42  275   2.099   2.118   7.906
    1LIG    C43  276   2.171   2.173   8.031
    1LIG    O22  277   2.107   2.124   8.153
    1LIG    C44  278   2.171   2.173   8.274
    1LIG    C45  279   2.099   2.117   8.399
    1LIG    O23  280   2.163   2.166   8.521
    1LIG    C46  281   2.100   2.116   8.642
    1LIG    C47  282   2.172   2.172   8.767
    1LIG    O24  283   2.108   2.123   8.888
    1LIG    C48  284   2.171   2.172   9.010
    1LIG    C49  285   2.099   2.115   9.135
    1LIG    O25  286   2.163   2.165   9.256
    1LIG    C50  287   2.100   2.116   9.378
    1LIG    C51  288   2.172   2.171   9.503
    1LIG    O26  289   2.109   2.121   9.624
    1LIG    C52  290   2.172   2.170   9.746
    1LIG    C53  291   2.100   2.114   9.871
    1LIG    O27  292   2.165   2.164   9.991
    1LIG    C54  293   2.101   2.114  10.113
    1LIG    C55  294   2.173   2.169  10.240
    1LIG    O28  295   2.109   2.119  10.361
    1LIG    C56  296   2.174   2.169  10.482
    1LIG    C57  297   2.103   2.113  10.609
    1LIG    O29  298   2.166   2.162  10.731
    1LIG    C58  299   2.102   2.112  10.852
    1LIG    C59  300   2.173   2.166  10.978
    1LIG      H  301   2.174   2.274   0.171
    1LIG     H1  302   2.282   2.134   0.172
    1LIG     H2  303   2.109   2.002   0.301
    1LIG     H3  304   2.001   2.143   0.300
    1LIG     H4  305   2.108   2.003   0.546
    1LIG     H5  306   2.000   2.144   0.545
    1LIG     H6  307   2.174   2.278   0.668
    1LIG     H7  308   2.282   2.137   0.669
    1LIG     H8  309   2.173   2.279   0.913
    1LIG     H9  310   2.281   2.138   0.914
    1LIG    H10  311   2.106   2.006   1.037
    1LIG    H11  312   1.998   2.146   1.036
    1LIG    H12  313   2.105   2.006   1.282
    1LIG    H13  314   1.997   2.147   1.281
    1LIG    H14  315   2.171   2.282   1.404
    1LIG    H15  316   2.279   2.141   1.405
    1LIG    H16  317   2.170   2.283   1.650
    1LIG    H17  318   2.278   2.142   1.651
    1LIG    H18  319   2.103   2.008   1.772
    1LIG    H19  320   1.995   2.149   1.772
    1LIG    H20  321   2.102   2.009   2.018
    1LIG    H21  322   1.995   2.150   2.018
    1LIG    H22  323   2.169   2.284   2.140
    1LIG    H23  324   2.277   2.143   2.140
    1LIG    H24  325   2.169   2.284   2.386
    1LIG    H25  326   2.276   2.143   2.386
    1LIG    H26  327   2.102   2.010   2.508
    1LIG    H27  328   1.994   2.150   2.508
    1LIG    H28  329   2.102   2.010   2.754
    1LIG    H29  330   1.994   2.151   2.753
    1LIG    H30  331   2.167   2.285   2.877
    1LIG    H31  332   2.275   2.144   2.877
    1LIG    H32  333   2.168   2.286   3.122
    1LIG    H33  334   2.276   2.145   3.122
    1LIG    H34  335   2.102   2.011   3.245
    1LIG    H35  336   1.994   2.152   3.245
    1LIG    H36  337   2.100   2.011   3.490
    1LIG    H37  338   1.992   2.151   3.490
    1LIG    H38  339   2.167   2.285   3.613
    1LIG    H39  340   2.275   2.145   3.613
    1LIG    H40  341   2.167   2.286   3.858
    1LIG    H41  342   2.275   2.145   3.858
    1LIG    H42  343   2.101   2.011   3.981
    1LIG    H43  344   1.992   2.152   3.980
    1LIG    H44  345   2.100   2.011   4.226
    1LIG    H45  346   1.992   2.152   4.226
    1LIG    H46  347   2.167   2.286   4.348
    1LIG    H47  348   2.275   2.146   4.349
    1LIG    H48  349   2.166   2.286   4.594
    1LIG    H49  350   2.274   2.146   4.594
    1LIG    H50  351   2.100   2.012   4.718
    1LIG    H51  352   1.992   2.153   4.717
    1LIG    H52  353   2.099   2.012   4.963
    1LIG    H53  354   1.991   2.152   4.963
    1LIG    H54  355   2.166   2.286   5.085
    1LIG    H55  356   2.274   2.146   5.085
    1LIG    H56  357   2.166   2.286   5.331
    1LIG    H57  358   2.274   2.146   5.330
    1LIG    H58  359   2.100   2.012   5.453
    1LIG    H59  360   1.992   2.152   5.454
    1LIG    H60  361   2.100   2.011   5.699
    1LIG    H61  362   1.992   2.152   5.699
    1LIG    H62  363   2.167   2.286   5.821
    1LIG    H63  364   2.275   2.145   5.821
    1LIG    H64  365   2.166   2.285   6.066
    1LIG    H65  366   2.274   2.145   6.066
    1LIG    H66  367   2.101   2.011   6.189
    1LIG    H67  368   1.992   2.151   6.189
    1LIG    H68  369   2.101   2.010   6.434
    1LIG    H69  370   1.992   2.151   6.434
    1LIG    H70  371   2.166   2.285   6.558
    1LIG    H71  372   2.274   2.145   6.557
    1LIG    H72  373   2.167   2.285   6.802
    1LIG    H73  374   2.275   2.144   6.802
    1LIG    H74  375   2.101   2.010   6.926
    1LIG    H75  376   1.993   2.151   6.926
    1LIG    H76  377   2.101   2.009   7.170
    1LIG    H77  378   1.993   2.150   7.171
    1LIG    H78  379   2.167   2.283   7.294
    1LIG    H79  380   2.275   2.143   7.294
    1LIG    H80  381   2.167   2.284   7.539
    1LIG    H81  382   2.276   2.143   7.539
    1LIG    H82  383   2.102   2.009   7.662
    1LIG    H83  384   1.994   2.149   7.663
    1LIG    H84  385   2.102   2.008   7.907
    1LIG    H85  386   1.993   2.148   7.907
    1LIG    H86  387   2.167   2.283   8.030
    1LIG    H87  388   2.276   2.143   8.029
    1LIG    H88  389   2.168   2.283   8.276
    1LIG    H89  390   2.277   2.142   8.275
    1LIG    H90  391   2.103   2.007   8.398
    1LIG    H91  392   1.994   2.147   8.398
    1LIG    H92  393   2.103   2.007   8.644
    1LIG    H93  394   1.994   2.147   8.644
    1LIG    H94  395   2.169   2.282   8.766
    1LIG    H95  396   2.277   2.142   8.766
    1LIG    H96  397   2.168   2.281   9.012
    1LIG    H97  398   2.277   2.141   9.011
    1LIG    H98  399   2.103   2.006   9.133
    1LIG    H99  400   1.994   2.146   9.134
    1LIG   H100  401   2.103   2.006   9.379
    1LIG   H101  402   1.995   2.146   9.380
    1LIG   H102  403   2.169   2.281   9.502
    1LIG   H103  404   2.278   2.141   9.501
    1LIG   H104  405   2.169   2.280   9.747
    1LIG   H105  406   2.278   2.140   9.747
    1LIG   H106  407   2.104   2.005   9.869
    1LIG   H107  408   1.995   2.145   9.870
    1LIG   H108  409   2.105   2.005  10.114
    1LIG   H109  410   1.996   2.145  10.115
    1LIG   H110  411   2.169   2.279  10.239
    1LIG   H111  412   2.278   2.139  10.238
    1LIG   H112  413   2.170   2.278  10.484
    1LIG   H113  414   2.279   2.138  10.483
    1LIG   H114  415   2.106   2.003  10.607
    1LIG   H115  416   1.997   2.143  10.608
    1LIG   H116  417   2.107   2.002  10.852
    1LIG   H117  418   1.997   2.143  10.853
    1LIG   H118  419   2.279   2.137  10.978
    1LIG   H119  420   2.126   2.129  11.073
    1MOL     C1  421   2.766   1.802   5.084
    1MOL     H1  422   2.788   1.695   5.094
    1MOL     O1  423   2.812   1.835   4.954
    1MOL     C2  424   2.792   1.973   4.918
    1MOL     H2  425   2.687   1.999   4.932
    1MOL     C3  426   2.824   1.986   4.770
    1MOL     H3  427   2.791   2.085   4.735
    1MOL     H4  428   2.768   1.909   4.715
    1MOL     O2  429   2.963   1.971   4.748
    1MOL     C4  430   2.999   1.987   4.612
    1MOL     C5  431   2.848   1.883   5.187
    1MOL     H5  432   2.952   1.847   5.179
    1MOL     O3  433   2.803   1.868   5.320
    1MOL     C6  434   2.833   1.743   5.380
    1MOL     C7  435   2.850   2.033   5.157
    1MOL     H6  436   2.751   2.075   5.181
    1MOL     O4  437   2.951   2.094   5.235
    1MOL     C8  438   2.905   2.185   5.333
    1MOL     C9  439   2.879   2.061   5.009
    1MOL     H7  440   2.984   2.038   4.990
    1MOL     O5  441   2.855   2.201   4.987
    1MOL    C10  442   2.940   2.270   4.898
    1MOL     H8  443   3.019   2.202   4.863
    1MOL     O6  444   2.872   2.310   4.781
    1MOL    C11  445   2.760   2.398   4.805
    1MOL     H9  446   2.691   2.350   4.875
    1MOL    C12  447   2.688   2.417   4.673
    1MOL    H10  448   2.591   2.465   4.692
    1MOL    H11  449   2.670   2.318   4.628
    1MOL     O7  450   2.766   2.497   4.586
    1MOL    C13  451   2.699   2.525   4.465
    1MOL    C14  452   3.001   2.394   4.967
    1MOL    H12  453   3.076   2.435   4.898
    1MOL     O8  454   3.061   2.366   5.092
    1MOL    C15  455   3.185   2.298   5.085
    1MOL    C16  456   2.896   2.503   4.992
    1MOL    H13  457   2.830   2.471   5.073
    1MOL     O9  458   2.963   2.624   5.026
    1MOL    C17  459   2.948   2.664   5.161
    1MOL    C18  460   2.810   2.529   4.868
    1MOL    H14  461   2.872   2.582   4.794
    1MOL    O10  462   2.701   2.612   4.909
    1MOL    C19  463   2.660   2.716   4.824
    1MOL    H15  464   2.728   2.724   4.738
    1MOL    O11  465   2.533   2.691   4.767
    1MOL    C20  466   2.427   2.676   4.862
    1MOL    H16  467   2.454   2.598   4.935
    1MOL    C21  468   2.304   2.628   4.787
    1MOL    H17  469   2.228   2.596   4.860
    1MOL    H18  470   2.333   2.540   4.727
    1MOL    O12  471   2.254   2.730   4.703
    1MOL    C22  472   2.153   2.685   4.616
    1MOL    C23  473   2.654   2.850   4.902
    1MOL    H19  474   2.633   2.929   4.828
    1MOL    O13  475   2.774   2.879   4.971
    1MOL    C24  476   2.882   2.921   4.888
    1MOL    C25  477   2.540   2.850   5.004
    1MOL    H20  478   2.563   2.778   5.084
    1MOL    O14  479   2.526   2.980   5.059
    1MOL    C26  480   2.583   2.997   5.189
    1MOL    C27  481   2.407   2.808   4.939
    1MOL    H21  482   2.374   2.886   4.869
    1MOL    O15  483   2.307   2.785   5.039
    1MOL    C28  484   2.235   2.899   5.082
    1MOL    H22  485   2.301   2.985   5.086
    1MOL    O16  486   2.132   2.935   4.992
    1MOL    C29  487   2.032   2.836   4.969
    1MOL    H23  488   2.078   2.746   4.926
    1MOL    C30  489   1.938   2.893   4.864
    1MOL    H24  490   1.875   2.813   4.823
    1MOL    H25  491   2.000   2.934   4.783
    1MOL    O17  492   1.858   2.995   4.922
    1MOL    C31  493   1.774   3.057   4.827
    1MOL    C32  494   2.175   2.868   5.220
    1MOL    H26  495   2.127   2.961   5.254
    1MOL    O18  496   2.279   2.832   5.309
    1MOL    C33  497   2.265   2.884   5.440
    1MOL    C34  498   2.068   2.759   5.209
    1MOL    H27  499   2.117   2.665   5.181
    1MOL    O19  500   2.005   2.746   5.336
    1MOL    C35  501   1.990   2.613   5.382
    1MOL    C36  502   1.964   2.797   5.102
    1MOL    H28  503   1.907   2.883   5.139
    1MOL    O20  504   1.876   2.684   5.086
    1MOL    C37  505   1.742   2.710   5.051
    1MOL    H29  506   1.725   2.818   5.049
    1MOL    O21  507   1.713   2.667   4.919
    1MOL    C38  508   1.731   2.526   4.898
    1MOL    H30  509   1.833   2.497   4.927
    1MOL    C39  510   1.717   2.501   4.748
    1MOL    H31  511   1.750   2.399   4.726
    1MOL    H32  512   1.782   2.571   4.694
    1MOL    O22  513   1.582   2.518   4.709
    1MOL    C40  514   1.562   2.485   4.573
    1MOL    C41  515   1.645   2.640   5.149
    1MOL    H33  516   1.545   2.678   5.126
    1MOL    O23  517   1.676   2.664   5.285
    1MOL    C42  518   1.645   2.794   5.332
    1MOL    C43  519   1.642   2.488   5.131
    1MOL    H34  520   1.735   2.445   5.171
    1MOL    O24  521   1.529   2.436   5.201
    1MOL    C44  522   1.561   2.357   5.314
    1MOL    C45  523   1.629   2.449   4.984
    1MOL    H35  524   1.529   2.474   4.949
    1MOL    O25  525   1.650   2.307   4.976
    1MOL    C46  526   1.569   2.234   4.886
    1MOL    H36  527   1.493   2.300   4.842
    1MOL    O26  528   1.642   2.185   4.776
    1MOL    C47  529   1.749   2.094   4.809
    1MOL    H37  530   1.817   2.143   4.880
    1MOL    C48  531   1.826   2.066   4.681
    1MOL    H38  532   1.922   2.018   4.706
    1MOL    H39  533   1.849   2.162   4.632
    1MOL    O27  534   1.749   1.984   4.596
    1MOL    C49  535   1.822   1.943   4.481
    1MOL    C50  536   1.502   2.115   4.959
    1MOL    H40  537   1.430   2.072   4.889
    1MOL    O28  538   1.436   2.152   5.079
    1MOL    C51  539   1.314   2.221   5.061
    1MOL    C52  540   1.603   2.005   4.995
    1MOL    H41  541   1.668   2.041   5.076
    1MOL    O29  542   1.532   1.889   5.036
    1MOL    C53  543   1.536   1.862   5.175
    1MOL    C54  544   1.689   1.968   4.875
    1MOL    H42  545   1.627   1.917   4.800
    1MOL    O30  546   1.793   1.880   4.920
    1MOL    C55  547   1.816   1.762   4.846
    1MOL    H43  548   1.737   1.748   4.773
    1MOL    O31  549   1.935   1.770   4.769
    1MOL    C56  550   2.056   1.788   4.843
    1MOL    H44  551   2.053   1.883   4.898
    1MOL    C57  552   2.168   1.794   4.740
    1MOL    H45  553   2.152   1.712   4.667
    1MOL    H46  554   2.265   1.778   4.788
    1MOL    O32  555   2.164   1.920   4.674
    1MOL    C58  556   2.265   1.931   4.576
    1MOL    C59  557   1.827   1.641   4.941
    1MOL    H47  558   1.837   1.552   4.876
    1MOL    O33  559   1.714   1.624   5.025
    1MOL    C60  560   1.598   1.577   4.960
    1MOL    C61  561   1.952   1.649   5.029
    1MOL    H48  562   1.941   1.733   5.099
    1MOL    O34  563   1.972   1.527   5.099
    1MOL    C62  564   1.919   1.524   5.231
    1MOL    C63  565   2.077   1.674   4.944
    1MOL    H49  566   2.101   1.582   4.889
    1MOL    O35  567   2.187   1.709   5.029
    1MOL    C64  568   2.270   1.601   5.068
    1MOL    H50  569   2.213   1.508   5.067
    1MOL    O36  570   2.376   1.580   4.976
    1MOL    C65  571   2.472   1.687   4.964
    1MOL    H51  572   2.421   1.780   4.935
    1MOL    C66  573   2.566   1.645   4.852
    1MOL    H52  574   2.591   1.539   4.865
    1MOL    H53  575   2.659   1.704   4.855
    1MOL    O37  576   2.499   1.666   4.728
    1MOL    C67  577   2.573   1.614   4.619
    1MOL    C68  578   2.328   1.626   5.208
    1MOL    H54  579   2.379   1.532   5.236
    1MOL    O38  580   2.224   1.655   5.300
    1MOL    C69  581   2.235   1.587   5.424
    1MOL    C70  582   2.433   1.738   5.207
    1MOL    H55  583   2.383   1.832   5.184
    1MOL    O39  584   2.493   1.743   5.336
    1MOL    C71  585   2.487   1.871   5.398
    1MOL    C72  586   2.540   1.711   5.100
    1MOL    H56  587   2.597   1.621   5.129
    1MOL    O40  588   2.628   1.825   5.099
    1MOL    H57  589   3.107   1.974   4.606
    1MOL    H58  590   2.950   1.912   4.548
    1MOL    H59  591   2.972   2.088   4.576
    1MOL    H60  592   2.514   1.635   4.529
    1MOL    H61  593   2.672   1.662   4.609
    1MOL    H62  594   2.587   1.505   4.627
    1MOL    H63  595   2.261   2.033   4.536
    1MOL    H64  596   2.365   1.913   4.619
    1MOL    H65  597   2.250   1.859   4.494
    1MOL    H66  598   1.757   1.877   4.424
    1MOL    H67  599   1.849   2.030   4.418
    1MOL    H68  600   1.914   1.890   4.509
    1MOL    H69  601   1.456   2.501   4.551
    1MOL    H70  602   1.622   2.549   4.506
    1MOL    H71  603   1.587   2.379   4.553
    1MOL    H72  604   1.715   3.133   4.880
    1MOL    H73  605   1.832   3.106   4.747
    1MOL    H74  606   1.704   2.985   4.780
    1MOL    H75  607   2.122   2.770   4.556
    1MOL    H76  608   2.191   2.606   4.549
    1MOL    H77  609   2.066   2.645   4.670
    1MOL    H78  610   2.766   2.587   4.405
    1MOL    H79  611   2.676   2.433   4.409
    1MOL    H80  612   2.605   2.580   4.482
    1MOL    H81  613   3.006   2.756   5.173
    1MOL    H82  614   2.843   2.686   5.185
    1MOL    H83  615   2.987   2.588   5.230
    1MOL    H84  616   3.226   2.297   5.186
    1MOL    H85  617   3.174   2.194   5.051
    1MOL    H86  618   3.255   2.351   5.019
    1MOL    H87  619   2.993   2.222   5.386
    1MOL    H88  620   2.853   2.270   5.287
    1MOL    H89  621   2.838   2.136   5.406
    1MOL    H90  622   2.811   1.754   5.486
    1MOL    H91  623   2.770   1.662   5.340
    1MOL    H92  624   2.939   1.717   5.367
    1MOL    H93  625   2.533   1.860   5.497
    1MOL    H94  626   2.542   1.946   5.341
    1MOL    H95  627   2.382   1.903   5.412
    1MOL    H96  628   2.150   1.619   5.485
    1MOL    H97  629   2.229   1.478   5.411
    1MOL    H98  630   2.329   1.612   5.475
    1MOL    H99  631   1.949   1.427   5.273
    1MOL   H100  632   1.963   1.604   5.292
    1MOL   H101  633   1.810   1.532   5.231
    1MOL   H102  634   1.527   1.548   5.038
    1MOL   H103  635   1.551   1.655   4.898
    1MOL   H104  636   1.619   1.489   4.898
    1MOL   H105  637   1.474   1.774   5.192
    1MOL   H106  638   1.638   1.840   5.208
    1MOL   H107  639   1.496   1.947   5.233
    1MOL   H108  640   1.267   2.228   5.159
    1MOL   H109  641   1.329   2.323   5.023
    1MOL   H110  642   1.247   2.167   4.992
    1MOL   H111  643   1.465   2.327   5.358
    1MOL   H112  644   1.616   2.267   5.285
    1MOL   H113  645   1.618   2.414   5.388
    1MOL   H114  646   1.660   2.793   5.440
    1MOL   H115  647   1.710   2.871   5.289
    1MOL   H116  648   1.540   2.820   5.310
    1MOL   H117  649   1.942   2.618   5.480
    1MOL   H118  650   1.926   2.554   5.315
    1MOL   H119  651   2.088   2.563   5.393
    1MOL   H120  652   2.351   2.848   5.497
    1MOL   H121  653   2.267   2.994   5.440
    1MOL   H122  654   2.172   2.850   5.488
    1MOL   H123  655   2.566   3.101   5.217
    1MOL   H124  656   2.532   2.932   5.262
    1MOL   H125  657   2.690   2.976   5.188
    1MOL   H126  658   2.960   2.957   4.955
    1MOL   H127  659   2.923   2.838   4.829
    1MOL   H128  660   2.851   3.002   4.821
    1MOL     C1  661   1.724   1.802   6.016
    1MOL     H1  662   1.703   1.695   6.006
    1MOL     O1  663   1.679   1.835   6.146
    1MOL     C2  664   1.698   1.973   6.182
    1MOL     H2  665   1.804   1.999   6.168
    1MOL     C3  666   1.667   1.986   6.330
    1MOL     H3  667   1.700   2.085   6.365
    1MOL     H4  668   1.723   1.909   6.385
    1MOL     O2  669   1.528   1.971   6.352
    1MOL     C4  670   1.492   1.987   6.488
    1MOL     C5  671   1.643   1.883   5.913
    1MOL     H5  672   1.539   1.847   5.922
    1MOL     O3  673   1.688   1.868   5.780
    1MOL     C6  674   1.658   1.743   5.720
    1MOL     C7  675   1.641   2.033   5.943
    1MOL     H6  676   1.739   2.075   5.919
    1MOL     O4  677   1.539   2.094   5.865
    1MOL     C8  678   1.586   2.185   5.767
    1MOL     C9  679   1.612   2.061   6.091
    1MOL     H7  680   1.506   2.038   6.110
    1MOL     O5  681   1.636   2.201   6.113
    1MOL    C10  682   1.551   2.270   6.202
    1MOL     H8  683   1.472   2.202   6.237
    1MOL     O6  684   1.619   2.310   6.319
    1MOL    C11  685   1.730   2.398   6.295
    1MOL     H9  686   1.800   2.350   6.225
    1MOL    C12  687   1.803   2.417   6.427
    1MOL    H10  688   1.900   2.465   6.408
    1MOL    H11  689   1.821   2.318   6.472
    1MOL     O7  690   1.725   2.497   6.514
    1MOL    C13  691   1.792   2.525   6.635
    1MOL    C14  692   1.490   2.394   6.133
    1MOL    H12  693   1.415   2.435   6.202
    1MOL     O8  694   1.430   2.366   6.008
    1MOL    C15  695   1.306   2.298   6.015
    1MOL    C16  696   1.595   2.503   6.108
    1MOL    H13  697   1.661   2.471   6.027
    1MOL     O9  698   1.528   2.624   6.074
    1MOL    C17  699   1.543   2.664   5.939
    1MOL    C18  700   1.680   2.529   6.232
    1MOL    H14  701   1.619   2.582   6.306
    1MOL    O10  702   1.790   2.612   6.191
    1MOL    C19  703   1.831   2.716   6.276
    1MOL    H15  704   1.763   2.724   6.362
    1MOL    O11  705   1.958   2.691   6.334
    1MOL    C20  706   2.064   2.676   6.238
    1MOL    H16  707   2.037   2.598   6.165
    1MOL    C21  708   2.187   2.628   6.313
    1MOL    H17  709   2.263   2.596   6.241
    1MOL    H18  710   2.158   2.540   6.373
    1MOL    O12  711   2.237   2.730   6.397
    1MOL    C22  712   2.337   2.685   6.484
    1MOL    C23  713   1.837   2.850   6.198
    1MOL    H19  714   1.858   2.929   6.272
    1MOL    O13  715   1.717   2.879   6.129
    1MOL    C24  716   1.609   2.921   6.212
    1MOL    C25  717   1.951   2.850   6.096
    1MOL    H20  718   1.928   2.778   6.016
    1MOL    O14  719   1.965   2.980   6.041
    1MOL    C26  720   1.908   2.997   5.911
    1MOL    C27  721   2.083   2.808   6.161
    1MOL    H21  722   2.117   2.886   6.231
    1MOL    O15  723   2.184   2.785   6.061
    1MOL    C28  724   2.256   2.899   6.018
    1MOL    H22  725   2.190   2.985   6.014
    1MOL    O16  726   2.358   2.935   6.108
    1MOL    C29  727   2.459   2.836   6.131
    1MOL    H23  728   2.412   2.746   6.174
    1MOL    C30  729   2.553   2.893   6.236
    1MOL    H24  730   2.616   2.813   6.277
    1MOL    H25  731   2.491   2.934   6.317
    1MOL    O17  732   2.633   2.995   6.178
    1MOL    C31  733   2.717   3.057   6.273
    1MOL    C32  734   2.316   2.868   5.881
    1MOL    H26  735   2.364   2.961   5.846
    1MOL    O18  736   2.212   2.832   5.791
    1MOL    C33  737   2.226   2.884   5.660
    1MOL    C34  738   2.423   2.759   5.891
    1MOL    H27  739   2.374   2.665   5.919
    1MOL    O19  740   2.486   2.746   5.764
    1MOL    C35  741   2.501   2.613   5.718
    1MOL    C36  742   2.527   2.797   5.998
    1MOL    H28  743   2.584   2.883   5.961
    1MOL    O20  744   2.614   2.684   6.014
    1MOL    C37  745   2.748   2.710   6.049
    1MOL    H29  746   2.766   2.818   6.051
    1MOL    O21  747   2.778   2.667   6.181
    1MOL    C38  748   2.760   2.526   6.202
    1MOL    H30  749   2.658   2.497   6.173
    1MOL    C39  750   2.774   2.501   6.352
    1MOL    H31  751   2.740   2.399   6.374
    1MOL    H32  752   2.708   2.571   6.406
    1MOL    O22  753   2.909   2.518   6.392
    1MOL    C40  754   2.929   2.485   6.527
    1MOL    C41  755   2.845   2.640   5.951
    1MOL    H33  756   2.946   2.678   5.974
    1MOL    O23  757   2.814   2.664   5.815
    1MOL    C42  758   2.846   2.794   5.768
    1MOL    C43  759   2.849   2.488   5.969
    1MOL    H34  760   2.756   2.445   5.929
    1MOL    O24  761   2.961   2.436   5.899
    1MOL    C44  762   2.930   2.357   5.786
    1MOL    C45  763   2.861   2.449   6.116
    1MOL    H35  764   2.962   2.474   6.151
    1MOL    O25  765   2.841   2.307   6.125
    1MOL    C46  766   2.922   2.234   6.214
    1MOL    H36  767   2.997   2.300   6.258
    1MOL    O26  768   2.849   2.185   6.324
    1MOL    C47  769   2.742   2.094   6.291
    1MOL    H37  770   2.674   2.143   6.220
    1MOL    C48  771   2.664   2.066   6.419
    1MOL    H38  772   2.569   2.018   6.394
    1MOL    H39  773   2.642   2.162   6.468
    1MOL    O27  774   2.741   1.984   6.504
    1MOL    C49  775   2.669   1.943   6.619
    1MOL    C50  776   2.989   2.115   6.141
    1MOL    H40  777   3.061   2.072   6.211
    1MOL    O28  778   3.054   2.152   6.021
    1MOL    C51  779   3.177   2.221   6.039
    1MOL    C52  780   2.888   2.005   6.105
    1MOL    H41  781   2.823   2.041   6.024
    1MOL    O29  782   2.959   1.889   6.064
    1MOL    C53  783   2.955   1.862   5.925
    1MOL    C54  784   2.801   1.968   6.226
    1MOL    H42  785   2.864   1.917   6.300
    1MOL    O30  786   2.698   1.880   6.180
    1MOL    C55  787   2.674   1.762   6.254
    1MOL    H43  788   2.754   1.748   6.328
    1MOL    O31  789   2.556   1.770   6.331
    1MOL    C56  790   2.434   1.788   6.257
    1MOL    H44  791   2.438   1.883   6.202
    1MOL    C57  792   2.323   1.794   6.360
    1MOL    H45  793   2.338   1.712   6.433
    1MOL    H46  794   2.226   1.778   6.312
    1MOL    O32  795   2.326   1.920   6.426
    1MOL    C58  796   2.225   1.931   6.524
    1MOL    C59  797   2.664   1.641   6.160
    1MOL    H47  798   2.653   1.552   6.224
    1MOL    O33  799   2.776   1.624   6.075
    1MOL    C60  800   2.893   1.577   6.140
    1MOL    C61  801   2.539   1.649   6.071
    1MOL    H48  802   2.550   1.733   6.001
    1MOL    O34  803   2.519   1.527   6.001
    1MOL    C62  804   2.571   1.524   5.869
    1MOL    C63  805   2.414   1.674   6.156
    1MOL    H49  806   2.390   1.582   6.211
    1MOL    O35  807   2.303   1.709   6.071
    1MOL    C64  808   2.221   1.601   6.033
    1MOL    H50  809   2.278   1.508   6.033
    1MOL    O36  810   2.114   1.580   6.124
    1MOL    C65  811   2.019   1.687   6.136
    1MOL    H51  812   2.069   1.780   6.165
    1MOL    C66  813   1.925   1.645   6.248
    1MOL    H52  814   1.900   1.539   6.235
    1MOL    H53  815   1.832   1.704   6.245
    1MOL    O37  816   1.991   1.666   6.372
    1MOL    C67  817   1.918   1.614   6.481
    1MOL    C68  818   2.163   1.626   5.892
    1MOL    H54  819   2.112   1.532   5.864
    1MOL    O38  820   2.267   1.655   5.801
    1MOL    C69  821   2.256   1.587   5.676
    1MOL    C70  822   2.057   1.738   5.893
    1MOL    H55  823   2.107   1.832   5.916
    1MOL    O39  824   1.997   1.743   5.764
    1MOL    C71  825   2.004   1.871   5.702
    1MOL    C72  826   1.950   1.711   6.000
    1MOL    H56  827   1.894   1.621   5.971
    1MOL    O40  828   1.863   1.825   6.001
    1MOL    H57  829   1.384   1.974   6.494
    1MOL    H58  830   1.541   1.912   6.552
    1MOL    H59  831   1.519   2.088   6.524
    1MOL    H60  832   1.976   1.635   6.572
    1MOL    H61  833   1.819   1.662   6.491
    1MOL    H62  834   1.903   1.505   6.473
    1MOL    H63  835   2.230   2.033   6.564
    1MOL    H64  836   2.125   1.913   6.481
    1MOL    H65  837   2.241   1.859   6.606
    1MOL    H66  838   2.734   1.877   6.676
    1MOL    H67  839   2.642   2.030   6.682
    1MOL    H68  840   2.577   1.890   6.591
    1MOL    H69  841   3.035   2.501   6.549
    1MOL    H70  842   2.869   2.549   6.594
    1MOL    H71  843   2.904   2.379   6.547
    1MOL    H72  844   2.775   3.133   6.220
    1MOL    H73  845   2.659   3.106   6.353
    1MOL    H74  846   2.786   2.985   6.320
    1MOL    H75  847   2.369   2.770   6.544
    1MOL    H76  848   2.300   2.606   6.552
    1MOL    H77  849   2.424   2.645   6.430
    1MOL    H78  850   1.725   2.587   6.695
    1MOL    H79  851   1.815   2.433   6.691
    1MOL    H80  852   1.885   2.580   6.618
    1MOL    H81  853   1.485   2.756   5.927
    1MOL    H82  854   1.648   2.686   5.915
    1MOL    H83  855   1.504   2.588   5.870
    1MOL    H84  856   1.265   2.297   5.914
    1MOL    H85  857   1.316   2.194   6.049
    1MOL    H86  858   1.236   2.351   6.081
    1MOL    H87  859   1.497   2.222   5.714
    1MOL    H88  860   1.638   2.270   5.813
    1MOL    H89  861   1.652   2.136   5.695
    1MOL    H90  862   1.680   1.754   5.614
    1MOL    H91  863   1.721   1.662   5.760
    1MOL    H92  864   1.552   1.717   5.733
    1MOL    H93  865   1.957   1.860   5.603
    1MOL    H94  866   1.949   1.946   5.759
    1MOL    H95  867   2.108   1.903   5.688
    1MOL    H96  868   2.340   1.619   5.615
    1MOL    H97  869   2.261   1.478   5.689
    1MOL    H98  870   2.162   1.612   5.625
    1MOL    H99  871   2.542   1.427   5.827
    1MOL   H100  872   2.528   1.604   5.808
    1MOL   H101  873   2.680   1.532   5.869
    1MOL   H102  874   2.963   1.548   6.062
    1MOL   H103  875   2.940   1.655   6.202
    1MOL   H104  876   2.871   1.489   6.202
    1MOL   H105  877   3.017   1.774   5.908
    1MOL   H106  878   2.852   1.840   5.892
    1MOL   H107  879   2.995   1.947   5.867
    1MOL   H108  880   3.224   2.228   5.941
    1MOL   H109  881   3.161   2.323   6.077
    1MOL   H110  882   3.244   2.167   6.108
    1MOL   H111  883   3.025   2.327   5.742
    1MOL   H112  884   2.875   2.267   5.815
    1MOL   H113  885   2.872   2.414   5.712
    1MOL   H114  886   2.831   2.793   5.660
    1MOL   H115  887   2.781   2.871   5.812
    1MOL   H116  888   2.951   2.820   5.790
    1MOL   H117  889   2.549   2.618   5.620
    1MOL   H118  890   2.565   2.554   5.785
    1MOL   H119  891   2.403   2.563   5.708
    1MOL   H120  892   2.140   2.848   5.603
    1MOL   H121  893   2.224   2.994   5.660
    1MOL   H122  894   2.318   2.850   5.612
    1MOL   H123  895   1.924   3.101   5.884
    1MOL   H124  896   1.958   2.932   5.838
    1MOL   H125  897   1.801   2.976   5.912
    1MOL   H126  898   1.531   2.957   6.145
    1MOL   H127  899   1.568   2.838   6.271
    1MOL   H128  900   1.639   3.002   6.279
    2SOL     OW  901   0.230   0.628   0.113
    2SOL    HW1  902   0.137   0.626   0.150
    2SOL    HW2  903   0.231   0.589   0.021
    3SOL     OW  904   0.225   0.275   0.996
    3SOL    HW1  905   0.260   0.258   1.088
    3SOL    HW2  906   0.137   0.230   0.984
    4SOL     OW  907   0.019   0.368   0.647
    4SOL    HW1  908  -0.063   0.411   0.686
    4SOL    HW2  909  -0.009   0.295   0.584
    5SOL     OW  910   0.569   1.275   1.165
    5SOL    HW1  911   0.476   1.268   1.128
    5SOL    HW2  912   0.580   1.364   1.209
    6SOL     OW  913   1.555   1.511   0.703
    6SOL    HW1  914   1.498   1.495   0.784
    6SOL    HW2  915   1.496   1.521   0.623
    7SOL     OW  916   1.135   0.703   0.717
    7SOL    HW1  917   1.192   0.781   0.692
    7SOL    HW2  918   1.075   0.729   0.793
    8SOL     OW  919   1.755   0.607   0.231
    8SOL    HW1  920   1.743   0.594   0.132
    8SOL    HW2  921   1.725   0.526   0.280
    9SOL     OW  922   0.768   1.144   1.023
    9SOL    HW1  923   0.690   1.161   1.083
    9SOL    HW2  924   0.802   1.231   0.987
   10SOL     OW  925   0.850   0.798   1.823
   10SOL    HW1  926   0.846   0.874   1.888
   10SOL    HW2  927   0.872   0.834   1.732
   11SOL     OW  928   0.685   1.012   0.665
   11SOL    HW1  929   0.754   0.996   0.735
   11SOL    HW2  930   0.612   1.069   0.703
   12SOL     OW  931   0.686   1.161   1.803
   12SOL    HW1  932   0.746   1.240   1.817
   12SOL    HW2  933   0.600   1.192   1.762
   13SOL     OW  934   0.335   1.435   1.061
   13SOL    HW1  935   0.257   1.404   1.008
   13SOL    HW2  936   0.393   1.493   1.004
   14SOL     OW  937   1.460   1.505   1.339
   14SOL    HW1  938   1.484   1.599   1.365
   14SOL    HW2  939   1.444   1.451   1.421
   15SOL     OW  940   0.438   0.392   1.499
   15SOL    HW1  941   0.520   0.336   1.508
   15SOL    HW2  942   0.357   0.334   1.503
   16SOL     OW  943   1.603   0.447   0.737
   16SOL    HW1  944   1.529   0.493   0.687
   16SOL    HW2  945   1.654   0.515   0.790
   17SOL     OW  946   0.231   1.713   0.483
   17SOL    HW1  947   0.265   1.790   0.537
   17SOL    HW2  948   0.275   1.713   0.393
   18SOL     OW  949   1.127   1.341   1.690
   18SOL    HW1  950   1.174   1.341   1.778
   18SOL    HW2  951   1.079   1.254   1.679
   19SOL     OW  952   0.230   1.434   0.538
   19SOL    HW1  953   0.204   1.530   0.538
   19SOL    HW2  954   0.159   1.380   0.583
   20SOL     OW  955   0.240   1.091   0.886
   20SOL    HW1  956   0.254   1.007   0.938
   20SOL    HW2  957   0.185   1.155   0.941
   21SOL     OW  958   0.620   1.786   1.439
   21SOL    HW1  959   0.528   1.769   1.474
   21SOL    HW2  960   0.648   1.878   1.465
   22SOL     OW  961   0.606   0.964   0.123
   22SOL    HW1  962   0.613   1.048   0.069
   22SOL    HW2  963   0.652   0.977   0.211
   23SOL     OW  964   1.594   0.114   1.480
   23SOL    HW1  965   1.576   0.181   1.408
   23SOL    HW2  966   1.591   0.160   1.569
   24SOL     OW  967   0.122   0.643   0.563
   24SOL    HW1  968   0.077   0.555   0.580
   24SOL    HW2  969   0.121   0.697   0.647
   25SOL     OW  970   1.842   1.767   0.359
   25SOL    HW1  971   1.896   1.738   0.439
   25SOL    HW2  972   1.872   1.857   0.330
   26SOL     OW  973   0.027   1.596   0.117
   26SOL    HW1  974   0.008   1.500   0.138
   26SOL    HW2  975  -0.006   1.654   0.192
   27SOL     OW  976   1.689   0.922   0.612
   27SOL    HW1  977   1.784   0.893   0.620
   27SOL    HW2  978   1.681   0.987   0.537
   28SOL     OW  979   1.641   1.108   0.432
   28SOL    HW1  980   1.727   1.110   0.380
   28SOL    HW2  981   1.655   1.155   0.520
   29SOL     OW  982   0.113   0.737   1.597
   29SOL    HW1  983   0.201   0.724   1.642
   29SOL    HW2  984   0.100   0.834   1.575
   30SOL     OW  985   0.613   1.365   0.726
   30SOL    HW1  986   0.564   1.278   0.735
   30SOL    HW2  987   0.590   1.408   0.639
   31SOL     OW  988   1.293   1.228   1.423
   31SOL    HW1  989   1.330   1.155   1.365
   31SOL    HW2  990   1.345   1.233   1.508
   32SOL     OW  991   0.809   0.004   0.502
   32SOL    HW1  992   0.849   0.095   0.493
   32SOL    HW2  993   0.709   0.012   0.508
   33SOL     OW  994   0.197   0.976   1.264
   33SOL    HW1  995   0.286   0.931   1.250
   33SOL    HW2  996   0.124   0.911   1.245
   34SOL     OW  997   1.525   0.999   0.190
   34SOL    HW1  998   1.462   0.923   0.203
   34SOL    HW2  999   1.573   1.017   0.276
   35SOL     OW 1000   1.187   1.792   1.616
   35SOL    HW1 1001   1.211   1.852   1.540
   35SOL    HW2 1002   1.194   1.697   1.586
   36SOL     OW 1003   0.317   0.251   1.801
   36SOL    HW1 1004   0.388   0.322   1.807
   36SOL    HW2 1005   0.229   0.290   1.829
   37SOL     OW 1006   1.466   1.417   0.953
   37SOL    HW1 1007   1.407   1.423   1.033
   37SOL    HW2 1008   1.451   1.329   0.907
   38SOL     OW 1009   1.667   1.714   0.572
   38SOL    HW1 1010   1.626   1.691   0.484
   38SOL    HW2 1011   1.649   1.640   0.637
   39SOL     OW 1012   0.598   0.729   0.270
   39SOL    HW1 1013   0.622   0.798   0.202
   39SOL    HW2 1014   0.520   0.762   0.324
   40SOL     OW 1015   1.281   0.345   0.944
   40SOL    HW1 1016   1.195   0.295   0.931
   40SOL    HW2 1017   1.343   0.291   1.000
   41SOL     OW 1018   1.576   1.662   0.307
   41SOL    HW1 1019   1.665   1.708   0.310
   41SOL    HW2 1020   1.555   1.638   0.212
   42SOL     OW 1021   0.807   0.605   1.465
   42SOL    HW1 1022   0.760   0.602   1.554
   42SOL    HW2 1023   0.756   0.550   1.399
   43SOL     OW 1024   1.394   0.469   1.674
   43SOL    HW1 1025   1.374   0.512   1.762
   43SOL    HW2 1026   1.472   0.407   1.683
   44SOL     OW 1027   0.973   0.890   1.572
   44SOL    HW1 1028   1.019   0.806   1.543
   44SOL    HW2 1029   0.917   0.924   1.497
   45SOL     OW 1030   0.991   0.410   1.242
   45SOL    HW1 1031   0.914   0.444   1.296
   45SOL    HW2 1032   0.957   0.359   1.163
   46SOL     OW 1033   1.041   0.701   0.429
   46SOL    HW1 1034   1.067   0.697   0.525
   46SOL    HW2 1035   0.956   0.650   0.415
   47SOL     OW 1036   0.076   0.811   0.789
   47SOL    HW1 1037   0.175   0.799   0.798
   47SOL    HW2 1038   0.052   0.906   0.810
   48SOL     OW 1039   0.130   1.821   1.571
   48SOL    HW1 1040   0.120   1.806   1.670
   48SOL    HW2 1041   0.044   1.857   1.535
   49SOL     OW 1042   0.865   0.348   0.195
   49SOL    HW1 1043   0.924   0.411   0.146
   49SOL    HW2 1044   0.884   0.254   0.166
   50SOL     OW 1045   1.719   0.585   1.831
   50SOL    HW1 1046   1.693   0.674   1.795
   50SOL    HW2 1047   1.717   0.517   1.758
   51SOL     OW 1048   1.362   1.144   0.545
   51SOL    HW1 1049   1.445   1.115   0.497
   51SOL    HW2 1050   1.313   1.211   0.489
   52SOL     OW 1051   0.550   0.196   0.885
   52SOL    HW1 1052   0.545   0.191   0.985
   52SOL    HW2 1053   0.552   0.292   0.856
   53SOL     OW 1054   1.008   1.456   0.477
   53SOL    HW1 1055   0.962   1.528   0.425
   53SOL    HW2 1056   1.004   1.476   0.575
   54SOL     OW 1057   0.351   1.801   0.853
   54SOL    HW1 1058   0.401   1.715   0.859
   54SOL    HW2 1059   0.416   1.878   0.850
   55SOL     OW 1060   1.795   1.066   0.873
   55SOL    HW1 1061   1.733   1.051   0.797
   55SOL    HW2 1062   1.743   1.077   0.958
   56SOL     OW 1063   1.227   1.550   1.506
   56SOL    HW1 1064   1.233   1.473   1.570
   56SOL    HW2 1065   1.175   1.524   1.426
   57SOL     OW 1066   0.321   0.943   0.242
   57SOL    HW1 1067   0.403   0.982   0.200
   57SOL    HW2 1068   0.294   0.861   0.193
   58SOL     OW 1069   1.458   0.735   0.728
   58SOL    HW1 1070   1.453   0.670   0.803
   58SOL    HW2 1071   1.538   0.794   0.741
   59SOL     OW 1072   0.461   1.266   1.727
   59SOL    HW1 1073   0.411   1.267   1.641
   59SOL    HW2 1074   0.398   1.248   1.803
   60SOL     OW 1075   1.111   1.776   0.237
   60SOL    HW1 1076   1.051   1.714   0.287
   60SOL    HW2 1077   1.142   1.732   0.152
   61SOL     OW 1078   0.202   0.285   1.498
   61SOL    HW1 1079   0.122   0.345   1.485
   61SOL    HW2 1080   0.192   0.236   1.584
   62SOL     OW 1081   1.632   1.377   0.081
   62SOL    HW1 1082   1.600   1.471   0.071
   62SOL    HW2 1083   1.556   1.314   0.069
   63SOL     OW 1084   0.464   1.743   0.323
   63SOL    HW1 1085   0.497   1.782   0.409
   63SOL    HW2 1086   0.540   1.736   0.258
   64SOL     OW 1087   1.400   0.107   0.426
   64SOL    HW1 1088   1.376   0.070   0.336
   64SOL    HW2 1089   1.499   0.123   0.430
   65SOL     OW 1090   0.249   1.785   1.241
   65SOL    HW1 1091   0.306   1.720   1.291
   65SOL    HW2 1092   0.233   1.752   1.148
   66SOL     OW 1093   0.940   1.698   0.904
   66SOL    HW1 1094   1.020   1.641   0.925
   66SOL    HW2 1095   0.891   1.658   0.827
   67SOL     OW 1096   0.382   0.700   0.480
   67SOL    HW1 1097   0.427   0.610   0.477
   67SOL    HW2 1098   0.288   0.689   0.513
   68SOL     OW 1099   1.547   0.222   1.729
   68SOL    HW1 1100   1.542   0.259   1.821
   68SOL    HW2 1101   1.475   0.153   1.717
   69SOL     OW 1102   0.614   0.122   0.117
   69SOL    HW1 1103   0.712   0.100   0.124
   69SOL    HW2 1104   0.583   0.105   0.024
   70SOL     OW 1105   0.781   0.264   1.749
   70SOL    HW1 1106   0.848   0.203   1.792
   70SOL    HW2 1107   0.708   0.283   1.814
   71SOL     OW 1108   0.888   1.514   1.195
   71SOL    HW1 1109   0.865   1.489   1.101
   71SOL    HW2 1110   0.949   1.445   1.234
   72SOL     OW 1111   1.351   0.590   1.433
   72SOL    HW1 1112   1.379   0.547   1.518
   72SOL    HW2 1113   1.376   0.686   1.434
   73SOL     OW 1114   0.803   1.402   0.924
   73SOL    HW1 1115   0.893   1.416   0.882
   73SOL    HW2 1116   0.732   1.404   0.853
   74SOL     OW 1117   0.922   0.503   0.899
   74SOL    HW1 1118   0.897   0.494   0.803
   74SOL    HW2 1119   0.970   0.421   0.930
   75SOL     OW 1120   0.539   0.064   0.512
   75SOL    HW1 1121   0.458   0.065   0.570
   75SOL    HW2 1122   0.542   0.147   0.457
   76SOL     OW 1123   1.434   1.188   0.041
   76SOL    HW1 1124   1.466   1.112   0.098
   76SOL    HW2 1125   1.342   1.215   0.071
   77SOL     OW 1126   0.297   0.035   0.171
   77SOL    HW1 1127   0.346   0.119   0.150
   77SOL    HW2 1128   0.359  -0.030   0.216
   78SOL     OW 1129   0.935   0.236   0.480
   78SOL    HW1 1130   0.887   0.277   0.402
   78SOL    HW2 1131   1.034   0.234   0.461
   79SOL     OW 1132   1.076   0.683   1.464
   79SOL    HW1 1133   0.996   0.622   1.467
   79SOL    HW2 1134   1.157   0.630   1.440
   80SOL     OW 1135   1.227   1.570   0.793
   80SOL    HW1 1136   1.248   1.644   0.728
   80SOL    HW2 1137   1.295   1.570   0.866
   81SOL     OW 1138   0.459   1.152   0.741
   81SOL    HW1 1139   0.388   1.125   0.806
   81SOL    HW2 1140   0.433   1.124   0.648
   82SOL     OW 1141   1.271   1.797   0.591
   82SOL    HW1 1142   1.315   1.861   0.527
   82SOL    HW2 1143   1.221   1.849   0.661
   83SOL     OW 1144   1.032   0.549   0.016
   83SOL    HW1 1145   0.991   0.631  -0.023
   83SOL    HW2 1146   1.096   0.575   0.089
   84SOL     OW 1147   0.078   0.556   1.386
   84SOL    HW1 1148   0.170   0.555   1.345
   84SOL    HW2 1149   0.072   0.630   1.453
   85SOL     OW 1150   0.561   0.222   1.147
   85SOL    HW1 1151   0.599   0.138   1.184
   85SOL    HW2 1152   0.473   0.241   1.191
   86SOL     OW 1153   0.866   0.454   0.642
   86SOL    HW1 1154   0.834   0.526   0.580
   86SOL    HW2 1155   0.890   0.373   0.589
   87SOL     OW 1156   1.017   0.039   0.753
   87SOL    HW1 1157   0.945   0.044   0.684
   87SOL    HW2 1158   0.993  -0.030   0.822
   88SOL     OW 1159   1.429   1.173   0.867
   88SOL    HW1 1160   1.374   1.089   0.860
   88SOL    HW2 1161   1.455   1.202   0.775
   89SOL     OW 1162   1.466   0.590   0.992
   89SOL    HW1 1163   1.436   0.495   0.999
   89SOL    HW2 1164   1.539   0.606   1.058
   90SOL     OW 1165   1.857   0.833   0.377
   90SOL    HW1 1166   1.899   0.769   0.441
   90SOL    HW2 1167   1.819   0.782   0.299
   91SOL     OW 1168   0.488   1.385   0.174
   91SOL    HW1 1169   0.401   1.370   0.221
   91SOL    HW2 1170   0.471   1.411   0.079
   92SOL     OW 1171   1.664   1.280   0.657
   92SOL    HW1 1172   1.763   1.288   0.671
   92SOL    HW2 1173   1.619   1.364   0.688
   93SOL     OW 1174   1.390   0.575   0.078
   93SOL    HW1 1175   1.336   0.554   0.159
   93SOL    HW2 1176   1.481   0.534   0.087
   94SOL     OW 1177   0.527   0.256   0.328
   94SOL    HW1 1178   0.554   0.197   0.253
   94SOL    HW2 1179   0.527   0.351   0.297
   95SOL     OW 1180   1.754   1.223   1.588
   95SOL    HW1 1181   1.845   1.184   1.575
   95SOL    HW2 1182   1.762   1.319   1.612
   96SOL     OW 1183   1.064   1.347   1.340
   96SOL    HW1 1184   0.984   1.324   1.395
   96SOL    HW2 1185   1.147   1.321   1.389
   97SOL     OW 1186   1.592   1.629   1.625
   97SOL    HW1 1187   1.619   1.663   1.535
   97SOL    HW2 1188   1.671   1.591   1.671
   98SOL     OW 1189   1.111   1.195   1.100
   98SOL    HW1 1190   1.071   1.239   1.181
   98SOL    HW2 1191   1.070   1.232   1.017
   99SOL     OW 1192   1.638   1.099   1.079
   99SOL    HW1 1193   1.643   1.180   1.138
   99SOL    HW2 1194   1.552   1.101   1.028
  100SOL     OW 1195   0.915   0.089   1.402
  100SOL    HW1 1196   0.940   0.069   1.307
  100SOL    HW2 1197   0.987   0.145   1.444
  101SOL     OW 1198   0.980   1.116   1.719
  101SOL    HW1 1199   0.881   1.122   1.729
  101SOL    HW2 1200   1.003   1.036   1.663
  102SOL     OW 1201   0.705   1.050   0.368
  102SOL    HW1 1202   0.691   1.057   0.467
  102SOL    HW2 1203   0.789   0.999   0.350
  103SOL     OW 1204   0.410   0.813   1.251
  103SOL    HW1 1205   0.496   0.825   1.301
  103SOL    HW2 1206   0.368   0.726   1.278
  104SOL     OW 1207   1.274   0.386   1.262
  104SOL    HW1 1208   1.295   0.460   1.326
  104SOL    HW2 1209   1.185   0.403   1.219
  105SOL     OW 1210   0.064   1.564   1.331
  105SOL    HW1 1211   0.018   1.646   1.297
  105SOL    HW2 1212   0.162   1.583   1.340
  106SOL     OW 1213   0.367   1.100   0.501
  106SOL    HW1 1214   0.360   1.183   0.445
  106SOL    HW2 1215   0.371   1.020   0.441
  107SOL     OW 1216   0.566   0.537   0.865
  107SOL    HW1 1217   0.578   0.603   0.791
  107SOL    HW2 1218   0.612   0.571   0.948
  108SOL     OW 1219   1.252   1.348   0.388
  108SOL    HW1 1220   1.302   1.425   0.428
  108SOL    HW2 1221   1.157   1.350   0.420
  109SOL     OW 1222   1.272   1.445   1.142
  109SOL    HW1 1223   1.319   1.458   1.229
  109SOL    HW2 1224   1.206   1.371   1.151
  110SOL     OW 1225   1.582   0.639   0.472
  110SOL    HW1 1226   1.551   0.700   0.545
  110SOL    HW2 1227   1.632   0.691   0.403
  111SOL     OW 1228   0.354   1.510   1.329
  111SOL    HW1 1229   0.333   1.466   1.242
  111SOL    HW2 1230   0.451   1.536   1.332
  112SOL     OW 1231   0.402   0.751   1.598
  112SOL    HW1 1232   0.470   0.806   1.551
  112SOL    HW2 1233   0.442   0.663   1.625
  113SOL     OW 1234   1.587   0.779   1.670
  113SOL    HW1 1235   1.495   0.817   1.665
  113SOL    HW2 1236   1.647   0.826   1.605
  114SOL     OW 1237   1.013   0.105   1.770
  114SOL    HW1 1238   1.019   0.190   1.718
  114SOL    HW2 1239   1.045   0.029   1.713
  115SOL     OW 1240   0.504   0.050   1.740
  115SOL    HW1 1241   0.462  -0.007   1.670
  115SOL    HW2 1242   0.438   0.119   1.772
  116SOL     OW 1243   0.573   0.870   1.029
  116SOL    HW1 1244   0.617   0.959   1.020
  116SOL    HW2 1245   0.510   0.870   1.106
  117SOL     OW 1246   1.360   0.862   1.045
  117SOL    HW1 1247   1.285   0.862   0.979
  117SOL    HW2 1248   1.397   0.770   1.054
  118SOL     OW 1249   1.209   0.525   0.275
  118SOL    HW1 1250   1.222   0.441   0.329
  118SOL    HW2 1251   1.180   0.599   0.335
  119SOL     OW 1252   0.307   0.213   1.231
  119SOL    HW1 1253   0.284   0.250   1.321
  119SOL    HW2 1254   0.277   0.118   1.225
  120SOL     OW 1255   0.037   1.310   1.282
  120SOL    HW1 1256   0.090   1.261   1.350
  120SOL    HW2 1257   0.059   1.408   1.287
  121SOL     OW 1258   0.732   0.634   1.064
  121SOL    HW1 1259   0.791   0.608   0.988
  121SOL    HW2 1260   0.704   0.730   1.053
  122SOL     OW 1261   1.728   0.935   1.854
  122SOL    HW1 1262   1.682   0.928   1.765
  122SOL    HW2 1263   1.666   0.979   1.920
  123SOL     OW 1264   0.307   0.063   0.618
  123SOL    HW1 1265   0.296   0.157   0.651
  123SOL    HW2 1266   0.302   0.000   0.695
  124SOL     OW 1267   1.622   0.367   0.374
  124SOL    HW1 1268   1.624   0.291   0.438
  124SOL    HW2 1269   1.574   0.444   0.414
  125SOL     OW 1270   1.023   0.766   0.966
  125SOL    HW1 1271   1.038   0.787   1.062
  125SOL    HW2 1272   0.993   0.671   0.957
  126SOL     OW 1273   0.980   1.573   1.700
  126SOL    HW1 1274   0.960   1.617   1.612
  126SOL    HW2 1275   1.019   1.482   1.684
  127SOL     OW 1276   1.859   1.518   1.605
  127SOL    HW1 1277   1.873   1.545   1.510
  127SOL    HW2 1278   1.942   1.540   1.658
  128SOL     OW 1279   0.350   0.898   1.804
  128SOL    HW1 1280   0.426   0.942   1.852
  128SOL    HW2 1281   0.385   0.851   1.722
  129SOL     OW 1282   1.540   0.274   0.125
  129SOL    HW1 1283   1.479   0.199   0.148
  129SOL    HW2 1284   1.562   0.326   0.208
  130SOL     OW 1285   1.303   0.838   0.042
  130SOL    HW1 1286   1.337   0.745   0.057
  130SOL    HW2 1287   1.321   0.865  -0.053
  131SOL     OW 1288   1.068   1.333   0.849
  131SOL    HW1 1289   1.075   1.249   0.794
  131SOL    HW2 1290   1.130   1.402   0.813
  132SOL     OW 1291   0.319   0.810   0.949
  132SOL    HW1 1292   0.412   0.846   0.954
  132SOL    HW2 1293   0.313   0.725   1.001
  133SOL     OW 1294   0.339   0.509   1.006
  133SOL    HW1 1295   0.287   0.426   0.989
  133SOL    HW2 1296   0.416   0.514   0.942
  134SOL     OW 1297   1.138   0.380   1.678
  134SOL    HW1 1298   1.093   0.443   1.742
  134SOL    HW2 1299   1.231   0.411   1.661
  135SOL     OW 1300   1.160   0.207   1.477
  135SOL    HW1 1301   1.160   0.271   1.554
  135SOL    HW2 1302   1.188   0.255   1.394
  136SOL     OW 1303   0.008   1.326   0.200
  136SOL    HW1 1304  -0.085   1.347   0.169
  136SOL    HW2 1305   0.018   1.227   0.213
  137SOL     OW 1306   0.088   1.801   0.927
  137SOL    HW1 1307   0.046   1.715   0.900
  137SOL    HW2 1308   0.182   1.804   0.893
  138SOL     OW 1309   0.504   1.568   0.910
  138SOL    HW1 1310   0.570   1.642   0.919
  138SOL    HW2 1311   0.548   1.489   0.868
  139SOL     OW 1312   1.002   0.796   1.238
  139SOL    HW1 1313   1.043   0.764   1.324
  139SOL    HW2 1314   0.906   0.769   1.235
  140SOL     OW 1315   0.040   0.544   1.114
  140SOL    HW1 1316   0.125   0.511   1.073
  140SOL    HW2 1317   0.053   0.559   1.212
  141SOL     OW 1318   0.189   0.520   1.722
  141SOL    HW1 1319   0.248   0.480   1.652
  141SOL    HW2 1320   0.131   0.591   1.681
  142SOL     OW 1321   1.369   0.950   1.660
  142SOL    HW1 1322   1.408   1.039   1.680
  142SOL    HW2 1323   1.379   0.930   1.563
  143SOL     OW 1324   0.815   0.572   0.325
  143SOL    HW1 1325   0.822   0.483   0.279
  143SOL    HW2 1326   0.721   0.606   0.317
  144SOL     OW 1327   1.657   0.604   1.206
  144SOL    HW1 1328   1.619   0.535   1.268
  144SOL    HW2 1329   1.739   0.568   1.162
  145SOL     OW 1330   0.252   1.564   1.744
  145SOL    HW1 1331   0.222   1.621   1.820
  145SOL    HW2 1332   0.245   1.467   1.770
  146SOL     OW 1333   0.671   0.464   1.269
  146SOL    HW1 1334   0.637   0.375   1.239
  146SOL    HW2 1335   0.697   0.518   1.189
  147SOL     OW 1336   0.930   1.678   1.465
  147SOL    HW1 1337   0.906   1.660   1.370
  147SOL    HW2 1338   0.960   1.772   1.475
  148SOL     OW 1339   0.473   0.500   0.191
  148SOL    HW1 1340   0.534   0.580   0.195
  148SOL    HW2 1341   0.378   0.531   0.198
  149SOL     OW 1342   0.159   1.137   1.466
  149SOL    HW1 1343   0.181   1.076   1.542
  149SOL    HW2 1344   0.169   1.088   1.380
  150SOL     OW 1345   1.347   1.059   1.234
  150SOL    HW1 1346   1.371   0.996   1.160
  150SOL    HW2 1347   1.257   1.099   1.216
  151SOL     OW 1348   1.302   0.855   0.309
  151SOL    HW1 1349   1.216   0.824   0.351
  151SOL    HW2 1350   1.298   0.841   0.210
  152SOL     OW 1351   1.759   1.747   1.154
  152SOL    HW1 1352   1.820   1.777   1.081
  152SOL    HW2 1353   1.721   1.658   1.132
  153SOL     OW 1354   1.252   1.731   1.128
  153SOL    HW1 1355   1.336   1.736   1.074
  153SOL    HW2 1356   1.229   1.635   1.146
  154SOL     OW 1357   0.083   1.258   1.022
  154SOL    HW1 1358   0.078   1.257   1.122
  154SOL    HW2 1359   0.000   1.217   0.984
  155SOL     OW 1360   0.688   1.662   1.716
  155SOL    HW1 1361   0.632   1.743   1.725
  155SOL    HW2 1362   0.740   1.666   1.630
  156SOL     OW 1363   0.903   0.086   0.133
  156SOL    HW1 1364   0.954   0.087   0.047
  156SOL    HW2 1365   0.959   0.044   0.204
  157SOL     OW 1366   1.726   0.135   0.523
  157SOL    HW1 1367   1.799   0.118   0.456
  157SOL    HW2 1368   1.695   0.048   0.561
  158SOL     OW 1369   1.388   1.573   0.477
  158SOL    HW1 1370   1.455   1.585   0.403
  158SOL    HW2 1371   1.348   1.662   0.500
  159SOL     OW 1372   0.130   1.794   1.851
  159SOL    HW1 1373   0.089   1.720   1.904
  159SOL    HW2 1374   0.194   1.845   1.909
  160SOL     OW 1375   1.280   0.927   0.672
  160SOL    HW1 1376   1.340   0.846   0.674
  160SOL    HW2 1377   1.320   0.996   0.612
  161SOL     OW 1378   0.830   1.273   1.422
  161SOL    HW1 1379   0.825   1.306   1.517
  161SOL    HW2 1380   0.744   1.292   1.376
  162SOL     OW 1381   0.672   1.616   0.154
  162SOL    HW1 1382   0.681   1.626   0.055
  162SOL    HW2 1383   0.632   1.527   0.175
  163SOL     OW 1384   1.650   1.720   1.394
  163SOL    HW1 1385   1.703   1.730   1.310
  163SOL    HW2 1386   1.623   1.810   1.428
  164SOL     OW 1387   1.841   0.175   0.963
  164SOL    HW1 1388   1.880   0.090   0.927
  164SOL    HW2 1389   1.743   0.177   0.944
  165SOL     OW 1390   0.263   0.326   0.720
  165SOL    HW1 1391   0.184   0.377   0.686
  165SOL    HW2 1392   0.254   0.311   0.818
  166SOL     OW 1393   1.194   1.612   0.031
  166SOL    HW1 1394   1.200   1.519   0.068
  166SOL    HW2 1395   1.135   1.612  -0.049
  167SOL     OW 1396   0.822   1.002   1.372
  167SOL    HW1 1397   0.862   1.001   1.280
  167SOL    HW2 1398   0.832   1.094   1.412
  168SOL     OW 1399   0.916   0.910   0.291
  168SOL    HW1 1400   0.979   0.948   0.223
  168SOL    HW2 1401   0.956   0.827   0.330
  169SOL     OW 1402   1.504   1.607   0.044
  169SOL    HW1 1403   1.412   1.644   0.051
  169SOL    HW2 1404   1.542   1.627  -0.046
  170SOL     OW 1405   0.372   1.288   1.490
  170SOL    HW1 1406   0.359   1.381   1.456
  170SOL    HW2 1407   0.288   1.236   1.477
  171SOL     OW 1408   1.614   1.292   1.289
  171SOL    HW1 1409   1.674   1.295   1.369
  171SOL    HW2 1410   1.539   1.356   1.302
  172SOL     OW 1411   1.039   1.098   0.696
  172SOL    HW1 1412   0.969   1.051   0.750
  172SOL    HW2 1413   1.098   1.030   0.653
  173SOL     OW 1414   1.014   0.236   0.971
  173SOL    HW1 1415   1.006   0.200   0.878
  173SOL    HW2 1416   1.012   0.160   1.036
  174SOL     OW 1417   0.590   1.487   0.491
  174SOL    HW1 1418   0.632   1.429   0.421
  174SOL    HW2 1419   0.546   1.566   0.447
  175SOL     OW 1420   1.709   0.385   1.381
  175SOL    HW1 1421   1.782   0.454   1.385
  175SOL    HW2 1422   1.737   0.310   1.322
  176SOL     OW 1423   0.255   1.348   0.290
  176SOL    HW1 1424   0.159   1.349   0.263
  176SOL    HW2 1425   0.267   1.401   0.374
  177SOL     OW 1426   0.105   1.013   1.726
  177SOL    HW1 1427   0.028   0.980   1.780
  177SOL    HW2 1428   0.190   0.983   1.768
  178SOL     OW 1429   0.672   0.203   1.489
  178SOL    HW1 1430   0.762   0.187   1.449
  178SOL    HW2 1431   0.680   0.208   1.588
  179SOL     OW 1432   0.075   0.345   0.033
  179SOL    HW1 1433  -0.017   0.317   0.004
  179SOL    HW2 1434   0.106   0.422  -0.023
  180SOL     OW 1435   1.440   0.856   1.398
  180SOL    HW1 1436   1.383   0.908   1.335
  180SOL    HW2 1437   1.536   0.868   1.374
  181SOL     OW 1438   0.072   0.166   0.318
  181SOL    HW1 1439   0.055   0.249   0.264
  181SOL    HW2 1440   0.162   0.129   0.296
  182SOL     OW 1441   1.183   1.335   0.119
  182SOL    HW1 1442   1.084   1.324   0.121
  182SOL    HW2 1443   1.217   1.350   0.212
  183SOL     OW 1444   0.613   0.842   1.431
  183SOL    HW1 1445   0.669   0.923   1.414
  183SOL    HW2 1446   0.672   0.762   1.434
  184SOL     OW 1447   1.493   1.767   0.959
  184SOL    HW1 1448   1.526   1.831   0.890
  184SOL    HW2 1449   1.559   1.761   1.034
  185SOL     OW 1450   0.716   0.565   1.708
  185SOL    HW1 1451   0.735   0.630   1.782
  185SOL    HW2 1452   0.776   0.485   1.717
  186SOL     OW 1453   1.450   1.220   1.633
  186SOL    HW1 1454   1.441   1.210   1.732
  186SOL    HW2 1455   1.546   1.213   1.607
  187SOL     OW 1456   0.390   1.741   1.560
  187SOL    HW1 1457   0.299   1.782   1.558
  187SOL    HW2 1458   0.383   1.647   1.592
  188SOL     OW 1459   1.674   0.883   1.254
  188SOL    HW1 1460   1.647   0.794   1.217
  188SOL    HW2 1461   1.675   0.951   1.181
  189SOL     OW 1462   1.225   0.325   0.449
  189SOL    HW1 1463   1.290   0.251   0.438
  189SOL    HW2 1464   1.245   0.375   0.533
  190SOL     OW 1465   0.594   0.745   0.652
  190SOL    HW1 1466   0.644   0.830   0.633
  190SOL    HW2 1467   0.506   0.747   0.604
  191SOL     OW 1468   1.777   0.342   1.642
  191SOL    HW1 1469   1.760   0.373   1.548
  191SOL    HW2 1470   1.693   0.305   1.680
  192SOL     OW 1471   1.730   0.934   1.517
  192SOL    HW1 1472   1.768   1.025   1.532
  192SOL    HW2 1473   1.722   0.917   1.418
  193SOL     OW 1474   0.859   1.374   0.016
  193SOL    HW1 1475   0.813   1.389   0.104
  193SOL    HW2 1476   0.903   1.459  -0.014
  194SOL     OW 1477   0.661   1.790   0.953
  194SOL    HW1 1478   0.615   1.878   0.940
  194SOL    HW2 1479   0.760   1.802   0.946
  195SOL     OW 1480   0.859   0.956   0.861
  195SOL    HW1 1481   0.913   0.887   0.909
  195SOL    HW2 1482   0.827   1.025   0.927
  196SOL     OW 1483   1.083   0.984   0.087
  196SOL    HW1 1484   1.060   1.037   0.005
  196SOL    HW2 1485   1.164   0.928   0.068
  197SOL     OW 1486   1.861   1.569   0.851
  197SOL    HW1 1487   1.790   1.557   0.781
  197SOL    HW2 1488   1.862   1.490   0.911
  198SOL     OW 1489   0.221   1.314   1.844
  198SOL    HW1 1490   0.156   1.241   1.823
  198SOL    HW2 1491   0.225   1.328   1.942
  199SOL     OW 1492   0.079   1.240   0.653
  199SOL    HW1 1493   0.078   1.193   0.741
  199SOL    HW2 1494   0.161   1.212   0.602
  200SOL     OW 1495   0.672   1.391   1.624
  200SOL    HW1 1496   0.594   1.341   1.662
  200SOL    HW2 1497   0.669   1.486   1.655
  201SOL     OW 1498   1.824   0.192   1.227
  201SOL    HW1 1499   1.820   0.102   1.271
  201SOL    HW2 1500   1.827   0.181   1.128
  202SOL     OW 1501   0.428   0.424   0.520
  202SOL    HW1 1502   0.458   0.352   0.458
  202SOL    HW2 1503   0.389   0.384   0.603
  203SOL     OW 1504   1.705   1.487   1.104
  203SOL    HW1 1505   1.612   1.462   1.077
  203SOL    HW2 1506   1.731   1.437   1.186
  204SOL     OW 1507   0.317   0.547   1.280
  204SOL    HW1 1508   0.355   0.488   1.352
  204SOL    HW2 1509   0.357   0.521   1.192
  205SOL     OW 1510   0.812   1.586   0.687
  205SOL    HW1 1511   0.844   1.596   0.593
  205SOL    HW2 1512   0.733   1.524   0.689
  206SOL     OW 1513   1.424   0.214   1.112
  206SOL    HW1 1514   1.476   0.149   1.167
  206SOL    HW2 1515   1.375   0.277   1.173
  207SOL     OW 1516   1.001   0.034   1.154
  207SOL    HW1 1517   0.938  -0.038   1.123
  207SOL    HW2 1518   1.094  -0.002   1.154
  208SOL     OW 1519   0.770   1.330   0.301
  208SOL    HW1 1520   0.724   1.243   0.318
  208SOL    HW2 1521   0.861   1.327   0.342
  209SOL     OW 1522   0.618   1.567   1.284
  209SOL    HW1 1523   0.613   1.649   1.341
  209SOL    HW2 1524   0.707   1.564   1.239
  210SOL     OW 1525   1.352   0.052   0.168
  210SOL    HW1 1526   1.387   0.011   0.084
  210SOL    HW2 1527   1.262   0.014   0.188
  211SOL     OW 1528   1.300   0.453   0.691
  211SOL    HW1 1529   1.241   0.533   0.695
  211SOL    HW2 1530   1.315   0.418   0.784
  212SOL     OW 1531   1.593   0.221   0.882
  212SOL    HW1 1532   1.509   0.220   0.936
  212SOL    HW2 1533   1.595   0.304   0.826
  213SOL     OW 1534   0.039   1.077   0.300
  213SOL    HW1 1535   0.138   1.066   0.291
  213SOL    HW2 1536  -0.001   0.991   0.332
  214SOL     OW 1537   0.875   1.646   0.337
  214SOL    HW1 1538   0.798   1.611   0.283
  214SOL    HW2 1539   0.843   1.717   0.399
  215SOL     OW 1540   0.230   0.628   1.975
  215SOL    HW1 1541   0.137   0.626   2.012
  215SOL    HW2 1542   0.231   0.589   1.883
  216SOL     OW 1543   0.225   0.275   2.858
  216SOL    HW1 1544   0.260   0.258   2.950
  216SOL    HW2 1545   0.137   0.230   2.846
  217SOL     OW 1546   0.019   0.368   2.509
  217SOL    HW1 1547  -0.063   0.411   2.548
  217SOL    HW2 1548  -0.009   0.295   2.446
  218SOL     OW 1549   0.569   1.275   3.027
  218SOL    HW1 1550   0.476   1.268   2.990
  218SOL    HW2 1551   0.580   1.364   3.071
  219SOL     OW 1552   1.555   1.511   2.565
  219SOL    HW1 1553   1.498   1.495   2.646
  219SOL    HW2 1554   1.496   1.521   2.485
  220SOL     OW 1555   1.135   0.703   2.579
  220SOL    HW1 1556   1.192   0.781   2.554
  220SOL    HW2 1557   1.075   0.729   2.655
  221SOL     OW 1558   1.755   0.607   2.093
  221SOL    HW1 1559   1.743   0.594   1.994
  221SOL    HW2 1560   1.725   0.526   2.142
  222SOL     OW 1561   0.768   1.144   2.885
  222SOL    HW1 1562   0.690   1.161   2.945
  222SOL    HW2 1563   0.802   1.231   2.849
  223SOL     OW 1564   0.850   0.798   3.685
  223SOL    HW1 1565   0.846   0.874   3.750
  223SOL    HW2 1566   0.872   0.834   3.594
  224SOL     OW 1567   0.685   1.012   2.527
  224SOL    HW1 1568   0.754   0.996   2.597
  224SOL    HW2 1569   0.612   1.069   2.565
  225SOL     OW 1570   0.686   1.161   3.665
  225SOL    HW1 1571   0.746   1.240   3.679
  225SOL    HW2 1572   0.600   1.192   3.624
  226SOL     OW 1573   0.335   1.435   2.923
  226SOL    HW1 1574   0.257   1.404   2.870
  226SOL    HW2 1575   0.393   1.493   2.866
  227SOL     OW 1576   1.460   1.505   3.201
  227SOL    HW1 1577   1.484   1.599   3.227
  227SOL    HW2 1578   1.444   1.451   3.283
  228SOL     OW 1579   0.438   0.392   3.361
  228SOL    HW1 1580   0.520   0.336   3.370
  228SOL    HW2 1581   0.357   0.334   3.365
  229SOL     OW 1582   1.603   0.447   2.599
  229SOL    HW1 1583   1.529   0.493   2.549
  229SOL    HW2 1584   1.654   0.515   2.652
  230SOL     OW 1585   0.231   1.713   2.345
  230SOL    HW1 1586   0.265   1.790   2.399
  230SOL    HW2 1587   0.275   1.713   2.255
  231SOL     OW 1588   1.127   1.341   3.552
  231SOL    HW1 1589   1.174   1.341   3.640
  231SOL    HW2 1590   1.079   1.254   3.541
  232SOL     OW 1591   0.230   1.434   2.400
  232SOL    HW1 1592   0.204   1.530   2.400
  232SOL    HW2 1593   0.159   1.380   2.445
  233SOL     OW 1594   0.240   1.091   2.748
  233SOL    HW1 1595   0.254   1.007   2.800
  233SOL    HW2 1596   0.185   1.155   2.803
  234SOL     OW 1597   0.620   1.786   3.301
  234SOL    HW1 1598   0.528   1.769   3.336
  234SOL    HW2 1599   0.648   1.878   3.327
  235SOL     OW 1600   0.606   0.964   1.985
  235SOL    HW1 1601   0.613   1.048   1.931
  235SOL    HW2 1602   0.652   0.977   2.073
  236SOL     OW 1603   1.594   0.114   3.342
  236SOL    HW1 1604   1.576   0.181   3.270
  236SOL    HW2 1605   1.591   0.160   3.431
  237SOL     OW 1606   0.122   0.643   2.425
  237SOL    HW1 1607   0.077   0.555   2.442
  237SOL    HW2 1608   0.121   0.697   2.509
  238SOL     OW 1609   1.842   1.767   2.221
  238SOL    HW1 1610   1.896   1.738   2.301
  238SOL    HW2 1611   1.872   1.857   2.192
  239SOL     OW 1612   0.027   1.596   1.979
  239SOL    HW1 1613   0.008   1.500   2.000
  239SOL    HW2 1614  -0.006   1.654   2.054
  240SOL     OW 1615   1.689   0.922   2.474
  240SOL    HW1 1616   1.784   0.893   2.482
  240SOL    HW2 1617   1.681   0.987   2.399
  241SOL     OW 1618   1.641   1.108   2.294
  241SOL    HW1 1619   1.727   1.110   2.242
  241SOL    HW2 1620   1.655   1.155   2.382
  242SOL     OW 1621   0.113   0.737   3.459
  242SOL    HW1 1622   0.201   0.724   3.504
  242SOL    HW2 1623   0.100   0.834   3.437
  243SOL     OW 1624   0.613   1.365   2.588
  243SOL    HW1 1625   0.564   1.278   2.597
  243SOL    HW2 1626   0.590   1.408   2.501
  244SOL     OW 1627   1.293   1.228   3.285
  244SOL    HW1 1628   1.330   1.155   3.227
  244SOL    HW2 1629   1.345   1.233   3.370
  245SOL     OW 1630   0.809   0.004   2.364
  245SOL    HW1 1631   0.849   0.095   2.355
  245SOL    HW2 1632   0.709   0.012   2.370
  246SOL     OW 1633   0.197   0.976   3.126
  246SOL    HW1 1634   0.286   0.931   3.112
  246SOL    HW2 1635   0.124   0.911   3.107
  247SOL     OW 1636   1.525   0.999   2.052
  247SOL    HW1 1637   1.462   0.923   2.065
  247SOL    HW2 1638   1.573   1.017   2.138
  248SOL     OW 1639   1.187   1.792   3.478
  248SOL    HW1 1640   1.211   1.852   3.402
  248SOL    HW2 1641   1.194   1.697   3.448
  249SOL     OW 1642   0.317   0.251   3.663
  249SOL    HW1 1643   0.388   0.322   3.669
  249SOL    HW2 1644   0.229   0.290   3.691
  250SOL     OW 1645   1.466   1.417   2.815
  250SOL    HW1 1646   1.407   1.423   2.895
  250SOL    HW2 1647   1.451   1.329   2.769
  251SOL     OW 1648   1.667   1.714   2.434
  251SOL    HW1 1649   1.626   1.691   2.346
  251SOL    HW2 1650   1.649   1.640   2.499
  252SOL     OW 1651   0.598   0.729   2.132
  252SOL    HW1 1652   0.622   0.798   2.064
  252SOL    HW2 1653   0.520   0.762   2.186
  253SOL     OW 1654   1.281   0.345   2.806
  253SOL    HW1 1655   1.195   0.295   2.793
  253SOL    HW2 1656   1.343   0.291   2.862
  254SOL     OW 1657   1.576   1.662   2.169
  254SOL    HW1 1658   1.665   1.708   2.172
  254SOL    HW2 1659   1.555   1.638   2.074
  255SOL     OW 1660   0.807   0.605   3.327
  255SOL    HW1 1661   0.760   0.602   3.416
  255SOL    HW2 1662   0.756   0.550   3.261
  256SOL     OW 1663   1.394   0.469   3.536
  256SOL    HW1 1664   1.374   0.512   3.624
  256SOL    HW2 1665   1.472   0.407   3.545
  257SOL     OW 1666   0.973   0.890   3.434
  257SOL    HW1 1667   1.019   0.806   3.405
  257SOL    HW2 1668   0.917   0.924   3.359
  258SOL     OW 1669   0.991   0.410   3.104
  258SOL    HW1 1670   0.914   0.444   3.158
  258SOL    HW2 1671   0.957   0.359   3.025
  259SOL     OW 1672   1.041   0.701   2.291
  259SOL    HW1 1673   1.067   0.697   2.387
  259SOL    HW2 1674   0.956   0.650   2.277
  260SOL     OW 1675   0.076   0.811   2.651
  260SOL    HW1 1676   0.175   0.799   2.660
  260SOL    HW2 1677   0.052   0.906   2.672
  261SOL     OW 1678   0.130   1.821   3.433
  261SOL    HW1 1679   0.120   1.806   3.532
  261SOL    HW2 1680   0.044   1.857   3.397
  262SOL     OW 1681   0.865   0.348   2.057
  262SOL    HW1 1682   0.924   0.411   2.008
  262SOL    HW2 1683   0.884   0.254   2.028
  263SOL     OW 1684   1.719   0.585   3.693
  263SOL    HW1 1685   1.693   0.674   3.657
  263SOL    HW2 1686   1.717   0.517   3.620
  264SOL     OW 1687   1.362   1.144   2.407
  264SOL    HW1 1688   1.445   1.115   2.359
  264SOL    HW2 1689   1.313   1.211   2.351
  265SOL     OW 1690   0.550   0.196   2.747
  265SOL    HW1 1691   0.545   0.191   2.847
  265SOL    HW2 1692   0.552   0.292   2.718
  266SOL     OW 1693   1.008   1.456   2.339
  266SOL    HW1 1694   0.962   1.528   2.287
  266SOL    HW2 1695   1.004   1.476   2.437
  267SOL     OW 1696   0.351   1.801   2.715
  267SOL    HW1 1697   0.401   1.715   2.721
  267SOL    HW2 1698   0.416   1.878   2.712
  268SOL     OW 1699   1.795   1.066   2.735
  268SOL    HW1 1700   1.733   1.051   2.659
  268SOL    HW2 1701   1.743   1.077   2.820
  269SOL     OW 1702   1.227   1.550   3.368
  269SOL    HW1 1703   1.233   1.473   3.432
  269SOL    HW2 1704   1.175   1.524   3.288
  270SOL     OW 1705   0.321   0.943   2.104
  270SOL    HW1 1706   0.403   0.982   2.062
  270SOL    HW2 1707   0.294   0.861   2.055
  271SOL     OW 1708   1.458   0.735   2.590
  271SOL    HW1 1709   1.453   0.670   2.665
  271SOL    HW2 1710   1.538   0.794   2.603
  272SOL     OW 1711   0.461   1.266   3.589
  272SOL    HW1 1712   0.411   1.267   3.503
  272SOL    HW2 1713   0.398   1.248   3.665
  273SOL     OW 1714   1.111   1.776   2.099
  273SOL    HW1 1715   1.051   1.714   2.149
  273SOL    HW2 1716   1.142   1.732   2.014
  274SOL     OW 1717   0.202   0.285   3.360
  274SOL    HW1 1718   0.122   0.345   3.347
  274SOL    HW2 1719   0.192   0.236   3.446
  275SOL     OW 1720   1.632   1.377   1.943
  275SOL    HW1 1721   1.600   1.471   1.933
  275SOL    HW2 1722   1.556   1.314   1.931
  276SOL     OW 1723   0.464   1.743   2.185
  276SOL    HW1 1724   0.497   1.782   2.271
  276SOL    HW2 1725   0.540   1.736   2.120
  277SOL     OW 1726   1.400   0.107   2.288
  277SOL    HW1 1727   1.376   0.070   2.198
  277SOL    HW2 1728   1.499   0.123   2.292
  278SOL     OW 1729   0.249   1.785   3.103
  278SOL    HW1 1730   0.306   1.720   3.153
  278SOL    HW2 1731   0.233   1.752   3.010
  279SOL     OW 1732   0.940   1.698   2.766
  279SOL    HW1 1733   1.020   1.641   2.787
  279SOL    HW2 1734   0.891   1.658   2.689
  280SOL     OW 1735   0.382   0.700   2.342
  280SOL    HW1 1736   0.427   0.610   2.339
  280SOL    HW2 1737   0.288   0.689   2.375
  281SOL     OW 1738   1.547   0.222   3.591
  281SOL    HW1 1739   1.542   0.259   3.683
  281SOL    HW2 1740   1.475   0.153   3.579
  282SOL     OW 1741   0.614   0.122   1.979
  282SOL    HW1 1742   0.712   0.100   1.986
  282SOL    HW2 1743   0.583   0.105   1.886
  283SOL     OW 1744   0.781   0.264   3.611
  283SOL    HW1 1745   0.848   0.203   3.654
  283SOL    HW2 1746   0.708   0.283   3.676
  284SOL     OW 1747   0.888   1.514   3.057
  284SOL    HW1 1748   0.865   1.489   2.963
  284SOL    HW2 1749   0.949   1.445   3.096
  285SOL     OW 1750   1.351   0.590   3.295
  285SOL    HW1 1751   1.379   0.547   3.380
  285SOL    HW2 1752   1.376   0.686   3.296
  286SOL     OW 1753   0.803   1.402   2.786
  286SOL    HW1 1754   0.893   1.416   2.744
  286SOL    HW2 1755   0.732   1.404   2.715
  287SOL     OW 1756   0.922   0.503   2.761
  287SOL    HW1 1757   0.897   0.494   2.665
  287SOL    HW2 1758   0.970   0.421   2.792
  288SOL     OW 1759   0.539   0.064   2.374
  288SOL    HW1 1760   0.458   0.065   2.432
  288SOL    HW2 1761   0.542   0.147   2.319
  289SOL     OW 1762   1.434   1.188   1.903
  289SOL    HW1 1763   1.466   1.112   1.960
  289SOL    HW2 1764   1.342   1.215   1.933
  290SOL     OW 1765   0.297   0.035   2.033
  290SOL    HW1 1766   0.346   0.119   2.012
  290SOL    HW2 1767   0.359  -0.030   2.078
  291SOL     OW 1768   0.935   0.236   2.342
  291SOL    HW1 1769   0.887   0.277   2.264
  291SOL    HW2 1770   1.034   0.234   2.323
  292SOL     OW 1771   1.076   0.683   3.326
  292SOL    HW1 1772   0.996   0.622   3.329
  292SOL    HW2 1773   1.157   0.630   3.302
  293SOL     OW 1774   1.227   1.570   2.655
  293SOL    HW1 1775   1.248   1.644   2.590
  293SOL    HW2 1776   1.295   1.570   2.728
  294SOL     OW 1777   0.459   1.152   2.603
  294SOL    HW1 1778   0.388   1.125   2.668
  294SOL    HW2 1779   0.433   1.124   2.510
  295SOL     OW 1780   1.271   1.797   2.453
  295SOL    HW1 1781   1.315   1.861   2.389
  295SOL    HW2 1782   1.221   1.849   2.523
  296SOL     OW 1783   1.032   0.549   1.878
  296SOL    HW1 1784   0.991   0.631   1.839
  296SOL    HW2 1785   1.096   0.575   1.951
  297SOL     OW 1786   0.078   0.556   3.248
  297SOL    HW1 1787   0.170   0.555   3.207
  297SOL    HW2 1788   0.072   0.630   3.315
  298SOL     OW 1789   0.561   0.222   3.009
  298SOL    HW1 1790   0.599   0.138   3.046
  298SOL    HW2 1791   0.473   0.241   3.053
  299SOL     OW 1792   0.866   0.454   2.504
  299SOL    HW1 1793   0.834   0.526   2.442
  299SOL    HW2 1794   0.890   0.373   2.451
  300SOL     OW 1795   1.017   0.039   2.615
  300SOL    HW1 1796   0.945   0.044   2.546
  300SOL    HW2 1797   0.993  -0.030   2.684
  301SOL     OW 1798   1.429   1.173   2.729
  301SOL    HW1 1799   1.374   1.089   2.722
  301SOL    HW2 1800   1.455   1.202   2.637
  302SOL     OW 1801   1.466   0.590   2.854
  302SOL    HW1 1802   1.436   0.495   2.861
  302SOL    HW2 1803   1.539   0.606   2.920
  303SOL     OW 1804   1.857   0.833   2.239
  303SOL    HW1 1805   1.899   0.769   2.303
  303SOL    HW2 1806   1.819   0.782   2.161
  304SOL     OW 1807   0.488   1.385   2.036
  304SOL    HW1 1808   0.401   1.370   2.083
  304SOL    HW2 1809   0.471   1.411   1.941
  305SOL     OW 1810   1.664   1.280   2.519
  305SOL    HW1 1811   1.763   1.288   2.533
  305SOL    HW2 1812   1.619   1.364   2.550
  306SOL     OW 1813   1.390   0.575   1.940
  306SOL    HW1 1814   1.336   0.554   2.021
  306SOL    HW2 1815   1.481   0.534   1.949
  307SOL     OW 1816   0.527   0.256   2.190
  307SOL    HW1 1817   0.554   0.197   2.115
  307SOL    HW2 1818   0.527   0.351   2.159
  308SOL     OW 1819   1.754   1.223   3.450
  308SOL    HW1 1820   1.845   1.184   3.437
  308SOL    HW2 1821   1.762   1.319   3.474
  309SOL     OW 1822   1.064   1.347   3.202
  309SOL    HW1 1823   0.984   1.324   3.257
  309SOL    HW2 1824   1.147   1.321   3.251
  310SOL     OW 1825   1.592   1.629   3.487
  310SOL    HW1 1826   1.619   1.663   3.397
  310SOL    HW2 1827   1.671   1.591   3.533
  311SOL     OW 1828   1.111   1.195   2.962
  311SOL    HW1 1829   1.071   1.239   3.043
  311SOL    HW2 1830   1.070   1.232   2.879
  312SOL     OW 1831   1.638   1.099   2.941
  312SOL    HW1 1832   1.643   1.180   3.000
  312SOL    HW2 1833   1.552   1.101   2.890
  313SOL     OW 1834   0.915   0.089   3.264
  313SOL    HW1 1835   0.940   0.069   3.169
  313SOL    HW2 1836   0.987   0.145   3.306
  314SOL     OW 1837   0.980   1.116   3.581
  314SOL    HW1 1838   0.881   1.122   3.591
  314SOL    HW2 1839   1.003   1.036   3.525
  315SOL     OW 1840   0.705   1.050   2.230
  315SOL    HW1 1841   0.691   1.057   2.329
  315SOL    HW2 1842   0.789   0.999   2.212
  316SOL     OW 1843   0.410   0.813   3.113
  316SOL    HW1 1844   0.496   0.825   3.163
  316SOL    HW2 1845   0.368   0.726   3.140
  317SOL     OW 1846   1.274   0.386   3.124
  317SOL    HW1 1847   1.295   0.460   3.188
  317SOL    HW2 1848   1.185   0.403   3.081
  318SOL     OW 1849   0.064   1.564   3.193
  318SOL    HW1 1850   0.018   1.646   3.159
  318SOL    HW2 1851   0.162   1.583   3.202
  319SOL     OW 1852   0.367   1.100   2.363
  319SOL    HW1 1853   0.360   1.183   2.307
  319SOL    HW2 1854   0.371   1.020   2.303
  320SOL     OW 1855   0.566   0.537   2.727
  320SOL    HW1 1856   0.578   0.603   2.653
  320SOL    HW2 1857   0.612   0.571   2.810
  321SOL     OW 1858   1.252   1.348   2.250
  321SOL    HW1 1859   1.302   1.425   2.290
  321SOL    HW2 1860   1.157   1.350   2.282
  322SOL     OW 1861   1.272   1.445   3.004
  322SOL    HW1 1862   1.319   1.458   3.091
  322SOL    HW2 1863   1.206   1.371   3.013
  323SOL     OW 1864   1.582   0.639   2.334
  323SOL    HW1 1865   1.551   0.700   2.407
  323SOL    HW2 1866   1.632   0.691   2.265
  324SOL     OW 1867   0.354   1.510   3.191
  324SOL    HW1 1868   0.333   1.466   3.104
  324SOL    HW2 1869   0.451   1.536   3.194
  325SOL     OW 1870   0.402   0.751   3.460
  325SOL    HW1 1871   0.470   0.806   3.413
  325SOL    HW2 1872   0.442   0.663   3.487
  326SOL     OW 1873   1.587   0.779   3.532
  326SOL    HW1 1874   1.495   0.817   3.527
  326SOL    HW2 1875   1.647   0.826   3.467
  327SOL     OW 1876   1.013   0.105   3.632
  327SOL    HW1 1877   1.019   0.190   3.580
  327SOL    HW2 1878   1.045   0.029   3.575
  328SOL     OW 1879   0.504   0.050   3.602
  328SOL    HW1 1880   0.462  -0.007   3.532
  328SOL    HW2 1881   0.438   0.119   3.634
  329SOL     OW 1882   0.573   0.870   2.891
  329SOL    HW1 1883   0.617   0.959   2.882
  329SOL    HW2 1884   0.510   0.870   2.968
  330SOL     OW 1885   1.360   0.862   2.907
  330SOL    HW1 1886   1.285   0.862   2.841
  330SOL    HW2 1887   1.397   0.770   2.916
  331SOL     OW 1888   1.209   0.525   2.137
  331SOL    HW1 1889   1.222   0.441   2.191
  331SOL    HW2 1890   1.180   0.599   2.197
  332SOL     OW 1891   0.307   0.213   3.093
  332SOL    HW1 1892   0.284   0.250   3.183
  332SOL    HW2 1893   0.277   0.118   3.087
  333SOL     OW 1894   0.037   1.310   3.144
  333SOL    HW1 1895   0.090   1.261   3.212
  333SOL    HW2 1896   0.059   1.408   3.149
  334SOL     OW 1897   0.732   0.634   2.926
  334SOL    HW1 1898   0.791   0.608   2.850
  334SOL    HW2 1899   0.704   0.730   2.915
  335SOL     OW 1900   1.728   0.935   3.716
  335SOL    HW1 1901   1.682   0.928   3.627
  335SOL    HW2 1902   1.666   0.979   3.782
  336SOL     OW 1903   0.307   0.063   2.480
  336SOL    HW1 1904   0.296   0.157   2.513
  336SOL    HW2 1905   0.302   0.000   2.557
  337SOL     OW 1906   1.622   0.367   2.236
  337SOL    HW1 1907   1.624   0.291   2.300
  337SOL    HW2 1908   1.574   0.444   2.276
  338SOL     OW 1909   1.023   0.766   2.828
  338SOL    HW1 1910   1.038   0.787   2.924
  338SOL    HW2 1911   0.993   0.671   2.819
  339SOL     OW 1912   0.980   1.573   3.562
  339SOL    HW1 1913   0.960   1.617   3.474
  339SOL    HW2 1914   1.019   1.482   3.546
  340SOL     OW 1915   1.859   1.518   3.467
  340SOL    HW1 1916   1.873   1.545   3.372
  340SOL    HW2 1917   1.942   1.540   3.520
  341SOL     OW 1918   0.350   0.898   3.666
  341SOL    HW1 1919   0.426   0.942   3.714
  341SOL    HW2 1920   0.385   0.851   3.584
  342SOL     OW 1921   1.540   0.274   1.987
  342SOL    HW1 1922   1.479   0.199   2.010
  342SOL    HW2 1923   1.562   0.326   2.070
  343SOL     OW 1924   1.303   0.838   1.904
  343SOL    HW1 1925   1.337   0.745   1.919
  343SOL    HW2 1926   1.321   0.865   1.809
  344SOL     OW 1927   1.068   1.333   2.711
  344SOL    HW1 1928   1.075   1.249   2.656
  344SOL    HW2 1929   1.130   1.402   2.675
  345SOL     OW 1930   0.319   0.810   2.811
  345SOL    HW1 1931   0.412   0.846   2.816
  345SOL    HW2 1932   0.313   0.725   2.863
  346SOL     OW 1933   0.339   0.509   2.868
  346SOL    HW1 1934   0.287   0.426   2.851
  346SOL    HW2 1935   0.416   0.514   2.804
  347SOL     OW 1936   1.138   0.380   3.540
  347SOL    HW1 1937   1.093   0.443   3.604
  347SOL    HW2 1938   1.231   0.411   3.523
  348SOL     OW 1939   1.160   0.207   3.339
  348SOL    HW1 1940   1.160   0.271   3.416
  348SOL    HW2 1941   1.188   0.255   3.256
  349SOL     OW 1942   0.008   1.326   2.062
  349SOL    HW1 1943  -0.085   1.347   2.031
  349SOL    HW2 1944   0.018   1.227   2.075
  350SOL     OW 1945   0.088   1.801   2.789
  350SOL    HW1 1946   0.046   1.715   2.762
  350SOL    HW2 1947   0.182   1.804   2.755
  351SOL     OW 1948   0.504   1.568   2.772
  351SOL    HW1 1949   0.570   1.642   2.781
  351SOL    HW2 1950   0.548   1.489   2.730
  352SOL     OW 1951   1.002   0.796   3.100
  352SOL    HW1 1952   1.043   0.764   3.186
  352SOL    HW2 1953   0.906   0.769   3.097
  353SOL     OW 1954   0.040   0.544   2.976
  353SOL    HW1 1955   0.125   0.511   2.935
  353SOL    HW2 1956   0.053   0.559   3.074
  354SOL     OW 1957   0.189   0.520   3.584
  354SOL    HW1 1958   0.248   0.480   3.514
  354SOL    HW2 1959   0.131   0.591   3.543
  355SOL     OW 1960   1.369   0.950   3.522
  355SOL    HW1 1961   1.408   1.039   3.542
  355SOL    HW2 1962   1.379   0.930   3.425
  356SOL     OW 1963   0.815   0.572   2.187
  356SOL    HW1 1964   0.822   0.483   2.141
  356SOL    HW2 1965   0.721   0.606   2.179
  357SOL     OW 1966   1.657   0.604   3.068
  357SOL    HW1 1967   1.619   0.535   3.130
  357SOL    HW2 1968   1.739   0.568   3.024
  358SOL     OW 1969   0.252   1.564   3.606
  358SOL    HW1 1970   0.222   1.621   3.682
  358SOL    HW2 1971   0.245   1.467   3.632
  359SOL     OW 1972   0.671   0.464   3.131
  359SOL    HW1 1973   0.637   0.375   3.101
  359SOL    HW2 1974   0.697   0.518   3.051
  360SOL     OW 1975   0.930   1.678   3.327
  360SOL    HW1 1976   0.906   1.660   3.232
  360SOL    HW2 1977   0.960   1.772   3.337
  361SOL     OW 1978   0.473   0.500   2.053
  361SOL    HW1 1979   0.534   0.580   2.057
  361SOL    HW2 1980   0.378   0.531   2.060
  362SOL     OW 1981   0.159   1.137   3.328
  362SOL    HW1 1982   0.181   1.076   3.404
  362SOL    HW2 1983   0.169   1.088   3.242
  363SOL     OW 1984   1.347   1.059   3.096
  363SOL    HW1 1985   1.371   0.996   3.022
  363SOL    HW2 1986   1.257   1.099   3.078
  364SOL     OW 1987   1.302   0.855   2.171
  364SOL    HW1 1988   1.216   0.824   2.213
  364SOL    HW2 1989   1.298   0.841   2.072
  365SOL     OW 1990   1.759   1.747   3.016
  365SOL    HW1 1991   1.820   1.777   2.943
  365SOL    HW2 1992   1.721   1.658   2.994
  366SOL     OW 1993   1.252   1.731   2.990
  366SOL    HW1 1994   1.336   1.736   2.936
  366SOL    HW2 1995   1.229   1.635   3.008
  367SOL     OW 1996   0.083   1.258   2.884
  367SOL    HW1 1997   0.078   1.257   2.984
  367SOL    HW2 1998   0.000   1.217   2.846
  368SOL     OW 1999   0.688   1.662   3.578
  368SOL    HW1 2000   0.632   1.743   3.587
  368SOL    HW2 2001   0.740   1.666   3.492
  369SOL     OW 2002   1.726   0.135   2.385
  369SOL    HW1 2003   1.799   0.118   2.318
  369SOL    HW2 2004   1.695   0.048   2.423
  370SOL     OW 2005   1.388   1.573   2.339
  370SOL    HW1 2006   1.455   1.585   2.265
  370SOL    HW2 2007   1.348   1.662   2.362
  371SOL     OW 2008   0.130   1.794   3.713
  371SOL    HW1 2009   0.089   1.720   3.766
  371SOL    HW2 2010   0.194   1.845   3.771
  372SOL     OW 2011   1.280   0.927   2.534
  372SOL    HW1 2012   1.340   0.846   2.536
  372SOL    HW2 2013   1.320   0.996   2.474
  373SOL     OW 2014   0.830   1.273   3.284
  373SOL    HW1 2015   0.825   1.306   3.379
  373SOL    HW2 2016   0.744   1.292   3.238
  374SOL     OW 2017   0.672   1.616   2.016
  374SOL    HW1 2018   0.681   1.626   1.917
  374SOL    HW2 2019   0.632   1.527   2.037
  375SOL     OW 2020   1.650   1.720   3.256
  375SOL    HW1 2021   1.703   1.730   3.172
  375SOL    HW2 2022   1.623   1.810   3.290
  376SOL     OW 2023   1.841   0.175   2.825
  376SOL    HW1 2024   1.880   0.090   2.789
  376SOL    HW2 2025   1.743   0.177   2.806
  377SOL     OW 2026   0.263   0.326   2.582
  377SOL    HW1 2027   0.184   0.377   2.548
  377SOL    HW2 2028   0.254   0.311   2.680
  378SOL     OW 2029   1.194   1.612   1.893
  378SOL    HW1 2030   1.200   1.519   1.930
  378SOL    HW2 2031   1.135   1.612   1.813
  379SOL     OW 2032   0.822   1.002   3.234
  379SOL    HW1 2033   0.862   1.001   3.142
  379SOL    HW2 2034   0.832   1.094   3.274
  380SOL     OW 2035   0.916   0.910   2.153
  380SOL    HW1 2036   0.979   0.948   2.085
  380SOL    HW2 2037   0.956   0.827   2.192
  381SOL     OW 2038   1.504   1.607   1.906
  381SOL    HW1 2039   1.412   1.644   1.913
  381SOL    HW2 2040   1.542   1.627   1.816
  382SOL     OW 2041   0.372   1.288   3.352
  382SOL    HW1 2042   0.359   1.381   3.318
  382SOL    HW2 2043   0.288   1.236   3.339
  383SOL     OW 2044   1.614   1.292   3.151
  383SOL    HW1 2045   1.674   1.295   3.231
  383SOL    HW2 2046   1.539   1.356   3.164
  384SOL     OW 2047   1.039   1.098   2.558
  384SOL    HW1 2048   0.969   1.051   2.612
  384SOL    HW2 2049   1.098   1.030   2.515
  385SOL     OW 2050   1.014   0.236   2.833
  385SOL    HW1 2051   1.006   0.200   2.740
  385SOL    HW2 2052   1.012   0.160   2.898
  386SOL     OW 2053   0.590   1.487   2.353
  386SOL    HW1 2054   0.632   1.429   2.283
  386SOL    HW2 2055   0.546   1.566   2.309
  387SOL     OW 2056   1.709   0.385   3.243
  387SOL    HW1 2057   1.782   0.454   3.247
  387SOL    HW2 2058   1.737   0.310   3.184
  388SOL     OW 2059   0.255   1.348   2.152
  388SOL    HW1 2060   0.159   1.349   2.125
  388SOL    HW2 2061   0.267   1.401   2.236
  389SOL     OW 2062   0.105   1.013   3.588
  389SOL    HW1 2063   0.028   0.980   3.642
  389SOL    HW2 2064   0.190   0.983   3.630
  390SOL     OW 2065   0.672   0.203   3.351
  390SOL    HW1 2066   0.762   0.187   3.311
  390SOL    HW2 2067   0.680   0.208   3.450
  391SOL     OW 2068   0.075   0.345   1.895
  391SOL    HW1 2069  -0.017   0.317   1.866
  391SOL    HW2 2070   0.106   0.422   1.839
  392SOL     OW 2071   1.440   0.856   3.260
  392SOL    HW1 2072   1.383   0.908   3.197
  392SOL    HW2 2073   1.536   0.868   3.236
  393SOL     OW 2074   0.072   0.166   2.180
  393SOL    HW1 2075   0.055   0.249   2.126
  393SOL    HW2 2076   0.162   0.129   2.158
  394SOL     OW 2077   1.183   1.335   1.981
  394SOL    HW1 2078   1.084   1.324   1.983
  394SOL    HW2 2079   1.217   1.350   2.074
  395SOL     OW 2080   0.613   0.842   3.293
  395SOL    HW1 2081   0.669   0.923   3.276
  395SOL    HW2 2082   0.672   0.762   3.296
  396SOL     OW 2083   1.493   1.767   2.821
  396SOL    HW1 2084   1.526   1.831   2.752
  396SOL    HW2 2085   1.559   1.761   2.896
  397SOL     OW 2086   0.716   0.565   3.570
  397SOL    HW1 2087   0.735   0.630   3.644
  397SOL    HW2 2088   0.776   0.485   3.579
  398SOL     OW 2089   1.450   1.220   3.495
  398SOL    HW1 2090   1.441   1.210   3.594
  398SOL    HW2 2091   1.546   1.213   3.469
  399SOL     OW 2092   0.390   1.741   3.422
  399SOL    HW1 2093   0.299   1.782   3.420
  399SOL    HW2 2094   0.383   1.647   3.454
  400SOL     OW 2095   1.674   0.883   3.116
  400SOL    HW1 2096   1.647   0.794   3.079
  400SOL    HW2 2097   1.675   0.951   3.043
  401SOL     OW 2098   1.225   0.325   2.311
  401SOL    HW1 2099   1.290   0.251   2.300
  401SOL    HW2 2100   1.245   0.375   2.395
  402SOL     OW 2101   0.594   0.745   2.514
  402SOL    HW1 2102   0.644   0.830   2.495
  402SOL    HW2 2103   0.506   0.747   2.466
  403SOL     OW 2104   1.777   0.342   3.504
  403SOL    HW1 2105   1.760   0.373   3.410
  403SOL    HW2 2106   1.693   0.305   3.542
  404SOL     OW 2107   1.730   0.934   3.379
  404SOL    HW1 2108   1.768   1.025   3.394
  404SOL    HW2 2109   1.722   0.917   3.280
  405SOL     OW 2110   0.859   1.374   1.878
  405SOL    HW1 2111   0.813   1.389   1.966
  405SOL    HW2 2112   0.903   1.459   1.848
  406SOL     OW 2113   0.661   1.790   2.815
  406SOL    HW1 2114   0.615   1.878   2.802
  406SOL    HW2 2115   0.760   1.802   2.808
  407SOL     OW 2116   0.859   0.956   2.723
  407SOL    HW1 2117   0.913   0.887   2.771
  407SOL    HW2 2118   0.827   1.025   2.789
  408SOL     OW 2119   1.083   0.984   1.949
  408SOL    HW1 2120   1.060   1.037   1.867
  408SOL    HW2 2121   1.164   0.928   1.930
  409SOL     OW 2122   1.861   1.569   2.713
  409SOL    HW1 2123   1.790   1.557   2.643
  409SOL    HW2 2124   1.862   1.490   2.773
  410SOL     OW 2125   0.221   1.314   3.706
  410SOL    HW1 2126   0.156   1.241   3.685
  410SOL    HW2 2127   0.225   1.328   3.804
  411SOL     OW 2128   0.079   1.240   2.515
  411SOL    HW1 2129   0.078   1.193   2.603
  411SOL    HW2 2130   0.161   1.212   2.464
  412SOL     OW 2131   0.672   1.391   3.486
  412SOL    HW1 2132   0.594   1.341   3.524
  412SOL    HW2 2133   0.669   1.486   3.517
  413SOL     OW 2134   1.824   0.192   3.089
  413SOL    HW1 2135   1.820   0.102   3.133
  413SOL    HW2 2136   1.827   0.181   2.990
  414SOL     OW 2137   0.428   0.424   2.382
  414SOL    HW1 2138   0.458   0.352   2.320
  414SOL    HW2 2139   0.389   0.384   2.465
  415SOL     OW 2140   1.705   1.487   2.966
  415SOL    HW1 2141   1.612   1.462   2.939
  415SOL    HW2 2142   1.731   1.437   3.048
  416SOL     OW 2143   0.317   0.547   3.142
  416SOL    HW1 2144   0.355   0.488   3.214
  416SOL    HW2 2145   0.357   0.521   3.054
  417SOL     OW 2146   0.812   1.586   2.549
  417SOL    HW1 2147   0.844   1.596   2.455
  417SOL    HW2 2148   0.733   1.524   2.551
  418SOL     OW 2149   1.424   0.214   2.974
  418SOL    HW1 2150   1.476   0.149   3.029
  418SOL    HW2 2151   1.375   0.277   3.035
  419SOL     OW 2152   1.001   0.034   3.016
  419SOL    HW1 2153   0.938  -0.038   2.985
  419SOL    HW2 2154   1.094  -0.002   3.016
  420SOL     OW 2155   0.770   1.330   2.163
  420SOL    HW1 2156   0.724   1.243   2.180
  420SOL    HW2 2157   0.861   1.327   2.204
  421SOL     OW 2158   0.618   1.567   3.146
  421SOL    HW1 2159   0.613   1.649   3.203
  421SOL    HW2 2160   0.707   1.564   3.101
  422SOL     OW 2161   1.352   0.052   2.030
  422SOL    HW1 2162   1.387   0.011   1.946
  422SOL    HW2 2163   1.262   0.014   2.050
  423SOL     OW 2164   1.300   0.453   2.553
  423SOL    HW1 2165   1.241   0.533   2.557
  423SOL    HW2 2166   1.315   0.418   2.646
  424SOL     OW 2167   1.593   0.221   2.744
  424SOL    HW1 2168   1.509   0.220   2.798
  424SOL    HW2 2169   1.595   0.304   2.688
  425SOL     OW 2170   0.039   1.077   2.162
  425SOL    HW1 2171   0.138   1.066   2.153
  425SOL    HW2 2172  -0.001   0.991   2.194
  426SOL     OW 2173   0.875   1.646   2.199
  426SOL    HW1 2174   0.798   1.611   2.145
  426SOL    HW2 2175   0.843   1.717   2.261
  427SOL     OW 2176   0.230   0.628   3.837
  427SOL    HW1 2177   0.137   0.626   3.874
  427SOL    HW2 2178   0.231   0.589   3.745
  428SOL     OW 2179   0.225   0.275   4.720
  428SOL    HW1 2180   0.260   0.258   4.812
  428SOL    HW2 2181   0.137   0.230   4.708
  429SOL     OW 2182   0.019   0.368   4.371
  429SOL    HW1 2183  -0.063   0.411   4.410
  429SOL    HW2 2184  -0.009   0.295   4.308
  430SOL     OW 2185   0.569   1.275   4.889
  430SOL    HW1 2186   0.476   1.268   4.852
  430SOL    HW2 2187   0.580   1.364   4.933
  431SOL     OW 2188   1.555   1.511   4.427
  431SOL    HW1 2189   1.498   1.495   4.508
  431SOL    HW2 2190   1.496   1.521   4.347
  432SOL     OW 2191   1.135   0.703   4.441
  432SOL    HW1 2192   1.192   0.781   4.416
  432SOL    HW2 2193   1.075   0.729   4.517
  433SOL     OW 2194   1.755   0.607   3.955
  433SOL    HW1 2195   1.743   0.594   3.856
  433SOL    HW2 2196   1.725   0.526   4.004
  434SOL     OW 2197   0.768   1.144   4.747
  434SOL    HW1 2198   0.690   1.161   4.807
  434SOL    HW2 2199   0.802   1.231   4.711
  435SOL     OW 2200   0.850   0.798   5.547
  435SOL    HW1 2201   0.846   0.874   5.612
  435SOL    HW2 2202   0.872   0.834   5.456
  436SOL     OW 2203   0.685   1.012   4.389
  436SOL    HW1 2204   0.754   0.996   4.459
  436SOL    HW2 2205   0.612   1.069   4.427
  437SOL     OW 2206   0.686   1.161   5.527
  437SOL    HW1 2207   0.746   1.240   5.541
  437SOL    HW2 2208   0.600   1.192   5.486
  438SOL     OW 2209   0.335   1.435   4.785
  438SOL    HW1 2210   0.257   1.404   4.732
  438SOL    HW2 2211   0.393   1.493   4.728
  439SOL     OW 2212   0.438   0.392   5.223
  439SOL    HW1 2213   0.520   0.336   5.232
  439SOL    HW2 2214   0.357   0.334   5.227
  440SOL     OW 2215   1.603   0.447   4.461
  440SOL    HW1 2216   1.529   0.493   4.411
  440SOL    HW2 2217   1.654   0.515   4.514
  441SOL     OW 2218   0.231   1.713   4.207
  441SOL    HW1 2219   0.265   1.790   4.261
  441SOL    HW2 2220   0.275   1.713   4.117
  442SOL     OW 2221   1.127   1.341   5.414
  442SOL    HW1 2222   1.174   1.341   5.502
  442SOL    HW2 2223   1.079   1.254   5.403
  443SOL     OW 2224   0.230   1.434   4.262
  443SOL    HW1 2225   0.204   1.530   4.262
  443SOL    HW2 2226   0.159   1.380   4.307
  444SOL     OW 2227   0.240   1.091   4.610
  444SOL    HW1 2228   0.254   1.007   4.662
  444SOL    HW2 2229   0.185   1.155   4.665
  445SOL     OW 2230   0.620   1.786   5.163
  445SOL    HW1 2231   0.528   1.769   5.198
  445SOL    HW2 2232   0.648   1.878   5.189
  446SOL     OW 2233   0.606   0.964   3.847
  446SOL    HW1 2234   0.613   1.048   3.793
  446SOL    HW2 2235   0.652   0.977   3.935
  447SOL     OW 2236   1.594   0.114   5.204
  447SOL    HW1 2237   1.576   0.181   5.132
  447SOL    HW2 2238   1.591   0.160   5.293
  448SOL     OW 2239   0.122   0.643   4.287
  448SOL    HW1 2240   0.077   0.555   4.304
  448SOL    HW2 2241   0.121   0.697   4.371
  449SOL     OW 2242   1.842   1.767   4.083
  449SOL    HW1 2243   1.896   1.738   4.163
  449SOL    HW2 2244   1.872   1.857   4.054
  450SOL     OW 2245   0.027   1.596   3.841
  450SOL    HW1 2246   0.008   1.500   3.862
  450SOL    HW2 2247  -0.006   1.654   3.916
  451SOL     OW 2248   1.689   0.922   4.336
  451SOL    HW1 2249   1.784   0.893   4.344
  451SOL    HW2 2250   1.681   0.987   4.261
  452SOL     OW 2251   1.641   1.108   4.156
  452SOL    HW1 2252   1.727   1.110   4.104
  452SOL    HW2 2253   1.655   1.155   4.244
  453SOL     OW 2254   0.113   0.737   5.321
  453SOL    HW1 2255   0.201   0.724   5.366
  453SOL    HW2 2256   0.100   0.834   5.299
  454SOL     OW 2257   0.613   1.365   4.450
  454SOL    HW1 2258   0.564   1.278   4.459
  454SOL    HW2 2259   0.590   1.408   4.363
  455SOL     OW 2260   1.293   1.228   5.147
  455SOL    HW1 2261   1.330   1.155   5.089
  455SOL    HW2 2262   1.345   1.233   5.232
  456SOL     OW 2263   0.809   0.004   4.226
  456SOL    HW1 2264   0.849   0.095   4.217
  456SOL    HW2 2265   0.709   0.012   4.232
  457SOL     OW 2266   0.197   0.976   4.988
  457SOL    HW1 2267   0.286   0.931   4.974
  457SOL    HW2 2268   0.124   0.911   4.969
  458SOL     OW 2269   1.525   0.999   3.914
  458SOL    HW1 2270   1.462   0.923   3.927
  458SOL    HW2 2271   1.573   1.017   4.000
  459SOL     OW 2272   1.187   1.792   5.340
  459SOL    HW1 2273   1.211   1.852   5.264
  459SOL    HW2 2274   1.194   1.697   5.310
  460SOL     OW 2275   0.317   0.251   5.525
  460SOL    HW1 2276   0.388   0.322   5.531
  460SOL    HW2 2277   0.229   0.290   5.553
  461SOL     OW 2278   1.466   1.417   4.677
  461SOL    HW1 2279   1.407   1.423   4.757
  461SOL    HW2 2280   1.451   1.329   4.631
  462SOL     OW 2281   1.667   1.714   4.296
  462SOL    HW1 2282   1.626   1.691   4.208
  462SOL    HW2 2283   1.649   1.640   4.361
  463SOL     OW 2284   0.598   0.729   3.994
  463SOL    HW1 2285   0.622   0.798   3.926
  463SOL    HW2 2286   0.520   0.762   4.048
  464SOL     OW 2287   1.281   0.345   4.668
  464SOL    HW1 2288   1.195   0.295   4.655
  464SOL    HW2 2289   1.343   0.291   4.724
  465SOL     OW 2290   1.576   1.662   4.031
  465SOL    HW1 2291   1.665   1.708   4.034
  465SOL    HW2 2292   1.555   1.638   3.936
  466SOL     OW 2293   0.807   0.605   5.189
  466SOL    HW1 2294   0.760   0.602   5.278
  466SOL    HW2 2295   0.756   0.550   5.123
  467SOL     OW 2296   1.394   0.469   5.398
  467SOL    HW1 2297   1.374   0.512   5.486
  467SOL    HW2 2298   1.472   0.407   5.407
  468SOL     OW 2299   0.973   0.890   5.296
  468SOL    HW1 2300   1.019   0.806   5.267
  468SOL    HW2 2301   0.917   0.924   5.221
  469SOL     OW 2302   0.991   0.410   4.966
  469SOL    HW1 2303   0.914   0.444   5.020
  469SOL    HW2 2304   0.957   0.359   4.887
  470SOL     OW 2305   1.041   0.701   4.153
  470SOL    HW1 2306   1.067   0.697   4.249
  470SOL    HW2 2307   0.956   0.650   4.139
  471SOL     OW 2308   0.076   0.811   4.513
  471SOL    HW1 2309   0.175   0.799   4.522
  471SOL    HW2 2310   0.052   0.906   4.534
  472SOL     OW 2311   0.130   1.821   5.295
  472SOL    HW1 2312   0.120   1.806   5.394
  472SOL    HW2 2313   0.044   1.857   5.259
  473SOL     OW 2314   0.865   0.348   3.919
  473SOL    HW1 2315   0.924   0.411   3.870
  473SOL    HW2 2316   0.884   0.254   3.890
  474SOL     OW 2317   1.719   0.585   5.555
  474SOL    HW1 2318   1.693   0.674   5.519
  474SOL    HW2 2319   1.717   0.517   5.482
  475SOL     OW 2320   1.362   1.144   4.269
  475SOL    HW1 2321   1.445   1.115   4.221
  475SOL    HW2 2322   1.313   1.211   4.213
  476SOL     OW 2323   0.550   0.196   4.609
  476SOL    HW1 2324   0.545   0.191   4.709
  476SOL    HW2 2325   0.552   0.292   4.580
  477SOL     OW 2326   1.008   1.456   4.201
  477SOL    HW1 2327   0.962   1.528   4.149
  477SOL    HW2 2328   1.004   1.476   4.299
  478SOL     OW 2329   0.351   1.801   4.577
  478SOL    HW1 2330   0.401   1.715   4.583
  478SOL    HW2 2331   0.416   1.878   4.574
  479SOL     OW 2332   1.795   1.066   4.597
  479SOL    HW1 2333   1.733   1.051   4.521
  479SOL    HW2 2334   1.743   1.077   4.682
  480SOL     OW 2335   1.227   1.550   5.230
  480SOL    HW1 2336   1.233   1.473   5.294
  480SOL    HW2 2337   1.175   1.524   5.150
  481SOL     OW 2338   0.321   0.943   3.966
  481SOL    HW1 2339   0.403   0.982   3.924
  481SOL    HW2 2340   0.294   0.861   3.917
  482SOL     OW 2341   1.458   0.735   4.452
  482SOL    HW1 2342   1.453   0.670   4.527
  482SOL    HW2 2343   1.538   0.794   4.465
  483SOL     OW 2344   0.461   1.266   5.451
  483SOL    HW1 2345   0.411   1.267   5.365
  483SOL    HW2 2346   0.398   1.248   5.527
  484SOL     OW 2347   1.111   1.776   3.961
  484SOL    HW1 2348   1.051   1.714   4.011
  484SOL    HW2 2349   1.142   1.732   3.876
  485SOL     OW 2350   0.202   0.285   5.222
  485SOL    HW1 2351   0.122   0.345   5.209
  485SOL    HW2 2352   0.192   0.236   5.308
  486SOL     OW 2353   1.632   1.377   3.805
  486SOL    HW1 2354   1.600   1.471   3.795
  486SOL    HW2 2355   1.556   1.314   3.793
  487SOL     OW 2356   0.464   1.743   4.047
  487SOL    HW1 2357   0.497   1.782   4.133
  487SOL    HW2 2358   0.540   1.736   3.982
  488SOL     OW 2359   1.400   0.107   4.150
  488SOL    HW1 2360   1.376   0.070   4.060
  488SOL    HW2 2361   1.499   0.123   4.154
  489SOL     OW 2362   0.249   1.785   4.965
  489SOL    HW1 2363   0.306   1.720   5.015
  489SOL    HW2 2364   0.233   1.752   4.872
  490SOL     OW 2365   0.940   1.698   4.628
  490SOL    HW1 2366   1.020   1.641   4.649
  490SOL    HW2 2367   0.891   1.658   4.551
  491SOL     OW 2368   0.382   0.700   4.204
  491SOL    HW1 2369   0.427   0.610   4.201
  491SOL    HW2 2370   0.288   0.689   4.237
  492SOL     OW 2371   1.547   0.222   5.453
  492SOL    HW1 2372   1.542   0.259   5.545
  492SOL    HW2 2373   1.475   0.153   5.441
  493SOL     OW 2374   0.614   0.122   3.841
  493SOL    HW1 2375   0.712   0.100   3.848
  493SOL    HW2 2376   0.583   0.105   3.748
  494SOL     OW 2377   0.781   0.264   5.473
  494SOL    HW1 2378   0.848   0.203   5.516
  494SOL    HW2 2379   0.708   0.283   5.538
  495SOL     OW 2380   0.888   1.514   4.919
  495SOL    HW1 2381   0.865   1.489   4.825
  495SOL    HW2 2382   0.949   1.445   4.958
  496SOL     OW 2383   1.351   0.590   5.157
  496SOL    HW1 2384   1.379   0.547   5.242
  496SOL    HW2 2385   1.376   0.686   5.158
  497SOL     OW 2386   0.803   1.402   4.648
  497SOL    HW1 2387   0.893   1.416   4.606
  497SOL    HW2 2388   0.732   1.404   4.577
  498SOL     OW 2389   0.922   0.503   4.623
  498SOL    HW1 2390   0.897   0.494   4.527
  498SOL    HW2 2391   0.970   0.421   4.654
  499SOL     OW 2392   0.539   0.064   4.236
  499SOL    HW1 2393   0.458   0.065   4.294
  499SOL    HW2 2394   0.542   0.147   4.181
  500SOL     OW 2395   1.434   1.188   3.765
  500SOL    HW1 2396   1.466   1.112   3.822
  500SOL    HW2 2397   1.342   1.215   3.795
  501SOL     OW 2398   0.297   0.035   3.895
  501SOL    HW1 2399   0.346   0.119   3.874
  501SOL    HW2 2400   0.359  -0.030   3.940
  502SOL     OW 2401   0.935   0.236   4.204
  502SOL    HW1 2402   0.887   0.277   4.126
  502SOL    HW2 2403   1.034   0.234   4.185
  503SOL     OW 2404   1.076   0.683   5.188
  503SOL    HW1 2405   0.996   0.622   5.191
  503SOL    HW2 2406   1.157   0.630   5.164
  504SOL     OW 2407   1.227   1.570   4.517
  504SOL    HW1 2408   1.248   1.644   4.452
  504SOL    HW2 2409   1.295   1.570   4.590
  505SOL     OW 2410   0.459   1.152   4.465
  505SOL    HW1 2411   0.388   1.125   4.530
  505SOL    HW2 2412   0.433   1.124   4.372
  506SOL     OW 2413   1.271   1.797   4.315
  506SOL    HW1 2414   1.315   1.861   4.251
  506SOL    HW2 2415   1.221   1.849   4.385
  507SOL     OW 2416   1.032   0.549   3.740
  507SOL    HW1 2417   0.991   0.631   3.701
  507SOL    HW2 2418   1.096   0.575   3.813
  508SOL     OW 2419   0.078   0.556   5.110
  508SOL    HW1 2420   0.170   0.555   5.069
  508SOL    HW2 2421   0.072   0.630   5.177
  509SOL     OW 2422   0.561   0.222   4.871
  509SOL    HW1 2423   0.599   0.138   4.908
  509SOL    HW2 2424   0.473   0.241   4.915
  510SOL     OW 2425   0.866   0.454   4.366
  510SOL    HW1 2426   0.834   0.526   4.304
  510SOL    HW2 2427   0.890   0.373   4.313
  511SOL     OW 2428   1.017   0.039   4.477
  511SOL    HW1 2429   0.945   0.044   4.408
  511SOL    HW2 2430   0.993  -0.030   4.546
  512SOL     OW 2431   1.429   1.173   4.591
  512SOL    HW1 2432   1.374   1.089   4.584
  512SOL    HW2 2433   1.455   1.202   4.499
  513SOL     OW 2434   1.466   0.590   4.716
  513SOL    HW1 2435   1.436   0.495   4.723
  513SOL    HW2 2436   1.539   0.606   4.782
  514SOL     OW 2437   1.857   0.833   4.101
  514SOL    HW1 2438   1.899   0.769   4.165
  514SOL    HW2 2439   1.819   0.782   4.023
  515SOL     OW 2440   0.488   1.385   3.898
  515SOL    HW1 2441   0.401   1.370   3.945
  515SOL    HW2 2442   0.471   1.411   3.803
  516SOL     OW 2443   1.664   1.280   4.381
  516SOL    HW1 2444   1.763   1.288   4.395
  516SOL    HW2 2445   1.619   1.364   4.412
  517SOL     OW 2446   1.390   0.575   3.802
  517SOL    HW1 2447   1.336   0.554   3.883
  517SOL    HW2 2448   1.481   0.534   3.811
  518SOL     OW 2449   0.527   0.256   4.052
  518SOL    HW1 2450   0.554   0.197   3.977
  518SOL    HW2 2451   0.527   0.351   4.021
  519SOL     OW 2452   1.754   1.223   5.312
  519SOL    HW1 2453   1.845   1.184   5.299
  519SOL    HW2 2454   1.762   1.319   5.336
  520SOL     OW 2455   1.064   1.347   5.064
  520SOL    HW1 2456   0.984   1.324   5.119
  520SOL    HW2 2457   1.147   1.321   5.113
  521SOL     OW 2458   1.592   1.629   5.349
  521SOL    HW1 2459   1.619   1.663   5.259
  521SOL    HW2 2460   1.671   1.591   5.395
  522SOL     OW 2461   1.111   1.195   4.824
  522SOL    HW1 2462   1.071   1.239   4.905
  522SOL    HW2 2463   1.070   1.232   4.741
  523SOL     OW 2464   1.638   1.099   4.803
  523SOL    HW1 2465   1.643   1.180   4.862
  523SOL    HW2 2466   1.552   1.101   4.752
  524SOL     OW 2467   0.915   0.089   5.126
  524SOL    HW1 2468   0.940   0.069   5.031
  524SOL    HW2 2469   0.987   0.145   5.168
  525SOL     OW 2470   0.980   1.116   5.443
  525SOL    HW1 2471   0.881   1.122   5.453
  525SOL    HW2 2472   1.003   1.036   5.387
  526SOL     OW 2473   0.705   1.050   4.092
  526SOL    HW1 2474   0.691   1.057   4.191
  526SOL    HW2 2475   0.789   0.999   4.074
  527SOL     OW 2476   0.410   0.813   4.975
  527SOL    HW1 2477   0.496   0.825   5.025
  527SOL    HW2 2478   0.368   0.726   5.002
  528SOL     OW 2479   1.274   0.386   4.986
  528SOL    HW1 2480   1.295   0.460   5.050
  528SOL    HW2 2481   1.185   0.403   4.943
  529SOL     OW 2482   0.064   1.564   5.055
  529SOL    HW1 2483   0.018   1.646   5.021
  529SOL    HW2 2484   0.162   1.583   5.064
  530SOL     OW 2485   0.367   1.100   4.225
  530SOL    HW1 2486   0.360   1.183   4.169
  530SOL    HW2 2487   0.371   1.020   4.165
  531SOL     OW 2488   0.566   0.537   4.589
  531SOL    HW1 2489   0.578   0.603   4.515
  531SOL    HW2 2490   0.612   0.571   4.672
  532SOL     OW 2491   1.252   1.348   4.112
  532SOL    HW1 2492   1.302   1.425   4.152
  532SOL    HW2 2493   1.157   1.350   4.144
  533SOL     OW 2494   1.272   1.445   4.866
  533SOL    HW1 2495   1.319   1.458   4.953
  533SOL    HW2 2496   1.206   1.371   4.875
  534SOL     OW 2497   1.582   0.639   4.196
  534SOL    HW1 2498   1.551   0.700   4.269
  534SOL    HW2 2499   1.632   0.691   4.127
  535SOL     OW 2500   0.354   1.510   5.053
  535SOL    HW1 2501   0.333   1.466   4.966
  535SOL    HW2 2502   0.451   1.536   5.056
  536SOL     OW 2503   0.402   0.751   5.322
  536SOL    HW1 2504   0.470   0.806   5.275
  536SOL    HW2 2505   0.442   0.663   5.349
  537SOL     OW 2506   1.587   0.779   5.394
  537SOL    HW1 2507   1.495   0.817   5.389
  537SOL    HW2 2508   1.647   0.826   5.329
  538SOL     OW 2509   1.013   0.105   5.494
  538SOL    HW1 2510   1.019   0.190   5.442
  538SOL    HW2 2511   1.045   0.029   5.437
  539SOL     OW 2512   0.504   0.050   5.464
  539SOL    HW1 2513   0.462  -0.007   5.394
  539SOL    HW2 2514   0.438   0.119   5.496
  540SOL     OW 2515   0.573   0.870   4.753
  540SOL    HW1 2516   0.617   0.959   4.744
  540SOL    HW2 2517   0.510   0.870   4.830
  541SOL     OW 2518   1.360   0.862   4.769
  541SOL    HW1 2519   1.285   0.862   4.703
  541SOL    HW2 2520   1.397   0.770   4.778
  542SOL     OW 2521   1.209   0.525   3.999
  542SOL    HW1 2522   1.222   0.441   4.053
  542SOL    HW2 2523   1.180   0.599   4.059
  543SOL     OW 2524   0.307   0.213   4.955
  543SOL    HW1 2525   0.284   0.250   5.045
  543SOL    HW2 2526   0.277   0.118   4.949
  544SOL     OW 2527   0.037   1.310   5.006
  544SOL    HW1 2528   0.090   1.261   5.074
  544SOL    HW2 2529   0.059   1.408   5.011
  545SOL     OW 2530   0.732   0.634   4.788
  545SOL    HW1 2531   0.791   0.608   4.712
  545SOL    HW2 2532   0.704   0.730   4.777
  546SOL     OW 2533   1.728   0.935   5.578
  546SOL    HW1 2534   1.682   0.928   5.489
  546SOL    HW2 2535   1.666   0.979   5.644
  547SOL     OW 2536   0.307   0.063   4.342
  547SOL    HW1 2537   0.296   0.157   4.375
  547SOL    HW2 2538   0.302   0.000   4.419
  548SOL     OW 2539   1.622   0.367   4.098
  548SOL    HW1 2540   1.624   0.291   4.162
  548SOL    HW2 2541   1.574   0.444   4.138
  549SOL     OW 2542   1.023   0.766   4.690
  549SOL    HW1 2543   1.038   0.787   4.786
  549SOL    HW2 2544   0.993   0.671   4.681
  550SOL     OW 2545   0.980   1.573   5.424
  550SOL    HW1 2546   0.960   1.617   5.336
  550SOL    HW2 2547   1.019   1.482   5.408
  551SOL     OW 2548   0.350   0.898   5.528
  551SOL    HW1 2549   0.426   0.942   5.576
  551SOL    HW2 2550   0.385   0.851   5.446
  552SOL     OW 2551   1.540   0.274   3.849
  552SOL    HW1 2552   1.479   0.199   3.872
  552SOL    HW2 2553   1.562   0.326   3.932
  553SOL     OW 2554   1.303   0.838   3.766
  553SOL    HW1 2555   1.337   0.745   3.781
  553SOL    HW2 2556   1.321   0.865   3.671
  554SOL     OW 2557   1.068   1.333   4.573
  554SOL    HW1 2558   1.075   1.249   4.518
  554SOL    HW2 2559   1.130   1.402   4.537
  555SOL     OW 2560   0.319   0.810   4.673
  555SOL    HW1 2561   0.412   0.846   4.678
  555SOL    HW2 2562   0.313   0.725   4.725
  556SOL     OW 2563   0.339   0.509   4.730
  556SOL    HW1 2564   0.287   0.426   4.713
  556SOL    HW2 2565   0.416   0.514   4.666
  557SOL     OW 2566   1.138   0.380   5.402
  557SOL    HW1 2567   1.093   0.443   5.466
  557SOL    HW2 2568   1.231   0.411   5.385
  558SOL     OW 2569   1.160   0.207   5.201
  558SOL    HW1 2570   1.160   0.271   5.278
  558SOL    HW2 2571   1.188   0.255   5.118
  559SOL     OW 2572   0.008   1.326   3.924
  559SOL    HW1 2573  -0.085   1.347   3.893
  559SOL    HW2 2574   0.018   1.227   3.937
  560SOL     OW 2575   0.088   1.801   4.651
  560SOL    HW1 2576   0.046   1.715   4.624
  560SOL    HW2 2577   0.182   1.804   4.617
  561SOL     OW 2578   0.504   1.568   4.634
  561SOL    HW1 2579   0.570   1.642   4.643
  561SOL    HW2 2580   0.548   1.489   4.592
  562SOL     OW 2581   1.002   0.796   4.962
  562SOL    HW1 2582   1.043   0.764   5.048
  562SOL    HW2 2583   0.906   0.769   4.959
  563SOL     OW 2584   0.040   0.544   4.838
  563SOL    HW1 2585   0.125   0.511   4.797
  563SOL    HW2 2586   0.053   0.559   4.936
  564SOL     OW 2587   0.189   0.520   5.446
  564SOL    HW1 2588   0.248   0.480   5.376
  564SOL    HW2 2589   0.131   0.591   5.405
  565SOL     OW 2590   1.369   0.950   5.384
  565SOL    HW1 2591   1.408   1.039   5.404
  565SOL    HW2 2592   1.379   0.930   5.287
  566SOL     OW 2593   0.815   0.572   4.049
  566SOL    HW1 2594   0.822   0.483   4.003
  566SOL    HW2 2595   0.721   0.606   4.041
  567SOL     OW 2596   1.657   0.604   4.930
  567SOL    HW1 2597   1.619   0.535   4.992
  567SOL    HW2 2598   1.739   0.568   4.886
  568SOL     OW 2599   0.252   1.564   5.468
  568SOL    HW1 2600   0.222   1.621   5.544
  568SOL    HW2 2601   0.245   1.467   5.494
  569SOL     OW 2602   0.671   0.464   4.993
  569SOL    HW1 2603   0.637   0.375   4.963
  569SOL    HW2 2604   0.697   0.518   4.913
  570SOL     OW 2605   0.930   1.678   5.189
  570SOL    HW1 2606   0.906   1.660   5.094
  570SOL    HW2 2607   0.960   1.772   5.199
  571SOL     OW 2608   0.473   0.500   3.915
  571SOL    HW1 2609   0.534   0.580   3.919
  571SOL    HW2 2610   0.378   0.531   3.922
  572SOL     OW 2611   0.159   1.137   5.190
  572SOL    HW1 2612   0.181   1.076   5.266
  572SOL    HW2 2613   0.169   1.088   5.104
  573SOL     OW 2614   1.347   1.059   4.958
  573SOL    HW1 2615   1.371   0.996   4.884
  573SOL    HW2 2616   1.257   1.099   4.940
  574SOL     OW 2617   1.302   0.855   4.033
  574SOL    HW1 2618   1.216   0.824   4.075
  574SOL    HW2 2619   1.298   0.841   3.934
  575SOL     OW 2620   1.252   1.731   4.852
  575SOL    HW1 2621   1.336   1.736   4.798
  575SOL    HW2 2622   1.229   1.635   4.870
  576SOL     OW 2623   0.083   1.258   4.746
  576SOL    HW1 2624   0.078   1.257   4.846
  576SOL    HW2 2625   0.000   1.217   4.708
  577SOL     OW 2626   0.688   1.662   5.440
  577SOL    HW1 2627   0.632   1.743   5.449
  577SOL    HW2 2628   0.740   1.666   5.354
  578SOL     OW 2629   1.726   0.135   4.247
  578SOL    HW1 2630   1.799   0.118   4.180
  578SOL    HW2 2631   1.695   0.048   4.285
  579SOL     OW 2632   1.388   1.573   4.201
  579SOL    HW1 2633   1.455   1.585   4.127
  579SOL    HW2 2634   1.348   1.662   4.224
  580SOL     OW 2635   0.130   1.794   5.575
  580SOL    HW1 2636   0.089   1.720   5.628
  580SOL    HW2 2637   0.194   1.845   5.633
  581SOL     OW 2638   1.280   0.927   4.396
  581SOL    HW1 2639   1.340   0.846   4.398
  581SOL    HW2 2640   1.320   0.996   4.336
  582SOL     OW 2641   0.830   1.273   5.146
  582SOL    HW1 2642   0.825   1.306   5.241
  582SOL    HW2 2643   0.744   1.292   5.100
  583SOL     OW 2644   0.672   1.616   3.878
  583SOL    HW1 2645   0.681   1.626   3.779
  583SOL    HW2 2646   0.632   1.527   3.899
  584SOL     OW 2647   1.841   0.175   4.687
  584SOL    HW1 2648   1.880   0.090   4.651
  584SOL    HW2 2649   1.743   0.177   4.668
  585SOL     OW 2650   0.263   0.326   4.444
  585SOL    HW1 2651   0.184   0.377   4.410
  585SOL    HW2 2652   0.254   0.311   4.542
  586SOL     OW 2653   1.194   1.612   3.755
  586SOL    HW1 2654   1.200   1.519   3.792
  586SOL    HW2 2655   1.135   1.612   3.675
  587SOL     OW 2656   0.822   1.002   5.096
  587SOL    HW1 2657   0.862   1.001   5.004
  587SOL    HW2 2658   0.832   1.094   5.136
  588SOL     OW 2659   0.916   0.910   4.015
  588SOL    HW1 2660   0.979   0.948   3.947
  588SOL    HW2 2661   0.956   0.827   4.054
  589SOL     OW 2662   1.504   1.607   3.768
  589SOL    HW1 2663   1.412   1.644   3.775
  589SOL    HW2 2664   1.542   1.627   3.678
  590SOL     OW 2665   0.372   1.288   5.214
  590SOL    HW1 2666   0.359   1.381   5.180
  590SOL    HW2 2667   0.288   1.236   5.201
  591SOL     OW 2668   1.614   1.292   5.013
  591SOL    HW1 2669   1.674   1.295   5.093
  591SOL    HW2 2670   1.539   1.356   5.026
  592SOL     OW 2671   1.039   1.098   4.420
  592SOL    HW1 2672   0.969   1.051   4.474
  592SOL    HW2 2673   1.098   1.030   4.377
  593SOL     OW 2674   1.014   0.236   4.695
  593SOL    HW1 2675   1.006   0.200   4.602
  593SOL    HW2 2676   1.012   0.160   4.760
  594SOL     OW 2677   0.590   1.487   4.215
  594SOL    HW1 2678   0.632   1.429   4.145
  594SOL    HW2 2679   0.546   1.566   4.171
  595SOL     OW 2680   1.709   0.385   5.105
  595SOL    HW1 2681   1.782   0.454   5.109
  595SOL    HW2 2682   1.737   0.310   5.046
  596SOL     OW 2683   0.255   1.348   4.014
  596SOL    HW1 2684   0.159   1.349   3.987
  596SOL    HW2 2685   0.267   1.401   4.098
  597SOL     OW 2686   0.105   1.013   5.450
  597SOL    HW1 2687   0.028   0.980   5.504
  597SOL    HW2 2688   0.190   0.983   5.492
  598SOL     OW 2689   0.672   0.203   5.213
  598SOL    HW1 2690   0.762   0.187   5.173
  598SOL    HW2 2691   0.680   0.208   5.312
  599SOL     OW 2692   0.075   0.345   3.757
  599SOL    HW1 2693  -0.017   0.317   3.728
  599SOL    HW2 2694   0.106   0.422   3.701
  600SOL     OW 2695   1.440   0.856   5.122
  600SOL    HW1 2696   1.383   0.908   5.059
  600SOL    HW2 2697   1.536   0.868   5.098
  601SOL     OW 2698   0.072   0.166   4.042
  601SOL    HW1 2699   0.055   0.249   3.988
  601SOL    HW2 2700   0.162   0.129   4.020
  602SOL     OW 2701   1.183   1.335   3.843
  602SOL    HW1 2702   1.084   1.324   3.845
  602SOL    HW2 2703   1.217   1.350   3.936
  603SOL     OW 2704   0.613   0.842   5.155
  603SOL    HW1 2705   0.669   0.923   5.138
  603SOL    HW2 2706   0.672   0.762   5.158
  604SOL     OW 2707   1.493   1.767   4.683
  604SOL    HW1 2708   1.526   1.831   4.614
  604SOL    HW2 2709   1.559   1.761   4.758
  605SOL     OW 2710   0.716   0.565   5.432
  605SOL    HW1 2711   0.735   0.630   5.506
  605SOL    HW2 2712   0.776   0.485   5.441
  606SOL     OW 2713   1.450   1.220   5.357
  606SOL    HW1 2714   1.441   1.210   5.456
  606SOL    HW2 2715   1.546   1.213   5.331
  607SOL     OW 2716   0.390   1.741   5.284
  607SOL    HW1 2717   0.299   1.782   5.282
  607SOL    HW2 2718   0.383   1.647   5.316
  608SOL     OW 2719   1.674   0.883   4.978
  608SOL    HW1 2720   1.647   0.794   4.941
  608SOL    HW2 2721   1.675   0.951   4.905
  609SOL     OW 2722   1.225   0.325   4.173
  609SOL    HW1 2723   1.290   0.251   4.162
  609SOL    HW2 2724   1.245   0.375   4.257
  610SOL     OW 2725   0.594   0.745   4.376
  610SOL    HW1 2726   0.644   0.830   4.357
  610SOL    HW2 2727   0.506   0.747   4.328
  611SOL     OW 2728   1.777   0.342   5.366
  611SOL    HW1 2729   1.760   0.373   5.272
  611SOL    HW2 2730   1.693   0.305   5.404
  612SOL     OW 2731   1.730   0.934   5.241
  612SOL    HW1 2732   1.768   1.025   5.256
  612SOL    HW2 2733   1.722   0.917   5.142
  613SOL     OW 2734   0.859   1.374   3.740
  613SOL    HW1 2735   0.813   1.389   3.828
  613SOL    HW2 2736   0.903   1.459   3.710
  614SOL     OW 2737   0.661   1.790   4.677
  614SOL    HW1 2738   0.615   1.878   4.664
  614SOL    HW2 2739   0.760   1.802   4.670
  615SOL     OW 2740   0.859   0.956   4.585
  615SOL    HW1 2741   0.913   0.887   4.633
  615SOL    HW2 2742   0.827   1.025   4.651
  616SOL     OW 2743   1.083   0.984   3.811
  616SOL    HW1 2744   1.060   1.037   3.729
  616SOL    HW2 2745   1.164   0.928   3.792
  617SOL     OW 2746   1.861   1.569   4.575
  617SOL    HW1 2747   1.790   1.557   4.505
  617SOL    HW2 2748   1.862   1.490   4.635
  618SOL     OW 2749   0.221   1.314   5.568
  618SOL    HW1 2750   0.156   1.241   5.547
  618SOL    HW2 2751   0.225   1.328   5.666
  619SOL     OW 2752   0.079   1.240   4.377
  619SOL    HW1 2753   0.078   1.193   4.465
  619SOL    HW2 2754   0.161   1.212   4.326
  620SOL     OW 2755   0.672   1.391   5.348
  620SOL    HW1 2756   0.594   1.341   5.386
  620SOL    HW2 2757   0.669   1.486   5.379
  621SOL     OW 2758   1.824   0.192   4.951
  621SOL    HW1 2759   1.820   0.102   4.995
  621SOL    HW2 2760   1.827   0.181   4.852
  622SOL     OW 2761   0.428   0.424   4.244
  622SOL    HW1 2762   0.458   0.352   4.182
  622SOL    HW2 2763   0.389   0.384   4.327
  623SOL     OW 2764   0.317   0.547   5.004
  623SOL    HW1 2765   0.355   0.488   5.076
  623SOL    HW2 2766   0.357   0.521   4.916
  624SOL     OW 2767   0.812   1.586   4.411
  624SOL    HW1 2768   0.844   1.596   4.317
  624SOL    HW2 2769   0.733   1.524   4.413
  625SOL     OW 2770   1.424   0.214   4.836
  625SOL    HW1 2771   1.476   0.149   4.891
  625SOL    HW2 2772   1.375   0.277   4.897
  626SOL     OW 2773   1.001   0.034   4.878
  626SOL    HW1 2774   0.938  -0.038   4.847
  626SOL    HW2 2775   1.094  -0.002   4.878
  627SOL     OW 2776   0.770   1.330   4.025
  627SOL    HW1 2777   0.724   1.243   4.042
  627SOL    HW2 2778   0.861   1.327   4.066
  628SOL     OW 2779   0.618   1.567   5.008
  628SOL    HW1 2780   0.613   1.649   5.065
  628SOL    HW2 2781   0.707   1.564   4.963
  629SOL     OW 2782   1.352   0.052   3.892
  629SOL    HW1 2783   1.387   0.011   3.808
  629SOL    HW2 2784   1.262   0.014   3.912
  630SOL     OW 2785   1.300   0.453   4.415
  630SOL    HW1 2786   1.241   0.533   4.419
  630SOL    HW2 2787   1.315   0.418   4.508
  631SOL     OW 2788   1.593   0.221   4.606
  631SOL    HW1 2789   1.509   0.220   4.660
  631SOL    HW2 2790   1.595   0.304   4.550
  632SOL     OW 2791   0.039   1.077   4.024
  632SOL    HW1 2792   0.138   1.066   4.015
  632SOL    HW2 2793  -0.001   0.991   4.056
  633SOL     OW 2794   0.875   1.646   4.061
  633SOL    HW1 2795   0.798   1.611   4.007
  633SOL    HW2 2796   0.843   1.717   4.123
  634SOL     OW 2797   0.230   0.628   5.699
  634SOL    HW1 2798   0.137   0.626   5.736
  634SOL    HW2 2799   0.231   0.589   5.607
  635SOL     OW 2800   0.225   0.275   6.582
  635SOL    HW1 2801   0.260   0.258   6.674
  635SOL    HW2 2802   0.137   0.230   6.570
  636SOL     OW 2803   0.019   0.368   6.233
  636SOL    HW1 2804  -0.063   0.411   6.272
  636SOL    HW2 2805  -0.009   0.295   6.170
  637SOL     OW 2806   0.569   1.275   6.751
  637SOL    HW1 2807   0.476   1.268   6.714
  637SOL    HW2 2808   0.580   1.364   6.795
  638SOL     OW 2809   1.555   1.511   6.289
  638SOL    HW1 2810   1.498   1.495   6.370
  638SOL    HW2 2811   1.496   1.521   6.209
  639SOL     OW 2812   1.135   0.703   6.303
  639SOL    HW1 2813   1.192   0.781   6.278
  639SOL    HW2 2814   1.075   0.729   6.379
  640SOL     OW 2815   1.755   0.607   5.817
  640SOL    HW1 2816   1.743   0.594   5.718
  640SOL    HW2 2817   1.725   0.526   5.866
  641SOL     OW 2818   0.768   1.144   6.609
  641SOL    HW1 2819   0.690   1.161   6.669
  641SOL    HW2 2820   0.802   1.231   6.573
  642SOL     OW 2821   0.850   0.798   7.409
  642SOL    HW1 2822   0.846   0.874   7.474
  642SOL    HW2 2823   0.872   0.834   7.318
  643SOL     OW 2824   0.685   1.012   6.251
  643SOL    HW1 2825   0.754   0.996   6.321
  643SOL    HW2 2826   0.612   1.069   6.289
  644SOL     OW 2827   0.686   1.161   7.389
  644SOL    HW1 2828   0.746   1.240   7.403
  644SOL    HW2 2829   0.600   1.192   7.348
  645SOL     OW 2830   0.335   1.435   6.647
  645SOL    HW1 2831   0.257   1.404   6.594
  645SOL    HW2 2832   0.393   1.493   6.590
  646SOL     OW 2833   1.460   1.505   6.925
  646SOL    HW1 2834   1.484   1.599   6.951
  646SOL    HW2 2835   1.444   1.451   7.007
  647SOL     OW 2836   0.438   0.392   7.085
  647SOL    HW1 2837   0.520   0.336   7.094
  647SOL    HW2 2838   0.357   0.334   7.089
  648SOL     OW 2839   1.603   0.447   6.323
  648SOL    HW1 2840   1.529   0.493   6.273
  648SOL    HW2 2841   1.654   0.515   6.376
  649SOL     OW 2842   0.231   1.713   6.069
  649SOL    HW1 2843   0.265   1.790   6.123
  649SOL    HW2 2844   0.275   1.713   5.979
  650SOL     OW 2845   1.127   1.341   7.276
  650SOL    HW1 2846   1.174   1.341   7.364
  650SOL    HW2 2847   1.079   1.254   7.265
  651SOL     OW 2848   0.230   1.434   6.124
  651SOL    HW1 2849   0.204   1.530   6.124
  651SOL    HW2 2850   0.159   1.380   6.169
  652SOL     OW 2851   0.240   1.091   6.472
  652SOL    HW1 2852   0.254   1.007   6.524
  652SOL    HW2 2853   0.185   1.155   6.527
  653SOL     OW 2854   0.620   1.786   7.025
  653SOL    HW1 2855   0.528   1.769   7.060
  653SOL    HW2 2856   0.648   1.878   7.051
  654SOL     OW 2857   0.606   0.964   5.709
  654SOL    HW1 2858   0.613   1.048   5.655
  654SOL    HW2 2859   0.652   0.977   5.797
  655SOL     OW 2860   1.594   0.114   7.066
  655SOL    HW1 2861   1.576   0.181   6.994
  655SOL    HW2 2862   1.591   0.160   7.155
  656SOL     OW 2863   0.122   0.643   6.149
  656SOL    HW1 2864   0.077   0.555   6.166
  656SOL    HW2 2865   0.121   0.697   6.233
  657SOL     OW 2866   0.027   1.596   5.703
  657SOL    HW1 2867   0.008   1.500   5.724
  657SOL    HW2 2868  -0.006   1.654   5.778
  658SOL     OW 2869   1.689   0.922   6.198
  658SOL    HW1 2870   1.784   0.893   6.206
  658SOL    HW2 2871   1.681   0.987   6.123
  659SOL     OW 2872   1.641   1.108   6.018
  659SOL    HW1 2873   1.727   1.110   5.966
  659SOL    HW2 2874   1.655   1.155   6.106
  660SOL     OW 2875   0.113   0.737   7.183
  660SOL    HW1 2876   0.201   0.724   7.228
  660SOL    HW2 2877   0.100   0.834   7.161
  661SOL     OW 2878   0.613   1.365   6.312
  661SOL    HW1 2879   0.564   1.278   6.321
  661SOL    HW2 2880   0.590   1.408   6.225
  662SOL     OW 2881   1.293   1.228   7.009
  662SOL    HW1 2882   1.330   1.155   6.951
  662SOL    HW2 2883   1.345   1.233   7.094
  663SOL     OW 2884   0.809   0.004   6.088
  663SOL    HW1 2885   0.849   0.095   6.079
  663SOL    HW2 2886   0.709   0.012   6.094
  664SOL     OW 2887   0.197   0.976   6.850
  664SOL    HW1 2888   0.286   0.931   6.836
  664SOL    HW2 2889   0.124   0.911   6.831
  665SOL     OW 2890   1.525   0.999   5.776
  665SOL    HW1 2891   1.462   0.923   5.789
  665SOL    HW2 2892   1.573   1.017   5.862
  666SOL     OW 2893   1.187   1.792   7.202
  666SOL    HW1 2894   1.211   1.852   7.126
  666SOL    HW2 2895   1.194   1.697   7.172
  667SOL     OW 2896   0.317   0.251   7.387
  667SOL    HW1 2897   0.388   0.322   7.393
  667SOL    HW2 2898   0.229   0.290   7.415
  668SOL     OW 2899   1.466   1.417   6.539
  668SOL    HW1 2900   1.407   1.423   6.619
  668SOL    HW2 2901   1.451   1.329   6.493
  669SOL     OW 2902   0.598   0.729   5.856
  669SOL    HW1 2903   0.622   0.798   5.788
  669SOL    HW2 2904   0.520   0.762   5.910
  670SOL     OW 2905   1.281   0.345   6.530
  670SOL    HW1 2906   1.195   0.295   6.517
  670SOL    HW2 2907   1.343   0.291   6.586
  671SOL     OW 2908   0.807   0.605   7.051
  671SOL    HW1 2909   0.760   0.602   7.140
  671SOL    HW2 2910   0.756   0.550   6.985
  672SOL     OW 2911   1.394   0.469   7.260
  672SOL    HW1 2912   1.374   0.512   7.348
  672SOL    HW2 2913   1.472   0.407   7.269
  673SOL     OW 2914   0.973   0.890   7.158
  673SOL    HW1 2915   1.019   0.806   7.129
  673SOL    HW2 2916   0.917   0.924   7.083
  674SOL     OW 2917   0.991   0.410   6.828
  674SOL    HW1 2918   0.914   0.444   6.882
  674SOL    HW2 2919   0.957   0.359   6.749
  675SOL     OW 2920   1.041   0.701   6.015
  675SOL    HW1 2921   1.067   0.697   6.111
  675SOL    HW2 2922   0.956   0.650   6.001
  676SOL     OW 2923   0.076   0.811   6.375
  676SOL    HW1 2924   0.175   0.799   6.384
  676SOL    HW2 2925   0.052   0.906   6.396
  677SOL     OW 2926   0.130   1.821   7.157
  677SOL    HW1 2927   0.120   1.806   7.256
  677SOL    HW2 2928   0.044   1.857   7.121
  678SOL     OW 2929   0.865   0.348   5.781
  678SOL    HW1 2930   0.924   0.411   5.732
  678SOL    HW2 2931   0.884   0.254   5.752
  679SOL     OW 2932   1.719   0.585   7.417
  679SOL    HW1 2933   1.693   0.674   7.381
  679SOL    HW2 2934   1.717   0.517   7.344
  680SOL     OW 2935   1.362   1.144   6.131
  680SOL    HW1 2936   1.445   1.115   6.083
  680SOL    HW2 2937   1.313   1.211   6.075
  681SOL     OW 2938   0.550   0.196   6.471
  681SOL    HW1 2939   0.545   0.191   6.571
  681SOL    HW2 2940   0.552   0.292   6.442
  682SOL     OW 2941   1.008   1.456   6.063
  682SOL    HW1 2942   0.962   1.528   6.011
  682SOL    HW2 2943   1.004   1.476   6.161
  683SOL     OW 2944   0.351   1.801   6.439
  683SOL    HW1 2945   0.401   1.715   6.445
  683SOL    HW2 2946   0.416   1.878   6.436
  684SOL     OW 2947   1.795   1.066   6.459
  684SOL    HW1 2948   1.733   1.051   6.383
  684SOL    HW2 2949   1.743   1.077   6.544
  685SOL     OW 2950   1.227   1.550   7.092
  685SOL    HW1 2951   1.233   1.473   7.156
  685SOL    HW2 2952   1.175   1.524   7.012
  686SOL     OW 2953   0.321   0.943   5.828
  686SOL    HW1 2954   0.403   0.982   5.786
  686SOL    HW2 2955   0.294   0.861   5.779
  687SOL     OW 2956   1.458   0.735   6.314
  687SOL    HW1 2957   1.453   0.670   6.389
  687SOL    HW2 2958   1.538   0.794   6.327
  688SOL     OW 2959   0.461   1.266   7.313
  688SOL    HW1 2960   0.411   1.267   7.227
  688SOL    HW2 2961   0.398   1.248   7.389
  689SOL     OW 2962   1.111   1.776   5.823
  689SOL    HW1 2963   1.051   1.714   5.873
  689SOL    HW2 2964   1.142   1.732   5.738
  690SOL     OW 2965   0.202   0.285   7.084
  690SOL    HW1 2966   0.122   0.345   7.071
  690SOL    HW2 2967   0.192   0.236   7.170
  691SOL     OW 2968   1.632   1.377   5.667
  691SOL    HW1 2969   1.600   1.471   5.657
  691SOL    HW2 2970   1.556   1.314   5.655
  692SOL     OW 2971   0.464   1.743   5.909
  692SOL    HW1 2972   0.497   1.782   5.995
  692SOL    HW2 2973   0.540   1.736   5.844
  693SOL     OW 2974   1.400   0.107   6.012
  693SOL    HW1 2975   1.376   0.070   5.922
  693SOL    HW2 2976   1.499   0.123   6.016
  694SOL     OW 2977   0.249   1.785   6.827
  694SOL    HW1 2978   0.306   1.720   6.877
  694SOL    HW2 2979   0.233   1.752   6.734
  695SOL     OW 2980   0.940   1.698   6.490
  695SOL    HW1 2981   1.020   1.641   6.511
  695SOL    HW2 2982   0.891   1.658   6.413
  696SOL     OW 2983   0.382   0.700   6.066
  696SOL    HW1 2984   0.427   0.610   6.063
  696SOL    HW2 2985   0.288   0.689   6.099
  697SOL     OW 2986   1.547   0.222   7.315
  697SOL    HW1 2987   1.542   0.259   7.407
  697SOL    HW2 2988   1.475   0.153   7.303
  698SOL     OW 2989   0.614   0.122   5.703
  698SOL    HW1 2990   0.712   0.100   5.710
  698SOL    HW2 2991   0.583   0.105   5.610
  699SOL     OW 2992   0.781   0.264   7.335
  699SOL    HW1 2993   0.848   0.203   7.378
  699SOL    HW2 2994   0.708   0.283   7.400
  700SOL     OW 2995   0.888   1.514   6.781
  700SOL    HW1 2996   0.865   1.489   6.687
  700SOL    HW2 2997   0.949   1.445   6.820
  701SOL     OW 2998   1.351   0.590   7.019
  701SOL    HW1 2999   1.379   0.547   7.104
  701SOL    HW2 3000   1.376   0.686   7.020
  702SOL     OW 3001   0.803   1.402   6.510
  702SOL    HW1 3002   0.893   1.416   6.468
  702SOL    HW2 3003   0.732   1.404   6.439
  703SOL     OW 3004   0.922   0.503   6.485
  703SOL    HW1 3005   0.897   0.494   6.389
  703SOL    HW2 3006   0.970   0.421   6.516
  704SOL     OW 3007   0.539   0.064   6.098
  704SOL    HW1 3008   0.458   0.065   6.156
  704SOL    HW2 3009   0.542   0.147   6.043
  705SOL     OW 3010   1.434   1.188   5.627
  705SOL    HW1 3011   1.466   1.112   5.684
  705SOL    HW2 3012   1.342   1.215   5.657
  706SOL     OW 3013   0.297   0.035   5.757
  706SOL    HW1 3014   0.346   0.119   5.736
  706SOL    HW2 3015   0.359  -0.030   5.802
  707SOL     OW 3016   0.935   0.236   6.066
  707SOL    HW1 3017   0.887   0.277   5.988
  707SOL    HW2 3018   1.034   0.234   6.047
  708SOL     OW 3019   1.076   0.683   7.050
  708SOL    HW1 3020   0.996   0.622   7.053
  708SOL    HW2 3021   1.157   0.630   7.026
  709SOL     OW 3022   1.227   1.570   6.379
  709SOL    HW1 3023   1.248   1.644   6.314
  709SOL    HW2 3024   1.295   1.570   6.452
  710SOL     OW 3025   0.459   1.152   6.327
  710SOL    HW1 3026   0.388   1.125   6.392
  710SOL    HW2 3027   0.433   1.124   6.234
  711SOL     OW 3028   1.271   1.797   6.177
  711SOL    HW1 3029   1.315   1.861   6.113
  711SOL    HW2 3030   1.221   1.849   6.247
  712SOL     OW 3031   1.032   0.549   5.602
  712SOL    HW1 3032   0.991   0.631   5.563
  712SOL    HW2 3033   1.096   0.575   5.675
  713SOL     OW 3034   0.078   0.556   6.972
  713SOL    HW1 3035   0.170   0.555   6.931
  713SOL    HW2 3036   0.072   0.630   7.039
  714SOL     OW 3037   0.561   0.222   6.733
  714SOL    HW1 3038   0.599   0.138   6.770
  714SOL    HW2 3039   0.473   0.241   6.777
  715SOL     OW 3040   0.866   0.454   6.228
  715SOL    HW1 3041   0.834   0.526   6.166
  715SOL    HW2 3042   0.890   0.373   6.175
  716SOL     OW 3043   1.017   0.039   6.339
  716SOL    HW1 3044   0.945   0.044   6.270
  716SOL    HW2 3045   0.993  -0.030   6.408
  717SOL     OW 3046   1.429   1.173   6.453
  717SOL    HW1 3047   1.374   1.089   6.446
  717SOL    HW2 3048   1.455   1.202   6.361
  718SOL     OW 3049   1.466   0.590   6.578
  718SOL    HW1 3050   1.436   0.495   6.585
  718SOL    HW2 3051   1.539   0.606   6.644
  719SOL     OW 3052   1.857   0.833   5.963
  719SOL    HW1 3053   1.899   0.769   6.027
  719SOL    HW2 3054   1.819   0.782   5.885
  720SOL     OW 3055   0.488   1.385   5.760
  720SOL    HW1 3056   0.401   1.370   5.807
  720SOL    HW2 3057   0.471   1.411   5.665
  721SOL     OW 3058   1.664   1.280   6.243
  721SOL    HW1 3059   1.763   1.288   6.257
  721SOL    HW2 3060   1.619   1.364   6.274
  722SOL     OW 3061   1.390   0.575   5.664
  722SOL    HW1 3062   1.336   0.554   5.745
  722SOL    HW2 3063   1.481   0.534   5.673
  723SOL     OW 3064   0.527   0.256   5.914
  723SOL    HW1 3065   0.554   0.197   5.839
  723SOL    HW2 3066   0.527   0.351   5.883
  724SOL     OW 3067   1.754   1.223   7.174
  724SOL    HW1 3068   1.845   1.184   7.161
  724SOL    HW2 3069   1.762   1.319   7.198
  725SOL     OW 3070   1.064   1.347   6.926
  725SOL    HW1 3071   0.984   1.324   6.981
  725SOL    HW2 3072   1.147   1.321   6.975
  726SOL     OW 3073   1.592   1.629   7.211
  726SOL    HW1 3074   1.619   1.663   7.121
  726SOL    HW2 3075   1.671   1.591   7.257
  727SOL     OW 3076   1.111   1.195   6.686
  727SOL    HW1 3077   1.071   1.239   6.767
  727SOL    HW2 3078   1.070   1.232   6.603
  728SOL     OW 3079   1.638   1.099   6.665
  728SOL    HW1 3080   1.643   1.180   6.724
  728SOL    HW2 3081   1.552   1.101   6.614
  729SOL     OW 3082   0.915   0.089   6.988
  729SOL    HW1 3083   0.940   0.069   6.893
  729SOL    HW2 3084   0.987   0.145   7.030
  730SOL     OW 3085   0.980   1.116   7.305
  730SOL    HW1 3086   0.881   1.122   7.315
  730SOL    HW2 3087   1.003   1.036   7.249
  731SOL     OW 3088   0.705   1.050   5.954
  731SOL    HW1 3089   0.691   1.057   6.053
  731SOL    HW2 3090   0.789   0.999   5.936
  732SOL     OW 3091   0.410   0.813   6.837
  732SOL    HW1 3092   0.496   0.825   6.887
  732SOL    HW2 3093   0.368   0.726   6.864
  733SOL     OW 3094   1.274   0.386   6.848
  733SOL    HW1 3095   1.295   0.460   6.912
  733SOL    HW2 3096   1.185   0.403   6.805
  734SOL     OW 3097   0.064   1.564   6.917
  734SOL    HW1 3098   0.018   1.646   6.883
  734SOL    HW2 3099   0.162   1.583   6.926
  735SOL     OW 3100   0.367   1.100   6.087
  735SOL    HW1 3101   0.360   1.183   6.031
  735SOL    HW2 3102   0.371   1.020   6.027
  736SOL     OW 3103   0.566   0.537   6.451
  736SOL    HW1 3104   0.578   0.603   6.377
  736SOL    HW2 3105   0.612   0.571   6.534
  737SOL     OW 3106   1.252   1.348   5.974
  737SOL    HW1 3107   1.302   1.425   6.014
  737SOL    HW2 3108   1.157   1.350   6.006
  738SOL     OW 3109   1.272   1.445   6.728
  738SOL    HW1 3110   1.319   1.458   6.815
  738SOL    HW2 3111   1.206   1.371   6.737
  739SOL     OW 3112   1.582   0.639   6.058
  739SOL    HW1 3113   1.551   0.700   6.131
  739SOL    HW2 3114   1.632   0.691   5.989
  740SOL     OW 3115   0.354   1.510   6.915
  740SOL    HW1 3116   0.333   1.466   6.828
  740SOL    HW2 3117   0.451   1.536   6.918
  741SOL     OW 3118   0.402   0.751   7.184
  741SOL    HW1 3119   0.470   0.806   7.137
  741SOL    HW2 3120   0.442   0.663   7.211
  742SOL     OW 3121   1.587   0.779   7.256
  742SOL    HW1 3122   1.495   0.817   7.251
  742SOL    HW2 3123   1.647   0.826   7.191
  743SOL     OW 3124   1.013   0.105   7.356
  743SOL    HW1 3125   1.019   0.190   7.304
  743SOL    HW2 3126   1.045   0.029   7.299
  744SOL     OW 3127   0.504   0.050   7.326
  744SOL    HW1 3128   0.462  -0.007   7.256
  744SOL    HW2 3129   0.438   0.119   7.358
  745SOL     OW 3130   0.573   0.870   6.615
  745SOL    HW1 3131   0.617   0.959   6.606
  745SOL    HW2 3132   0.510   0.870   6.692
  746SOL     OW 3133   1.360   0.862   6.631
  746SOL    HW1 3134   1.285   0.862   6.565
  746SOL    HW2 3135   1.397   0.770   6.640
  747SOL     OW 3136   1.209   0.525   5.861
  747SOL    HW1 3137   1.222   0.441   5.915
  747SOL    HW2 3138   1.180   0.599   5.921
  748SOL     OW 3139   0.307   0.213   6.817
  748SOL    HW1 3140   0.284   0.250   6.907
  748SOL    HW2 3141   0.277   0.118   6.811
  749SOL     OW 3142   0.037   1.310   6.868
  749SOL    HW1 3143   0.090   1.261   6.936
  749SOL    HW2 3144   0.059   1.408   6.873
  750SOL     OW 3145   0.732   0.634   6.650
  750SOL    HW1 3146   0.791   0.608   6.574
  750SOL    HW2 3147   0.704   0.730   6.639
  751SOL     OW 3148   1.728   0.935   7.440
  751SOL    HW1 3149   1.682   0.928   7.351
  751SOL    HW2 3150   1.666   0.979   7.506
  752SOL     OW 3151   0.307   0.063   6.204
  752SOL    HW1 3152   0.296   0.157   6.237
  752SOL    HW2 3153   0.302   0.000   6.281
  753SOL     OW 3154   1.622   0.367   5.960
  753SOL    HW1 3155   1.624   0.291   6.024
  753SOL    HW2 3156   1.574   0.444   6.000
  754SOL     OW 3157   1.023   0.766   6.552
  754SOL    HW1 3158   1.038   0.787   6.648
  754SOL    HW2 3159   0.993   0.671   6.543
  755SOL     OW 3160   0.980   1.573   7.286
  755SOL    HW1 3161   0.960   1.617   7.198
  755SOL    HW2 3162   1.019   1.482   7.270
  756SOL     OW 3163   1.859   1.518   7.191
  756SOL    HW1 3164   1.873   1.545   7.096
  756SOL    HW2 3165   1.942   1.540   7.244
  757SOL     OW 3166   0.350   0.898   7.390
  757SOL    HW1 3167   0.426   0.942   7.438
  757SOL    HW2 3168   0.385   0.851   7.308
  758SOL     OW 3169   1.540   0.274   5.711
  758SOL    HW1 3170   1.479   0.199   5.734
  758SOL    HW2 3171   1.562   0.326   5.794
  759SOL     OW 3172   1.303   0.838   5.628
  759SOL    HW1 3173   1.337   0.745   5.643
  759SOL    HW2 3174   1.321   0.865   5.533
  760SOL     OW 3175   1.068   1.333   6.435
  760SOL    HW1 3176   1.075   1.249   6.380
  760SOL    HW2 3177   1.130   1.402   6.399
  761SOL     OW 3178   0.319   0.810   6.535
  761SOL    HW1 3179   0.412   0.846   6.540
  761SOL    HW2 3180   0.313   0.725   6.587
  762SOL     OW 3181   0.339   0.509   6.592
  762SOL    HW1 3182   0.287   0.426   6.575
  762SOL    HW2 3183   0.416   0.514   6.528
  763SOL     OW 3184   1.138   0.380   7.264
  763SOL    HW1 3185   1.093   0.443   7.328
  763SOL    HW2 3186   1.231   0.411   7.247
  764SOL     OW 3187   1.160   0.207   7.063
  764SOL    HW1 3188   1.160   0.271   7.140
  764SOL    HW2 3189   1.188   0.255   6.980
  765SOL     OW 3190   0.008   1.326   5.786
  765SOL    HW1 3191  -0.085   1.347   5.755
  765SOL    HW2 3192   0.018   1.227   5.799
  766SOL     OW 3193   0.088   1.801   6.513
  766SOL    HW1 3194   0.046   1.715   6.486
  766SOL    HW2 3195   0.182   1.804   6.479
  767SOL     OW 3196   0.504   1.568   6.496
  767SOL    HW1 3197   0.570   1.642   6.505
  767SOL    HW2 3198   0.548   1.489   6.454
  768SOL     OW 3199   1.002   0.796   6.824
  768SOL    HW1 3200   1.043   0.764   6.910
  768SOL    HW2 3201   0.906   0.769   6.821
  769SOL     OW 3202   0.040   0.544   6.700
  769SOL    HW1 3203   0.125   0.511   6.659
  769SOL    HW2 3204   0.053   0.559   6.798
  770SOL     OW 3205   0.189   0.520   7.308
  770SOL    HW1 3206   0.248   0.480   7.238
  770SOL    HW2 3207   0.131   0.591   7.267
  771SOL     OW 3208   1.369   0.950   7.246
  771SOL    HW1 3209   1.408   1.039   7.266
  771SOL    HW2 3210   1.379   0.930   7.149
  772SOL     OW 3211   0.815   0.572   5.911
  772SOL    HW1 3212   0.822   0.483   5.865
  772SOL    HW2 3213   0.721   0.606   5.903
  773SOL     OW 3214   1.657   0.604   6.792
  773SOL    HW1 3215   1.619   0.535   6.854
  773SOL    HW2 3216   1.739   0.568   6.748
  774SOL     OW 3217   0.252   1.564   7.330
  774SOL    HW1 3218   0.222   1.621   7.406
  774SOL    HW2 3219   0.245   1.467   7.356
  775SOL     OW 3220   0.671   0.464   6.855
  775SOL    HW1 3221   0.637   0.375   6.825
  775SOL    HW2 3222   0.697   0.518   6.775
  776SOL     OW 3223   0.930   1.678   7.051
  776SOL    HW1 3224   0.906   1.660   6.956
  776SOL    HW2 3225   0.960   1.772   7.061
  777SOL     OW 3226   0.473   0.500   5.777
  777SOL    HW1 3227   0.534   0.580   5.781
  777SOL    HW2 3228   0.378   0.531   5.784
  778SOL     OW 3229   0.159   1.137   7.052
  778SOL    HW1 3230   0.181   1.076   7.128
  778SOL    HW2 3231   0.169   1.088   6.966
  779SOL     OW 3232   1.347   1.059   6.820
  779SOL    HW1 3233   1.371   0.996   6.746
  779SOL    HW2 3234   1.257   1.099   6.802
  780SOL     OW 3235   1.302   0.855   5.895
  780SOL    HW1 3236   1.216   0.824   5.937
  780SOL    HW2 3237   1.298   0.841   5.796
  781SOL     OW 3238   1.759   1.747   6.740
  781SOL    HW1 3239   1.820   1.777   6.667
  781SOL    HW2 3240   1.721   1.658   6.718
  782SOL     OW 3241   1.252   1.731   6.714
  782SOL    HW1 3242   1.336   1.736   6.660
  782SOL    HW2 3243   1.229   1.635   6.732
  783SOL     OW 3244   0.083   1.258   6.608
  783SOL    HW1 3245   0.078   1.257   6.708
  783SOL    HW2 3246   0.000   1.217   6.570
  784SOL     OW 3247   0.688   1.662   7.302
  784SOL    HW1 3248   0.632   1.743   7.311
  784SOL    HW2 3249   0.740   1.666   7.216
  785SOL     OW 3250   1.726   0.135   6.109
  785SOL    HW1 3251   1.799   0.118   6.042
  785SOL    HW2 3252   1.695   0.048   6.147
  786SOL     OW 3253   1.388   1.573   6.063
  786SOL    HW1 3254   1.455   1.585   5.989
  786SOL    HW2 3255   1.348   1.662   6.086
  787SOL     OW 3256   0.130   1.794   7.437
  787SOL    HW1 3257   0.089   1.720   7.490
  787SOL    HW2 3258   0.194   1.845   7.495
  788SOL     OW 3259   1.280   0.927   6.258
  788SOL    HW1 3260   1.340   0.846   6.260
  788SOL    HW2 3261   1.320   0.996   6.198
  789SOL     OW 3262   0.830   1.273   7.008
  789SOL    HW1 3263   0.825   1.306   7.103
  789SOL    HW2 3264   0.744   1.292   6.962
  790SOL     OW 3265   0.672   1.616   5.740
  790SOL    HW1 3266   0.681   1.626   5.641
  790SOL    HW2 3267   0.632   1.527   5.761
  791SOL     OW 3268   1.650   1.720   6.980
  791SOL    HW1 3269   1.703   1.730   6.896
  791SOL    HW2 3270   1.623   1.810   7.014
  792SOL     OW 3271   1.841   0.175   6.549
  792SOL    HW1 3272   1.880   0.090   6.513
  792SOL    HW2 3273   1.743   0.177   6.530
  793SOL     OW 3274   0.263   0.326   6.306
  793SOL    HW1 3275   0.184   0.377   6.272
  793SOL    HW2 3276   0.254   0.311   6.404
  794SOL     OW 3277   1.194   1.612   5.617
  794SOL    HW1 3278   1.200   1.519   5.654
  794SOL    HW2 3279   1.135   1.612   5.537
  795SOL     OW 3280   0.822   1.002   6.958
  795SOL    HW1 3281   0.862   1.001   6.866
  795SOL    HW2 3282   0.832   1.094   6.998
  796SOL     OW 3283   0.916   0.910   5.877
  796SOL    HW1 3284   0.979   0.948   5.809
  796SOL    HW2 3285   0.956   0.827   5.916
  797SOL     OW 3286   1.504   1.607   5.630
  797SOL    HW1 3287   1.412   1.644   5.637
  797SOL    HW2 3288   1.542   1.627   5.540
  798SOL     OW 3289   0.372   1.288   7.076
  798SOL    HW1 3290   0.359   1.381   7.042
  798SOL    HW2 3291   0.288   1.236   7.063
  799SOL     OW 3292   1.614   1.292   6.875
  799SOL    HW1 3293   1.674   1.295   6.955
  799SOL    HW2 3294   1.539   1.356   6.888
  800SOL     OW 3295   1.039   1.098   6.282
  800SOL    HW1 3296   0.969   1.051   6.336
  800SOL    HW2 3297   1.098   1.030   6.239
  801SOL     OW 3298   1.014   0.236   6.557
  801SOL    HW1 3299   1.006   0.200   6.464
  801SOL    HW2 3300   1.012   0.160   6.622
  802SOL     OW 3301   0.590   1.487   6.077
  802SOL    HW1 3302   0.632   1.429   6.007
  802SOL    HW2 3303   0.546   1.566   6.033
  803SOL     OW 3304   1.709   0.385   6.967
  803SOL    HW1 3305   1.782   0.454   6.971
  803SOL    HW2 3306   1.737   0.310   6.908
  804SOL     OW 3307   0.255   1.348   5.876
  804SOL    HW1 3308   0.159   1.349   5.849
  804SOL    HW2 3309   0.267   1.401   5.960
  805SOL     OW 3310   0.105   1.013   7.312
  805SOL    HW1 3311   0.028   0.980   7.366
  805SOL    HW2 3312   0.190   0.983   7.354
  806SOL     OW 3313   0.672   0.203   7.075
  806SOL    HW1 3314   0.762   0.187   7.035
  806SOL    HW2 3315   0.680   0.208   7.174
  807SOL     OW 3316   0.075   0.345   5.619
  807SOL    HW1 3317  -0.017   0.317   5.590
  807SOL    HW2 3318   0.106   0.422   5.563
  808SOL     OW 3319   1.440   0.856   6.984
  808SOL    HW1 3320   1.383   0.908   6.921
  808SOL    HW2 3321   1.536   0.868   6.960
  809SOL     OW 3322   0.072   0.166   5.904
  809SOL    HW1 3323   0.055   0.249   5.850
  809SOL    HW2 3324   0.162   0.129   5.882
  810SOL     OW 3325   1.183   1.335   5.705
  810SOL    HW1 3326   1.084   1.324   5.707
  810SOL    HW2 3327   1.217   1.350   5.798
  811SOL     OW 3328   0.613   0.842   7.017
  811SOL    HW1 3329   0.669   0.923   7.000
  811SOL    HW2 3330   0.672   0.762   7.020
  812SOL     OW 3331   0.716   0.565   7.294
  812SOL    HW1 3332   0.735   0.630   7.368
  812SOL    HW2 3333   0.776   0.485   7.303
  813SOL     OW 3334   1.450   1.220   7.219
  813SOL    HW1 3335   1.441   1.210   7.318
  813SOL    HW2 3336   1.546   1.213   7.193
  814SOL     OW 3337   0.390   1.741   7.146
  814SOL    HW1 3338   0.299   1.782   7.144
  814SOL    HW2 3339   0.383   1.647   7.178
  815SOL     OW 3340   1.674   0.883   6.840
  815SOL    HW1 3341   1.647   0.794   6.803
  815SOL    HW2 3342   1.675   0.951   6.767
  816SOL     OW 3343   1.225   0.325   6.035
  816SOL    HW1 3344   1.290   0.251   6.024
  816SOL    HW2 3345   1.245   0.375   6.119
  817SOL     OW 3346   0.594   0.745   6.238
  817SOL    HW1 3347   0.644   0.830   6.219
  817SOL    HW2 3348   0.506   0.747   6.190
  818SOL     OW 3349   1.777   0.342   7.228
  818SOL    HW1 3350   1.760   0.373   7.134
  818SOL    HW2 3351   1.693   0.305   7.266
  819SOL     OW 3352   1.730   0.934   7.103
  819SOL    HW1 3353   1.768   1.025   7.118
  819SOL    HW2 3354   1.722   0.917   7.004
  820SOL     OW 3355   0.859   1.374   5.602
  820SOL    HW1 3356   0.813   1.389   5.690
  820SOL    HW2 3357   0.903   1.459   5.572
  821SOL     OW 3358   0.661   1.790   6.539
  821SOL    HW1 3359   0.615   1.878   6.526
  821SOL    HW2 3360   0.760   1.802   6.532
  822SOL     OW 3361   0.859   0.956   6.447
  822SOL    HW1 3362   0.913   0.887   6.495
  822SOL    HW2 3363   0.827   1.025   6.513
  823SOL     OW 3364   1.083   0.984   5.673
  823SOL    HW1 3365   1.060   1.037   5.591
  823SOL    HW2 3366   1.164   0.928   5.654
  824SOL     OW 3367   0.221   1.314   7.430
  824SOL    HW1 3368   0.156   1.241   7.409
  824SOL    HW2 3369   0.225   1.328   7.528
  825SOL     OW 3370   0.079   1.240   6.239
  825SOL    HW1 3371   0.078   1.193   6.327
  825SOL    HW2 3372   0.161   1.212   6.188
  826SOL     OW 3373   0.672   1.391   7.210
  826SOL    HW1 3374   0.594   1.341   7.248
  826SOL    HW2 3375   0.669   1.486   7.241
  827SOL     OW 3376   1.824   0.192   6.813
  827SOL    HW1 3377   1.820   0.102   6.857
  827SOL    HW2 3378   1.827   0.181   6.714
  828SOL     OW 3379   0.428   0.424   6.106
  828SOL    HW1 3380   0.458   0.352   6.044
  828SOL    HW2 3381   0.389   0.384   6.189
  829SOL     OW 3382   1.705   1.487   6.690
  829SOL    HW1 3383   1.612   1.462   6.663
  829SOL    HW2 3384   1.731   1.437   6.772
  830SOL     OW 3385   0.317   0.547   6.866
  830SOL    HW1 3386   0.355   0.488   6.938
  830SOL    HW2 3387   0.357   0.521   6.778
  831SOL     OW 3388   0.812   1.586   6.273
  831SOL    HW1 3389   0.844   1.596   6.179
  831SOL    HW2 3390   0.733   1.524   6.275
  832SOL     OW 3391   1.424   0.214   6.698
  832SOL    HW1 3392   1.476   0.149   6.753
  832SOL    HW2 3393   1.375   0.277   6.759
  833SOL     OW 3394   1.001   0.034   6.740
  833SOL    HW1 3395   0.938  -0.038   6.709
  833SOL    HW2 3396   1.094  -0.002   6.740
  834SOL     OW 3397   0.770   1.330   5.887
  834SOL    HW1 3398   0.724   1.243   5.904
  834SOL    HW2 3399   0.861   1.327   5.928
  835SOL     OW 3400   0.618   1.567   6.870
  835SOL    HW1 3401   0.613   1.649   6.927
  835SOL    HW2 3402   0.707   1.564   6.825
  836SOL     OW 3403   1.352   0.052   5.754
  836SOL    HW1 3404   1.387   0.011   5.670
  836SOL    HW2 3405   1.262   0.014   5.774
  837SOL     OW 3406   1.300   0.453   6.277
  837SOL    HW1 3407   1.241   0.533   6.281
  837SOL    HW2 3408   1.315   0.418   6.370
  838SOL     OW 3409   1.593   0.221   6.468
  838SOL    HW1 3410   1.509   0.220   6.522
  838SOL    HW2 3411   1.595   0.304   6.412
  839SOL     OW 3412   0.039   1.077   5.886
  839SOL    HW1 3413   0.138   1.066   5.877
  839SOL    HW2 3414  -0.001   0.991   5.918
  840SOL     OW 3415   0.875   1.646   5.923
  840SOL    HW1 3416   0.798   1.611   5.869
  840SOL    HW2 3417   0.843   1.717   5.985
  841SOL     OW 3418   0.230   0.628   7.561
  841SOL    HW1 3419   0.137   0.626   7.598
  841SOL    HW2 3420   0.231   0.589   7.469
  842SOL     OW 3421   0.225   0.275   8.444
  842SOL    HW1 3422   0.260   0.258   8.536
  842SOL    HW2 3423   0.137   0.230   8.432
  843SOL     OW 3424   0.019   0.368   8.095
  843SOL    HW1 3425  -0.063   0.411   8.134
  843SOL    HW2 3426  -0.009   0.295   8.032
  844SOL     OW 3427   0.569   1.275   8.613
  844SOL    HW1 3428   0.476   1.268   8.576
  844SOL    HW2 3429   0.580   1.364   8.657
  845SOL     OW 3430   1.555   1.511   8.151
  845SOL    HW1 3431   1.498   1.495   8.232
  845SOL    HW2 3432   1.496   1.521   8.071
  846SOL     OW 3433   1.135   0.703   8.165
  846SOL    HW1 3434   1.192   0.781   8.140
  846SOL    HW2 3435   1.075   0.729   8.241
  847SOL     OW 3436   1.755   0.607   7.679
  847SOL    HW1 3437   1.743   0.594   7.580
  847SOL    HW2 3438   1.725   0.526   7.728
  848SOL     OW 3439   0.768   1.144   8.471
  848SOL    HW1 3440   0.690   1.161   8.531
  848SOL    HW2 3441   0.802   1.231   8.435
  849SOL     OW 3442   0.850   0.798   9.271
  849SOL    HW1 3443   0.846   0.874   9.336
  849SOL    HW2 3444   0.872   0.834   9.180
  850SOL     OW 3445   0.685   1.012   8.113
  850SOL    HW1 3446   0.754   0.996   8.183
  850SOL    HW2 3447   0.612   1.069   8.151
  851SOL     OW 3448   0.686   1.161   9.251
  851SOL    HW1 3449   0.746   1.240   9.265
  851SOL    HW2 3450   0.600   1.192   9.210
  852SOL     OW 3451   0.335   1.435   8.509
  852SOL    HW1 3452   0.257   1.404   8.456
  852SOL    HW2 3453   0.393   1.493   8.452
  853SOL     OW 3454   1.460   1.505   8.787
  853SOL    HW1 3455   1.484   1.599   8.813
  853SOL    HW2 3456   1.444   1.451   8.869
  854SOL     OW 3457   0.438   0.392   8.947
  854SOL    HW1 3458   0.520   0.336   8.956
  854SOL    HW2 3459   0.357   0.334   8.951
  855SOL     OW 3460   1.603   0.447   8.185
  855SOL    HW1 3461   1.529   0.493   8.135
  855SOL    HW2 3462   1.654   0.515   8.238
  856SOL     OW 3463   0.231   1.713   7.931
  856SOL    HW1 3464   0.265   1.790   7.985
  856SOL    HW2 3465   0.275   1.713   7.841
  857SOL     OW 3466   1.127   1.341   9.138
  857SOL    HW1 3467   1.174   1.341   9.226
  857SOL    HW2 3468   1.079   1.254   9.127
  858SOL     OW 3469   0.230   1.434   7.986
  858SOL    HW1 3470   0.204   1.530   7.986
  858SOL    HW2 3471   0.159   1.380   8.031
  859SOL     OW 3472   0.240   1.091   8.334
  859SOL    HW1 3473   0.254   1.007   8.386
  859SOL    HW2 3474   0.185   1.155   8.389
  860SOL     OW 3475   0.620   1.786   8.887
  860SOL    HW1 3476   0.528   1.769   8.922
  860SOL    HW2 3477   0.648   1.878   8.913
  861SOL     OW 3478   0.606   0.964   7.571
  861SOL    HW1 3479   0.613   1.048   7.517
  861SOL    HW2 3480   0.652   0.977   7.659
  862SOL     OW 3481   1.594   0.114   8.928
  862SOL    HW1 3482   1.576   0.181   8.856
  862SOL    HW2 3483   1.591   0.160   9.017
  863SOL     OW 3484   0.122   0.643   8.011
  863SOL    HW1 3485   0.077   0.555   8.028
  863SOL    HW2 3486   0.121   0.697   8.095
  864SOL     OW 3487   1.842   1.767   7.807
  864SOL    HW1 3488   1.896   1.738   7.887
  864SOL    HW2 3489   1.872   1.857   7.778
  865SOL     OW 3490   0.027   1.596   7.565
  865SOL    HW1 3491   0.008   1.500   7.586
  865SOL    HW2 3492  -0.006   1.654   7.640
  866SOL     OW 3493   1.689   0.922   8.060
  866SOL    HW1 3494   1.784   0.893   8.068
  866SOL    HW2 3495   1.681   0.987   7.985
  867SOL     OW 3496   1.641   1.108   7.880
  867SOL    HW1 3497   1.727   1.110   7.828
  867SOL    HW2 3498   1.655   1.155   7.968
  868SOL     OW 3499   0.113   0.737   9.045
  868SOL    HW1 3500   0.201   0.724   9.090
  868SOL    HW2 3501   0.100   0.834   9.023
  869SOL     OW 3502   0.613   1.365   8.174
  869SOL    HW1 3503   0.564   1.278   8.183
  869SOL    HW2 3504   0.590   1.408   8.087
  870SOL     OW 3505   1.293   1.228   8.871
  870SOL    HW1 3506   1.330   1.155   8.813
  870SOL    HW2 3507   1.345   1.233   8.956
  871SOL     OW 3508   0.809   0.004   7.950
  871SOL    HW1 3509   0.849   0.095   7.941
  871SOL    HW2 3510   0.709   0.012   7.956
  872SOL     OW 3511   0.197   0.976   8.712
  872SOL    HW1 3512   0.286   0.931   8.698
  872SOL    HW2 3513   0.124   0.911   8.693
  873SOL     OW 3514   1.525   0.999   7.638
  873SOL    HW1 3515   1.462   0.923   7.651
  873SOL    HW2 3516   1.573   1.017   7.724
  874SOL     OW 3517   1.187   1.792   9.064
  874SOL    HW1 3518   1.211   1.852   8.988
  874SOL    HW2 3519   1.194   1.697   9.034
  875SOL     OW 3520   0.317   0.251   9.249
  875SOL    HW1 3521   0.388   0.322   9.255
  875SOL    HW2 3522   0.229   0.290   9.277
  876SOL     OW 3523   1.466   1.417   8.401
  876SOL    HW1 3524   1.407   1.423   8.481
  876SOL    HW2 3525   1.451   1.329   8.355
  877SOL     OW 3526   1.667   1.714   8.020
  877SOL    HW1 3527   1.626   1.691   7.932
  877SOL    HW2 3528   1.649   1.640   8.085
  878SOL     OW 3529   0.598   0.729   7.718
  878SOL    HW1 3530   0.622   0.798   7.650
  878SOL    HW2 3531   0.520   0.762   7.772
  879SOL     OW 3532   1.281   0.345   8.392
  879SOL    HW1 3533   1.195   0.295   8.379
  879SOL    HW2 3534   1.343   0.291   8.448
  880SOL     OW 3535   1.576   1.662   7.755
  880SOL    HW1 3536   1.665   1.708   7.758
  880SOL    HW2 3537   1.555   1.638   7.660
  881SOL     OW 3538   0.807   0.605   8.913
  881SOL    HW1 3539   0.760   0.602   9.002
  881SOL    HW2 3540   0.756   0.550   8.847
  882SOL     OW 3541   1.394   0.469   9.122
  882SOL    HW1 3542   1.374   0.512   9.210
  882SOL    HW2 3543   1.472   0.407   9.131
  883SOL     OW 3544   0.973   0.890   9.020
  883SOL    HW1 3545   1.019   0.806   8.991
  883SOL    HW2 3546   0.917   0.924   8.945
  884SOL     OW 3547   0.991   0.410   8.690
  884SOL    HW1 3548   0.914   0.444   8.744
  884SOL    HW2 3549   0.957   0.359   8.611
  885SOL     OW 3550   1.041   0.701   7.877
  885SOL    HW1 3551   1.067   0.697   7.973
  885SOL    HW2 3552   0.956   0.650   7.863
  886SOL     OW 3553   0.076   0.811   8.237
  886SOL    HW1 3554   0.175   0.799   8.246
  886SOL    HW2 3555   0.052   0.906   8.258
  887SOL     OW 3556   0.130   1.821   9.019
  887SOL    HW1 3557   0.120   1.806   9.118
  887SOL    HW2 3558   0.044   1.857   8.983
  888SOL     OW 3559   0.865   0.348   7.643
  888SOL    HW1 3560   0.924   0.411   7.594
  888SOL    HW2 3561   0.884   0.254   7.614
  889SOL     OW 3562   1.719   0.585   9.279
  889SOL    HW1 3563   1.693   0.674   9.243
  889SOL    HW2 3564   1.717   0.517   9.206
  890SOL     OW 3565   1.362   1.144   7.993
  890SOL    HW1 3566   1.445   1.115   7.945
  890SOL    HW2 3567   1.313   1.211   7.937
  891SOL     OW 3568   0.550   0.196   8.333
  891SOL    HW1 3569   0.545   0.191   8.433
  891SOL    HW2 3570   0.552   0.292   8.304
  892SOL     OW 3571   1.008   1.456   7.925
  892SOL    HW1 3572   0.962   1.528   7.873
  892SOL    HW2 3573   1.004   1.476   8.023
  893SOL     OW 3574   0.351   1.801   8.301
  893SOL    HW1 3575   0.401   1.715   8.307
  893SOL    HW2 3576   0.416   1.878   8.298
  894SOL     OW 3577   1.795   1.066   8.321
  894SOL    HW1 3578   1.733   1.051   8.245
  894SOL    HW2 3579   1.743   1.077   8.406
  895SOL     OW 3580   1.227   1.550   8.954
  895SOL    HW1 3581   1.233   1.473   9.018
  895SOL    HW2 3582   1.175   1.524   8.874
  896SOL     OW 3583   0.321   0.943   7.690
  896SOL    HW1 3584   0.403   0.982   7.648
  896SOL    HW2 3585   0.294   0.861   7.641
  897SOL     OW 3586   1.458   0.735   8.176
  897SOL    HW1 3587   1.453   0.670   8.251
  897SOL    HW2 3588   1.538   0.794   8.189
  898SOL     OW 3589   0.461   1.266   9.175
  898SOL    HW1 3590   0.411   1.267   9.089
  898SOL    HW2 3591   0.398   1.248   9.251
  899SOL     OW 3592   1.111   1.776   7.685
  899SOL    HW1 3593   1.051   1.714   7.735
  899SOL    HW2 3594   1.142   1.732   7.600
  900SOL     OW 3595   0.202   0.285   8.946
  900SOL    HW1 3596   0.122   0.345   8.933
  900SOL    HW2 3597   0.192   0.236   9.032
  901SOL     OW 3598   1.632   1.377   7.529
  901SOL    HW1 3599   1.600   1.471   7.519
  901SOL    HW2 3600   1.556   1.314   7.517
  902SOL     OW 3601   0.464   1.743   7.771
  902SOL    HW1 3602   0.497   1.782   7.857
  902SOL    HW2 3603   0.540   1.736   7.706
  903SOL     OW 3604   1.400   0.107   7.874
  903SOL    HW1 3605   1.376   0.070   7.784
  903SOL    HW2 3606   1.499   0.123   7.878
  904SOL     OW 3607   0.249   1.785   8.689
  904SOL    HW1 3608   0.306   1.720   8.739
  904SOL    HW2 3609   0.233   1.752   8.596
  905SOL     OW 3610   0.940   1.698   8.352
  905SOL    HW1 3611   1.020   1.641   8.373
  905SOL    HW2 3612   0.891   1.658   8.275
  906SOL     OW 3613   0.382   0.700   7.928
  906SOL    HW1 3614   0.427   0.610   7.925
  906SOL    HW2 3615   0.288   0.689   7.961
  907SOL     OW 3616   1.547   0.222   9.177
  907SOL    HW1 3617   1.542   0.259   9.269
  907SOL    HW2 3618   1.475   0.153   9.165
  908SOL     OW 3619   0.614   0.122   7.565
  908SOL    HW1 3620   0.712   0.100   7.572
  908SOL    HW2 3621   0.583   0.105   7.472
  909SOL     OW 3622   0.781   0.264   9.197
  909SOL    HW1 3623   0.848   0.203   9.240
  909SOL    HW2 3624   0.708   0.283   9.262
  910SOL     OW 3625   0.888   1.514   8.643
  910SOL    HW1 3626   0.865   1.489   8.549
  910SOL    HW2 3627   0.949   1.445   8.682
  911SOL     OW 3628   1.351   0.590   8.881
  911SOL    HW1 3629   1.379   0.547   8.966
  911SOL    HW2 3630   1.376   0.686   8.882
  912SOL     OW 3631   0.803   1.402   8.372
  912SOL    HW1 3632   0.893   1.416   8.330
  912SOL    HW2 3633   0.732   1.404   8.301
  913SOL     OW 3634   0.922   0.503   8.347
  913SOL    HW1 3635   0.897   0.494   8.251
  913SOL    HW2 3636   0.970   0.421   8.378
  914SOL     OW 3637   0.539   0.064   7.960
  914SOL    HW1 3638   0.458   0.065   8.018
  914SOL    HW2 3639   0.542   0.147   7.905
  915SOL     OW 3640   1.434   1.188   7.489
  915SOL    HW1 3641   1.466   1.112   7.546
  915SOL    HW2 3642   1.342   1.215   7.519
  916SOL     OW 3643   0.297   0.035   7.619
  916SOL    HW1 3644   0.346   0.119   7.598
  916SOL    HW2 3645   0.359  -0.030   7.664
  917SOL     OW 3646   0.935   0.236   7.928
  917SOL    HW1 3647   0.887   0.277   7.850
  917SOL    HW2 3648   1.034   0.234   7.909
  918SOL     OW 3649   1.076   0.683   8.912
  918SOL    HW1 3650   0.996   0.622   8.915
  918SOL    HW2 3651   1.157   0.630   8.888
  919SOL     OW 3652   1.227   1.570   8.241
  919SOL    HW1 3653   1.248   1.644   8.176
  919SOL    HW2 3654   1.295   1.570   8.314
  920SOL     OW 3655   0.459   1.152   8.189
  920SOL    HW1 3656   0.388   1.125   8.254
  920SOL    HW2 3657   0.433   1.124   8.096
  921SOL     OW 3658   1.271   1.797   8.039
  921SOL    HW1 3659   1.315   1.861   7.975
  921SOL    HW2 3660   1.221   1.849   8.109
  922SOL     OW 3661   1.032   0.549   7.464
  922SOL    HW1 3662   0.991   0.631   7.425
  922SOL    HW2 3663   1.096   0.575   7.537
  923SOL     OW 3664   0.078   0.556   8.834
  923SOL    HW1 3665   0.170   0.555   8.793
  923SOL    HW2 3666   0.072   0.630   8.901
  924SOL     OW 3667   0.561   0.222   8.595
  924SOL    HW1 3668   0.599   0.138   8.632
  924SOL    HW2 3669   0.473   0.241   8.639
  925SOL     OW 3670   0.866   0.454   8.090
  925SOL    HW1 3671   0.834   0.526   8.028
  925SOL    HW2 3672   0.890   0.373   8.037
  926SOL     OW 3673   1.017   0.039   8.201
  926SOL    HW1 3674   0.945   0.044   8.132
  926SOL    HW2 3675   0.993  -0.030   8.270
  927SOL     OW 3676   1.429   1.173   8.315
  927SOL    HW1 3677   1.374   1.089   8.308
  927SOL    HW2 3678   1.455   1.202   8.223
  928SOL     OW 3679   1.466   0.590   8.440
  928SOL    HW1 3680   1.436   0.495   8.447
  928SOL    HW2 3681   1.539   0.606   8.506
  929SOL     OW 3682   1.857   0.833   7.825
  929SOL    HW1 3683   1.899   0.769   7.889
  929SOL    HW2 3684   1.819   0.782   7.747
  930SOL     OW 3685   0.488   1.385   7.622
  930SOL    HW1 3686   0.401   1.370   7.669
  930SOL    HW2 3687   0.471   1.411   7.527
  931SOL     OW 3688   1.664   1.280   8.105
  931SOL    HW1 3689   1.763   1.288   8.119
  931SOL    HW2 3690   1.619   1.364   8.136
  932SOL     OW 3691   1.390   0.575   7.526
  932SOL    HW1 3692   1.336   0.554   7.607
  932SOL    HW2 3693   1.481   0.534   7.535
  933SOL     OW 3694   0.527   0.256   7.776
  933SOL    HW1 3695   0.554   0.197   7.701
  933SOL    HW2 3696   0.527   0.351   7.745
  934SOL     OW 3697   1.754   1.223   9.036
  934SOL    HW1 3698   1.845   1.184   9.023
  934SOL    HW2 3699   1.762   1.319   9.060
  935SOL     OW 3700   1.064   1.347   8.788
  935SOL    HW1 3701   0.984   1.324   8.843
  935SOL    HW2 3702   1.147   1.321   8.837
  936SOL     OW 3703   1.592   1.629   9.073
  936SOL    HW1 3704   1.619   1.663   8.983
  936SOL    HW2 3705   1.671   1.591   9.119
  937SOL     OW 3706   1.111   1.195   8.548
  937SOL    HW1 3707   1.071   1.239   8.629
  937SOL    HW2 3708   1.070   1.232   8.465
  938SOL     OW 3709   1.638   1.099   8.527
  938SOL    HW1 3710   1.643   1.180   8.586
  938SOL    HW2 3711   1.552   1.101   8.476
  939SOL     OW 3712   0.915   0.089   8.850
  939SOL    HW1 3713   0.940   0.069   8.755
  939SOL    HW2 3714   0.987   0.145   8.892
  940SOL     OW 3715   0.980   1.116   9.167
  940SOL    HW1 3716   0.881   1.122   9.177
  940SOL    HW2 3717   1.003   1.036   9.111
  941SOL     OW 3718   0.705   1.050   7.816
  941SOL    HW1 3719   0.691   1.057   7.915
  941SOL    HW2 3720   0.789   0.999   7.798
  942SOL     OW 3721   0.410   0.813   8.699
  942SOL    HW1 3722   0.496   0.825   8.749
  942SOL    HW2 3723   0.368   0.726   8.726
  943SOL     OW 3724   1.274   0.386   8.710
  943SOL    HW1 3725   1.295   0.460   8.774
  943SOL    HW2 3726   1.185   0.403   8.667
  944SOL     OW 3727   0.064   1.564   8.779
  944SOL    HW1 3728   0.018   1.646   8.745
  944SOL    HW2 3729   0.162   1.583   8.788
  945SOL     OW 3730   0.367   1.100   7.949
  945SOL    HW1 3731   0.360   1.183   7.893
  945SOL    HW2 3732   0.371   1.020   7.889
  946SOL     OW 3733   0.566   0.537   8.313
  946SOL    HW1 3734   0.578   0.603   8.239
  946SOL    HW2 3735   0.612   0.571   8.396
  947SOL     OW 3736   1.252   1.348   7.836
  947SOL    HW1 3737   1.302   1.425   7.876
  947SOL    HW2 3738   1.157   1.350   7.868
  948SOL     OW 3739   1.272   1.445   8.590
  948SOL    HW1 3740   1.319   1.458   8.677
  948SOL    HW2 3741   1.206   1.371   8.599
  949SOL     OW 3742   1.582   0.639   7.920
  949SOL    HW1 3743   1.551   0.700   7.993
  949SOL    HW2 3744   1.632   0.691   7.851
  950SOL     OW 3745   0.354   1.510   8.777
  950SOL    HW1 3746   0.333   1.466   8.690
  950SOL    HW2 3747   0.451   1.536   8.780
  951SOL     OW 3748   0.402   0.751   9.046
  951SOL    HW1 3749   0.470   0.806   8.999
  951SOL    HW2 3750   0.442   0.663   9.073
  952SOL     OW 3751   1.587   0.779   9.118
  952SOL    HW1 3752   1.495   0.817   9.113
  952SOL    HW2 3753   1.647   0.826   9.053
  953SOL     OW 3754   1.013   0.105   9.218
  953SOL    HW1 3755   1.019   0.190   9.166
  953SOL    HW2 3756   1.045   0.029   9.161
  954SOL     OW 3757   0.504   0.050   9.188
  954SOL    HW1 3758   0.462  -0.007   9.118
  954SOL    HW2 3759   0.438   0.119   9.220
  955SOL     OW 3760   0.573   0.870   8.477
  955SOL    HW1 3761   0.617   0.959   8.468
  955SOL    HW2 3762   0.510   0.870   8.554
  956SOL     OW 3763   1.360   0.862   8.493
  956SOL    HW1 3764   1.285   0.862   8.427
  956SOL    HW2 3765   1.397   0.770   8.502
  957SOL     OW 3766   1.209   0.525   7.723
  957SOL    HW1 3767   1.222   0.441   7.777
  957SOL    HW2 3768   1.180   0.599   7.783
  958SOL     OW 3769   0.307   0.213   8.679
  958SOL    HW1 3770   0.284   0.250   8.769
  958SOL    HW2 3771   0.277   0.118   8.673
  959SOL     OW 3772   0.037   1.310   8.730
  959SOL    HW1 3773   0.090   1.261   8.798
  959SOL    HW2 3774   0.059   1.408   8.735
  960SOL     OW 3775   0.732   0.634   8.512
  960SOL    HW1 3776   0.791   0.608   8.436
  960SOL    HW2 3777   0.704   0.730   8.501
  961SOL     OW 3778   1.728   0.935   9.302
  961SOL    HW1 3779   1.682   0.928   9.213
  961SOL    HW2 3780   1.666   0.979   9.368
  962SOL     OW 3781   0.307   0.063   8.066
  962SOL    HW1 3782   0.296   0.157   8.099
  962SOL    HW2 3783   0.302   0.000   8.143
  963SOL     OW 3784   1.622   0.367   7.822
  963SOL    HW1 3785   1.624   0.291   7.886
  963SOL    HW2 3786   1.574   0.444   7.862
  964SOL     OW 3787   1.023   0.766   8.414
  964SOL    HW1 3788   1.038   0.787   8.510
  964SOL    HW2 3789   0.993   0.671   8.405
  965SOL     OW 3790   0.980   1.573   9.148
  965SOL    HW1 3791   0.960   1.617   9.060
  965SOL    HW2 3792   1.019   1.482   9.132
  966SOL     OW 3793   1.859   1.518   9.053
  966SOL    HW1 3794   1.873   1.545   8.958
  966SOL    HW2 3795   1.942   1.540   9.106
  967SOL     OW 3796   0.350   0.898   9.252
  967SOL    HW1 3797   0.426   0.942   9.300
  967SOL    HW2 3798   0.385   0.851   9.170
  968SOL     OW 3799   1.540   0.274   7.573
  968SOL    HW1 3800   1.479   0.199   7.596
  968SOL    HW2 3801   1.562   0.326   7.656
  969SOL     OW 3802   1.303   0.838   7.490
  969SOL    HW1 3803   1.337   0.745   7.505
  969SOL    HW2 3804   1.321   0.865   7.395
  970SOL     OW 3805   1.068   1.333   8.297
  970SOL    HW1 3806   1.075   1.249   8.242
  970SOL    HW2 3807   1.130   1.402   8.261
  971SOL     OW 3808   0.319   0.810   8.397
  971SOL    HW1 3809   0.412   0.846   8.402
  971SOL    HW2 3810   0.313   0.725   8.449
  972SOL     OW 3811   0.339   0.509   8.454
  972SOL    HW1 3812   0.287   0.426   8.437
  972SOL    HW2 3813   0.416   0.514   8.390
  973SOL     OW 3814   1.138   0.380   9.126
  973SOL    HW1 3815   1.093   0.443   9.190
  973SOL    HW2 3816   1.231   0.411   9.109
  974SOL     OW 3817   1.160   0.207   8.925
  974SOL    HW1 3818   1.160   0.271   9.002
  974SOL    HW2 3819   1.188   0.255   8.842
  975SOL     OW 3820   0.008   1.326   7.648
  975SOL    HW1 3821  -0.085   1.347   7.617
  975SOL    HW2 3822   0.018   1.227   7.661
  976SOL     OW 3823   0.088   1.801   8.375
  976SOL    HW1 3824   0.046   1.715   8.348
  976SOL    HW2 3825   0.182   1.804   8.341
  977SOL     OW 3826   0.504   1.568   8.358
  977SOL    HW1 3827   0.570   1.642   8.367
  977SOL    HW2 3828   0.548   1.489   8.316
  978SOL     OW 3829   1.002   0.796   8.686
  978SOL    HW1 3830   1.043   0.764   8.772
  978SOL    HW2 3831   0.906   0.769   8.683
  979SOL     OW 3832   0.040   0.544   8.562
  979SOL    HW1 3833   0.125   0.511   8.521
  979SOL    HW2 3834   0.053   0.559   8.660
  980SOL     OW 3835   0.189   0.520   9.170
  980SOL    HW1 3836   0.248   0.480   9.100
  980SOL    HW2 3837   0.131   0.591   9.129
  981SOL     OW 3838   1.369   0.950   9.108
  981SOL    HW1 3839   1.408   1.039   9.128
  981SOL    HW2 3840   1.379   0.930   9.011
  982SOL     OW 3841   0.815   0.572   7.773
  982SOL    HW1 3842   0.822   0.483   7.727
  982SOL    HW2 3843   0.721   0.606   7.765
  983SOL     OW 3844   1.657   0.604   8.654
  983SOL    HW1 3845   1.619   0.535   8.716
  983SOL    HW2 3846   1.739   0.568   8.610
  984SOL     OW 3847   0.252   1.564   9.192
  984SOL    HW1 3848   0.222   1.621   9.268
  984SOL    HW2 3849   0.245   1.467   9.218
  985SOL     OW 3850   0.671   0.464   8.717
  985SOL    HW1 3851   0.637   0.375   8.687
  985SOL    HW2 3852   0.697   0.518   8.637
  986SOL     OW 3853   0.930   1.678   8.913
  986SOL    HW1 3854   0.906   1.660   8.818
  986SOL    HW2 3855   0.960   1.772   8.923
  987SOL     OW 3856   0.473   0.500   7.639
  987SOL    HW1 3857   0.534   0.580   7.643
  987SOL    HW2 3858   0.378   0.531   7.646
  988SOL     OW 3859   0.159   1.137   8.914
  988SOL    HW1 3860   0.181   1.076   8.990
  988SOL    HW2 3861   0.169   1.088   8.828
  989SOL     OW 3862   1.347   1.059   8.682
  989SOL    HW1 3863   1.371   0.996   8.608
  989SOL    HW2 3864   1.257   1.099   8.664
  990SOL     OW 3865   1.302   0.855   7.757
  990SOL    HW1 3866   1.216   0.824   7.799
  990SOL    HW2 3867   1.298   0.841   7.658
  991SOL     OW 3868   1.759   1.747   8.602
  991SOL    HW1 3869   1.820   1.777   8.529
  991SOL    HW2 3870   1.721   1.658   8.580
  992SOL     OW 3871   1.252   1.731   8.576
  992SOL    HW1 3872   1.336   1.736   8.522
  992SOL    HW2 3873   1.229   1.635   8.594
  993SOL     OW 3874   0.083   1.258   8.470
  993SOL    HW1 3875   0.078   1.257   8.570
  993SOL    HW2 3876   0.000   1.217   8.432
  994SOL     OW 3877   0.688   1.662   9.164
  994SOL    HW1 3878   0.632   1.743   9.173
  994SOL    HW2 3879   0.740   1.666   9.078
  995SOL     OW 3880   1.726   0.135   7.971
  995SOL    HW1 3881   1.799   0.118   7.904
  995SOL    HW2 3882   1.695   0.048   8.009
  996SOL     OW 3883   1.388   1.573   7.925
  996SOL    HW1 3884   1.455   1.585   7.851
  996SOL    HW2 3885   1.348   1.662   7.948
  997SOL     OW 3886   0.130   1.794   9.299
  997SOL    HW1 3887   0.089   1.720   9.352
  997SOL    HW2 3888   0.194   1.845   9.357
  998SOL     OW 3889   1.280   0.927   8.120
  998SOL    HW1 3890   1.340   0.846   8.122
  998SOL    HW2 3891   1.320   0.996   8.060
  999SOL     OW 3892   0.830   1.273   8.870
  999SOL    HW1 3893   0.825   1.306   8.965
  999SOL    HW2 3894   0.744   1.292   8.824
 1000SOL     OW 3895   0.672   1.616   7.602
 1000SOL    HW1 3896   0.681   1.626   7.503
 1000SOL    HW2 3897   0.632   1.527   7.623
 1001SOL     OW 3898   1.650   1.720   8.842
 1001SOL    HW1 3899   1.703   1.730   8.758
 1001SOL    HW2 3900   1.623   1.810   8.876
 1002SOL     OW 3901   1.841   0.175   8.411
 1002SOL    HW1 3902   1.880   0.090   8.375
 1002SOL    HW2 3903   1.743   0.177   8.392
 1003SOL     OW 3904   0.263   0.326   8.168
 1003SOL    HW1 3905   0.184   0.377   8.134
 1003SOL    HW2 3906   0.254   0.311   8.266
 1004SOL     OW 3907   1.194   1.612   7.479
 1004SOL    HW1 3908   1.200   1.519   7.516
 1004SOL    HW2 3909   1.135   1.612   7.399
 1005SOL     OW 3910   0.822   1.002   8.820
 1005SOL    HW1 3911   0.862   1.001   8.728
 1005SOL    HW2 3912   0.832   1.094   8.860
 1006SOL     OW 3913   0.916   0.910   7.739
 1006SOL    HW1 3914   0.979   0.948   7.671
 1006SOL    HW2 3915   0.956   0.827   7.778
 1007SOL     OW 3916   1.504   1.607   7.492
 1007SOL    HW1 3917   1.412   1.644   7.499
 1007SOL    HW2 3918   1.542   1.627   7.402
 1008SOL     OW 3919   0.372   1.288   8.938
 1008SOL    HW1 3920   0.359   1.381   8.904
 1008SOL    HW2 3921   0.288   1.236   8.925
 1009SOL     OW 3922   1.614   1.292   8.737
 1009SOL    HW1 3923   1.674   1.295   8.817
 1009SOL    HW2 3924   1.539   1.356   8.750
 1010SOL     OW 3925   1.039   1.098   8.144
 1010SOL    HW1 3926   0.969   1.051   8.198
 1010SOL    HW2 3927   1.098   1.030   8.101
 1011SOL     OW 3928   1.014   0.236   8.419
 1011SOL    HW1 3929   1.006   0.200   8.326
 1011SOL    HW2 3930   1.012   0.160   8.484
 1012SOL     OW 3931   0.590   1.487   7.939
 1012SOL    HW1 3932   0.632   1.429   7.869
 1012SOL    HW2 3933   0.546   1.566   7.895
 1013SOL     OW 3934   1.709   0.385   8.829
 1013SOL    HW1 3935   1.782   0.454   8.833
 1013SOL    HW2 3936   1.737   0.310   8.770
 1014SOL     OW 3937   0.255   1.348   7.738
 1014SOL    HW1 3938   0.159   1.349   7.711
 1014SOL    HW2 3939   0.267   1.401   7.822
 1015SOL     OW 3940   0.105   1.013   9.174
 1015SOL    HW1 3941   0.028   0.980   9.228
 1015SOL    HW2 3942   0.190   0.983   9.216
 1016SOL     OW 3943   0.672   0.203   8.937
 1016SOL    HW1 3944   0.762   0.187   8.897
 1016SOL    HW2 3945   0.680   0.208   9.036
 1017SOL     OW 3946   0.075   0.345   7.481
 1017SOL    HW1 3947  -0.017   0.317   7.452
 1017SOL    HW2 3948   0.106   0.422   7.425
 1018SOL     OW 3949   1.440   0.856   8.846
 1018SOL    HW1 3950   1.383   0.908   8.783
 1018SOL    HW2 3951   1.536   0.868   8.822
 1019SOL     OW 3952   0.072   0.166   7.766
 1019SOL    HW1 3953   0.055   0.249   7.712
 1019SOL    HW2 3954   0.162   0.129   7.744
 1020SOL     OW 3955   1.183   1.335   7.567
 1020SOL    HW1 3956   1.084   1.324   7.569
 1020SOL    HW2 3957   1.217   1.350   7.660
 1021SOL     OW 3958   0.613   0.842   8.879
 1021SOL    HW1 3959   0.669   0.923   8.862
 1021SOL    HW2 3960   0.672   0.762   8.882
 1022SOL     OW 3961   1.493   1.767   8.407
 1022SOL    HW1 3962   1.526   1.831   8.338
 1022SOL    HW2 3963   1.559   1.761   8.482
 1023SOL     OW 3964   0.716   0.565   9.156
 1023SOL    HW1 3965   0.735   0.630   9.230
 1023SOL    HW2 3966   0.776   0.485   9.165
 1024SOL     OW 3967   1.450   1.220   9.081
 1024SOL    HW1 3968   1.441   1.210   9.180
 1024SOL    HW2 3969   1.546   1.213   9.055
 1025SOL     OW 3970   0.390   1.741   9.008
 1025SOL    HW1 3971   0.299   1.782   9.006
 1025SOL    HW2 3972   0.383   1.647   9.040
 1026SOL     OW 3973   1.674   0.883   8.702
 1026SOL    HW1 3974   1.647   0.794   8.665
 1026SOL    HW2 3975   1.675   0.951   8.629
 1027SOL     OW 3976   1.225   0.325   7.897
 1027SOL    HW1 3977   1.290   0.251   7.886
 1027SOL    HW2 3978   1.245   0.375   7.981
 1028SOL     OW 3979   0.594   0.745   8.100
 1028SOL    HW1 3980   0.644   0.830   8.081
 1028SOL    HW2 3981   0.506   0.747   8.052
 1029SOL     OW 3982   1.777   0.342   9.090
 1029SOL    HW1 3983   1.760   0.373   8.996
 1029SOL    HW2 3984   1.693   0.305   9.128
 1030SOL     OW 3985   1.730   0.934   8.965
 1030SOL    HW1 3986   1.768   1.025   8.980
 1030SOL    HW2 3987   1.722   0.917   8.866
 1031SOL     OW 3988   0.859   1.374   7.464
 1031SOL    HW1 3989   0.813   1.389   7.552
 1031SOL    HW2 3990   0.903   1.459   7.434
 1032SOL     OW 3991   0.661   1.790   8.401
 1032SOL    HW1 3992   0.615   1.878   8.388
 1032SOL    HW2 3993   0.760   1.802   8.394
 1033SOL     OW 3994   0.859   0.956   8.309
 1033SOL    HW1 3995   0.913   0.887   8.357
 1033SOL    HW2 3996   0.827   1.025   8.375
 1034SOL     OW 3997   1.083   0.984   7.535
 1034SOL    HW1 3998   1.060   1.037   7.453
 1034SOL    HW2 3999   1.164   0.928   7.516
 1035SOL     OW 4000   1.861   1.569   8.299
 1035SOL    HW1 4001   1.790   1.557   8.229
 1035SOL    HW2 4002   1.862   1.490   8.359
 1036SOL     OW 4003   0.221   1.314   9.292
 1036SOL    HW1 4004   0.156   1.241   9.271
 1036SOL    HW2 4005   0.225   1.328   9.390
 1037SOL     OW 4006   0.079   1.240   8.101
 1037SOL    HW1 4007   0.078   1.193   8.189
 1037SOL    HW2 4008   0.161   1.212   8.050
 1038SOL     OW 4009   0.672   1.391   9.072
 1038SOL    HW1 4010   0.594   1.341   9.110
 1038SOL    HW2 4011   0.669   1.486   9.103
 1039SOL     OW 4012   1.824   0.192   8.675
 1039SOL    HW1 4013   1.820   0.102   8.719
 1039SOL    HW2 4014   1.827   0.181   8.576
 1040SOL     OW 4015   0.428   0.424   7.968
 1040SOL    HW1 4016   0.458   0.352   7.906
 1040SOL    HW2 4017   0.389   0.384   8.051
 1041SOL     OW 4018   1.705   1.487   8.552
 1041SOL    HW1 4019   1.612   1.462   8.525
 1041SOL    HW2 4020   1.731   1.437   8.634
 1042SOL     OW 4021   0.317   0.547   8.728
 1042SOL    HW1 4022   0.355   0.488   8.800
 1042SOL    HW2 4023   0.357   0.521   8.640
 1043SOL     OW 4024   0.812   1.586   8.135
 1043SOL    HW1 4025   0.844   1.596   8.041
 1043SOL    HW2 4026   0.733   1.524   8.137
 1044SOL     OW 4027   1.424   0.214   8.560
 1044SOL    HW1 4028   1.476   0.149   8.615
 1044SOL    HW2 4029   1.375   0.277   8.621
 1045SOL     OW 4030   1.001   0.034   8.602
 1045SOL    HW1 4031   0.938  -0.038   8.571
 1045SOL    HW2 4032   1.094  -0.002   8.602
 1046SOL     OW 4033   0.770   1.330   7.749
 1046SOL    HW1 4034   0.724   1.243   7.766
 1046SOL    HW2 4035   0.861   1.327   7.790
 1047SOL     OW 4036   0.618   1.567   8.732
 1047SOL    HW1 4037   0.613   1.649   8.789
 1047SOL    HW2 4038   0.707   1.564   8.687
 1048SOL     OW 4039   1.352   0.052   7.616
 1048SOL    HW1 4040   1.387   0.011   7.532
 1048SOL    HW2 4041   1.262   0.014   7.636
 1049SOL     OW 4042   1.300   0.453   8.139
 1049SOL    HW1 4043   1.241   0.533   8.143
 1049SOL    HW2 4044   1.315   0.418   8.232
 1050SOL     OW 4045   1.593   0.221   8.330
 1050SOL    HW1 4046   1.509   0.220   8.384
 1050SOL    HW2 4047   1.595   0.304   8.274
 1051SOL     OW 4048   0.039   1.077   7.748
 1051SOL    HW1 4049   0.138   1.066   7.739
 1051SOL    HW2 4050  -0.001   0.991   7.780
 1052SOL     OW 4051   0.875   1.646   7.785
 1052SOL    HW1 4052   0.798   1.611   7.731
 1052SOL    HW2 4053   0.843   1.717   7.847
 1053SOL     OW 4054   0.230   0.628   9.423
 1053SOL    HW1 4055   0.137   0.626   9.460
 1053SOL    HW2 4056   0.231   0.589   9.331
 1054SOL     OW 4057   0.225   0.275  10.306
 1054SOL    HW1 4058   0.260   0.258  10.398
 1054SOL    HW2 4059   0.137   0.230  10.294
 1055SOL     OW 4060   0.019   0.368   9.957
 1055SOL    HW1 4061  -0.063   0.411   9.996
 1055SOL    HW2 4062  -0.009   0.295   9.894
 1056SOL     OW 4063   0.569   1.275  10.475
 1056SOL    HW1 4064   0.476   1.268  10.438
 1056SOL    HW2 4065   0.580   1.364  10.519
 1057SOL     OW 4066   1.555   1.511  10.013
 1057SOL    HW1 4067   1.498   1.495  10.094
 1057SOL    HW2 4068   1.496   1.521   9.933
 1058SOL     OW 4069   1.135   0.703  10.027
 1058SOL    HW1 4070   1.192   0.781  10.002
 1058SOL    HW2 4071   1.075   0.729  10.103
 1059SOL     OW 4072   1.755   0.607   9.541
 1059SOL    HW1 4073   1.743   0.594   9.442
 1059SOL    HW2 4074   1.725   0.526   9.590
 1060SOL     OW 4075   0.768   1.144  10.333
 1060SOL    HW1 4076   0.690   1.161  10.393
 1060SOL    HW2 4077   0.802   1.231  10.297
 1061SOL     OW 4078   0.850   0.798  11.133
 1061SOL    HW1 4079   0.846   0.874  11.198
 1061SOL    HW2 4080   0.872   0.834  11.042
 1062SOL     OW 4081   0.685   1.012   9.975
 1062SOL    HW1 4082   0.754   0.996  10.045
 1062SOL    HW2 4083   0.612   1.069  10.013
 1063SOL     OW 4084   0.335   1.435  10.371
 1063SOL    HW1 4085   0.257   1.404  10.318
 1063SOL    HW2 4086   0.393   1.493  10.314
 1064SOL     OW 4087   1.460   1.505  10.649
 1064SOL    HW1 4088   1.484   1.599  10.675
 1064SOL    HW2 4089   1.444   1.451  10.731
 1065SOL     OW 4090   0.438   0.392  10.809
 1065SOL    HW1 4091   0.520   0.336  10.818
 1065SOL    HW2 4092   0.357   0.334  10.813
 1066SOL     OW 4093   1.603   0.447  10.047
 1066SOL    HW1 4094   1.529   0.493   9.997
 1066SOL    HW2 4095   1.654   0.515  10.100
 1067SOL     OW 4096   0.231   1.713   9.793
 1067SOL    HW1 4097   0.265   1.790   9.847
 1067SOL    HW2 4098   0.275   1.713   9.703
 1068SOL     OW 4099   0.230   1.434   9.848
 1068SOL    HW1 4100   0.204   1.530   9.848
 1068SOL    HW2 4101   0.159   1.380   9.893
 1069SOL     OW 4102   0.240   1.091  10.196
 1069SOL    HW1 4103   0.254   1.007  10.248
 1069SOL    HW2 4104   0.185   1.155  10.251
 1070SOL     OW 4105   0.620   1.786  10.749
 1070SOL    HW1 4106   0.528   1.769  10.784
 1070SOL    HW2 4107   0.648   1.878  10.775
 1071SOL     OW 4108   0.606   0.964   9.433
 1071SOL    HW1 4109   0.613   1.048   9.379
 1071SOL    HW2 4110   0.652   0.977   9.521
 1072SOL     OW 4111   1.594   0.114  10.790
 1072SOL    HW1 4112   1.576   0.181  10.718
 1072SOL    HW2 4113   1.591   0.160  10.879
 1073SOL     OW 4114   0.122   0.643   9.873
 1073SOL    HW1 4115   0.077   0.555   9.890
 1073SOL    HW2 4116   0.121   0.697   9.957
 1074SOL     OW 4117   1.842   1.767   9.669
 1074SOL    HW1 4118   1.896   1.738   9.749
 1074SOL    HW2 4119   1.872   1.857   9.640
 1075SOL     OW 4120   0.027   1.596   9.427
 1075SOL    HW1 4121   0.008   1.500   9.448
 1075SOL    HW2 4122  -0.006   1.654   9.502
 1076SOL     OW 4123   1.689   0.922   9.922
 1076SOL    HW1 4124   1.784   0.893   9.930
 1076SOL    HW2 4125   1.681   0.987   9.847
 1077SOL     OW 4126   1.641   1.108   9.742
 1077SOL    HW1 4127   1.727   1.110   9.690
 1077SOL    HW2 4128   1.655   1.155   9.830
 1078SOL     OW 4129   0.113   0.737  10.907
 1078SOL    HW1 4130   0.201   0.724  10.952
 1078SOL    HW2 4131   0.100   0.834  10.885
 1079SOL     OW 4132   0.613   1.365  10.036
 1079SOL    HW1 4133   0.564   1.278  10.045
 1079SOL    HW2 4134   0.590   1.408   9.949
 1080SOL     OW 4135   1.293   1.228  10.733
 1080SOL    HW1 4136   1.330   1.155  10.675
 1080SOL    HW2 4137   1.345   1.233  10.818
 1081SOL     OW 4138   0.809   0.004   9.812
 1081SOL    HW1 4139   0.849   0.095   9.803
 1081SOL    HW2 4140   0.709   0.012   9.818
 1082SOL     OW 4141   0.197   0.976  10.574
 1082SOL    HW1 4142   0.286   0.931  10.560
 1082SOL    HW2 4143   0.124   0.911  10.555
 1083SOL     OW 4144   1.525   0.999   9.500
 1083SOL    HW1 4145   1.462   0.923   9.513
 1083SOL    HW2 4146   1.573   1.017   9.586
 1084SOL     OW 4147   1.187   1.792  10.926
 1084SOL    HW1 4148   1.211   1.852  10.850
 1084SOL    HW2 4149   1.194   1.697  10.896
 1085SOL     OW 4150   0.317   0.251  11.111
 1085SOL    HW1 4151   0.388   0.322  11.117
 1085SOL    HW2 4152   0.229   0.290  11.139
 1086SOL     OW 4153   1.466   1.417  10.263
 1086SOL    HW1 4154   1.407   1.423  10.343
 1086SOL    HW2 4155   1.451   1.329  10.217
 1087SOL     OW 4156   1.667   1.714   9.882
 1087SOL    HW1 4157   1.626   1.691   9.794
 1087SOL    HW2 4158   1.649   1.640   9.947
 1088SOL     OW 4159   0.598   0.729   9.580
 1088SOL    HW1 4160   0.622   0.798   9.512
 1088SOL    HW2 4161   0.520   0.762   9.634
 1089SOL     OW 4162   1.281   0.345  10.254
 1089SOL    HW1 4163   1.195   0.295  10.241
 1089SOL    HW2 4164   1.343   0.291  10.310
 1090SOL     OW 4165   1.576   1.662   9.617
 1090SOL    HW1 4166   1.665   1.708   9.620
 1090SOL    HW2 4167   1.555   1.638   9.522
 1091SOL     OW 4168   0.807   0.605  10.775
 1091SOL    HW1 4169   0.760   0.602  10.864
 1091SOL    HW2 4170   0.756   0.550  10.709
 1092SOL     OW 4171   0.973   0.890  10.882
 1092SOL    HW1 4172   1.019   0.806  10.853
 1092SOL    HW2 4173   0.917   0.924  10.807
 1093SOL     OW 4174   0.991   0.410  10.552
 1093SOL    HW1 4175   0.914   0.444  10.606
 1093SOL    HW2 4176   0.957   0.359  10.473
 1094SOL     OW 4177   1.041   0.701   9.739
 1094SOL    HW1 4178   1.067   0.697   9.835
 1094SOL    HW2 4179   0.956   0.650   9.725
 1095SOL     OW 4180   0.076   0.811  10.099
 1095SOL    HW1 4181   0.175   0.799  10.108
 1095SOL    HW2 4182   0.052   0.906  10.120
 1096SOL     OW 4183   0.130   1.821  10.881
 1096SOL    HW1 4184   0.120   1.806  10.980
 1096SOL    HW2 4185   0.044   1.857  10.845
 1097SOL     OW 4186   0.865   0.348   9.505
 1097SOL    HW1 4187   0.924   0.411   9.456
 1097SOL    HW2 4188   0.884   0.254   9.476
 1098SOL     OW 4189   1.362   1.144   9.855
 1098SOL    HW1 4190   1.445   1.115   9.807
 1098SOL    HW2 4191   1.313   1.211   9.799
 1099SOL     OW 4192   0.550   0.196  10.195
 1099SOL    HW1 4193   0.545   0.191  10.295
 1099SOL    HW2 4194   0.552   0.292  10.166
 1100SOL     OW 4195   1.008   1.456   9.787
 1100SOL    HW1 4196   0.962   1.528   9.735
 1100SOL    HW2 4197   1.004   1.476   9.885
 1101SOL     OW 4198   0.351   1.801  10.163
 1101SOL    HW1 4199   0.401   1.715  10.169
 1101SOL    HW2 4200   0.416   1.878  10.160
 1102SOL     OW 4201   1.795   1.066  10.183
 1102SOL    HW1 4202   1.733   1.051  10.107
 1102SOL    HW2 4203   1.743   1.077  10.268
 1103SOL     OW 4204   1.227   1.550  10.816
 1103SOL    HW1 4205   1.233   1.473  10.880
 1103SOL    HW2 4206   1.175   1.524  10.736
 1104SOL     OW 4207   0.321   0.943   9.552
 1104SOL    HW1 4208   0.403   0.982   9.510
 1104SOL    HW2 4209   0.294   0.861   9.503
 1105SOL     OW 4210   1.458   0.735  10.038
 1105SOL    HW1 4211   1.453   0.670  10.113
 1105SOL    HW2 4212   1.538   0.794  10.051
 1106SOL     OW 4213   0.461   1.266  11.037
 1106SOL    HW1 4214   0.411   1.267  10.951
 1106SOL    HW2 4215   0.398   1.248  11.113
 1107SOL     OW 4216   1.111   1.776   9.547
 1107SOL    HW1 4217   1.051   1.714   9.597
 1107SOL    HW2 4218   1.142   1.732   9.462
 1108SOL     OW 4219   0.202   0.285  10.808
 1108SOL    HW1 4220   0.122   0.345  10.795
 1108SOL    HW2 4221   0.192   0.236  10.894
 1109SOL     OW 4222   1.632   1.377   9.391
 1109SOL    HW1 4223   1.600   1.471   9.381
 1109SOL    HW2 4224   1.556   1.314   9.379
 1110SOL     OW 4225   0.464   1.743   9.633
 1110SOL    HW1 4226   0.497   1.782   9.719
 1110SOL    HW2 4227   0.540   1.736   9.568
 1111SOL     OW 4228   1.400   0.107   9.736
 1111SOL    HW1 4229   1.376   0.070   9.646
 1111SOL    HW2 4230   1.499   0.123   9.740
 1112SOL     OW 4231   0.249   1.785  10.551
 1112SOL    HW1 4232   0.306   1.720  10.601
 1112SOL    HW2 4233   0.233   1.752  10.458
 1113SOL     OW 4234   0.940   1.698  10.214
 1113SOL    HW1 4235   1.020   1.641  10.235
 1113SOL    HW2 4236   0.891   1.658  10.137
 1114SOL     OW 4237   0.382   0.700   9.790
 1114SOL    HW1 4238   0.427   0.610   9.787
 1114SOL    HW2 4239   0.288   0.689   9.823
 1115SOL     OW 4240   0.614   0.122   9.427
 1115SOL    HW1 4241   0.712   0.100   9.434
 1115SOL    HW2 4242   0.583   0.105   9.334
 1116SOL     OW 4243   0.781   0.264  11.059
 1116SOL    HW1 4244   0.848   0.203  11.102
 1116SOL    HW2 4245   0.708   0.283  11.124
 1117SOL     OW 4246   0.888   1.514  10.505
 1117SOL    HW1 4247   0.865   1.489  10.411
 1117SOL    HW2 4248   0.949   1.445  10.544
 1118SOL     OW 4249   1.351   0.590  10.743
 1118SOL    HW1 4250   1.379   0.547  10.828
 1118SOL    HW2 4251   1.376   0.686  10.744
 1119SOL     OW 4252   0.803   1.402  10.234
 1119SOL    HW1 4253   0.893   1.416  10.192
 1119SOL    HW2 4254   0.732   1.404  10.163
 1120SOL     OW 4255   0.922   0.503  10.209
 1120SOL    HW1 4256   0.897   0.494  10.113
 1120SOL    HW2 4257   0.970   0.421  10.240
 1121SOL     OW 4258   0.539   0.064   9.822
 1121SOL    HW1 4259   0.458   0.065   9.880
 1121SOL    HW2 4260   0.542   0.147   9.767
 1122SOL     OW 4261   1.434   1.188   9.351
 1122SOL    HW1 4262   1.466   1.112   9.408
 1122SOL    HW2 4263   1.342   1.215   9.381
 1123SOL     OW 4264   0.297   0.035   9.481
 1123SOL    HW1 4265   0.346   0.119   9.460
 1123SOL    HW2 4266   0.359  -0.030   9.526
 1124SOL     OW 4267   0.935   0.236   9.790
 1124SOL    HW1 4268   0.887   0.277   9.712
 1124SOL    HW2 4269   1.034   0.234   9.771
 1125SOL     OW 4270   1.076   0.683  10.774
 1125SOL    HW1 4271   0.996   0.622  10.777
 1125SOL    HW2 4272   1.157   0.630  10.750
 1126SOL     OW 4273   1.227   1.570  10.103
 1126SOL    HW1 4274   1.248   1.644  10.038
 1126SOL    HW2 4275   1.295   1.570  10.176
 1127SOL     OW 4276   0.459   1.152  10.051
 1127SOL    HW1 4277   0.388   1.125  10.116
 1127SOL    HW2 4278   0.433   1.124   9.958
 1128SOL     OW 4279   1.271   1.797   9.901
 1128SOL    HW1 4280   1.315   1.861   9.837
 1128SOL    HW2 4281   1.221   1.849   9.971
 1129SOL     OW 4282   1.032   0.549   9.326
 1129SOL    HW1 4283   0.991   0.631   9.287
 1129SOL    HW2 4284   1.096   0.575   9.399
 1130SOL     OW 4285   0.078   0.556  10.696
 1130SOL    HW1 4286   0.170   0.555  10.655
 1130SOL    HW2 4287   0.072   0.630  10.763
 1131SOL     OW 4288   0.561   0.222  10.457
 1131SOL    HW1 4289   0.599   0.138  10.494
 1131SOL    HW2 4290   0.473   0.241  10.501
 1132SOL     OW 4291   0.866   0.454   9.952
 1132SOL    HW1 4292   0.834   0.526   9.890
 1132SOL    HW2 4293   0.890   0.373   9.899
 1133SOL     OW 4294   1.017   0.039  10.063
 1133SOL    HW1 4295   0.945   0.044   9.994
 1133SOL    HW2 4296   0.993  -0.030  10.132
 1134SOL     OW 4297   1.429   1.173  10.177
 1134SOL    HW1 4298   1.374   1.089  10.170
 1134SOL    HW2 4299   1.455   1.202  10.085
 1135SOL     OW 4300   1.466   0.590  10.302
 1135SOL    HW1 4301   1.436   0.495  10.309
 1135SOL    HW2 4302   1.539   0.606  10.368
 1136SOL     OW 4303   1.857   0.833   9.687
 1136SOL    HW1 4304   1.899   0.769   9.751
 1136SOL    HW2 4305   1.819   0.782   9.609
 1137SOL     OW 4306   0.488   1.385   9.484
 1137SOL    HW1 4307   0.401   1.370   9.531
 1137SOL    HW2 4308   0.471   1.411   9.389
 1138SOL     OW 4309   1.664   1.280   9.967
 1138SOL    HW1 4310   1.763   1.288   9.981
 1138SOL    HW2 4311   1.619   1.364   9.998
 1139SOL     OW 4312   1.390   0.575   9.388
 1139SOL    HW1 4313   1.336   0.554   9.469
 1139SOL    HW2 4314   1.481   0.534   9.397
 1140SOL     OW 4315   0.527   0.256   9.638
 1140SOL    HW1 4316   0.554   0.197   9.563
 1140SOL    HW2 4317   0.527   0.351   9.607
 1141SOL     OW 4318   1.754   1.223  10.898
 1141SOL    HW1 4319   1.845   1.184  10.885
 1141SOL    HW2 4320   1.762   1.319  10.922
 1142SOL     OW 4321   1.064   1.347  10.650
 1142SOL    HW1 4322   0.984   1.324  10.705
 1142SOL    HW2 4323   1.147   1.321  10.699
 1143SOL     OW 4324   1.111   1.195  10.410
 1143SOL    HW1 4325   1.071   1.239  10.491
 1143SOL    HW2 4326   1.070   1.232  10.327
 1144SOL     OW 4327   1.638   1.099  10.389
 1144SOL    HW1 4328   1.643   1.180  10.448
 1144SOL    HW2 4329   1.552   1.101  10.338
 1145SOL     OW 4330   0.915   0.089  10.712
 1145SOL    HW1 4331   0.940   0.069  10.617
 1145SOL    HW2 4332   0.987   0.145  10.754
 1146SOL     OW 4333   0.705   1.050   9.678
 1146SOL    HW1 4334   0.691   1.057   9.777
 1146SOL    HW2 4335   0.789   0.999   9.660
 1147SOL     OW 4336   0.410   0.813  10.561
 1147SOL    HW1 4337   0.496   0.825  10.611
 1147SOL    HW2 4338   0.368   0.726  10.588
 1148SOL     OW 4339   1.274   0.386  10.572
 1148SOL    HW1 4340   1.295   0.460  10.636
 1148SOL    HW2 4341   1.185   0.403  10.529
 1149SOL     OW 4342   0.064   1.564  10.641
 1149SOL    HW1 4343   0.018   1.646  10.607
 1149SOL    HW2 4344   0.162   1.583  10.650
 1150SOL     OW 4345   0.367   1.100   9.811
 1150SOL    HW1 4346   0.360   1.183   9.755
 1150SOL    HW2 4347   0.371   1.020   9.751
 1151SOL     OW 4348   0.566   0.537  10.175
 1151SOL    HW1 4349   0.578   0.603  10.101
 1151SOL    HW2 4350   0.612   0.571  10.258
 1152SOL     OW 4351   1.252   1.348   9.698
 1152SOL    HW1 4352   1.302   1.425   9.738
 1152SOL    HW2 4353   1.157   1.350   9.730
 1153SOL     OW 4354   1.272   1.445  10.452
 1153SOL    HW1 4355   1.319   1.458  10.539
 1153SOL    HW2 4356   1.206   1.371  10.461
 1154SOL     OW 4357   1.582   0.639   9.782
 1154SOL    HW1 4358   1.551   0.700   9.855
 1154SOL    HW2 4359   1.632   0.691   9.713
 1155SOL     OW 4360   0.354   1.510  10.639
 1155SOL    HW1 4361   0.333   1.466  10.552
 1155SOL    HW2 4362   0.451   1.536  10.642
 1156SOL     OW 4363   0.402   0.751  10.908
 1156SOL    HW1 4364   0.470   0.806  10.861
 1156SOL    HW2 4365   0.442   0.663  10.935
 1157SOL     OW 4366   1.587   0.779  10.980
 1157SOL    HW1 4367   1.495   0.817  10.975
 1157SOL    HW2 4368   1.647   0.826  10.915
 1158SOL     OW 4369   0.573   0.870  10.339
 1158SOL    HW1 4370   0.617   0.959  10.330
 1158SOL    HW2 4371   0.510   0.870  10.416
 1159SOL     OW 4372   1.360   0.862  10.355
 1159SOL    HW1 4373   1.285   0.862  10.289
 1159SOL    HW2 4374   1.397   0.770  10.364
 1160SOL     OW 4375   1.209   0.525   9.585
 1160SOL    HW1 4376   1.222   0.441   9.639
 1160SOL    HW2 4377   1.180   0.599   9.645
 1161SOL     OW 4378   0.307   0.213  10.541
 1161SOL    HW1 4379   0.284   0.250  10.631
 1161SOL    HW2 4380   0.277   0.118  10.535
 1162SOL     OW 4381   0.037   1.310  10.592
 1162SOL    HW1 4382   0.090   1.261  10.660
 1162SOL    HW2 4383   0.059   1.408  10.597
 1163SOL     OW 4384   0.732   0.634  10.374
 1163SOL    HW1 4385   0.791   0.608  10.298
 1163SOL    HW2 4386   0.704   0.730  10.363
 1164SOL     OW 4387   0.307   0.063   9.928
 1164SOL    HW1 4388   0.296   0.157   9.961
 1164SOL    HW2 4389   0.302   0.000  10.005
 1165SOL     OW 4390   1.622   0.367   9.684
 1165SOL    HW1 4391   1.624   0.291   9.748
 1165SOL    HW2 4392   1.574   0.444   9.724
 1166SOL     OW 4393   1.023   0.766  10.276
 1166SOL    HW1 4394   1.038   0.787  10.372
 1166SOL    HW2 4395   0.993   0.671  10.267
 1167SOL     OW 4396   0.980   1.573  11.010
 1167SOL    HW1 4397   0.960   1.617  10.922
 1167SOL    HW2 4398   1.019   1.482  10.994
 1168SOL     OW 4399   1.859   1.518  10.915
 1168SOL    HW1 4400   1.873   1.545  10.820
 1168SOL    HW2 4401   1.942   1.540  10.968
 1169SOL     OW 4402   0.350   0.898  11.114
 1169SOL    HW1 4403   0.426   0.942  11.162
 1169SOL    HW2 4404   0.385   0.851  11.032
 1170SOL     OW 4405   1.540   0.274   9.435
 1170SOL    HW1 4406   1.479   0.199   9.458
 1170SOL    HW2 4407   1.562   0.326   9.518
 1171SOL     OW 4408   1.303   0.838   9.352
 1171SOL    HW1 4409   1.337   0.745   9.367
 1171SOL    HW2 4410   1.321   0.865   9.257
 1172SOL     OW 4411   1.068   1.333  10.159
 1172SOL    HW1 4412   1.075   1.249  10.104
 1172SOL    HW2 4413   1.130   1.402  10.123
 1173SOL     OW 4414   0.319   0.810  10.259
 1173SOL    HW1 4415   0.412   0.846  10.264
 1173SOL    HW2 4416   0.313   0.725  10.311
 1174SOL     OW 4417   0.339   0.509  10.316
 1174SOL    HW1 4418   0.287   0.426  10.299
 1174SOL    HW2 4419   0.416   0.514  10.252
 1175SOL     OW 4420   1.160   0.207  10.787
 1175SOL    HW1 4421   1.160   0.271  10.864
 1175SOL    HW2 4422   1.188   0.255  10.704
 1176SOL     OW 4423   0.008   1.326   9.510
 1176SOL    HW1 4424  -0.085   1.347   9.479
 1176SOL    HW2 4425   0.018   1.227   9.523
 1177SOL     OW 4426   0.088   1.801  10.237
 1177SOL    HW1 4427   0.046   1.715  10.210
 1177SOL    HW2 4428   0.182   1.804  10.203
 1178SOL     OW 4429   0.504   1.568  10.220
 1178SOL    HW1 4430   0.570   1.642  10.229
 1178SOL    HW2 4431   0.548   1.489  10.178
 1179SOL     OW 4432   1.002   0.796  10.548
 1179SOL    HW1 4433   1.043   0.764  10.634
 1179SOL    HW2 4434   0.906   0.769  10.545
 1180SOL     OW 4435   0.040   0.544  10.424
 1180SOL    HW1 4436   0.125   0.511  10.383
 1180SOL    HW2 4437   0.053   0.559  10.522
 1181SOL     OW 4438   0.815   0.572   9.635
 1181SOL    HW1 4439   0.822   0.483   9.589
 1181SOL    HW2 4440   0.721   0.606   9.627
 1182SOL     OW 4441   1.657   0.604  10.516
 1182SOL    HW1 4442   1.619   0.535  10.578
 1182SOL    HW2 4443   1.739   0.568  10.472
 1183SOL     OW 4444   0.252   1.564  11.054
 1183SOL    HW1 4445   0.222   1.621  11.130
 1183SOL    HW2 4446   0.245   1.467  11.080
 1184SOL     OW 4447   0.671   0.464  10.579
 1184SOL    HW1 4448   0.637   0.375  10.549
 1184SOL    HW2 4449   0.697   0.518  10.499
 1185SOL     OW 4450   0.930   1.678  10.775
 1185SOL    HW1 4451   0.906   1.660  10.680
 1185SOL    HW2 4452   0.960   1.772  10.785
 1186SOL     OW 4453   0.473   0.500   9.501
 1186SOL    HW1 4454   0.534   0.580   9.505
 1186SOL    HW2 4455   0.378   0.531   9.508
 1187SOL     OW 4456   0.159   1.137  10.776
 1187SOL    HW1 4457   0.181   1.076  10.852
 1187SOL    HW2 4458   0.169   1.088  10.690
 1188SOL     OW 4459   1.347   1.059  10.544
 1188SOL    HW1 4460   1.371   0.996  10.470
 1188SOL    HW2 4461   1.257   1.099  10.526
 1189SOL     OW 4462   1.302   0.855   9.619
 1189SOL    HW1 4463   1.216   0.824   9.661
 1189SOL    HW2 4464   1.298   0.841   9.520
 1190SOL     OW 4465   1.759   1.747  10.464
 1190SOL    HW1 4466   1.820   1.777  10.391
 1190SOL    HW2 4467   1.721   1.658  10.442
 1191SOL     OW 4468   1.252   1.731  10.438
 1191SOL    HW1 4469   1.336   1.736  10.384
 1191SOL    HW2 4470   1.229   1.635  10.456
 1192SOL     OW 4471   0.083   1.258  10.332
 1192SOL    HW1 4472   0.078   1.257  10.432
 1192SOL    HW2 4473   0.000   1.217  10.294
 1193SOL     OW 4474   1.726   0.135   9.833
 1193SOL    HW1 4475   1.799   0.118   9.766
 1193SOL    HW2 4476   1.695   0.048   9.871
 1194SOL     OW 4477   1.388   1.573   9.787
 1194SOL    HW1 4478   1.455   1.585   9.713
 1194SOL    HW2 4479   1.348   1.662   9.810
 1195SOL     OW 4480   1.280   0.927   9.982
 1195SOL    HW1 4481   1.340   0.846   9.984
 1195SOL    HW2 4482   1.320   0.996   9.922
 1196SOL     OW 4483   0.830   1.273  10.732
 1196SOL    HW1 4484   0.825   1.306  10.827
 1196SOL    HW2 4485   0.744   1.292  10.686
 1197SOL     OW 4486   0.672   1.616   9.464
 1197SOL    HW1 4487   0.681   1.626   9.365
 1197SOL    HW2 4488   0.632   1.527   9.485
 1198SOL     OW 4489   1.650   1.720  10.704
 1198SOL    HW1 4490   1.703   1.730  10.620
 1198SOL    HW2 4491   1.623   1.810  10.738
 1199SOL     OW 4492   1.841   0.175  10.273
 1199SOL    HW1 4493   1.880   0.090  10.237
 1199SOL    HW2 4494   1.743   0.177  10.254
 1200SOL     OW 4495   0.263   0.326  10.030
 1200SOL    HW1 4496   0.184   0.377   9.996
 1200SOL    HW2 4497   0.254   0.311  10.128
 1201SOL     OW 4498   1.194   1.612   9.341
 1201SOL    HW1 4499   1.200   1.519   9.378
 1201SOL    HW2 4500   1.135   1.612   9.261
 1202SOL     OW 4501   0.822   1.002  10.682
 1202SOL    HW1 4502   0.862   1.001  10.590
 1202SOL    HW2 4503   0.832   1.094  10.722
 1203SOL     OW 4504   0.916   0.910   9.601
 1203SOL    HW1 4505   0.979   0.948   9.533
 1203SOL    HW2 4506   0.956   0.827   9.640
 1204SOL     OW 4507   1.504   1.607   9.354
 1204SOL    HW1 4508   1.412   1.644   9.361
 1204SOL    HW2 4509   1.542   1.627   9.264
 1205SOL     OW 4510   0.372   1.288  10.800
 1205SOL    HW1 4511   0.359   1.381  10.766
 1205SOL    HW2 4512   0.288   1.236  10.787
 1206SOL     OW 4513   1.614   1.292  10.599
 1206SOL    HW1 4514   1.674   1.295  10.679
 1206SOL    HW2 4515   1.539   1.356  10.612
 1207SOL     OW 4516   1.039   1.098  10.006
 1207SOL    HW1 4517   0.969   1.051  10.060
 1207SOL    HW2 4518   1.098   1.030   9.963
 1208SOL     OW 4519   1.014   0.236  10.281
 1208SOL    HW1 4520   1.006   0.200  10.188
 1208SOL    HW2 4521   1.012   0.160  10.346
 1209SOL     OW 4522   0.590   1.487   9.801
 1209SOL    HW1 4523   0.632   1.429   9.731
 1209SOL    HW2 4524   0.546   1.566   9.757
 1210SOL     OW 4525   1.709   0.385  10.691
 1210SOL    HW1 4526   1.782   0.454  10.695
 1210SOL    HW2 4527   1.737   0.310  10.632
 1211SOL     OW 4528   0.255   1.348   9.600
 1211SOL    HW1 4529   0.159   1.349   9.573
 1211SOL    HW2 4530   0.267   1.401   9.684
 1212SOL     OW 4531   0.105   1.013  11.036
 1212SOL    HW1 4532   0.028   0.980  11.090
 1212SOL    HW2 4533   0.190   0.983  11.078
 1213SOL     OW 4534   0.672   0.203  10.799
 1213SOL    HW1 4535   0.762   0.187  10.759
 1213SOL    HW2 4536   0.680   0.208  10.898
 1214SOL     OW 4537   0.075   0.345   9.343
 1214SOL    HW1 4538  -0.017   0.317   9.314
 1214SOL    HW2 4539   0.106   0.422   9.287
 1215SOL     OW 4540   1.440   0.856  10.708
 1215SOL    HW1 4541   1.383   0.908  10.645
 1215SOL    HW2 4542   1.536   0.868  10.684
 1216SOL     OW 4543   0.072   0.166   9.628
 1216SOL    HW1 4544   0.055   0.249   9.574
 1216SOL    HW2 4545   0.162   0.129   9.606
 1217SOL     OW 4546   1.183   1.335   9.429
 1217SOL    HW1 4547   1.084   1.324   9.431
 1217SOL    HW2 4548   1.217   1.350   9.522
 1218SOL     OW 4549   0.613   0.842  10.741
 1218SOL    HW1 4550   0.669   0.923  10.724
 1218SOL    HW2 4551   0.672   0.762  10.744
 1219SOL     OW 4552   1.493   1.767  10.269
 1219SOL    HW1 4553   1.526   1.831  10.200
 1219SOL    HW2 4554   1.559   1.761  10.344
 1220SOL     OW 4555   0.716   0.565  11.018
 1220SOL    HW1 4556   0.735   0.630  11.092
 1220SOL    HW2 4557   0.776   0.485  11.027
 1221SOL     OW 4558   0.390   1.741  10.870
 1221SOL    HW1 4559   0.299   1.782  10.868
 1221SOL    HW2 4560   0.383   1.647  10.902
 1222SOL     OW 4561   1.674   0.883  10.564
 1222SOL    HW1 4562   1.647   0.794  10.527
 1222SOL    HW2 4563   1.675   0.951  10.491
 1223SOL     OW 4564   1.225   0.325   9.759
 1223SOL    HW1 4565   1.290   0.251   9.748
 1223SOL    HW2 4566   1.245   0.375   9.843
 1224SOL     OW 4567   0.594   0.745   9.962
 1224SOL    HW1 4568   0.644   0.830   9.943
 1224SOL    HW2 4569   0.506   0.747   9.914
 1225SOL     OW 4570   1.777   0.342  10.952
 1225SOL    HW1 4571   1.760   0.373  10.858
 1225SOL    HW2 4572   1.693   0.305  10.990
 1226SOL     OW 4573   1.730   0.934  10.827
 1226SOL    HW1 4574   1.768   1.025  10.842
 1226SOL    HW2 4575   1.722   0.917  10.728
 1227SOL     OW 4576   0.859   1.374   9.326
 1227SOL    HW1 4577   0.813   1.389   9.414
 1227SOL    HW2 4578   0.903   1.459   9.296
 1228SOL     OW 4579   0.661   1.790  10.263
 1228SOL    HW1 4580   0.615   1.878  10.250
 1228SOL    HW2 4581   0.760   1.802  10.256
 1229SOL     OW 4582   0.859   0.956  10.171
 1229SOL    HW1 4583   0.913   0.887  10.219
 1229SOL    HW2 4584   0.827   1.025  10.237
 1230SOL     OW 4585   1.083   0.984   9.397
 1230SOL    HW1 4586   1.060   1.037   9.315
 1230SOL    HW2 4587   1.164   0.928   9.378
 1231SOL     OW 4588   1.861   1.569  10.161
 1231SOL    HW1 4589   1.790   1.557  10.091
 1231SOL    HW2 4590   1.862   1.490  10.221
 1232SOL     OW 4591   0.079   1.240   9.963
 1232SOL    HW1 4592   0.078   1.193  10.051
 1232SOL    HW2 4593   0.161   1.212   9.912
 1233SOL     OW 4594   0.672   1.391  10.934
 1233SOL    HW1 4595   0.594   1.341  10.972
 1233SOL    HW2 4596   0.669   1.486  10.965
 1234SOL     OW 4597   1.824   0.192  10.537
 1234SOL    HW1 4598   1.820   0.102  10.581
 1234SOL    HW2 4599   1.827   0.181  10.438
 1235SOL     OW 4600   0.428   0.424   9.830
 1235SOL    HW1 4601   0.458   0.352   9.768
 1235SOL    HW2 4602   0.389   0.384   9.913
 1236SOL     OW 4603   1.705   1.487  10.414
 1236SOL    HW1 4604   1.612   1.462  10.387
 1236SOL    HW2 4605   1.731   1.437  10.496
 1237SOL     OW 4606   0.317   0.547  10.590
 1237SOL    HW1 4607   0.355   0.488  10.662
 1237SOL    HW2 4608   0.357   0.521  10.502
 1238SOL     OW 4609   0.812   1.586   9.997
 1238SOL    HW1 4610   0.844   1.596   9.903
 1238SOL    HW2 4611   0.733   1.524   9.999
 1239SOL     OW 4612   1.424   0.214  10.422
 1239SOL    HW1 4613   1.476   0.149  10.477
 1239SOL    HW2 4614   1.375   0.277  10.483
 1240SOL     OW 4615   1.001   0.034  10.464
 1240SOL    HW1 4616   0.938  -0.038  10.433
 1240SOL    HW2 4617   1.094  -0.002  10.464
 1241SOL     OW 4618   0.770   1.330   9.611
 1241SOL    HW1 4619   0.724   1.243   9.628
 1241SOL    HW2 4620   0.861   1.327   9.652
 1242SOL     OW 4621   0.618   1.567  10.594
 1242SOL    HW1 4622   0.613   1.649  10.651
 1242SOL    HW2 4623   0.707   1.564  10.549
 1243SOL     OW 4624   1.352   0.052   9.478
 1243SOL    HW1 4625   1.387   0.011   9.394
 1243SOL    HW2 4626   1.262   0.014   9.498
 1244SOL     OW 4627   1.300   0.453  10.001
 1244SOL    HW1 4628   1.241   0.533  10.005
 1244SOL    HW2 4629   1.315   0.418  10.094
 1245SOL     OW 4630   1.593   0.221  10.192
 1245SOL    HW1 4631   1.509   0.220  10.246
 1245SOL    HW2 4632   1.595   0.304  10.136
 1246SOL     OW 4633   0.039   1.077   9.610
 1246SOL    HW1 4634   0.138   1.066   9.601
 1246SOL    HW2 4635  -0.001   0.991   9.642
 1247SOL     OW 4636   0.875   1.646   9.647
 1247SOL    HW1 4637   0.798   1.611   9.593
 1247SOL    HW2 4638   0.843   1.717   9.709
 1248SOL     OW 4639   0.230   2.490   0.113
 1248SOL    HW1 4640   0.137   2.488   0.150
 1248SOL    HW2 4641   0.231   2.451   0.021
 1249SOL     OW 4642   0.225   2.137   0.996
 1249SOL    HW1 4643   0.260   2.120   1.088
 1249SOL    HW2 4644   0.137   2.092   0.984
 1250SOL     OW 4645   0.019   2.230   0.647
 1250SOL    HW1 4646  -0.063   2.273   0.686
 1250SOL    HW2 4647  -0.009   2.157   0.584
 1251SOL     OW 4648   0.569   3.137   1.165
 1251SOL    HW1 4649   0.476   3.130   1.128
 1251SOL    HW2 4650   0.580   3.226   1.209
 1252SOL     OW 4651   1.555   3.373   0.703
 1252SOL    HW1 4652   1.498   3.357   0.784
 1252SOL    HW2 4653   1.496   3.383   0.623
 1253SOL     OW 4654   1.135   2.565   0.717
 1253SOL    HW1 4655   1.192   2.643   0.692
 1253SOL    HW2 4656   1.075   2.591   0.793
 1254SOL     OW 4657   1.755   2.469   0.231
 1254SOL    HW1 4658   1.743   2.456   0.132
 1254SOL    HW2 4659   1.725   2.388   0.280
 1255SOL     OW 4660   0.768   3.006   1.023
 1255SOL    HW1 4661   0.690   3.023   1.083
 1255SOL    HW2 4662   0.802   3.093   0.987
 1256SOL     OW 4663   0.850   2.660   1.823
 1256SOL    HW1 4664   0.846   2.736   1.888
 1256SOL    HW2 4665   0.872   2.696   1.732
 1257SOL     OW 4666   0.685   2.874   0.665
 1257SOL    HW1 4667   0.754   2.858   0.735
 1257SOL    HW2 4668   0.612   2.931   0.703
 1258SOL     OW 4669   0.686   3.023   1.803
 1258SOL    HW1 4670   0.746   3.102   1.817
 1258SOL    HW2 4671   0.600   3.054   1.762
 1259SOL     OW 4672   0.335   3.297   1.061
 1259SOL    HW1 4673   0.257   3.266   1.008
 1259SOL    HW2 4674   0.393   3.355   1.004
 1260SOL     OW 4675   1.460   3.367   1.339
 1260SOL    HW1 4676   1.484   3.461   1.365
 1260SOL    HW2 4677   1.444   3.313   1.421
 1261SOL     OW 4678   0.438   2.254   1.499
 1261SOL    HW1 4679   0.520   2.198   1.508
 1261SOL    HW2 4680   0.357   2.196   1.503
 1262SOL     OW 4681   1.603   2.309   0.737
 1262SOL    HW1 4682   1.529   2.355   0.687
 1262SOL    HW2 4683   1.654   2.377   0.790
 1263SOL     OW 4684   0.231   3.575   0.483
 1263SOL    HW1 4685   0.265   3.652   0.537
 1263SOL    HW2 4686   0.275   3.575   0.393
 1264SOL     OW 4687   1.127   3.203   1.690
 1264SOL    HW1 4688   1.174   3.203   1.778
 1264SOL    HW2 4689   1.079   3.116   1.679
 1265SOL     OW 4690   0.230   3.296   0.538
 1265SOL    HW1 4691   0.204   3.392   0.538
 1265SOL    HW2 4692   0.159   3.242   0.583
 1266SOL     OW 4693   0.240   2.953   0.886
 1266SOL    HW1 4694   0.254   2.869   0.938
 1266SOL    HW2 4695   0.185   3.017   0.941
 1267SOL     OW 4696   0.620   3.648   1.439
 1267SOL    HW1 4697   0.528   3.631   1.474
 1267SOL    HW2 4698   0.648   3.740   1.465
 1268SOL     OW 4699   0.606   2.826   0.123
 1268SOL    HW1 4700   0.613   2.910   0.069
 1268SOL    HW2 4701   0.652   2.839   0.211
 1269SOL     OW 4702   1.594   1.976   1.480
 1269SOL    HW1 4703   1.576   2.043   1.408
 1269SOL    HW2 4704   1.591   2.022   1.569
 1270SOL     OW 4705   0.122   2.505   0.563
 1270SOL    HW1 4706   0.077   2.417   0.580
 1270SOL    HW2 4707   0.121   2.559   0.647
 1271SOL     OW 4708   1.842   3.629   0.359
 1271SOL    HW1 4709   1.896   3.600   0.439
 1271SOL    HW2 4710   1.872   3.719   0.330
 1272SOL     OW 4711   0.027   3.458   0.117
 1272SOL    HW1 4712   0.008   3.362   0.138
 1272SOL    HW2 4713  -0.006   3.516   0.192
 1273SOL     OW 4714   1.689   2.784   0.612
 1273SOL    HW1 4715   1.784   2.755   0.620
 1273SOL    HW2 4716   1.681   2.849   0.537
 1274SOL     OW 4717   1.641   2.970   0.432
 1274SOL    HW1 4718   1.727   2.972   0.380
 1274SOL    HW2 4719   1.655   3.017   0.520
 1275SOL     OW 4720   0.113   2.599   1.597
 1275SOL    HW1 4721   0.201   2.586   1.642
 1275SOL    HW2 4722   0.100   2.696   1.575
 1276SOL     OW 4723   0.613   3.227   0.726
 1276SOL    HW1 4724   0.564   3.140   0.735
 1276SOL    HW2 4725   0.590   3.270   0.639
 1277SOL     OW 4726   1.293   3.090   1.423
 1277SOL    HW1 4727   1.330   3.017   1.365
 1277SOL    HW2 4728   1.345   3.095   1.508
 1278SOL     OW 4729   0.809   1.866   0.502
 1278SOL    HW1 4730   0.849   1.957   0.493
 1278SOL    HW2 4731   0.709   1.874   0.508
 1279SOL     OW 4732   0.197   2.838   1.264
 1279SOL    HW1 4733   0.286   2.793   1.250
 1279SOL    HW2 4734   0.124   2.773   1.245
 1280SOL     OW 4735   1.525   2.861   0.190
 1280SOL    HW1 4736   1.462   2.785   0.203
 1280SOL    HW2 4737   1.573   2.879   0.276
 1281SOL     OW 4738   1.187   3.654   1.616
 1281SOL    HW1 4739   1.211   3.714   1.540
 1281SOL    HW2 4740   1.194   3.559   1.586
 1282SOL     OW 4741   0.317   2.113   1.801
 1282SOL    HW1 4742   0.388   2.184   1.807
 1282SOL    HW2 4743   0.229   2.152   1.829
 1283SOL     OW 4744   1.466   3.279   0.953
 1283SOL    HW1 4745   1.407   3.285   1.033
 1283SOL    HW2 4746   1.451   3.191   0.907
 1284SOL     OW 4747   1.667   3.576   0.572
 1284SOL    HW1 4748   1.626   3.553   0.484
 1284SOL    HW2 4749   1.649   3.502   0.637
 1285SOL     OW 4750   0.598   2.591   0.270
 1285SOL    HW1 4751   0.622   2.660   0.202
 1285SOL    HW2 4752   0.520   2.624   0.324
 1286SOL     OW 4753   1.281   2.207   0.944
 1286SOL    HW1 4754   1.195   2.157   0.931
 1286SOL    HW2 4755   1.343   2.153   1.000
 1287SOL     OW 4756   1.576   3.524   0.307
 1287SOL    HW1 4757   1.665   3.570   0.310
 1287SOL    HW2 4758   1.555   3.500   0.212
 1288SOL     OW 4759   0.807   2.467   1.465
 1288SOL    HW1 4760   0.760   2.464   1.554
 1288SOL    HW2 4761   0.756   2.412   1.399
 1289SOL     OW 4762   1.394   2.331   1.674
 1289SOL    HW1 4763   1.374   2.374   1.762
 1289SOL    HW2 4764   1.472   2.269   1.683
 1290SOL     OW 4765   0.973   2.752   1.572
 1290SOL    HW1 4766   1.019   2.668   1.543
 1290SOL    HW2 4767   0.917   2.786   1.497
 1291SOL     OW 4768   0.991   2.272   1.242
 1291SOL    HW1 4769   0.914   2.306   1.296
 1291SOL    HW2 4770   0.957   2.221   1.163
 1292SOL     OW 4771   1.041   2.563   0.429
 1292SOL    HW1 4772   1.067   2.559   0.525
 1292SOL    HW2 4773   0.956   2.512   0.415
 1293SOL     OW 4774   0.076   2.673   0.789
 1293SOL    HW1 4775   0.175   2.661   0.798
 1293SOL    HW2 4776   0.052   2.768   0.810
 1294SOL     OW 4777   0.130   3.683   1.571
 1294SOL    HW1 4778   0.120   3.668   1.670
 1294SOL    HW2 4779   0.044   3.719   1.535
 1295SOL     OW 4780   0.865   2.210   0.195
 1295SOL    HW1 4781   0.924   2.273   0.146
 1295SOL    HW2 4782   0.884   2.116   0.166
 1296SOL     OW 4783   1.719   2.447   1.831
 1296SOL    HW1 4784   1.693   2.536   1.795
 1296SOL    HW2 4785   1.717   2.379   1.758
 1297SOL     OW 4786   1.362   3.006   0.545
 1297SOL    HW1 4787   1.445   2.977   0.497
 1297SOL    HW2 4788   1.313   3.073   0.489
 1298SOL     OW 4789   0.550   2.058   0.885
 1298SOL    HW1 4790   0.545   2.053   0.985
 1298SOL    HW2 4791   0.552   2.154   0.856
 1299SOL     OW 4792   1.008   3.318   0.477
 1299SOL    HW1 4793   0.962   3.390   0.425
 1299SOL    HW2 4794   1.004   3.338   0.575
 1300SOL     OW 4795   0.351   3.663   0.853
 1300SOL    HW1 4796   0.401   3.577   0.859
 1300SOL    HW2 4797   0.416   3.740   0.850
 1301SOL     OW 4798   1.795   2.928   0.873
 1301SOL    HW1 4799   1.733   2.913   0.797
 1301SOL    HW2 4800   1.743   2.939   0.958
 1302SOL     OW 4801   1.227   3.412   1.506
 1302SOL    HW1 4802   1.233   3.335   1.570
 1302SOL    HW2 4803   1.175   3.386   1.426
 1303SOL     OW 4804   0.321   2.805   0.242
 1303SOL    HW1 4805   0.403   2.844   0.200
 1303SOL    HW2 4806   0.294   2.723   0.193
 1304SOL     OW 4807   1.458   2.597   0.728
 1304SOL    HW1 4808   1.453   2.532   0.803
 1304SOL    HW2 4809   1.538   2.656   0.741
 1305SOL     OW 4810   0.461   3.128   1.727
 1305SOL    HW1 4811   0.411   3.129   1.641
 1305SOL    HW2 4812   0.398   3.110   1.803
 1306SOL     OW 4813   1.111   3.638   0.237
 1306SOL    HW1 4814   1.051   3.576   0.287
 1306SOL    HW2 4815   1.142   3.594   0.152
 1307SOL     OW 4816   0.202   2.147   1.498
 1307SOL    HW1 4817   0.122   2.207   1.485
 1307SOL    HW2 4818   0.192   2.098   1.584
 1308SOL     OW 4819   1.632   3.239   0.081
 1308SOL    HW1 4820   1.600   3.333   0.071
 1308SOL    HW2 4821   1.556   3.176   0.069
 1309SOL     OW 4822   0.464   3.605   0.323
 1309SOL    HW1 4823   0.497   3.644   0.409
 1309SOL    HW2 4824   0.540   3.598   0.258
 1310SOL     OW 4825   1.400   1.969   0.426
 1310SOL    HW1 4826   1.376   1.932   0.336
 1310SOL    HW2 4827   1.499   1.985   0.430
 1311SOL     OW 4828   0.249   3.647   1.241
 1311SOL    HW1 4829   0.306   3.582   1.291
 1311SOL    HW2 4830   0.233   3.614   1.148
 1312SOL     OW 4831   0.940   3.560   0.904
 1312SOL    HW1 4832   1.020   3.503   0.925
 1312SOL    HW2 4833   0.891   3.520   0.827
 1313SOL     OW 4834   0.382   2.562   0.480
 1313SOL    HW1 4835   0.427   2.472   0.477
 1313SOL    HW2 4836   0.288   2.551   0.513
 1314SOL     OW 4837   1.547   2.084   1.729
 1314SOL    HW1 4838   1.542   2.121   1.821
 1314SOL    HW2 4839   1.475   2.015   1.717
 1315SOL     OW 4840   0.614   1.984   0.117
 1315SOL    HW1 4841   0.712   1.962   0.124
 1315SOL    HW2 4842   0.583   1.967   0.024
 1316SOL     OW 4843   0.781   2.126   1.749
 1316SOL    HW1 4844   0.848   2.065   1.792
 1316SOL    HW2 4845   0.708   2.145   1.814
 1317SOL     OW 4846   0.888   3.376   1.195
 1317SOL    HW1 4847   0.865   3.351   1.101
 1317SOL    HW2 4848   0.949   3.307   1.234
 1318SOL     OW 4849   1.351   2.452   1.433
 1318SOL    HW1 4850   1.379   2.409   1.518
 1318SOL    HW2 4851   1.376   2.548   1.434
 1319SOL     OW 4852   0.803   3.264   0.924
 1319SOL    HW1 4853   0.893   3.278   0.882
 1319SOL    HW2 4854   0.732   3.266   0.853
 1320SOL     OW 4855   0.922   2.365   0.899
 1320SOL    HW1 4856   0.897   2.356   0.803
 1320SOL    HW2 4857   0.970   2.283   0.930
 1321SOL     OW 4858   0.539   1.926   0.512
 1321SOL    HW1 4859   0.458   1.927   0.570
 1321SOL    HW2 4860   0.542   2.009   0.457
 1322SOL     OW 4861   1.434   3.050   0.041
 1322SOL    HW1 4862   1.466   2.974   0.098
 1322SOL    HW2 4863   1.342   3.077   0.071
 1323SOL     OW 4864   0.297   1.897   0.171
 1323SOL    HW1 4865   0.346   1.981   0.150
 1323SOL    HW2 4866   0.359   1.832   0.216
 1324SOL     OW 4867   0.935   2.098   0.480
 1324SOL    HW1 4868   0.887   2.139   0.402
 1324SOL    HW2 4869   1.034   2.096   0.461
 1325SOL     OW 4870   1.076   2.545   1.464
 1325SOL    HW1 4871   0.996   2.484   1.467
 1325SOL    HW2 4872   1.157   2.492   1.440
 1326SOL     OW 4873   1.227   3.432   0.793
 1326SOL    HW1 4874   1.248   3.506   0.728
 1326SOL    HW2 4875   1.295   3.432   0.866
 1327SOL     OW 4876   0.459   3.014   0.741
 1327SOL    HW1 4877   0.388   2.987   0.806
 1327SOL    HW2 4878   0.433   2.986   0.648
 1328SOL     OW 4879   1.271   3.659   0.591
 1328SOL    HW1 4880   1.315   3.723   0.527
 1328SOL    HW2 4881   1.221   3.711   0.661
 1329SOL     OW 4882   1.032   2.411   0.016
 1329SOL    HW1 4883   0.991   2.493  -0.023
 1329SOL    HW2 4884   1.096   2.437   0.089
 1330SOL     OW 4885   0.078   2.418   1.386
 1330SOL    HW1 4886   0.170   2.417   1.345
 1330SOL    HW2 4887   0.072   2.492   1.453
 1331SOL     OW 4888   0.561   2.084   1.147
 1331SOL    HW1 4889   0.599   2.000   1.184
 1331SOL    HW2 4890   0.473   2.103   1.191
 1332SOL     OW 4891   0.866   2.316   0.642
 1332SOL    HW1 4892   0.834   2.388   0.580
 1332SOL    HW2 4893   0.890   2.235   0.589
 1333SOL     OW 4894   1.017   1.901   0.753
 1333SOL    HW1 4895   0.945   1.906   0.684
 1333SOL    HW2 4896   0.993   1.832   0.822
 1334SOL     OW 4897   1.429   3.035   0.867
 1334SOL    HW1 4898   1.374   2.951   0.860
 1334SOL    HW2 4899   1.455   3.064   0.775
 1335SOL     OW 4900   1.466   2.452   0.992
 1335SOL    HW1 4901   1.436   2.357   0.999
 1335SOL    HW2 4902   1.539   2.468   1.058
 1336SOL     OW 4903   1.857   2.695   0.377
 1336SOL    HW1 4904   1.899   2.631   0.441
 1336SOL    HW2 4905   1.819   2.644   0.299
 1337SOL     OW 4906   0.488   3.247   0.174
 1337SOL    HW1 4907   0.401   3.232   0.221
 1337SOL    HW2 4908   0.471   3.273   0.079
 1338SOL     OW 4909   1.664   3.142   0.657
 1338SOL    HW1 4910   1.763   3.150   0.671
 1338SOL    HW2 4911   1.619   3.226   0.688
 1339SOL     OW 4912   1.390   2.437   0.078
 1339SOL    HW1 4913   1.336   2.416   0.159
 1339SOL    HW2 4914   1.481   2.396   0.087
 1340SOL     OW 4915   0.527   2.118   0.328
 1340SOL    HW1 4916   0.554   2.059   0.253
 1340SOL    HW2 4917   0.527   2.213   0.297
 1341SOL     OW 4918   1.754   3.085   1.588
 1341SOL    HW1 4919   1.845   3.046   1.575
 1341SOL    HW2 4920   1.762   3.181   1.612
 1342SOL     OW 4921   1.064   3.209   1.340
 1342SOL    HW1 4922   0.984   3.186   1.395
 1342SOL    HW2 4923   1.147   3.183   1.389
 1343SOL     OW 4924   1.592   3.491   1.625
 1343SOL    HW1 4925   1.619   3.525   1.535
 1343SOL    HW2 4926   1.671   3.453   1.671
 1344SOL     OW 4927   1.111   3.057   1.100
 1344SOL    HW1 4928   1.071   3.101   1.181
 1344SOL    HW2 4929   1.070   3.094   1.017
 1345SOL     OW 4930   1.638   2.961   1.079
 1345SOL    HW1 4931   1.643   3.042   1.138
 1345SOL    HW2 4932   1.552   2.963   1.028
 1346SOL     OW 4933   0.915   1.951   1.402
 1346SOL    HW1 4934   0.940   1.931   1.307
 1346SOL    HW2 4935   0.987   2.007   1.444
 1347SOL     OW 4936   0.980   2.978   1.719
 1347SOL    HW1 4937   0.881   2.984   1.729
 1347SOL    HW2 4938   1.003   2.898   1.663
 1348SOL     OW 4939   0.705   2.912   0.368
 1348SOL    HW1 4940   0.691   2.919   0.467
 1348SOL    HW2 4941   0.789   2.861   0.350
 1349SOL     OW 4942   0.410   2.675   1.251
 1349SOL    HW1 4943   0.496   2.687   1.301
 1349SOL    HW2 4944   0.368   2.588   1.278
 1350SOL     OW 4945   1.274   2.248   1.262
 1350SOL    HW1 4946   1.295   2.322   1.326
 1350SOL    HW2 4947   1.185   2.265   1.219
 1351SOL     OW 4948   0.064   3.426   1.331
 1351SOL    HW1 4949   0.018   3.508   1.297
 1351SOL    HW2 4950   0.162   3.445   1.340
 1352SOL     OW 4951   0.367   2.962   0.501
 1352SOL    HW1 4952   0.360   3.045   0.445
 1352SOL    HW2 4953   0.371   2.882   0.441
 1353SOL     OW 4954   0.566   2.399   0.865
 1353SOL    HW1 4955   0.578   2.465   0.791
 1353SOL    HW2 4956   0.612   2.433   0.948
 1354SOL     OW 4957   1.252   3.210   0.388
 1354SOL    HW1 4958   1.302   3.287   0.428
 1354SOL    HW2 4959   1.157   3.212   0.420
 1355SOL     OW 4960   1.272   3.307   1.142
 1355SOL    HW1 4961   1.319   3.320   1.229
 1355SOL    HW2 4962   1.206   3.233   1.151
 1356SOL     OW 4963   1.582   2.501   0.472
 1356SOL    HW1 4964   1.551   2.562   0.545
 1356SOL    HW2 4965   1.632   2.553   0.403
 1357SOL     OW 4966   0.354   3.372   1.329
 1357SOL    HW1 4967   0.333   3.328   1.242
 1357SOL    HW2 4968   0.451   3.398   1.332
 1358SOL     OW 4969   0.402   2.613   1.598
 1358SOL    HW1 4970   0.470   2.668   1.551
 1358SOL    HW2 4971   0.442   2.525   1.625
 1359SOL     OW 4972   1.587   2.641   1.670
 1359SOL    HW1 4973   1.495   2.679   1.665
 1359SOL    HW2 4974   1.647   2.688   1.605
 1360SOL     OW 4975   1.013   1.967   1.770
 1360SOL    HW1 4976   1.019   2.052   1.718
 1360SOL    HW2 4977   1.045   1.891   1.713
 1361SOL     OW 4978   0.504   1.912   1.740
 1361SOL    HW1 4979   0.462   1.855   1.670
 1361SOL    HW2 4980   0.438   1.981   1.772
 1362SOL     OW 4981   0.573   2.732   1.029
 1362SOL    HW1 4982   0.617   2.821   1.020
 1362SOL    HW2 4983   0.510   2.732   1.106
 1363SOL     OW 4984   1.360   2.724   1.045
 1363SOL    HW1 4985   1.285   2.724   0.979
 1363SOL    HW2 4986   1.397   2.632   1.054
 1364SOL     OW 4987   1.209   2.387   0.275
 1364SOL    HW1 4988   1.222   2.303   0.329
 1364SOL    HW2 4989   1.180   2.461   0.335
 1365SOL     OW 4990   0.307   2.075   1.231
 1365SOL    HW1 4991   0.284   2.112   1.321
 1365SOL    HW2 4992   0.277   1.980   1.225
 1366SOL     OW 4993   0.037   3.172   1.282
 1366SOL    HW1 4994   0.090   3.123   1.350
 1366SOL    HW2 4995   0.059   3.270   1.287
 1367SOL     OW 4996   0.732   2.496   1.064
 1367SOL    HW1 4997   0.791   2.470   0.988
 1367SOL    HW2 4998   0.704   2.592   1.053
 1368SOL     OW 4999   1.728   2.797   1.854
 1368SOL    HW1 5000   1.682   2.790   1.765
 1368SOL    HW2 5001   1.666   2.841   1.920
 1369SOL     OW 5002   0.307   1.925   0.618
 1369SOL    HW1 5003   0.296   2.019   0.651
 1369SOL    HW2 5004   0.302   1.862   0.695
 1370SOL     OW 5005   1.622   2.229   0.374
 1370SOL    HW1 5006   1.624   2.153   0.438
 1370SOL    HW2 5007   1.574   2.306   0.414
 1371SOL     OW 5008   1.023   2.628   0.966
 1371SOL    HW1 5009   1.038   2.649   1.062
 1371SOL    HW2 5010   0.993   2.533   0.957
 1372SOL     OW 5011   0.980   3.435   1.700
 1372SOL    HW1 5012   0.960   3.479   1.612
 1372SOL    HW2 5013   1.019   3.344   1.684
 1373SOL     OW 5014   1.859   3.380   1.605
 1373SOL    HW1 5015   1.873   3.407   1.510
 1373SOL    HW2 5016   1.942   3.402   1.658
 1374SOL     OW 5017   0.350   2.760   1.804
 1374SOL    HW1 5018   0.426   2.804   1.852
 1374SOL    HW2 5019   0.385   2.713   1.722
 1375SOL     OW 5020   1.540   2.136   0.125
 1375SOL    HW1 5021   1.479   2.061   0.148
 1375SOL    HW2 5022   1.562   2.188   0.208
 1376SOL     OW 5023   1.303   2.700   0.042
 1376SOL    HW1 5024   1.337   2.607   0.057
 1376SOL    HW2 5025   1.321   2.727  -0.053
 1377SOL     OW 5026   1.068   3.195   0.849
 1377SOL    HW1 5027   1.075   3.111   0.794
 1377SOL    HW2 5028   1.130   3.264   0.813
 1378SOL     OW 5029   0.319   2.672   0.949
 1378SOL    HW1 5030   0.412   2.708   0.954
 1378SOL    HW2 5031   0.313   2.587   1.001
 1379SOL     OW 5032   0.339   2.371   1.006
 1379SOL    HW1 5033   0.287   2.288   0.989
 1379SOL    HW2 5034   0.416   2.376   0.942
 1380SOL     OW 5035   1.138   2.242   1.678
 1380SOL    HW1 5036   1.093   2.305   1.742
 1380SOL    HW2 5037   1.231   2.273   1.661
 1381SOL     OW 5038   1.160   2.069   1.477
 1381SOL    HW1 5039   1.160   2.133   1.554
 1381SOL    HW2 5040   1.188   2.117   1.394
 1382SOL     OW 5041   0.008   3.188   0.200
 1382SOL    HW1 5042  -0.085   3.209   0.169
 1382SOL    HW2 5043   0.018   3.089   0.213
 1383SOL     OW 5044   0.088   3.663   0.927
 1383SOL    HW1 5045   0.046   3.577   0.900
 1383SOL    HW2 5046   0.182   3.666   0.893
 1384SOL     OW 5047   0.504   3.430   0.910
 1384SOL    HW1 5048   0.570   3.504   0.919
 1384SOL    HW2 5049   0.548   3.351   0.868
 1385SOL     OW 5050   1.002   2.658   1.238
 1385SOL    HW1 5051   1.043   2.626   1.324
 1385SOL    HW2 5052   0.906   2.631   1.235
 1386SOL     OW 5053   0.040   2.406   1.114
 1386SOL    HW1 5054   0.125   2.373   1.073
 1386SOL    HW2 5055   0.053   2.421   1.212
 1387SOL     OW 5056   0.189   2.382   1.722
 1387SOL    HW1 5057   0.248   2.342   1.652
 1387SOL    HW2 5058   0.131   2.453   1.681
 1388SOL     OW 5059   1.369   2.812   1.660
 1388SOL    HW1 5060   1.408   2.901   1.680
 1388SOL    HW2 5061   1.379   2.792   1.563
 1389SOL     OW 5062   0.815   2.434   0.325
 1389SOL    HW1 5063   0.822   2.345   0.279
 1389SOL    HW2 5064   0.721   2.468   0.317
 1390SOL     OW 5065   1.657   2.466   1.206
 1390SOL    HW1 5066   1.619   2.397   1.268
 1390SOL    HW2 5067   1.739   2.430   1.162
 1391SOL     OW 5068   0.252   3.426   1.744
 1391SOL    HW1 5069   0.222   3.483   1.820
 1391SOL    HW2 5070   0.245   3.329   1.770
 1392SOL     OW 5071   0.671   2.326   1.269
 1392SOL    HW1 5072   0.637   2.237   1.239
 1392SOL    HW2 5073   0.697   2.380   1.189
 1393SOL     OW 5074   0.930   3.540   1.465
 1393SOL    HW1 5075   0.906   3.522   1.370
 1393SOL    HW2 5076   0.960   3.634   1.475
 1394SOL     OW 5077   0.473   2.362   0.191
 1394SOL    HW1 5078   0.534   2.442   0.195
 1394SOL    HW2 5079   0.378   2.393   0.198
 1395SOL     OW 5080   0.159   2.999   1.466
 1395SOL    HW1 5081   0.181   2.938   1.542
 1395SOL    HW2 5082   0.169   2.950   1.380
 1396SOL     OW 5083   1.347   2.921   1.234
 1396SOL    HW1 5084   1.371   2.858   1.160
 1396SOL    HW2 5085   1.257   2.961   1.216
 1397SOL     OW 5086   1.302   2.717   0.309
 1397SOL    HW1 5087   1.216   2.686   0.351
 1397SOL    HW2 5088   1.298   2.703   0.210
 1398SOL     OW 5089   1.759   3.609   1.154
 1398SOL    HW1 5090   1.820   3.639   1.081
 1398SOL    HW2 5091   1.721   3.520   1.132
 1399SOL     OW 5092   1.252   3.593   1.128
 1399SOL    HW1 5093   1.336   3.598   1.074
 1399SOL    HW2 5094   1.229   3.497   1.146
 1400SOL     OW 5095   0.083   3.120   1.022
 1400SOL    HW1 5096   0.078   3.119   1.122
 1400SOL    HW2 5097   0.000   3.079   0.984
 1401SOL     OW 5098   0.688   3.524   1.716
 1401SOL    HW1 5099   0.632   3.605   1.725
 1401SOL    HW2 5100   0.740   3.528   1.630
 1402SOL     OW 5101   0.903   1.948   0.133
 1402SOL    HW1 5102   0.954   1.949   0.047
 1402SOL    HW2 5103   0.959   1.906   0.204
 1403SOL     OW 5104   1.726   1.997   0.523
 1403SOL    HW1 5105   1.799   1.980   0.456
 1403SOL    HW2 5106   1.695   1.910   0.561
 1404SOL     OW 5107   1.388   3.435   0.477
 1404SOL    HW1 5108   1.455   3.447   0.403
 1404SOL    HW2 5109   1.348   3.524   0.500
 1405SOL     OW 5110   0.130   3.656   1.851
 1405SOL    HW1 5111   0.089   3.582   1.904
 1405SOL    HW2 5112   0.194   3.707   1.909
 1406SOL     OW 5113   1.280   2.789   0.672
 1406SOL    HW1 5114   1.340   2.708   0.674
 1406SOL    HW2 5115   1.320   2.858   0.612
 1407SOL     OW 5116   0.830   3.135   1.422
 1407SOL    HW1 5117   0.825   3.168   1.517
 1407SOL    HW2 5118   0.744   3.154   1.376
 1408SOL     OW 5119   0.672   3.478   0.154
 1408SOL    HW1 5120   0.681   3.488   0.055
 1408SOL    HW2 5121   0.632   3.389   0.175
 1409SOL     OW 5122   1.650   3.582   1.394
 1409SOL    HW1 5123   1.703   3.592   1.310
 1409SOL    HW2 5124   1.623   3.672   1.428
 1410SOL     OW 5125   1.841   2.037   0.963
 1410SOL    HW1 5126   1.880   1.952   0.927
 1410SOL    HW2 5127   1.743   2.039   0.944
 1411SOL     OW 5128   0.263   2.188   0.720
 1411SOL    HW1 5129   0.184   2.239   0.686
 1411SOL    HW2 5130   0.254   2.173   0.818
 1412SOL     OW 5131   1.194   3.474   0.031
 1412SOL    HW1 5132   1.200   3.381   0.068
 1412SOL    HW2 5133   1.135   3.474  -0.049
 1413SOL     OW 5134   0.822   2.864   1.372
 1413SOL    HW1 5135   0.862   2.863   1.280
 1413SOL    HW2 5136   0.832   2.956   1.412
 1414SOL     OW 5137   0.916   2.772   0.291
 1414SOL    HW1 5138   0.979   2.810   0.223
 1414SOL    HW2 5139   0.956   2.689   0.330
 1415SOL     OW 5140   1.504   3.469   0.044
 1415SOL    HW1 5141   1.412   3.506   0.051
 1415SOL    HW2 5142   1.542   3.489  -0.046
 1416SOL     OW 5143   0.372   3.150   1.490
 1416SOL    HW1 5144   0.359   3.243   1.456
 1416SOL    HW2 5145   0.288   3.098   1.477
 1417SOL     OW 5146   1.614   3.154   1.289
 1417SOL    HW1 5147   1.674   3.157   1.369
 1417SOL    HW2 5148   1.539   3.218   1.302
 1418SOL     OW 5149   1.039   2.960   0.696
 1418SOL    HW1 5150   0.969   2.913   0.750
 1418SOL    HW2 5151   1.098   2.892   0.653
 1419SOL     OW 5152   1.014   2.098   0.971
 1419SOL    HW1 5153   1.006   2.062   0.878
 1419SOL    HW2 5154   1.012   2.022   1.036
 1420SOL     OW 5155   0.590   3.349   0.491
 1420SOL    HW1 5156   0.632   3.291   0.421
 1420SOL    HW2 5157   0.546   3.428   0.447
 1421SOL     OW 5158   1.709   2.247   1.381
 1421SOL    HW1 5159   1.782   2.316   1.385
 1421SOL    HW2 5160   1.737   2.172   1.322
 1422SOL     OW 5161   0.255   3.210   0.290
 1422SOL    HW1 5162   0.159   3.211   0.263
 1422SOL    HW2 5163   0.267   3.263   0.374
 1423SOL     OW 5164   0.105   2.875   1.726
 1423SOL    HW1 5165   0.028   2.842   1.780
 1423SOL    HW2 5166   0.190   2.845   1.768
 1424SOL     OW 5167   0.672   2.065   1.489
 1424SOL    HW1 5168   0.762   2.049   1.449
 1424SOL    HW2 5169   0.680   2.070   1.588
 1425SOL     OW 5170   0.075   2.207   0.033
 1425SOL    HW1 5171  -0.017   2.179   0.004
 1425SOL    HW2 5172   0.106   2.284  -0.023
 1426SOL     OW 5173   1.440   2.718   1.398
 1426SOL    HW1 5174   1.383   2.770   1.335
 1426SOL    HW2 5175   1.536   2.730   1.374
 1427SOL     OW 5176   0.072   2.028   0.318
 1427SOL    HW1 5177   0.055   2.111   0.264
 1427SOL    HW2 5178   0.162   1.991   0.296
 1428SOL     OW 5179   1.183   3.197   0.119
 1428SOL    HW1 5180   1.084   3.186   0.121
 1428SOL    HW2 5181   1.217   3.212   0.212
 1429SOL     OW 5182   0.613   2.704   1.431
 1429SOL    HW1 5183   0.669   2.785   1.414
 1429SOL    HW2 5184   0.672   2.624   1.434
 1430SOL     OW 5185   1.493   3.629   0.959
 1430SOL    HW1 5186   1.526   3.693   0.890
 1430SOL    HW2 5187   1.559   3.623   1.034
 1431SOL     OW 5188   0.716   2.427   1.708
 1431SOL    HW1 5189   0.735   2.492   1.782
 1431SOL    HW2 5190   0.776   2.347   1.717
 1432SOL     OW 5191   1.450   3.082   1.633
 1432SOL    HW1 5192   1.441   3.072   1.732
 1432SOL    HW2 5193   1.546   3.075   1.607
 1433SOL     OW 5194   0.390   3.603   1.560
 1433SOL    HW1 5195   0.299   3.644   1.558
 1433SOL    HW2 5196   0.383   3.509   1.592
 1434SOL     OW 5197   1.674   2.745   1.254
 1434SOL    HW1 5198   1.647   2.656   1.217
 1434SOL    HW2 5199   1.675   2.813   1.181
 1435SOL     OW 5200   1.225   2.187   0.449
 1435SOL    HW1 5201   1.290   2.113   0.438
 1435SOL    HW2 5202   1.245   2.237   0.533
 1436SOL     OW 5203   0.594   2.607   0.652
 1436SOL    HW1 5204   0.644   2.692   0.633
 1436SOL    HW2 5205   0.506   2.609   0.604
 1437SOL     OW 5206   1.777   2.204   1.642
 1437SOL    HW1 5207   1.760   2.235   1.548
 1437SOL    HW2 5208   1.693   2.167   1.680
 1438SOL     OW 5209   1.730   2.796   1.517
 1438SOL    HW1 5210   1.768   2.887   1.532
 1438SOL    HW2 5211   1.722   2.779   1.418
 1439SOL     OW 5212   0.859   3.236   0.016
 1439SOL    HW1 5213   0.813   3.251   0.104
 1439SOL    HW2 5214   0.903   3.321  -0.014
 1440SOL     OW 5215   0.661   3.652   0.953
 1440SOL    HW1 5216   0.615   3.740   0.940
 1440SOL    HW2 5217   0.760   3.664   0.946
 1441SOL     OW 5218   0.859   2.818   0.861
 1441SOL    HW1 5219   0.913   2.749   0.909
 1441SOL    HW2 5220   0.827   2.887   0.927
 1442SOL     OW 5221   1.083   2.846   0.087
 1442SOL    HW1 5222   1.060   2.899   0.005
 1442SOL    HW2 5223   1.164   2.790   0.068
 1443SOL     OW 5224   1.861   3.431   0.851
 1443SOL    HW1 5225   1.790   3.419   0.781
 1443SOL    HW2 5226   1.862   3.352   0.911
 1444SOL     OW 5227   0.221   3.176   1.844
 1444SOL    HW1 5228   0.156   3.103   1.823
 1444SOL    HW2 5229   0.225   3.190   1.942
 1445SOL     OW 5230   0.079   3.102   0.653
 1445SOL    HW1 5231   0.078   3.055   0.741
 1445SOL    HW2 5232   0.161   3.074   0.602
 1446SOL     OW 5233   0.672   3.253   1.624
 1446SOL    HW1 5234   0.594   3.203   1.662
 1446SOL    HW2 5235   0.669   3.348   1.655
 1447SOL     OW 5236   1.824   2.054   1.227
 1447SOL    HW1 5237   1.820   1.964   1.271
 1447SOL    HW2 5238   1.827   2.043   1.128
 1448SOL     OW 5239   0.428   2.286   0.520
 1448SOL    HW1 5240   0.458   2.214   0.458
 1448SOL    HW2 5241   0.389   2.246   0.603
 1449SOL     OW 5242   1.705   3.349   1.104
 1449SOL    HW1 5243   1.612   3.324   1.077
 1449SOL    HW2 5244   1.731   3.299   1.186
 1450SOL     OW 5245   0.317   2.409   1.280
 1450SOL    HW1 5246   0.355   2.350   1.352
 1450SOL    HW2 5247   0.357   2.383   1.192
 1451SOL     OW 5248   0.812   3.448   0.687
 1451SOL    HW1 5249   0.844   3.458   0.593
 1451SOL    HW2 5250   0.733   3.386   0.689
 1452SOL     OW 5251   1.424   2.076   1.112
 1452SOL    HW1 5252   1.476   2.011   1.167
 1452SOL    HW2 5253   1.375   2.139   1.173
 1453SOL     OW 5254   1.001   1.896   1.154
 1453SOL    HW1 5255   0.938   1.824   1.123
 1453SOL    HW2 5256   1.094   1.860   1.154
 1454SOL     OW 5257   0.770   3.192   0.301
 1454SOL    HW1 5258   0.724   3.105   0.318
 1454SOL    HW2 5259   0.861   3.189   0.342
 1455SOL     OW 5260   0.618   3.429   1.284
 1455SOL    HW1 5261   0.613   3.511   1.341
 1455SOL    HW2 5262   0.707   3.426   1.239
 1456SOL     OW 5263   1.352   1.914   0.168
 1456SOL    HW1 5264   1.387   1.873   0.084
 1456SOL    HW2 5265   1.262   1.876   0.188
 1457SOL     OW 5266   1.300   2.315   0.691
 1457SOL    HW1 5267   1.241   2.395   0.695
 1457SOL    HW2 5268   1.315   2.280   0.784
 1458SOL     OW 5269   1.593   2.083   0.882
 1458SOL    HW1 5270   1.509   2.082   0.936
 1458SOL    HW2 5271   1.595   2.166   0.826
 1459SOL     OW 5272   0.039   2.939   0.300
 1459SOL    HW1 5273   0.138   2.928   0.291
 1459SOL    HW2 5274  -0.001   2.853   0.332
 1460SOL     OW 5275   0.875   3.508   0.337
 1460SOL    HW1 5276   0.798   3.473   0.283
 1460SOL    HW2 5277   0.843   3.579   0.399
 1461SOL     OW 5278   0.230   2.490   1.975
 1461SOL    HW1 5279   0.137   2.488   2.012
 1461SOL    HW2 5280   0.231   2.451   1.883
 1462SOL     OW 5281   0.225   2.137   2.858
 1462SOL    HW1 5282   0.260   2.120   2.950
 1462SOL    HW2 5283   0.137   2.092   2.846
 1463SOL     OW 5284   0.019   2.230   2.509
 1463SOL    HW1 5285  -0.063   2.273   2.548
 1463SOL    HW2 5286  -0.009   2.157   2.446
 1464SOL     OW 5287   0.569   3.137   3.027
 1464SOL    HW1 5288   0.476   3.130   2.990
 1464SOL    HW2 5289   0.580   3.226   3.071
 1465SOL     OW 5290   1.555   3.373   2.565
 1465SOL    HW1 5291   1.498   3.357   2.646
 1465SOL    HW2 5292   1.496   3.383   2.485
 1466SOL     OW 5293   1.135   2.565   2.579
 1466SOL    HW1 5294   1.192   2.643   2.554
 1466SOL    HW2 5295   1.075   2.591   2.655
 1467SOL     OW 5296   1.755   2.469   2.093
 1467SOL    HW1 5297   1.743   2.456   1.994
 1467SOL    HW2 5298   1.725   2.388   2.142
 1468SOL     OW 5299   0.768   3.006   2.885
 1468SOL    HW1 5300   0.690   3.023   2.945
 1468SOL    HW2 5301   0.802   3.093   2.849
 1469SOL     OW 5302   0.850   2.660   3.685
 1469SOL    HW1 5303   0.846   2.736   3.750
 1469SOL    HW2 5304   0.872   2.696   3.594
 1470SOL     OW 5305   0.685   2.874   2.527
 1470SOL    HW1 5306   0.754   2.858   2.597
 1470SOL    HW2 5307   0.612   2.931   2.565
 1471SOL     OW 5308   0.686   3.023   3.665
 1471SOL    HW1 5309   0.746   3.102   3.679
 1471SOL    HW2 5310   0.600   3.054   3.624
 1472SOL     OW 5311   0.335   3.297   2.923
 1472SOL    HW1 5312   0.257   3.266   2.870
 1472SOL    HW2 5313   0.393   3.355   2.866
 1473SOL     OW 5314   1.460   3.367   3.201
 1473SOL    HW1 5315   1.484   3.461   3.227
 1473SOL    HW2 5316   1.444   3.313   3.283
 1474SOL     OW 5317   0.438   2.254   3.361
 1474SOL    HW1 5318   0.520   2.198   3.370
 1474SOL    HW2 5319   0.357   2.196   3.365
 1475SOL     OW 5320   1.603   2.309   2.599
 1475SOL    HW1 5321   1.529   2.355   2.549
 1475SOL    HW2 5322   1.654   2.377   2.652
 1476SOL     OW 5323   0.231   3.575   2.345
 1476SOL    HW1 5324   0.265   3.652   2.399
 1476SOL    HW2 5325   0.275   3.575   2.255
 1477SOL     OW 5326   1.127   3.203   3.552
 1477SOL    HW1 5327   1.174   3.203   3.640
 1477SOL    HW2 5328   1.079   3.116   3.541
 1478SOL     OW 5329   0.230   3.296   2.400
 1478SOL    HW1 5330   0.204   3.392   2.400
 1478SOL    HW2 5331   0.159   3.242   2.445
 1479SOL     OW 5332   0.240   2.953   2.748
 1479SOL    HW1 5333   0.254   2.869   2.800
 1479SOL    HW2 5334   0.185   3.017   2.803
 1480SOL     OW 5335   0.620   3.648   3.301
 1480SOL    HW1 5336   0.528   3.631   3.336
 1480SOL    HW2 5337   0.648   3.740   3.327
 1481SOL     OW 5338   0.606   2.826   1.985
 1481SOL    HW1 5339   0.613   2.910   1.931
 1481SOL    HW2 5340   0.652   2.839   2.073
 1482SOL     OW 5341   1.594   1.976   3.342
 1482SOL    HW1 5342   1.576   2.043   3.270
 1482SOL    HW2 5343   1.591   2.022   3.431
 1483SOL     OW 5344   0.122   2.505   2.425
 1483SOL    HW1 5345   0.077   2.417   2.442
 1483SOL    HW2 5346   0.121   2.559   2.509
 1484SOL     OW 5347   1.842   3.629   2.221
 1484SOL    HW1 5348   1.896   3.600   2.301
 1484SOL    HW2 5349   1.872   3.719   2.192
 1485SOL     OW 5350   0.027   3.458   1.979
 1485SOL    HW1 5351   0.008   3.362   2.000
 1485SOL    HW2 5352  -0.006   3.516   2.054
 1486SOL     OW 5353   1.689   2.784   2.474
 1486SOL    HW1 5354   1.784   2.755   2.482
 1486SOL    HW2 5355   1.681   2.849   2.399
 1487SOL     OW 5356   1.641   2.970   2.294
 1487SOL    HW1 5357   1.727   2.972   2.242
 1487SOL    HW2 5358   1.655   3.017   2.382
 1488SOL     OW 5359   0.113   2.599   3.459
 1488SOL    HW1 5360   0.201   2.586   3.504
 1488SOL    HW2 5361   0.100   2.696   3.437
 1489SOL     OW 5362   0.613   3.227   2.588
 1489SOL    HW1 5363   0.564   3.140   2.597
 1489SOL    HW2 5364   0.590   3.270   2.501
 1490SOL     OW 5365   1.293   3.090   3.285
 1490SOL    HW1 5366   1.330   3.017   3.227
 1490SOL    HW2 5367   1.345   3.095   3.370
 1491SOL     OW 5368   0.809   1.866   2.364
 1491SOL    HW1 5369   0.849   1.957   2.355
 1491SOL    HW2 5370   0.709   1.874   2.370
 1492SOL     OW 5371   0.197   2.838   3.126
 1492SOL    HW1 5372   0.286   2.793   3.112
 1492SOL    HW2 5373   0.124   2.773   3.107
 1493SOL     OW 5374   1.525   2.861   2.052
 1493SOL    HW1 5375   1.462   2.785   2.065
 1493SOL    HW2 5376   1.573   2.879   2.138
 1494SOL     OW 5377   1.187   3.654   3.478
 1494SOL    HW1 5378   1.211   3.714   3.402
 1494SOL    HW2 5379   1.194   3.559   3.448
 1495SOL     OW 5380   0.317   2.113   3.663
 1495SOL    HW1 5381   0.388   2.184   3.669
 1495SOL    HW2 5382   0.229   2.152   3.691
 1496SOL     OW 5383   1.466   3.279   2.815
 1496SOL    HW1 5384   1.407   3.285   2.895
 1496SOL    HW2 5385   1.451   3.191   2.769
 1497SOL     OW 5386   1.667   3.576   2.434
 1497SOL    HW1 5387   1.626   3.553   2.346
 1497SOL    HW2 5388   1.649   3.502   2.499
 1498SOL     OW 5389   0.598   2.591   2.132
 1498SOL    HW1 5390   0.622   2.660   2.064
 1498SOL    HW2 5391   0.520   2.624   2.186
 1499SOL     OW 5392   1.281   2.207   2.806
 1499SOL    HW1 5393   1.195   2.157   2.793
 1499SOL    HW2 5394   1.343   2.153   2.862
 1500SOL     OW 5395   1.576   3.524   2.169
 1500SOL    HW1 5396   1.665   3.570   2.172
 1500SOL    HW2 5397   1.555   3.500   2.074
 1501SOL     OW 5398   0.807   2.467   3.327
 1501SOL    HW1 5399   0.760   2.464   3.416
 1501SOL    HW2 5400   0.756   2.412   3.261
 1502SOL     OW 5401   1.394   2.331   3.536
 1502SOL    HW1 5402   1.374   2.374   3.624
 1502SOL    HW2 5403   1.472   2.269   3.545
 1503SOL     OW 5404   0.973   2.752   3.434
 1503SOL    HW1 5405   1.019   2.668   3.405
 1503SOL    HW2 5406   0.917   2.786   3.359
 1504SOL     OW 5407   0.991   2.272   3.104
 1504SOL    HW1 5408   0.914   2.306   3.158
 1504SOL    HW2 5409   0.957   2.221   3.025
 1505SOL     OW 5410   1.041   2.563   2.291
 1505SOL    HW1 5411   1.067   2.559   2.387
 1505SOL    HW2 5412   0.956   2.512   2.277
 1506SOL     OW 5413   0.076   2.673   2.651
 1506SOL    HW1 5414   0.175   2.661   2.660
 1506SOL    HW2 5415   0.052   2.768   2.672
 1507SOL     OW 5416   0.130   3.683   3.433
 1507SOL    HW1 5417   0.120   3.668   3.532
 1507SOL    HW2 5418   0.044   3.719   3.397
 1508SOL     OW 5419   0.865   2.210   2.057
 1508SOL    HW1 5420   0.924   2.273   2.008
 1508SOL    HW2 5421   0.884   2.116   2.028
 1509SOL     OW 5422   1.719   2.447   3.693
 1509SOL    HW1 5423   1.693   2.536   3.657
 1509SOL    HW2 5424   1.717   2.379   3.620
 1510SOL     OW 5425   1.362   3.006   2.407
 1510SOL    HW1 5426   1.445   2.977   2.359
 1510SOL    HW2 5427   1.313   3.073   2.351
 1511SOL     OW 5428   0.550   2.058   2.747
 1511SOL    HW1 5429   0.545   2.053   2.847
 1511SOL    HW2 5430   0.552   2.154   2.718
 1512SOL     OW 5431   1.008   3.318   2.339
 1512SOL    HW1 5432   0.962   3.390   2.287
 1512SOL    HW2 5433   1.004   3.338   2.437
 1513SOL     OW 5434   0.351   3.663   2.715
 1513SOL    HW1 5435   0.401   3.577   2.721
 1513SOL    HW2 5436   0.416   3.740   2.712
 1514SOL     OW 5437   1.795   2.928   2.735
 1514SOL    HW1 5438   1.733   2.913   2.659
 1514SOL    HW2 5439   1.743   2.939   2.820
 1515SOL     OW 5440   1.227   3.412   3.368
 1515SOL    HW1 5441   1.233   3.335   3.432
 1515SOL    HW2 5442   1.175   3.386   3.288
 1516SOL     OW 5443   0.321   2.805   2.104
 1516SOL    HW1 5444   0.403   2.844   2.062
 1516SOL    HW2 5445   0.294   2.723   2.055
 1517SOL     OW 5446   1.458   2.597   2.590
 1517SOL    HW1 5447   1.453   2.532   2.665
 1517SOL    HW2 5448   1.538   2.656   2.603
 1518SOL     OW 5449   0.461   3.128   3.589
 1518SOL    HW1 5450   0.411   3.129   3.503
 1518SOL    HW2 5451   0.398   3.110   3.665
 1519SOL     OW 5452   1.111   3.638   2.099
 1519SOL    HW1 5453   1.051   3.576   2.149
 1519SOL    HW2 5454   1.142   3.594   2.014
 1520SOL     OW 5455   0.202   2.147   3.360
 1520SOL    HW1 5456   0.122   2.207   3.347
 1520SOL    HW2 5457   0.192   2.098   3.446
 1521SOL     OW 5458   1.632   3.239   1.943
 1521SOL    HW1 5459   1.600   3.333   1.933
 1521SOL    HW2 5460   1.556   3.176   1.931
 1522SOL     OW 5461   0.464   3.605   2.185
 1522SOL    HW1 5462   0.497   3.644   2.271
 1522SOL    HW2 5463   0.540   3.598   2.120
 1523SOL     OW 5464   1.400   1.969   2.288
 1523SOL    HW1 5465   1.376   1.932   2.198
 1523SOL    HW2 5466   1.499   1.985   2.292
 1524SOL     OW 5467   0.249   3.647   3.103
 1524SOL    HW1 5468   0.306   3.582   3.153
 1524SOL    HW2 5469   0.233   3.614   3.010
 1525SOL     OW 5470   0.940   3.560   2.766
 1525SOL    HW1 5471   1.020   3.503   2.787
 1525SOL    HW2 5472   0.891   3.520   2.689
 1526SOL     OW 5473   0.382   2.562   2.342
 1526SOL    HW1 5474   0.427   2.472   2.339
 1526SOL    HW2 5475   0.288   2.551   2.375
 1527SOL     OW 5476   1.547   2.084   3.591
 1527SOL    HW1 5477   1.542   2.121   3.683
 1527SOL    HW2 5478   1.475   2.015   3.579
 1528SOL     OW 5479   0.614   1.984   1.979
 1528SOL    HW1 5480   0.712   1.962   1.986
 1528SOL    HW2 5481   0.583   1.967   1.886
 1529SOL     OW 5482   0.781   2.126   3.611
 1529SOL    HW1 5483   0.848   2.065   3.654
 1529SOL    HW2 5484   0.708   2.145   3.676
 1530SOL     OW 5485   0.888   3.376   3.057
 1530SOL    HW1 5486   0.865   3.351   2.963
 1530SOL    HW2 5487   0.949   3.307   3.096
 1531SOL     OW 5488   1.351   2.452   3.295
 1531SOL    HW1 5489   1.379   2.409   3.380
 1531SOL    HW2 5490   1.376   2.548   3.296
 1532SOL     OW 5491   0.803   3.264   2.786
 1532SOL    HW1 5492   0.893   3.278   2.744
 1532SOL    HW2 5493   0.732   3.266   2.715
 1533SOL     OW 5494   0.922   2.365   2.761
 1533SOL    HW1 5495   0.897   2.356   2.665
 1533SOL    HW2 5496   0.970   2.283   2.792
 1534SOL     OW 5497   0.539   1.926   2.374
 1534SOL    HW1 5498   0.458   1.927   2.432
 1534SOL    HW2 5499   0.542   2.009   2.319
 1535SOL     OW 5500   1.434   3.050   1.903
 1535SOL    HW1 5501   1.466   2.974   1.960
 1535SOL    HW2 5502   1.342   3.077   1.933
 1536SOL     OW 5503   0.297   1.897   2.033
 1536SOL    HW1 5504   0.346   1.981   2.012
 1536SOL    HW2 5505   0.359   1.832   2.078
 1537SOL     OW 5506   0.935   2.098   2.342
 1537SOL    HW1 5507   0.887   2.139   2.264
 1537SOL    HW2 5508   1.034   2.096   2.323
 1538SOL     OW 5509   1.076   2.545   3.326
 1538SOL    HW1 5510   0.996   2.484   3.329
 1538SOL    HW2 5511   1.157   2.492   3.302
 1539SOL     OW 5512   1.227   3.432   2.655
 1539SOL    HW1 5513   1.248   3.506   2.590
 1539SOL    HW2 5514   1.295   3.432   2.728
 1540SOL     OW 5515   0.459   3.014   2.603
 1540SOL    HW1 5516   0.388   2.987   2.668
 1540SOL    HW2 5517   0.433   2.986   2.510
 1541SOL     OW 5518   1.271   3.659   2.453
 1541SOL    HW1 5519   1.315   3.723   2.389
 1541SOL    HW2 5520   1.221   3.711   2.523
 1542SOL     OW 5521   1.032   2.411   1.878
 1542SOL    HW1 5522   0.991   2.493   1.839
 1542SOL    HW2 5523   1.096   2.437   1.951
 1543SOL     OW 5524   0.078   2.418   3.248
 1543SOL    HW1 5525   0.170   2.417   3.207
 1543SOL    HW2 5526   0.072   2.492   3.315
 1544SOL     OW 5527   0.561   2.084   3.009
 1544SOL    HW1 5528   0.599   2.000   3.046
 1544SOL    HW2 5529   0.473   2.103   3.053
 1545SOL     OW 5530   0.866   2.316   2.504
 1545SOL    HW1 5531   0.834   2.388   2.442
 1545SOL    HW2 5532   0.890   2.235   2.451
 1546SOL     OW 5533   1.017   1.901   2.615
 1546SOL    HW1 5534   0.945   1.906   2.546
 1546SOL    HW2 5535   0.993   1.832   2.684
 1547SOL     OW 5536   1.429   3.035   2.729
 1547SOL    HW1 5537   1.374   2.951   2.722
 1547SOL    HW2 5538   1.455   3.064   2.637
 1548SOL     OW 5539   1.466   2.452   2.854
 1548SOL    HW1 5540   1.436   2.357   2.861
 1548SOL    HW2 5541   1.539   2.468   2.920
 1549SOL     OW 5542   1.857   2.695   2.239
 1549SOL    HW1 5543   1.899   2.631   2.303
 1549SOL    HW2 5544   1.819   2.644   2.161
 1550SOL     OW 5545   0.488   3.247   2.036
 1550SOL    HW1 5546   0.401   3.232   2.083
 1550SOL    HW2 5547   0.471   3.273   1.941
 1551SOL     OW 5548   1.664   3.142   2.519
 1551SOL    HW1 5549   1.763   3.150   2.533
 1551SOL    HW2 5550   1.619   3.226   2.550
 1552SOL     OW 5551   1.390   2.437   1.940
 1552SOL    HW1 5552   1.336   2.416   2.021
 1552SOL    HW2 5553   1.481   2.396   1.949
 1553SOL     OW 5554   0.527   2.118   2.190
 1553SOL    HW1 5555   0.554   2.059   2.115
 1553SOL    HW2 5556   0.527   2.213   2.159
 1554SOL     OW 5557   1.754   3.085   3.450
 1554SOL    HW1 5558   1.845   3.046   3.437
 1554SOL    HW2 5559   1.762   3.181   3.474
 1555SOL     OW 5560   1.064   3.209   3.202
 1555SOL    HW1 5561   0.984   3.186   3.257
 1555SOL    HW2 5562   1.147   3.183   3.251
 1556SOL     OW 5563   1.592   3.491   3.487
 1556SOL    HW1 5564   1.619   3.525   3.397
 1556SOL    HW2 5565   1.671   3.453   3.533
 1557SOL     OW 5566   1.111   3.057   2.962
 1557SOL    HW1 5567   1.071   3.101   3.043
 1557SOL    HW2 5568   1.070   3.094   2.879
 1558SOL     OW 5569   1.638   2.961   2.941
 1558SOL    HW1 5570   1.643   3.042   3.000
 1558SOL    HW2 5571   1.552   2.963   2.890
 1559SOL     OW 5572   0.915   1.951   3.264
 1559SOL    HW1 5573   0.940   1.931   3.169
 1559SOL    HW2 5574   0.987   2.007   3.306
 1560SOL     OW 5575   0.980   2.978   3.581
 1560SOL    HW1 5576   0.881   2.984   3.591
 1560SOL    HW2 5577   1.003   2.898   3.525
 1561SOL     OW 5578   0.705   2.912   2.230
 1561SOL    HW1 5579   0.691   2.919   2.329
 1561SOL    HW2 5580   0.789   2.861   2.212
 1562SOL     OW 5581   0.410   2.675   3.113
 1562SOL    HW1 5582   0.496   2.687   3.163
 1562SOL    HW2 5583   0.368   2.588   3.140
 1563SOL     OW 5584   1.274   2.248   3.124
 1563SOL    HW1 5585   1.295   2.322   3.188
 1563SOL    HW2 5586   1.185   2.265   3.081
 1564SOL     OW 5587   0.064   3.426   3.193
 1564SOL    HW1 5588   0.018   3.508   3.159
 1564SOL    HW2 5589   0.162   3.445   3.202
 1565SOL     OW 5590   0.367   2.962   2.363
 1565SOL    HW1 5591   0.360   3.045   2.307
 1565SOL    HW2 5592   0.371   2.882   2.303
 1566SOL     OW 5593   0.566   2.399   2.727
 1566SOL    HW1 5594   0.578   2.465   2.653
 1566SOL    HW2 5595   0.612   2.433   2.810
 1567SOL     OW 5596   1.252   3.210   2.250
 1567SOL    HW1 5597   1.302   3.287   2.290
 1567SOL    HW2 5598   1.157   3.212   2.282
 1568SOL     OW 5599   1.272   3.307   3.004
 1568SOL    HW1 5600   1.319   3.320   3.091
 1568SOL    HW2 5601   1.206   3.233   3.013
 1569SOL     OW 5602   1.582   2.501   2.334
 1569SOL    HW1 5603   1.551   2.562   2.407
 1569SOL    HW2 5604   1.632   2.553   2.265
 1570SOL     OW 5605   0.354   3.372   3.191
 1570SOL    HW1 5606   0.333   3.328   3.104
 1570SOL    HW2 5607   0.451   3.398   3.194
 1571SOL     OW 5608   0.402   2.613   3.460
 1571SOL    HW1 5609   0.470   2.668   3.413
 1571SOL    HW2 5610   0.442   2.525   3.487
 1572SOL     OW 5611   1.587   2.641   3.532
 1572SOL    HW1 5612   1.495   2.679   3.527
 1572SOL    HW2 5613   1.647   2.688   3.467
 1573SOL     OW 5614   1.013   1.967   3.632
 1573SOL    HW1 5615   1.019   2.052   3.580
 1573SOL    HW2 5616   1.045   1.891   3.575
 1574SOL     OW 5617   0.504   1.912   3.602
 1574SOL    HW1 5618   0.462   1.855   3.532
 1574SOL    HW2 5619   0.438   1.981   3.634
 1575SOL     OW 5620   0.573   2.732   2.891
 1575SOL    HW1 5621   0.617   2.821   2.882
 1575SOL    HW2 5622   0.510   2.732   2.968
 1576SOL     OW 5623   1.360   2.724   2.907
 1576SOL    HW1 5624   1.285   2.724   2.841
 1576SOL    HW2 5625   1.397   2.632   2.916
 1577SOL     OW 5626   1.209   2.387   2.137
 1577SOL    HW1 5627   1.222   2.303   2.191
 1577SOL    HW2 5628   1.180   2.461   2.197
 1578SOL     OW 5629   0.307   2.075   3.093
 1578SOL    HW1 5630   0.284   2.112   3.183
 1578SOL    HW2 5631   0.277   1.980   3.087
 1579SOL     OW 5632   0.037   3.172   3.144
 1579SOL    HW1 5633   0.090   3.123   3.212
 1579SOL    HW2 5634   0.059   3.270   3.149
 1580SOL     OW 5635   0.732   2.496   2.926
 1580SOL    HW1 5636   0.791   2.470   2.850
 1580SOL    HW2 5637   0.704   2.592   2.915
 1581SOL     OW 5638   1.728   2.797   3.716
 1581SOL    HW1 5639   1.682   2.790   3.627
 1581SOL    HW2 5640   1.666   2.841   3.782
 1582SOL     OW 5641   0.307   1.925   2.480
 1582SOL    HW1 5642   0.296   2.019   2.513
 1582SOL    HW2 5643   0.302   1.862   2.557
 1583SOL     OW 5644   1.622   2.229   2.236
 1583SOL    HW1 5645   1.624   2.153   2.300
 1583SOL    HW2 5646   1.574   2.306   2.276
 1584SOL     OW 5647   1.023   2.628   2.828
 1584SOL    HW1 5648   1.038   2.649   2.924
 1584SOL    HW2 5649   0.993   2.533   2.819
 1585SOL     OW 5650   0.980   3.435   3.562
 1585SOL    HW1 5651   0.960   3.479   3.474
 1585SOL    HW2 5652   1.019   3.344   3.546
 1586SOL     OW 5653   1.859   3.380   3.467
 1586SOL    HW1 5654   1.873   3.407   3.372
 1586SOL    HW2 5655   1.942   3.402   3.520
 1587SOL     OW 5656   0.350   2.760   3.666
 1587SOL    HW1 5657   0.426   2.804   3.714
 1587SOL    HW2 5658   0.385   2.713   3.584
 1588SOL     OW 5659   1.540   2.136   1.987
 1588SOL    HW1 5660   1.479   2.061   2.010
 1588SOL    HW2 5661   1.562   2.188   2.070
 1589SOL     OW 5662   1.303   2.700   1.904
 1589SOL    HW1 5663   1.337   2.607   1.919
 1589SOL    HW2 5664   1.321   2.727   1.809
 1590SOL     OW 5665   1.068   3.195   2.711
 1590SOL    HW1 5666   1.075   3.111   2.656
 1590SOL    HW2 5667   1.130   3.264   2.675
 1591SOL     OW 5668   0.319   2.672   2.811
 1591SOL    HW1 5669   0.412   2.708   2.816
 1591SOL    HW2 5670   0.313   2.587   2.863
 1592SOL     OW 5671   0.339   2.371   2.868
 1592SOL    HW1 5672   0.287   2.288   2.851
 1592SOL    HW2 5673   0.416   2.376   2.804
 1593SOL     OW 5674   1.138   2.242   3.540
 1593SOL    HW1 5675   1.093   2.305   3.604
 1593SOL    HW2 5676   1.231   2.273   3.523
 1594SOL     OW 5677   1.160   2.069   3.339
 1594SOL    HW1 5678   1.160   2.133   3.416
 1594SOL    HW2 5679   1.188   2.117   3.256
 1595SOL     OW 5680   0.008   3.188   2.062
 1595SOL    HW1 5681  -0.085   3.209   2.031
 1595SOL    HW2 5682   0.018   3.089   2.075
 1596SOL     OW 5683   0.088   3.663   2.789
 1596SOL    HW1 5684   0.046   3.577   2.762
 1596SOL    HW2 5685   0.182   3.666   2.755
 1597SOL     OW 5686   0.504   3.430   2.772
 1597SOL    HW1 5687   0.570   3.504   2.781
 1597SOL    HW2 5688   0.548   3.351   2.730
 1598SOL     OW 5689   1.002   2.658   3.100
 1598SOL    HW1 5690   1.043   2.626   3.186
 1598SOL    HW2 5691   0.906   2.631   3.097
 1599SOL     OW 5692   0.040   2.406   2.976
 1599SOL    HW1 5693   0.125   2.373   2.935
 1599SOL    HW2 5694   0.053   2.421   3.074
 1600SOL     OW 5695   0.189   2.382   3.584
 1600SOL    HW1 5696   0.248   2.342   3.514
 1600SOL    HW2 5697   0.131   2.453   3.543
 1601SOL     OW 5698   1.369   2.812   3.522
 1601SOL    HW1 5699   1.408   2.901   3.542
 1601SOL    HW2 5700   1.379   2.792   3.425
 1602SOL     OW 5701   0.815   2.434   2.187
 1602SOL    HW1 5702   0.822   2.345   2.141
 1602SOL    HW2 5703   0.721   2.468   2.179
 1603SOL     OW 5704   1.657   2.466   3.068
 1603SOL    HW1 5705   1.619   2.397   3.130
 1603SOL    HW2 5706   1.739   2.430   3.024
 1604SOL     OW 5707   0.252   3.426   3.606
 1604SOL    HW1 5708   0.222   3.483   3.682
 1604SOL    HW2 5709   0.245   3.329   3.632
 1605SOL     OW 5710   0.671   2.326   3.131
 1605SOL    HW1 5711   0.637   2.237   3.101
 1605SOL    HW2 5712   0.697   2.380   3.051
 1606SOL     OW 5713   0.930   3.540   3.327
 1606SOL    HW1 5714   0.906   3.522   3.232
 1606SOL    HW2 5715   0.960   3.634   3.337
 1607SOL     OW 5716   0.473   2.362   2.053
 1607SOL    HW1 5717   0.534   2.442   2.057
 1607SOL    HW2 5718   0.378   2.393   2.060
 1608SOL     OW 5719   0.159   2.999   3.328
 1608SOL    HW1 5720   0.181   2.938   3.404
 1608SOL    HW2 5721   0.169   2.950   3.242
 1609SOL     OW 5722   1.347   2.921   3.096
 1609SOL    HW1 5723   1.371   2.858   3.022
 1609SOL    HW2 5724   1.257   2.961   3.078
 1610SOL     OW 5725   1.302   2.717   2.171
 1610SOL    HW1 5726   1.216   2.686   2.213
 1610SOL    HW2 5727   1.298   2.703   2.072
 1611SOL     OW 5728   1.759   3.609   3.016
 1611SOL    HW1 5729   1.820   3.639   2.943
 1611SOL    HW2 5730   1.721   3.520   2.994
 1612SOL     OW 5731   1.252   3.593   2.990
 1612SOL    HW1 5732   1.336   3.598   2.936
 1612SOL    HW2 5733   1.229   3.497   3.008
 1613SOL     OW 5734   0.083   3.120   2.884
 1613SOL    HW1 5735   0.078   3.119   2.984
 1613SOL    HW2 5736   0.000   3.079   2.846
 1614SOL     OW 5737   0.688   3.524   3.578
 1614SOL    HW1 5738   0.632   3.605   3.587
 1614SOL    HW2 5739   0.740   3.528   3.492
 1615SOL     OW 5740   1.726   1.997   2.385
 1615SOL    HW1 5741   1.799   1.980   2.318
 1615SOL    HW2 5742   1.695   1.910   2.423
 1616SOL     OW 5743   1.388   3.435   2.339
 1616SOL    HW1 5744   1.455   3.447   2.265
 1616SOL    HW2 5745   1.348   3.524   2.362
 1617SOL     OW 5746   0.130   3.656   3.713
 1617SOL    HW1 5747   0.089   3.582   3.766
 1617SOL    HW2 5748   0.194   3.707   3.771
 1618SOL     OW 5749   1.280   2.789   2.534
 1618SOL    HW1 5750   1.340   2.708   2.536
 1618SOL    HW2 5751   1.320   2.858   2.474
 1619SOL     OW 5752   0.830   3.135   3.284
 1619SOL    HW1 5753   0.825   3.168   3.379
 1619SOL    HW2 5754   0.744   3.154   3.238
 1620SOL     OW 5755   0.672   3.478   2.016
 1620SOL    HW1 5756   0.681   3.488   1.917
 1620SOL    HW2 5757   0.632   3.389   2.037
 1621SOL     OW 5758   1.650   3.582   3.256
 1621SOL    HW1 5759   1.703   3.592   3.172
 1621SOL    HW2 5760   1.623   3.672   3.290
 1622SOL     OW 5761   1.841   2.037   2.825
 1622SOL    HW1 5762   1.880   1.952   2.789
 1622SOL    HW2 5763   1.743   2.039   2.806
 1623SOL     OW 5764   0.263   2.188   2.582
 1623SOL    HW1 5765   0.184   2.239   2.548
 1623SOL    HW2 5766   0.254   2.173   2.680
 1624SOL     OW 5767   1.194   3.474   1.893
 1624SOL    HW1 5768   1.200   3.381   1.930
 1624SOL    HW2 5769   1.135   3.474   1.813
 1625SOL     OW 5770   0.822   2.864   3.234
 1625SOL    HW1 5771   0.862   2.863   3.142
 1625SOL    HW2 5772   0.832   2.956   3.274
 1626SOL     OW 5773   0.916   2.772   2.153
 1626SOL    HW1 5774   0.979   2.810   2.085
 1626SOL    HW2 5775   0.956   2.689   2.192
 1627SOL     OW 5776   1.504   3.469   1.906
 1627SOL    HW1 5777   1.412   3.506   1.913
 1627SOL    HW2 5778   1.542   3.489   1.816
 1628SOL     OW 5779   0.372   3.150   3.352
 1628SOL    HW1 5780   0.359   3.243   3.318
 1628SOL    HW2 5781   0.288   3.098   3.339
 1629SOL     OW 5782   1.614   3.154   3.151
 1629SOL    HW1 5783   1.674   3.157   3.231
 1629SOL    HW2 5784   1.539   3.218   3.164
 1630SOL     OW 5785   1.039   2.960   2.558
 1630SOL    HW1 5786   0.969   2.913   2.612
 1630SOL    HW2 5787   1.098   2.892   2.515
 1631SOL     OW 5788   1.014   2.098   2.833
 1631SOL    HW1 5789   1.006   2.062   2.740
 1631SOL    HW2 5790   1.012   2.022   2.898
 1632SOL     OW 5791   0.590   3.349   2.353
 1632SOL    HW1 5792   0.632   3.291   2.283
 1632SOL    HW2 5793   0.546   3.428   2.309
 1633SOL     OW 5794   1.709   2.247   3.243
 1633SOL    HW1 5795   1.782   2.316   3.247
 1633SOL    HW2 5796   1.737   2.172   3.184
 1634SOL     OW 5797   0.255   3.210   2.152
 1634SOL    HW1 5798   0.159   3.211   2.125
 1634SOL    HW2 5799   0.267   3.263   2.236
 1635SOL     OW 5800   0.105   2.875   3.588
 1635SOL    HW1 5801   0.028   2.842   3.642
 1635SOL    HW2 5802   0.190   2.845   3.630
 1636SOL     OW 5803   0.672   2.065   3.351
 1636SOL    HW1 5804   0.762   2.049   3.311
 1636SOL    HW2 5805   0.680   2.070   3.450
 1637SOL     OW 5806   0.075   2.207   1.895
 1637SOL    HW1 5807  -0.017   2.179   1.866
 1637SOL    HW2 5808   0.106   2.284   1.839
 1638SOL     OW 5809   1.440   2.718   3.260
 1638SOL    HW1 5810   1.383   2.770   3.197
 1638SOL    HW2 5811   1.536   2.730   3.236
 1639SOL     OW 5812   0.072   2.028   2.180
 1639SOL    HW1 5813   0.055   2.111   2.126
 1639SOL    HW2 5814   0.162   1.991   2.158
 1640SOL     OW 5815   1.183   3.197   1.981
 1640SOL    HW1 5816   1.084   3.186   1.983
 1640SOL    HW2 5817   1.217   3.212   2.074
 1641SOL     OW 5818   0.613   2.704   3.293
 1641SOL    HW1 5819   0.669   2.785   3.276
 1641SOL    HW2 5820   0.672   2.624   3.296
 1642SOL     OW 5821   1.493   3.629   2.821
 1642SOL    HW1 5822   1.526   3.693   2.752
 1642SOL    HW2 5823   1.559   3.623   2.896
 1643SOL     OW 5824   0.716   2.427   3.570
 1643SOL    HW1 5825   0.735   2.492   3.644
 1643SOL    HW2 5826   0.776   2.347   3.579
 1644SOL     OW 5827   1.450   3.082   3.495
 1644SOL    HW1 5828   1.441   3.072   3.594
 1644SOL    HW2 5829   1.546   3.075   3.469
 1645SOL     OW 5830   0.390   3.603   3.422
 1645SOL    HW1 5831   0.299   3.644   3.420
 1645SOL    HW2 5832   0.383   3.509   3.454
 1646SOL     OW 5833   1.674   2.745   3.116
 1646SOL    HW1 5834   1.647   2.656   3.079
 1646SOL    HW2 5835   1.675   2.813   3.043
 1647SOL     OW 5836   1.225   2.187   2.311
 1647SOL    HW1 5837   1.290   2.113   2.300
 1647SOL    HW2 5838   1.245   2.237   2.395
 1648SOL     OW 5839   0.594   2.607   2.514
 1648SOL    HW1 5840   0.644   2.692   2.495
 1648SOL    HW2 5841   0.506   2.609   2.466
 1649SOL     OW 5842   1.777   2.204   3.504
 1649SOL    HW1 5843   1.760   2.235   3.410
 1649SOL    HW2 5844   1.693   2.167   3.542
 1650SOL     OW 5845   1.730   2.796   3.379
 1650SOL    HW1 5846   1.768   2.887   3.394
 1650SOL    HW2 5847   1.722   2.779   3.280
 1651SOL     OW 5848   0.859   3.236   1.878
 1651SOL    HW1 5849   0.813   3.251   1.966
 1651SOL    HW2 5850   0.903   3.321   1.848
 1652SOL     OW 5851   0.661   3.652   2.815
 1652SOL    HW1 5852   0.615   3.740   2.802
 1652SOL    HW2 5853   0.760   3.664   2.808
 1653SOL     OW 5854   0.859   2.818   2.723
 1653SOL    HW1 5855   0.913   2.749   2.771
 1653SOL    HW2 5856   0.827   2.887   2.789
 1654SOL     OW 5857   1.083   2.846   1.949
 1654SOL    HW1 5858   1.060   2.899   1.867
 1654SOL    HW2 5859   1.164   2.790   1.930
 1655SOL     OW 5860   1.861   3.431   2.713
 1655SOL    HW1 5861   1.790   3.419   2.643
 1655SOL    HW2 5862   1.862   3.352   2.773
 1656SOL     OW 5863   0.221   3.176   3.706
 1656SOL    HW1 5864   0.156   3.103   3.685
 1656SOL    HW2 5865   0.225   3.190   3.804
 1657SOL     OW 5866   0.079   3.102   2.515
 1657SOL    HW1 5867   0.078   3.055   2.603
 1657SOL    HW2 5868   0.161   3.074   2.464
 1658SOL     OW 5869   0.672   3.253   3.486
 1658SOL    HW1 5870   0.594   3.203   3.524
 1658SOL    HW2 5871   0.669   3.348   3.517
 1659SOL     OW 5872   1.824   2.054   3.089
 1659SOL    HW1 5873   1.820   1.964   3.133
 1659SOL    HW2 5874   1.827   2.043   2.990
 1660SOL     OW 5875   0.428   2.286   2.382
 1660SOL    HW1 5876   0.458   2.214   2.320
 1660SOL    HW2 5877   0.389   2.246   2.465
 1661SOL     OW 5878   1.705   3.349   2.966
 1661SOL    HW1 5879   1.612   3.324   2.939
 1661SOL    HW2 5880   1.731   3.299   3.048
 1662SOL     OW 5881   0.317   2.409   3.142
 1662SOL    HW1 5882   0.355   2.350   3.214
 1662SOL    HW2 5883   0.357   2.383   3.054
 1663SOL     OW 5884   0.812   3.448   2.549
 1663SOL    HW1 5885   0.844   3.458   2.455
 1663SOL    HW2 5886   0.733   3.386   2.551
 1664SOL     OW 5887   1.424   2.076   2.974
 1664SOL    HW1 5888   1.476   2.011   3.029
 1664SOL    HW2 5889   1.375   2.139   3.035
 1665SOL     OW 5890   1.001   1.896   3.016
 1665SOL    HW1 5891   0.938   1.824   2.985
 1665SOL    HW2 5892   1.094   1.860   3.016
 1666SOL     OW 5893   0.770   3.192   2.163
 1666SOL    HW1 5894   0.724   3.105   2.180
 1666SOL    HW2 5895   0.861   3.189   2.204
 1667SOL     OW 5896   0.618   3.429   3.146
 1667SOL    HW1 5897   0.613   3.511   3.203
 1667SOL    HW2 5898   0.707   3.426   3.101
 1668SOL     OW 5899   1.352   1.914   2.030
 1668SOL    HW1 5900   1.387   1.873   1.946
 1668SOL    HW2 5901   1.262   1.876   2.050
 1669SOL     OW 5902   1.300   2.315   2.553
 1669SOL    HW1 5903   1.241   2.395   2.557
 1669SOL    HW2 5904   1.315   2.280   2.646
 1670SOL     OW 5905   1.593   2.083   2.744
 1670SOL    HW1 5906   1.509   2.082   2.798
 1670SOL    HW2 5907   1.595   2.166   2.688
 1671SOL     OW 5908   0.039   2.939   2.162
 1671SOL    HW1 5909   0.138   2.928   2.153
 1671SOL    HW2 5910  -0.001   2.853   2.194
 1672SOL     OW 5911   0.875   3.508   2.199
 1672SOL    HW1 5912   0.798   3.473   2.145
 1672SOL    HW2 5913   0.843   3.579   2.261
 1673SOL     OW 5914   0.230   2.490   3.837
 1673SOL    HW1 5915   0.137   2.488   3.874
 1673SOL    HW2 5916   0.231   2.451   3.745
 1674SOL     OW 5917   0.225   2.137   4.720
 1674SOL    HW1 5918   0.260   2.120   4.812
 1674SOL    HW2 5919   0.137   2.092   4.708
 1675SOL     OW 5920   0.019   2.230   4.371
 1675SOL    HW1 5921  -0.063   2.273   4.410
 1675SOL    HW2 5922  -0.009   2.157   4.308
 1676SOL     OW 5923   0.569   3.137   4.889
 1676SOL    HW1 5924   0.476   3.130   4.852
 1676SOL    HW2 5925   0.580   3.226   4.933
 1677SOL     OW 5926   1.555   3.373   4.427
 1677SOL    HW1 5927   1.498   3.357   4.508
 1677SOL    HW2 5928   1.496   3.383   4.347
 1678SOL     OW 5929   1.135   2.565   4.441
 1678SOL    HW1 5930   1.192   2.643   4.416
 1678SOL    HW2 5931   1.075   2.591   4.517
 1679SOL     OW 5932   1.755   2.469   3.955
 1679SOL    HW1 5933   1.743   2.456   3.856
 1679SOL    HW2 5934   1.725   2.388   4.004
 1680SOL     OW 5935   0.768   3.006   4.747
 1680SOL    HW1 5936   0.690   3.023   4.807
 1680SOL    HW2 5937   0.802   3.093   4.711
 1681SOL     OW 5938   0.850   2.660   5.547
 1681SOL    HW1 5939   0.846   2.736   5.612
 1681SOL    HW2 5940   0.872   2.696   5.456
 1682SOL     OW 5941   0.685   2.874   4.389
 1682SOL    HW1 5942   0.754   2.858   4.459
 1682SOL    HW2 5943   0.612   2.931   4.427
 1683SOL     OW 5944   0.686   3.023   5.527
 1683SOL    HW1 5945   0.746   3.102   5.541
 1683SOL    HW2 5946   0.600   3.054   5.486
 1684SOL     OW 5947   0.335   3.297   4.785
 1684SOL    HW1 5948   0.257   3.266   4.732
 1684SOL    HW2 5949   0.393   3.355   4.728
 1685SOL     OW 5950   1.460   3.367   5.063
 1685SOL    HW1 5951   1.484   3.461   5.089
 1685SOL    HW2 5952   1.444   3.313   5.145
 1686SOL     OW 5953   0.438   2.254   5.223
 1686SOL    HW1 5954   0.520   2.198   5.232
 1686SOL    HW2 5955   0.357   2.196   5.227
 1687SOL     OW 5956   0.231   3.575   4.207
 1687SOL    HW1 5957   0.265   3.652   4.261
 1687SOL    HW2 5958   0.275   3.575   4.117
 1688SOL     OW 5959   1.127   3.203   5.414
 1688SOL    HW1 5960   1.174   3.203   5.502
 1688SOL    HW2 5961   1.079   3.116   5.403
 1689SOL     OW 5962   0.230   3.296   4.262
 1689SOL    HW1 5963   0.204   3.392   4.262
 1689SOL    HW2 5964   0.159   3.242   4.307
 1690SOL     OW 5965   0.240   2.953   4.610
 1690SOL    HW1 5966   0.254   2.869   4.662
 1690SOL    HW2 5967   0.185   3.017   4.665
 1691SOL     OW 5968   0.620   3.648   5.163
 1691SOL    HW1 5969   0.528   3.631   5.198
 1691SOL    HW2 5970   0.648   3.740   5.189
 1692SOL     OW 5971   0.606   2.826   3.847
 1692SOL    HW1 5972   0.613   2.910   3.793
 1692SOL    HW2 5973   0.652   2.839   3.935
 1693SOL     OW 5974   0.122   2.505   4.287
 1693SOL    HW1 5975   0.077   2.417   4.304
 1693SOL    HW2 5976   0.121   2.559   4.371
 1694SOL     OW 5977   1.842   3.629   4.083
 1694SOL    HW1 5978   1.896   3.600   4.163
 1694SOL    HW2 5979   1.872   3.719   4.054
 1695SOL     OW 5980   0.027   3.458   3.841
 1695SOL    HW1 5981   0.008   3.362   3.862
 1695SOL    HW2 5982  -0.006   3.516   3.916
 1696SOL     OW 5983   1.689   2.784   4.336
 1696SOL    HW1 5984   1.784   2.755   4.344
 1696SOL    HW2 5985   1.681   2.849   4.261
 1697SOL     OW 5986   1.641   2.970   4.156
 1697SOL    HW1 5987   1.727   2.972   4.104
 1697SOL    HW2 5988   1.655   3.017   4.244
 1698SOL     OW 5989   0.113   2.599   5.321
 1698SOL    HW1 5990   0.201   2.586   5.366
 1698SOL    HW2 5991   0.100   2.696   5.299
 1699SOL     OW 5992   0.613   3.227   4.450
 1699SOL    HW1 5993   0.564   3.140   4.459
 1699SOL    HW2 5994   0.590   3.270   4.363
 1700SOL     OW 5995   1.293   3.090   5.147
 1700SOL    HW1 5996   1.330   3.017   5.089
 1700SOL    HW2 5997   1.345   3.095   5.232
 1701SOL     OW 5998   0.809   1.866   4.226
 1701SOL    HW1 5999   0.849   1.957   4.217
 1701SOL    HW2 6000   0.709   1.874   4.232
 1702SOL     OW 6001   0.197   2.838   4.988
 1702SOL    HW1 6002   0.286   2.793   4.974
 1702SOL    HW2 6003   0.124   2.773   4.969
 1703SOL     OW 6004   1.525   2.861   3.914
 1703SOL    HW1 6005   1.462   2.785   3.927
 1703SOL    HW2 6006   1.573   2.879   4.000
 1704SOL     OW 6007   1.187   3.654   5.340
 1704SOL    HW1 6008   1.211   3.714   5.264
 1704SOL    HW2 6009   1.194   3.559   5.310
 1705SOL     OW 6010   0.317   2.113   5.525
 1705SOL    HW1 6011   0.388   2.184   5.531
 1705SOL    HW2 6012   0.229   2.152   5.553
 1706SOL     OW 6013   1.466   3.279   4.677
 1706SOL    HW1 6014   1.407   3.285   4.757
 1706SOL    HW2 6015   1.451   3.191   4.631
 1707SOL     OW 6016   1.667   3.576   4.296
 1707SOL    HW1 6017   1.626   3.553   4.208
 1707SOL    HW2 6018   1.649   3.502   4.361
 1708SOL     OW 6019   0.598   2.591   3.994
 1708SOL    HW1 6020   0.622   2.660   3.926
 1708SOL    HW2 6021   0.520   2.624   4.048
 1709SOL     OW 6022   1.281   2.207   4.668
 1709SOL    HW1 6023   1.195   2.157   4.655
 1709SOL    HW2 6024   1.343   2.153   4.724
 1710SOL     OW 6025   1.576   3.524   4.031
 1710SOL    HW1 6026   1.665   3.570   4.034
 1710SOL    HW2 6027   1.555   3.500   3.936
 1711SOL     OW 6028   0.807   2.467   5.189
 1711SOL    HW1 6029   0.760   2.464   5.278
 1711SOL    HW2 6030   0.756   2.412   5.123
 1712SOL     OW 6031   0.973   2.752   5.296
 1712SOL    HW1 6032   1.019   2.668   5.267
 1712SOL    HW2 6033   0.917   2.786   5.221
 1713SOL     OW 6034   0.991   2.272   4.966
 1713SOL    HW1 6035   0.914   2.306   5.020
 1713SOL    HW2 6036   0.957   2.221   4.887
 1714SOL     OW 6037   1.041   2.563   4.153
 1714SOL    HW1 6038   1.067   2.559   4.249
 1714SOL    HW2 6039   0.956   2.512   4.139
 1715SOL     OW 6040   0.076   2.673   4.513
 1715SOL    HW1 6041   0.175   2.661   4.522
 1715SOL    HW2 6042   0.052   2.768   4.534
 1716SOL     OW 6043   0.130   3.683   5.295
 1716SOL    HW1 6044   0.120   3.668   5.394
 1716SOL    HW2 6045   0.044   3.719   5.259
 1717SOL     OW 6046   0.865   2.210   3.919
 1717SOL    HW1 6047   0.924   2.273   3.870
 1717SOL    HW2 6048   0.884   2.116   3.890
 1718SOL     OW 6049   1.719   2.447   5.555
 1718SOL    HW1 6050   1.693   2.536   5.519
 1718SOL    HW2 6051   1.717   2.379   5.482
 1719SOL     OW 6052   1.362   3.006   4.269
 1719SOL    HW1 6053   1.445   2.977   4.221
 1719SOL    HW2 6054   1.313   3.073   4.213
 1720SOL     OW 6055   0.550   2.058   4.609
 1720SOL    HW1 6056   0.545   2.053   4.709
 1720SOL    HW2 6057   0.552   2.154   4.580
 1721SOL     OW 6058   1.008   3.318   4.201
 1721SOL    HW1 6059   0.962   3.390   4.149
 1721SOL    HW2 6060   1.004   3.338   4.299
 1722SOL     OW 6061   0.351   3.663   4.577
 1722SOL    HW1 6062   0.401   3.577   4.583
 1722SOL    HW2 6063   0.416   3.740   4.574
 1723SOL     OW 6064   1.227   3.412   5.230
 1723SOL    HW1 6065   1.233   3.335   5.294
 1723SOL    HW2 6066   1.175   3.386   5.150
 1724SOL     OW 6067   0.321   2.805   3.966
 1724SOL    HW1 6068   0.403   2.844   3.924
 1724SOL    HW2 6069   0.294   2.723   3.917
 1725SOL     OW 6070   0.461   3.128   5.451
 1725SOL    HW1 6071   0.411   3.129   5.365
 1725SOL    HW2 6072   0.398   3.110   5.527
 1726SOL     OW 6073   1.111   3.638   3.961
 1726SOL    HW1 6074   1.051   3.576   4.011
 1726SOL    HW2 6075   1.142   3.594   3.876
 1727SOL     OW 6076   0.202   2.147   5.222
 1727SOL    HW1 6077   0.122   2.207   5.209
 1727SOL    HW2 6078   0.192   2.098   5.308
 1728SOL     OW 6079   1.632   3.239   3.805
 1728SOL    HW1 6080   1.600   3.333   3.795
 1728SOL    HW2 6081   1.556   3.176   3.793
 1729SOL     OW 6082   0.464   3.605   4.047
 1729SOL    HW1 6083   0.497   3.644   4.133
 1729SOL    HW2 6084   0.540   3.598   3.982
 1730SOL     OW 6085   1.400   1.969   4.150
 1730SOL    HW1 6086   1.376   1.932   4.060
 1730SOL    HW2 6087   1.499   1.985   4.154
 1731SOL     OW 6088   0.249   3.647   4.965
 1731SOL    HW1 6089   0.306   3.582   5.015
 1731SOL    HW2 6090   0.233   3.614   4.872
 1732SOL     OW 6091   0.940   3.560   4.628
 1732SOL    HW1 6092   1.020   3.503   4.649
 1732SOL    HW2 6093   0.891   3.520   4.551
 1733SOL     OW 6094   0.382   2.562   4.204
 1733SOL    HW1 6095   0.427   2.472   4.201
 1733SOL    HW2 6096   0.288   2.551   4.237
 1734SOL     OW 6097   1.547   2.084   5.453
 1734SOL    HW1 6098   1.542   2.121   5.545
 1734SOL    HW2 6099   1.475   2.015   5.441
 1735SOL     OW 6100   0.614   1.984   3.841
 1735SOL    HW1 6101   0.712   1.962   3.848
 1735SOL    HW2 6102   0.583   1.967   3.748
 1736SOL     OW 6103   0.781   2.126   5.473
 1736SOL    HW1 6104   0.848   2.065   5.516
 1736SOL    HW2 6105   0.708   2.145   5.538
 1737SOL     OW 6106   0.888   3.376   4.919
 1737SOL    HW1 6107   0.865   3.351   4.825
 1737SOL    HW2 6108   0.949   3.307   4.958
 1738SOL     OW 6109   1.351   2.452   5.157
 1738SOL    HW1 6110   1.379   2.409   5.242
 1738SOL    HW2 6111   1.376   2.548   5.158
 1739SOL     OW 6112   0.803   3.264   4.648
 1739SOL    HW1 6113   0.893   3.278   4.606
 1739SOL    HW2 6114   0.732   3.266   4.577
 1740SOL     OW 6115   0.922   2.365   4.623
 1740SOL    HW1 6116   0.897   2.356   4.527
 1740SOL    HW2 6117   0.970   2.283   4.654
 1741SOL     OW 6118   0.539   1.926   4.236
 1741SOL    HW1 6119   0.458   1.927   4.294
 1741SOL    HW2 6120   0.542   2.009   4.181
 1742SOL     OW 6121   1.434   3.050   3.765
 1742SOL    HW1 6122   1.466   2.974   3.822
 1742SOL    HW2 6123   1.342   3.077   3.795
 1743SOL     OW 6124   0.297   1.897   3.895
 1743SOL    HW1 6125   0.346   1.981   3.874
 1743SOL    HW2 6126   0.359   1.832   3.940
 1744SOL     OW 6127   0.935   2.098   4.204
 1744SOL    HW1 6128   0.887   2.139   4.126
 1744SOL    HW2 6129   1.034   2.096   4.185
 1745SOL     OW 6130   1.076   2.545   5.188
 1745SOL    HW1 6131   0.996   2.484   5.191
 1745SOL    HW2 6132   1.157   2.492   5.164
 1746SOL     OW 6133   1.227   3.432   4.517
 1746SOL    HW1 6134   1.248   3.506   4.452
 1746SOL    HW2 6135   1.295   3.432   4.590
 1747SOL     OW 6136   0.459   3.014   4.465
 1747SOL    HW1 6137   0.388   2.987   4.530
 1747SOL    HW2 6138   0.433   2.986   4.372
 1748SOL     OW 6139   1.271   3.659   4.315
 1748SOL    HW1 6140   1.315   3.723   4.251
 1748SOL    HW2 6141   1.221   3.711   4.385
 1749SOL     OW 6142   1.032   2.411   3.740
 1749SOL    HW1 6143   0.991   2.493   3.701
 1749SOL    HW2 6144   1.096   2.437   3.813
 1750SOL     OW 6145   0.078   2.418   5.110
 1750SOL    HW1 6146   0.170   2.417   5.069
 1750SOL    HW2 6147   0.072   2.492   5.177
 1751SOL     OW 6148   0.561   2.084   4.871
 1751SOL    HW1 6149   0.599   2.000   4.908
 1751SOL    HW2 6150   0.473   2.103   4.915
 1752SOL     OW 6151   0.866   2.316   4.366
 1752SOL    HW1 6152   0.834   2.388   4.304
 1752SOL    HW2 6153   0.890   2.235   4.313
 1753SOL     OW 6154   1.017   1.901   4.477
 1753SOL    HW1 6155   0.945   1.906   4.408
 1753SOL    HW2 6156   0.993   1.832   4.546
 1754SOL     OW 6157   1.429   3.035   4.591
 1754SOL    HW1 6158   1.374   2.951   4.584
 1754SOL    HW2 6159   1.455   3.064   4.499
 1755SOL     OW 6160   1.857   2.695   4.101
 1755SOL    HW1 6161   1.899   2.631   4.165
 1755SOL    HW2 6162   1.819   2.644   4.023
 1756SOL     OW 6163   0.488   3.247   3.898
 1756SOL    HW1 6164   0.401   3.232   3.945
 1756SOL    HW2 6165   0.471   3.273   3.803
 1757SOL     OW 6166   1.664   3.142   4.381
 1757SOL    HW1 6167   1.763   3.150   4.395
 1757SOL    HW2 6168   1.619   3.226   4.412
 1758SOL     OW 6169   1.390   2.437   3.802
 1758SOL    HW1 6170   1.336   2.416   3.883
 1758SOL    HW2 6171   1.481   2.396   3.811
 1759SOL     OW 6172   0.527   2.118   4.052
 1759SOL    HW1 6173   0.554   2.059   3.977
 1759SOL    HW2 6174   0.527   2.213   4.021
 1760SOL     OW 6175   1.754   3.085   5.312
 1760SOL    HW1 6176   1.845   3.046   5.299
 1760SOL    HW2 6177   1.762   3.181   5.336
 1761SOL     OW 6178   1.064   3.209   5.064
 1761SOL    HW1 6179   0.984   3.186   5.119
 1761SOL    HW2 6180   1.147   3.183   5.113
 1762SOL     OW 6181   1.592   3.491   5.349
 1762SOL    HW1 6182   1.619   3.525   5.259
 1762SOL    HW2 6183   1.671   3.453   5.395
 1763SOL     OW 6184   1.111   3.057   4.824
 1763SOL    HW1 6185   1.071   3.101   4.905
 1763SOL    HW2 6186   1.070   3.094   4.741
 1764SOL     OW 6187   0.915   1.951   5.126
 1764SOL    HW1 6188   0.940   1.931   5.031
 1764SOL    HW2 6189   0.987   2.007   5.168
 1765SOL     OW 6190   0.980   2.978   5.443
 1765SOL    HW1 6191   0.881   2.984   5.453
 1765SOL    HW2 6192   1.003   2.898   5.387
 1766SOL     OW 6193   0.705   2.912   4.092
 1766SOL    HW1 6194   0.691   2.919   4.191
 1766SOL    HW2 6195   0.789   2.861   4.074
 1767SOL     OW 6196   0.410   2.675   4.975
 1767SOL    HW1 6197   0.496   2.687   5.025
 1767SOL    HW2 6198   0.368   2.588   5.002
 1768SOL     OW 6199   0.064   3.426   5.055
 1768SOL    HW1 6200   0.018   3.508   5.021
 1768SOL    HW2 6201   0.162   3.445   5.064
 1769SOL     OW 6202   0.367   2.962   4.225
 1769SOL    HW1 6203   0.360   3.045   4.169
 1769SOL    HW2 6204   0.371   2.882   4.165
 1770SOL     OW 6205   0.566   2.399   4.589
 1770SOL    HW1 6206   0.578   2.465   4.515
 1770SOL    HW2 6207   0.612   2.433   4.672
 1771SOL     OW 6208   1.252   3.210   4.112
 1771SOL    HW1 6209   1.302   3.287   4.152
 1771SOL    HW2 6210   1.157   3.212   4.144
 1772SOL     OW 6211   1.272   3.307   4.866
 1772SOL    HW1 6212   1.319   3.320   4.953
 1772SOL    HW2 6213   1.206   3.233   4.875
 1773SOL     OW 6214   1.582   2.501   4.196
 1773SOL    HW1 6215   1.551   2.562   4.269
 1773SOL    HW2 6216   1.632   2.553   4.127
 1774SOL     OW 6217   0.354   3.372   5.053
 1774SOL    HW1 6218   0.333   3.328   4.966
 1774SOL    HW2 6219   0.451   3.398   5.056
 1775SOL     OW 6220   0.402   2.613   5.322
 1775SOL    HW1 6221   0.470   2.668   5.275
 1775SOL    HW2 6222   0.442   2.525   5.349
 1776SOL     OW 6223   1.013   1.967   5.494
 1776SOL    HW1 6224   1.019   2.052   5.442
 1776SOL    HW2 6225   1.045   1.891   5.437
 1777SOL     OW 6226   0.504   1.912   5.464
 1777SOL    HW1 6227   0.462   1.855   5.394
 1777SOL    HW2 6228   0.438   1.981   5.496
 1778SOL     OW 6229   0.573   2.732   4.753
 1778SOL    HW1 6230   0.617   2.821   4.744
 1778SOL    HW2 6231   0.510   2.732   4.830
 1779SOL     OW 6232   1.360   2.724   4.769
 1779SOL    HW1 6233   1.285   2.724   4.703
 1779SOL    HW2 6234   1.397   2.632   4.778
 1780SOL     OW 6235   1.209   2.387   3.999
 1780SOL    HW1 6236   1.222   2.303   4.053
 1780SOL    HW2 6237   1.180   2.461   4.059
 1781SOL     OW 6238   0.307   2.075   4.955
 1781SOL    HW1 6239   0.284   2.112   5.045
 1781SOL    HW2 6240   0.277   1.980   4.949
 1782SOL     OW 6241   0.037   3.172   5.006
 1782SOL    HW1 6242   0.090   3.123   5.074
 1782SOL    HW2 6243   0.059   3.270   5.011
 1783SOL     OW 6244   0.732   2.496   4.788
 1783SOL    HW1 6245   0.791   2.470   4.712
 1783SOL    HW2 6246   0.704   2.592   4.777
 1784SOL     OW 6247   0.307   1.925   4.342
 1784SOL    HW1 6248   0.296   2.019   4.375
 1784SOL    HW2 6249   0.302   1.862   4.419
 1785SOL     OW 6250   1.622   2.229   4.098
 1785SOL    HW1 6251   1.624   2.153   4.162
 1785SOL    HW2 6252   1.574   2.306   4.138
 1786SOL     OW 6253   1.023   2.628   4.690
 1786SOL    HW1 6254   1.038   2.649   4.786
 1786SOL    HW2 6255   0.993   2.533   4.681
 1787SOL     OW 6256   0.980   3.435   5.424
 1787SOL    HW1 6257   0.960   3.479   5.336
 1787SOL    HW2 6258   1.019   3.344   5.408
 1788SOL     OW 6259   1.859   3.380   5.329
 1788SOL    HW1 6260   1.873   3.407   5.234
 1788SOL    HW2 6261   1.942   3.402   5.382
 1789SOL     OW 6262   0.350   2.760   5.528
 1789SOL    HW1 6263   0.426   2.804   5.576
 1789SOL    HW2 6264   0.385   2.713   5.446
 1790SOL     OW 6265   1.540   2.136   3.849
 1790SOL    HW1 6266   1.479   2.061   3.872
 1790SOL    HW2 6267   1.562   2.188   3.932
 1791SOL     OW 6268   1.303   2.700   3.766
 1791SOL    HW1 6269   1.337   2.607   3.781
 1791SOL    HW2 6270   1.321   2.727   3.671
 1792SOL     OW 6271   1.068   3.195   4.573
 1792SOL    HW1 6272   1.075   3.111   4.518
 1792SOL    HW2 6273   1.130   3.264   4.537
 1793SOL     OW 6274   0.319   2.672   4.673
 1793SOL    HW1 6275   0.412   2.708   4.678
 1793SOL    HW2 6276   0.313   2.587   4.725
 1794SOL     OW 6277   0.339   2.371   4.730
 1794SOL    HW1 6278   0.287   2.288   4.713
 1794SOL    HW2 6279   0.416   2.376   4.666
 1795SOL     OW 6280   1.138   2.242   5.402
 1795SOL    HW1 6281   1.093   2.305   5.466
 1795SOL    HW2 6282   1.231   2.273   5.385
 1796SOL     OW 6283   1.160   2.069   5.201
 1796SOL    HW1 6284   1.160   2.133   5.278
 1796SOL    HW2 6285   1.188   2.117   5.118
 1797SOL     OW 6286   0.008   3.188   3.924
 1797SOL    HW1 6287  -0.085   3.209   3.893
 1797SOL    HW2 6288   0.018   3.089   3.937
 1798SOL     OW 6289   0.088   3.663   4.651
 1798SOL    HW1 6290   0.046   3.577   4.624
 1798SOL    HW2 6291   0.182   3.666   4.617
 1799SOL     OW 6292   0.504   3.430   4.634
 1799SOL    HW1 6293   0.570   3.504   4.643
 1799SOL    HW2 6294   0.548   3.351   4.592
 1800SOL     OW 6295   1.002   2.658   4.962
 1800SOL    HW1 6296   1.043   2.626   5.048
 1800SOL    HW2 6297   0.906   2.631   4.959
 1801SOL     OW 6298   0.040   2.406   4.838
 1801SOL    HW1 6299   0.125   2.373   4.797
 1801SOL    HW2 6300   0.053   2.421   4.936
 1802SOL     OW 6301   0.189   2.382   5.446
 1802SOL    HW1 6302   0.248   2.342   5.376
 1802SOL    HW2 6303   0.131   2.453   5.405
 1803SOL     OW 6304   1.369   2.812   5.384
 1803SOL    HW1 6305   1.408   2.901   5.404
 1803SOL    HW2 6306   1.379   2.792   5.287
 1804SOL     OW 6307   0.815   2.434   4.049
 1804SOL    HW1 6308   0.822   2.345   4.003
 1804SOL    HW2 6309   0.721   2.468   4.041
 1805SOL     OW 6310   0.252   3.426   5.468
 1805SOL    HW1 6311   0.222   3.483   5.544
 1805SOL    HW2 6312   0.245   3.329   5.494
 1806SOL     OW 6313   0.671   2.326   4.993
 1806SOL    HW1 6314   0.637   2.237   4.963
 1806SOL    HW2 6315   0.697   2.380   4.913
 1807SOL     OW 6316   0.930   3.540   5.189
 1807SOL    HW1 6317   0.906   3.522   5.094
 1807SOL    HW2 6318   0.960   3.634   5.199
 1808SOL     OW 6319   0.473   2.362   3.915
 1808SOL    HW1 6320   0.534   2.442   3.919
 1808SOL    HW2 6321   0.378   2.393   3.922
 1809SOL     OW 6322   0.159   2.999   5.190
 1809SOL    HW1 6323   0.181   2.938   5.266
 1809SOL    HW2 6324   0.169   2.950   5.104
 1810SOL     OW 6325   1.347   2.921   4.958
 1810SOL    HW1 6326   1.371   2.858   4.884
 1810SOL    HW2 6327   1.257   2.961   4.940
 1811SOL     OW 6328   1.302   2.717   4.033
 1811SOL    HW1 6329   1.216   2.686   4.075
 1811SOL    HW2 6330   1.298   2.703   3.934
 1812SOL     OW 6331   1.759   3.609   4.878
 1812SOL    HW1 6332   1.820   3.639   4.805
 1812SOL    HW2 6333   1.721   3.520   4.856
 1813SOL     OW 6334   1.252   3.593   4.852
 1813SOL    HW1 6335   1.336   3.598   4.798
 1813SOL    HW2 6336   1.229   3.497   4.870
 1814SOL     OW 6337   0.083   3.120   4.746
 1814SOL    HW1 6338   0.078   3.119   4.846
 1814SOL    HW2 6339   0.000   3.079   4.708
 1815SOL     OW 6340   0.688   3.524   5.440
 1815SOL    HW1 6341   0.632   3.605   5.449
 1815SOL    HW2 6342   0.740   3.528   5.354
 1816SOL     OW 6343   1.726   1.997   4.247
 1816SOL    HW1 6344   1.799   1.980   4.180
 1816SOL    HW2 6345   1.695   1.910   4.285
 1817SOL     OW 6346   1.388   3.435   4.201
 1817SOL    HW1 6347   1.455   3.447   4.127
 1817SOL    HW2 6348   1.348   3.524   4.224
 1818SOL     OW 6349   0.130   3.656   5.575
 1818SOL    HW1 6350   0.089   3.582   5.628
 1818SOL    HW2 6351   0.194   3.707   5.633
 1819SOL     OW 6352   1.280   2.789   4.396
 1819SOL    HW1 6353   1.340   2.708   4.398
 1819SOL    HW2 6354   1.320   2.858   4.336
 1820SOL     OW 6355   0.830   3.135   5.146
 1820SOL    HW1 6356   0.825   3.168   5.241
 1820SOL    HW2 6357   0.744   3.154   5.100
 1821SOL     OW 6358   0.672   3.478   3.878
 1821SOL    HW1 6359   0.681   3.488   3.779
 1821SOL    HW2 6360   0.632   3.389   3.899
 1822SOL     OW 6361   1.650   3.582   5.118
 1822SOL    HW1 6362   1.703   3.592   5.034
 1822SOL    HW2 6363   1.623   3.672   5.152
 1823SOL     OW 6364   0.263   2.188   4.444
 1823SOL    HW1 6365   0.184   2.239   4.410
 1823SOL    HW2 6366   0.254   2.173   4.542
 1824SOL     OW 6367   1.194   3.474   3.755
 1824SOL    HW1 6368   1.200   3.381   3.792
 1824SOL    HW2 6369   1.135   3.474   3.675
 1825SOL     OW 6370   0.822   2.864   5.096
 1825SOL    HW1 6371   0.862   2.863   5.004
 1825SOL    HW2 6372   0.832   2.956   5.136
 1826SOL     OW 6373   0.916   2.772   4.015
 1826SOL    HW1 6374   0.979   2.810   3.947
 1826SOL    HW2 6375   0.956   2.689   4.054
 1827SOL     OW 6376   1.504   3.469   3.768
 1827SOL    HW1 6377   1.412   3.506   3.775
 1827SOL    HW2 6378   1.542   3.489   3.678
 1828SOL     OW 6379   0.372   3.150   5.214
 1828SOL    HW1 6380   0.359   3.243   5.180
 1828SOL    HW2 6381   0.288   3.098   5.201
 1829SOL     OW 6382   1.614   3.154   5.013
 1829SOL    HW1 6383   1.674   3.157   5.093
 1829SOL    HW2 6384   1.539   3.218   5.026
 1830SOL     OW 6385   1.039   2.960   4.420
 1830SOL    HW1 6386   0.969   2.913   4.474
 1830SOL    HW2 6387   1.098   2.892   4.377
 1831SOL     OW 6388   1.014   2.098   4.695
 1831SOL    HW1 6389   1.006   2.062   4.602
 1831SOL    HW2 6390   1.012   2.022   4.760
 1832SOL     OW 6391   0.590   3.349   4.215
 1832SOL    HW1 6392   0.632   3.291   4.145
 1832SOL    HW2 6393   0.546   3.428   4.171
 1833SOL     OW 6394   0.255   3.210   4.014
 1833SOL    HW1 6395   0.159   3.211   3.987
 1833SOL    HW2 6396   0.267   3.263   4.098
 1834SOL     OW 6397   0.105   2.875   5.450
 1834SOL    HW1 6398   0.028   2.842   5.504
 1834SOL    HW2 6399   0.190   2.845   5.492
 1835SOL     OW 6400   0.672   2.065   5.213
 1835SOL    HW1 6401   0.762   2.049   5.173
 1835SOL    HW2 6402   0.680   2.070   5.312
 1836SOL     OW 6403   0.075   2.207   3.757
 1836SOL    HW1 6404  -0.017   2.179   3.728
 1836SOL    HW2 6405   0.106   2.284   3.701
 1837SOL     OW 6406   0.072   2.028   4.042
 1837SOL    HW1 6407   0.055   2.111   3.988
 1837SOL    HW2 6408   0.162   1.991   4.020
 1838SOL     OW 6409   1.183   3.197   3.843
 1838SOL    HW1 6410   1.084   3.186   3.845
 1838SOL    HW2 6411   1.217   3.212   3.936
 1839SOL     OW 6412   0.613   2.704   5.155
 1839SOL    HW1 6413   0.669   2.785   5.138
 1839SOL    HW2 6414   0.672   2.624   5.158
 1840SOL     OW 6415   1.493   3.629   4.683
 1840SOL    HW1 6416   1.526   3.693   4.614
 1840SOL    HW2 6417   1.559   3.623   4.758
 1841SOL     OW 6418   0.716   2.427   5.432
 1841SOL    HW1 6419   0.735   2.492   5.506
 1841SOL    HW2 6420   0.776   2.347   5.441
 1842SOL     OW 6421   1.450   3.082   5.357
 1842SOL    HW1 6422   1.441   3.072   5.456
 1842SOL    HW2 6423   1.546   3.075   5.331
 1843SOL     OW 6424   0.390   3.603   5.284
 1843SOL    HW1 6425   0.299   3.644   5.282
 1843SOL    HW2 6426   0.383   3.509   5.316
 1844SOL     OW 6427   1.225   2.187   4.173
 1844SOL    HW1 6428   1.290   2.113   4.162
 1844SOL    HW2 6429   1.245   2.237   4.257
 1845SOL     OW 6430   0.594   2.607   4.376
 1845SOL    HW1 6431   0.644   2.692   4.357
 1845SOL    HW2 6432   0.506   2.609   4.328
 1846SOL     OW 6433   1.777   2.204   5.366
 1846SOL    HW1 6434   1.760   2.235   5.272
 1846SOL    HW2 6435   1.693   2.167   5.404
 1847SOL     OW 6436   0.859   3.236   3.740
 1847SOL    HW1 6437   0.813   3.251   3.828
 1847SOL    HW2 6438   0.903   3.321   3.710
 1848SOL     OW 6439   0.661   3.652   4.677
 1848SOL    HW1 6440   0.615   3.740   4.664
 1848SOL    HW2 6441   0.760   3.664   4.670
 1849SOL     OW 6442   0.859   2.818   4.585
 1849SOL    HW1 6443   0.913   2.749   4.633
 1849SOL    HW2 6444   0.827   2.887   4.651
 1850SOL     OW 6445   1.083   2.846   3.811
 1850SOL    HW1 6446   1.060   2.899   3.729
 1850SOL    HW2 6447   1.164   2.790   3.792
 1851SOL     OW 6448   1.861   3.431   4.575
 1851SOL    HW1 6449   1.790   3.419   4.505
 1851SOL    HW2 6450   1.862   3.352   4.635
 1852SOL     OW 6451   0.221   3.176   5.568
 1852SOL    HW1 6452   0.156   3.103   5.547
 1852SOL    HW2 6453   0.225   3.190   5.666
 1853SOL     OW 6454   0.079   3.102   4.377
 1853SOL    HW1 6455   0.078   3.055   4.465
 1853SOL    HW2 6456   0.161   3.074   4.326
 1854SOL     OW 6457   0.672   3.253   5.348
 1854SOL    HW1 6458   0.594   3.203   5.386
 1854SOL    HW2 6459   0.669   3.348   5.379
 1855SOL     OW 6460   0.428   2.286   4.244
 1855SOL    HW1 6461   0.458   2.214   4.182
 1855SOL    HW2 6462   0.389   2.246   4.327
 1856SOL     OW 6463   1.705   3.349   4.828
 1856SOL    HW1 6464   1.612   3.324   4.801
 1856SOL    HW2 6465   1.731   3.299   4.910
 1857SOL     OW 6466   0.317   2.409   5.004
 1857SOL    HW1 6467   0.355   2.350   5.076
 1857SOL    HW2 6468   0.357   2.383   4.916
 1858SOL     OW 6469   0.812   3.448   4.411
 1858SOL    HW1 6470   0.844   3.458   4.317
 1858SOL    HW2 6471   0.733   3.386   4.413
 1859SOL     OW 6472   1.001   1.896   4.878
 1859SOL    HW1 6473   0.938   1.824   4.847
 1859SOL    HW2 6474   1.094   1.860   4.878
 1860SOL     OW 6475   0.770   3.192   4.025
 1860SOL    HW1 6476   0.724   3.105   4.042
 1860SOL    HW2 6477   0.861   3.189   4.066
 1861SOL     OW 6478   0.618   3.429   5.008
 1861SOL    HW1 6479   0.613   3.511   5.065
 1861SOL    HW2 6480   0.707   3.426   4.963
 1862SOL     OW 6481   1.352   1.914   3.892
 1862SOL    HW1 6482   1.387   1.873   3.808
 1862SOL    HW2 6483   1.262   1.876   3.912
 1863SOL     OW 6484   1.300   2.315   4.415
 1863SOL    HW1 6485   1.241   2.395   4.419
 1863SOL    HW2 6486   1.315   2.280   4.508
 1864SOL     OW 6487   1.593   2.083   4.606
 1864SOL    HW1 6488   1.509   2.082   4.660
 1864SOL    HW2 6489   1.595   2.166   4.550
 1865SOL     OW 6490   0.039   2.939   4.024
 1865SOL    HW1 6491   0.138   2.928   4.015
 1865SOL    HW2 6492  -0.001   2.853   4.056
 1866SOL     OW 6493   0.875   3.508   4.061
 1866SOL    HW1 6494   0.798   3.473   4.007
 1866SOL    HW2 6495   0.843   3.579   4.123
 1867SOL     OW 6496   0.230   2.490   5.699
 1867SOL    HW1 6497   0.137   2.488   5.736
 1867SOL    HW2 6498   0.231   2.451   5.607
 1868SOL     OW 6499   0.225   2.137   6.582
 1868SOL    HW1 6500   0.260   2.120   6.674
 1868SOL    HW2 6501   0.137   2.092   6.570
 1869SOL     OW 6502   0.019   2.230   6.233
 1869SOL    HW1 6503  -0.063   2.273   6.272
 1869SOL    HW2 6504  -0.009   2.157   6.170
 1870SOL     OW 6505   0.569   3.137   6.751
 1870SOL    HW1 6506   0.476   3.130   6.714
 1870SOL    HW2 6507   0.580   3.226   6.795
 1871SOL     OW 6508   1.555   3.373   6.289
 1871SOL    HW1 6509   1.498   3.357   6.370
 1871SOL    HW2 6510   1.496   3.383   6.209
 1872SOL     OW 6511   1.135   2.565   6.303
 1872SOL    HW1 6512   1.192   2.643   6.278
 1872SOL    HW2 6513   1.075   2.591   6.379
 1873SOL     OW 6514   1.755   2.469   5.817
 1873SOL    HW1 6515   1.743   2.456   5.718
 1873SOL    HW2 6516   1.725   2.388   5.866
 1874SOL     OW 6517   0.768   3.006   6.609
 1874SOL    HW1 6518   0.690   3.023   6.669
 1874SOL    HW2 6519   0.802   3.093   6.573
 1875SOL     OW 6520   0.850   2.660   7.409
 1875SOL    HW1 6521   0.846   2.736   7.474
 1875SOL    HW2 6522   0.872   2.696   7.318
 1876SOL     OW 6523   0.685   2.874   6.251
 1876SOL    HW1 6524   0.754   2.858   6.321
 1876SOL    HW2 6525   0.612   2.931   6.289
 1877SOL     OW 6526   0.686   3.023   7.389
 1877SOL    HW1 6527   0.746   3.102   7.403
 1877SOL    HW2 6528   0.600   3.054   7.348
 1878SOL     OW 6529   0.335   3.297   6.647
 1878SOL    HW1 6530   0.257   3.266   6.594
 1878SOL    HW2 6531   0.393   3.355   6.590
 1879SOL     OW 6532   1.460   3.367   6.925
 1879SOL    HW1 6533   1.484   3.461   6.951
 1879SOL    HW2 6534   1.444   3.313   7.007
 1880SOL     OW 6535   0.438   2.254   7.085
 1880SOL    HW1 6536   0.520   2.198   7.094
 1880SOL    HW2 6537   0.357   2.196   7.089
 1881SOL     OW 6538   0.231   3.575   6.069
 1881SOL    HW1 6539   0.265   3.652   6.123
 1881SOL    HW2 6540   0.275   3.575   5.979
 1882SOL     OW 6541   1.127   3.203   7.276
 1882SOL    HW1 6542   1.174   3.203   7.364
 1882SOL    HW2 6543   1.079   3.116   7.265
 1883SOL     OW 6544   0.230   3.296   6.124
 1883SOL    HW1 6545   0.204   3.392   6.124
 1883SOL    HW2 6546   0.159   3.242   6.169
 1884SOL     OW 6547   0.240   2.953   6.472
 1884SOL    HW1 6548   0.254   2.869   6.524
 1884SOL    HW2 6549   0.185   3.017   6.527
 1885SOL     OW 6550   0.620   3.648   7.025
 1885SOL    HW1 6551   0.528   3.631   7.060
 1885SOL    HW2 6552   0.648   3.740   7.051
 1886SOL     OW 6553   0.606   2.826   5.709
 1886SOL    HW1 6554   0.613   2.910   5.655
 1886SOL    HW2 6555   0.652   2.839   5.797
 1887SOL     OW 6556   1.594   1.976   7.066
 1887SOL    HW1 6557   1.576   2.043   6.994
 1887SOL    HW2 6558   1.591   2.022   7.155
 1888SOL     OW 6559   0.122   2.505   6.149
 1888SOL    HW1 6560   0.077   2.417   6.166
 1888SOL    HW2 6561   0.121   2.559   6.233
 1889SOL     OW 6562   1.842   3.629   5.945
 1889SOL    HW1 6563   1.896   3.600   6.025
 1889SOL    HW2 6564   1.872   3.719   5.916
 1890SOL     OW 6565   0.027   3.458   5.703
 1890SOL    HW1 6566   0.008   3.362   5.724
 1890SOL    HW2 6567  -0.006   3.516   5.778
 1891SOL     OW 6568   0.113   2.599   7.183
 1891SOL    HW1 6569   0.201   2.586   7.228
 1891SOL    HW2 6570   0.100   2.696   7.161
 1892SOL     OW 6571   0.613   3.227   6.312
 1892SOL    HW1 6572   0.564   3.140   6.321
 1892SOL    HW2 6573   0.590   3.270   6.225
 1893SOL     OW 6574   1.293   3.090   7.009
 1893SOL    HW1 6575   1.330   3.017   6.951
 1893SOL    HW2 6576   1.345   3.095   7.094
 1894SOL     OW 6577   0.809   1.866   6.088
 1894SOL    HW1 6578   0.849   1.957   6.079
 1894SOL    HW2 6579   0.709   1.874   6.094
 1895SOL     OW 6580   0.197   2.838   6.850
 1895SOL    HW1 6581   0.286   2.793   6.836
 1895SOL    HW2 6582   0.124   2.773   6.831
 1896SOL     OW 6583   1.525   2.861   5.776
 1896SOL    HW1 6584   1.462   2.785   5.789
 1896SOL    HW2 6585   1.573   2.879   5.862
 1897SOL     OW 6586   1.187   3.654   7.202
 1897SOL    HW1 6587   1.211   3.714   7.126
 1897SOL    HW2 6588   1.194   3.559   7.172
 1898SOL     OW 6589   0.317   2.113   7.387
 1898SOL    HW1 6590   0.388   2.184   7.393
 1898SOL    HW2 6591   0.229   2.152   7.415
 1899SOL     OW 6592   1.466   3.279   6.539
 1899SOL    HW1 6593   1.407   3.285   6.619
 1899SOL    HW2 6594   1.451   3.191   6.493
 1900SOL     OW 6595   1.667   3.576   6.158
 1900SOL    HW1 6596   1.626   3.553   6.070
 1900SOL    HW2 6597   1.649   3.502   6.223
 1901SOL     OW 6598   0.598   2.591   5.856
 1901SOL    HW1 6599   0.622   2.660   5.788
 1901SOL    HW2 6600   0.520   2.624   5.910
 1902SOL     OW 6601   1.281   2.207   6.530
 1902SOL    HW1 6602   1.195   2.157   6.517
 1902SOL    HW2 6603   1.343   2.153   6.586
 1903SOL     OW 6604   1.576   3.524   5.893
 1903SOL    HW1 6605   1.665   3.570   5.896
 1903SOL    HW2 6606   1.555   3.500   5.798
 1904SOL     OW 6607   0.807   2.467   7.051
 1904SOL    HW1 6608   0.760   2.464   7.140
 1904SOL    HW2 6609   0.756   2.412   6.985
 1905SOL     OW 6610   1.394   2.331   7.260
 1905SOL    HW1 6611   1.374   2.374   7.348
 1905SOL    HW2 6612   1.472   2.269   7.269
 1906SOL     OW 6613   0.973   2.752   7.158
 1906SOL    HW1 6614   1.019   2.668   7.129
 1906SOL    HW2 6615   0.917   2.786   7.083
 1907SOL     OW 6616   0.991   2.272   6.828
 1907SOL    HW1 6617   0.914   2.306   6.882
 1907SOL    HW2 6618   0.957   2.221   6.749
 1908SOL     OW 6619   1.041   2.563   6.015
 1908SOL    HW1 6620   1.067   2.559   6.111
 1908SOL    HW2 6621   0.956   2.512   6.001
 1909SOL     OW 6622   0.076   2.673   6.375
 1909SOL    HW1 6623   0.175   2.661   6.384
 1909SOL    HW2 6624   0.052   2.768   6.396
 1910SOL     OW 6625   0.130   3.683   7.157
 1910SOL    HW1 6626   0.120   3.668   7.256
 1910SOL    HW2 6627   0.044   3.719   7.121
 1911SOL     OW 6628   0.865   2.210   5.781
 1911SOL    HW1 6629   0.924   2.273   5.732
 1911SOL    HW2 6630   0.884   2.116   5.752
 1912SOL     OW 6631   1.719   2.447   7.417
 1912SOL    HW1 6632   1.693   2.536   7.381
 1912SOL    HW2 6633   1.717   2.379   7.344
 1913SOL     OW 6634   0.550   2.058   6.471
 1913SOL    HW1 6635   0.545   2.053   6.571
 1913SOL    HW2 6636   0.552   2.154   6.442
 1914SOL     OW 6637   1.008   3.318   6.063
 1914SOL    HW1 6638   0.962   3.390   6.011
 1914SOL    HW2 6639   1.004   3.338   6.161
 1915SOL     OW 6640   0.351   3.663   6.439
 1915SOL    HW1 6641   0.401   3.577   6.445
 1915SOL    HW2 6642   0.416   3.740   6.436
 1916SOL     OW 6643   1.795   2.928   6.459
 1916SOL    HW1 6644   1.733   2.913   6.383
 1916SOL    HW2 6645   1.743   2.939   6.544
 1917SOL     OW 6646   1.227   3.412   7.092
 1917SOL    HW1 6647   1.233   3.335   7.156
 1917SOL    HW2 6648   1.175   3.386   7.012
 1918SOL     OW 6649   0.321   2.805   5.828
 1918SOL    HW1 6650   0.403   2.844   5.786
 1918SOL    HW2 6651   0.294   2.723   5.779
 1919SOL     OW 6652   0.461   3.128   7.313
 1919SOL    HW1 6653   0.411   3.129   7.227
 1919SOL    HW2 6654   0.398   3.110   7.389
 1920SOL     OW 6655   1.111   3.638   5.823
 1920SOL    HW1 6656   1.051   3.576   5.873
 1920SOL    HW2 6657   1.142   3.594   5.738
 1921SOL     OW 6658   0.202   2.147   7.084
 1921SOL    HW1 6659   0.122   2.207   7.071
 1921SOL    HW2 6660   0.192   2.098   7.170
 1922SOL     OW 6661   1.632   3.239   5.667
 1922SOL    HW1 6662   1.600   3.333   5.657
 1922SOL    HW2 6663   1.556   3.176   5.655
 1923SOL     OW 6664   0.464   3.605   5.909
 1923SOL    HW1 6665   0.497   3.644   5.995
 1923SOL    HW2 6666   0.540   3.598   5.844
 1924SOL     OW 6667   0.249   3.647   6.827
 1924SOL    HW1 6668   0.306   3.582   6.877
 1924SOL    HW2 6669   0.233   3.614   6.734
 1925SOL     OW 6670   0.940   3.560   6.490
 1925SOL    HW1 6671   1.020   3.503   6.511
 1925SOL    HW2 6672   0.891   3.520   6.413
 1926SOL     OW 6673   0.382   2.562   6.066
 1926SOL    HW1 6674   0.427   2.472   6.063
 1926SOL    HW2 6675   0.288   2.551   6.099
 1927SOL     OW 6676   1.547   2.084   7.315
 1927SOL    HW1 6677   1.542   2.121   7.407
 1927SOL    HW2 6678   1.475   2.015   7.303
 1928SOL     OW 6679   0.614   1.984   5.703
 1928SOL    HW1 6680   0.712   1.962   5.710
 1928SOL    HW2 6681   0.583   1.967   5.610
 1929SOL     OW 6682   0.781   2.126   7.335
 1929SOL    HW1 6683   0.848   2.065   7.378
 1929SOL    HW2 6684   0.708   2.145   7.400
 1930SOL     OW 6685   0.888   3.376   6.781
 1930SOL    HW1 6686   0.865   3.351   6.687
 1930SOL    HW2 6687   0.949   3.307   6.820
 1931SOL     OW 6688   1.351   2.452   7.019
 1931SOL    HW1 6689   1.379   2.409   7.104
 1931SOL    HW2 6690   1.376   2.548   7.020
 1932SOL     OW 6691   0.803   3.264   6.510
 1932SOL    HW1 6692   0.893   3.278   6.468
 1932SOL    HW2 6693   0.732   3.266   6.439
 1933SOL     OW 6694   0.922   2.365   6.485
 1933SOL    HW1 6695   0.897   2.356   6.389
 1933SOL    HW2 6696   0.970   2.283   6.516
 1934SOL     OW 6697   0.539   1.926   6.098
 1934SOL    HW1 6698   0.458   1.927   6.156
 1934SOL    HW2 6699   0.542   2.009   6.043
 1935SOL     OW 6700   1.434   3.050   5.627
 1935SOL    HW1 6701   1.466   2.974   5.684
 1935SOL    HW2 6702   1.342   3.077   5.657
 1936SOL     OW 6703   0.297   1.897   5.757
 1936SOL    HW1 6704   0.346   1.981   5.736
 1936SOL    HW2 6705   0.359   1.832   5.802
 1937SOL     OW 6706   0.935   2.098   6.066
 1937SOL    HW1 6707   0.887   2.139   5.988
 1937SOL    HW2 6708   1.034   2.096   6.047
 1938SOL     OW 6709   1.076   2.545   7.050
 1938SOL    HW1 6710   0.996   2.484   7.053
 1938SOL    HW2 6711   1.157   2.492   7.026
 1939SOL     OW 6712   1.227   3.432   6.379
 1939SOL    HW1 6713   1.248   3.506   6.314
 1939SOL    HW2 6714   1.295   3.432   6.452
 1940SOL     OW 6715   0.459   3.014   6.327
 1940SOL    HW1 6716   0.388   2.987   6.392
 1940SOL    HW2 6717   0.433   2.986   6.234
 1941SOL     OW 6718   1.271   3.659   6.177
 1941SOL    HW1 6719   1.315   3.723   6.113
 1941SOL    HW2 6720   1.221   3.711   6.247
 1942SOL     OW 6721   1.032   2.411   5.602
 1942SOL    HW1 6722   0.991   2.493   5.563
 1942SOL    HW2 6723   1.096   2.437   5.675
 1943SOL     OW 6724   0.078   2.418   6.972
 1943SOL    HW1 6725   0.170   2.417   6.931
 1943SOL    HW2 6726   0.072   2.492   7.039
 1944SOL     OW 6727   0.561   2.084   6.733
 1944SOL    HW1 6728   0.599   2.000   6.770
 1944SOL    HW2 6729   0.473   2.103   6.777
 1945SOL     OW 6730   0.866   2.316   6.228
 1945SOL    HW1 6731   0.834   2.388   6.166
 1945SOL    HW2 6732   0.890   2.235   6.175
 1946SOL     OW 6733   1.017   1.901   6.339
 1946SOL    HW1 6734   0.945   1.906   6.270
 1946SOL    HW2 6735   0.993   1.832   6.408
 1947SOL     OW 6736   1.429   3.035   6.453
 1947SOL    HW1 6737   1.374   2.951   6.446
 1947SOL    HW2 6738   1.455   3.064   6.361
 1948SOL     OW 6739   1.466   2.452   6.578
 1948SOL    HW1 6740   1.436   2.357   6.585
 1948SOL    HW2 6741   1.539   2.468   6.644
 1949SOL     OW 6742   0.488   3.247   5.760
 1949SOL    HW1 6743   0.401   3.232   5.807
 1949SOL    HW2 6744   0.471   3.273   5.665
 1950SOL     OW 6745   1.390   2.437   5.664
 1950SOL    HW1 6746   1.336   2.416   5.745
 1950SOL    HW2 6747   1.481   2.396   5.673
 1951SOL     OW 6748   0.527   2.118   5.914
 1951SOL    HW1 6749   0.554   2.059   5.839
 1951SOL    HW2 6750   0.527   2.213   5.883
 1952SOL     OW 6751   1.754   3.085   7.174
 1952SOL    HW1 6752   1.845   3.046   7.161
 1952SOL    HW2 6753   1.762   3.181   7.198
 1953SOL     OW 6754   1.064   3.209   6.926
 1953SOL    HW1 6755   0.984   3.186   6.981
 1953SOL    HW2 6756   1.147   3.183   6.975
 1954SOL     OW 6757   1.592   3.491   7.211
 1954SOL    HW1 6758   1.619   3.525   7.121
 1954SOL    HW2 6759   1.671   3.453   7.257
 1955SOL     OW 6760   1.111   3.057   6.686
 1955SOL    HW1 6761   1.071   3.101   6.767
 1955SOL    HW2 6762   1.070   3.094   6.603
 1956SOL     OW 6763   1.638   2.961   6.665
 1956SOL    HW1 6764   1.643   3.042   6.724
 1956SOL    HW2 6765   1.552   2.963   6.614
 1957SOL     OW 6766   0.915   1.951   6.988
 1957SOL    HW1 6767   0.940   1.931   6.893
 1957SOL    HW2 6768   0.987   2.007   7.030
 1958SOL     OW 6769   0.980   2.978   7.305
 1958SOL    HW1 6770   0.881   2.984   7.315
 1958SOL    HW2 6771   1.003   2.898   7.249
 1959SOL     OW 6772   0.705   2.912   5.954
 1959SOL    HW1 6773   0.691   2.919   6.053
 1959SOL    HW2 6774   0.789   2.861   5.936
 1960SOL     OW 6775   0.410   2.675   6.837
 1960SOL    HW1 6776   0.496   2.687   6.887
 1960SOL    HW2 6777   0.368   2.588   6.864
 1961SOL     OW 6778   1.274   2.248   6.848
 1961SOL    HW1 6779   1.295   2.322   6.912
 1961SOL    HW2 6780   1.185   2.265   6.805
 1962SOL     OW 6781   0.064   3.426   6.917
 1962SOL    HW1 6782   0.018   3.508   6.883
 1962SOL    HW2 6783   0.162   3.445   6.926
 1963SOL     OW 6784   0.367   2.962   6.087
 1963SOL    HW1 6785   0.360   3.045   6.031
 1963SOL    HW2 6786   0.371   2.882   6.027
 1964SOL     OW 6787   0.566   2.399   6.451
 1964SOL    HW1 6788   0.578   2.465   6.377
 1964SOL    HW2 6789   0.612   2.433   6.534
 1965SOL     OW 6790   1.252   3.210   5.974
 1965SOL    HW1 6791   1.302   3.287   6.014
 1965SOL    HW2 6792   1.157   3.212   6.006
 1966SOL     OW 6793   1.272   3.307   6.728
 1966SOL    HW1 6794   1.319   3.320   6.815
 1966SOL    HW2 6795   1.206   3.233   6.737
 1967SOL     OW 6796   0.354   3.372   6.915
 1967SOL    HW1 6797   0.333   3.328   6.828
 1967SOL    HW2 6798   0.451   3.398   6.918
 1968SOL     OW 6799   0.402   2.613   7.184
 1968SOL    HW1 6800   0.470   2.668   7.137
 1968SOL    HW2 6801   0.442   2.525   7.211
 1969SOL     OW 6802   1.587   2.641   7.256
 1969SOL    HW1 6803   1.495   2.679   7.251
 1969SOL    HW2 6804   1.647   2.688   7.191
 1970SOL     OW 6805   1.013   1.967   7.356
 1970SOL    HW1 6806   1.019   2.052   7.304
 1970SOL    HW2 6807   1.045   1.891   7.299
 1971SOL     OW 6808   0.504   1.912   7.326
 1971SOL    HW1 6809   0.462   1.855   7.256
 1971SOL    HW2 6810   0.438   1.981   7.358
 1972SOL     OW 6811   0.573   2.732   6.615
 1972SOL    HW1 6812   0.617   2.821   6.606
 1972SOL    HW2 6813   0.510   2.732   6.692
 1973SOL     OW 6814   1.360   2.724   6.631
 1973SOL    HW1 6815   1.285   2.724   6.565
 1973SOL    HW2 6816   1.397   2.632   6.640
 1974SOL     OW 6817   0.307   2.075   6.817
 1974SOL    HW1 6818   0.284   2.112   6.907
 1974SOL    HW2 6819   0.277   1.980   6.811
 1975SOL     OW 6820   0.037   3.172   6.868
 1975SOL    HW1 6821   0.090   3.123   6.936
 1975SOL    HW2 6822   0.059   3.270   6.873
 1976SOL     OW 6823   0.732   2.496   6.650
 1976SOL    HW1 6824   0.791   2.470   6.574
 1976SOL    HW2 6825   0.704   2.592   6.639
 1977SOL     OW 6826   1.728   2.797   7.440
 1977SOL    HW1 6827   1.682   2.790   7.351
 1977SOL    HW2 6828   1.666   2.841   7.506
 1978SOL     OW 6829   0.307   1.925   6.204
 1978SOL    HW1 6830   0.296   2.019   6.237
 1978SOL    HW2 6831   0.302   1.862   6.281
 1979SOL     OW 6832   1.023   2.628   6.552
 1979SOL    HW1 6833   1.038   2.649   6.648
 1979SOL    HW2 6834   0.993   2.533   6.543
 1980SOL     OW 6835   0.980   3.435   7.286
 1980SOL    HW1 6836   0.960   3.479   7.198
 1980SOL    HW2 6837   1.019   3.344   7.270
 1981SOL     OW 6838   1.859   3.380   7.191
 1981SOL    HW1 6839   1.873   3.407   7.096
 1981SOL    HW2 6840   1.942   3.402   7.244
 1982SOL     OW 6841   0.350   2.760   7.390
 1982SOL    HW1 6842   0.426   2.804   7.438
 1982SOL    HW2 6843   0.385   2.713   7.308
 1983SOL     OW 6844   1.303   2.700   5.628
 1983SOL    HW1 6845   1.337   2.607   5.643
 1983SOL    HW2 6846   1.321   2.727   5.533
 1984SOL     OW 6847   1.068   3.195   6.435
 1984SOL    HW1 6848   1.075   3.111   6.380
 1984SOL    HW2 6849   1.130   3.264   6.399
 1985SOL     OW 6850   0.319   2.672   6.535
 1985SOL    HW1 6851   0.412   2.708   6.540
 1985SOL    HW2 6852   0.313   2.587   6.587
 1986SOL     OW 6853   0.339   2.371   6.592
 1986SOL    HW1 6854   0.287   2.288   6.575
 1986SOL    HW2 6855   0.416   2.376   6.528
 1987SOL     OW 6856   1.138   2.242   7.264
 1987SOL    HW1 6857   1.093   2.305   7.328
 1987SOL    HW2 6858   1.231   2.273   7.247
 1988SOL     OW 6859   1.160   2.069   7.063
 1988SOL    HW1 6860   1.160   2.133   7.140
 1988SOL    HW2 6861   1.188   2.117   6.980
 1989SOL     OW 6862   0.008   3.188   5.786
 1989SOL    HW1 6863  -0.085   3.209   5.755
 1989SOL    HW2 6864   0.018   3.089   5.799
 1990SOL     OW 6865   0.088   3.663   6.513
 1990SOL    HW1 6866   0.046   3.577   6.486
 1990SOL    HW2 6867   0.182   3.666   6.479
 1991SOL     OW 6868   0.504   3.430   6.496
 1991SOL    HW1 6869   0.570   3.504   6.505
 1991SOL    HW2 6870   0.548   3.351   6.454
 1992SOL     OW 6871   1.002   2.658   6.824
 1992SOL    HW1 6872   1.043   2.626   6.910
 1992SOL    HW2 6873   0.906   2.631   6.821
 1993SOL     OW 6874   0.040   2.406   6.700
 1993SOL    HW1 6875   0.125   2.373   6.659
 1993SOL    HW2 6876   0.053   2.421   6.798
 1994SOL     OW 6877   0.189   2.382   7.308
 1994SOL    HW1 6878   0.248   2.342   7.238
 1994SOL    HW2 6879   0.131   2.453   7.267
 1995SOL     OW 6880   1.369   2.812   7.246
 1995SOL    HW1 6881   1.408   2.901   7.266
 1995SOL    HW2 6882   1.379   2.792   7.149
 1996SOL     OW 6883   0.815   2.434   5.911
 1996SOL    HW1 6884   0.822   2.345   5.865
 1996SOL    HW2 6885   0.721   2.468   5.903
 1997SOL     OW 6886   0.252   3.426   7.330
 1997SOL    HW1 6887   0.222   3.483   7.406
 1997SOL    HW2 6888   0.245   3.329   7.356
 1998SOL     OW 6889   0.671   2.326   6.855
 1998SOL    HW1 6890   0.637   2.237   6.825
 1998SOL    HW2 6891   0.697   2.380   6.775
 1999SOL     OW 6892   0.930   3.540   7.051
 1999SOL    HW1 6893   0.906   3.522   6.956
 1999SOL    HW2 6894   0.960   3.634   7.061
 2000SOL     OW 6895   0.473   2.362   5.777
 2000SOL    HW1 6896   0.534   2.442   5.781
 2000SOL    HW2 6897   0.378   2.393   5.784
 2001SOL     OW 6898   0.159   2.999   7.052
 2001SOL    HW1 6899   0.181   2.938   7.128
 2001SOL    HW2 6900   0.169   2.950   6.966
 2002SOL     OW 6901   1.347   2.921   6.820
 2002SOL    HW1 6902   1.371   2.858   6.746
 2002SOL    HW2 6903   1.257   2.961   6.802
 2003SOL     OW 6904   1.302   2.717   5.895
 2003SOL    HW1 6905   1.216   2.686   5.937
 2003SOL    HW2 6906   1.298   2.703   5.796
 2004SOL     OW 6907   1.759   3.609   6.740
 2004SOL    HW1 6908   1.820   3.639   6.667
 2004SOL    HW2 6909   1.721   3.520   6.718
 2005SOL     OW 6910   1.252   3.593   6.714
 2005SOL    HW1 6911   1.336   3.598   6.660
 2005SOL    HW2 6912   1.229   3.497   6.732
 2006SOL     OW 6913   0.083   3.120   6.608
 2006SOL    HW1 6914   0.078   3.119   6.708
 2006SOL    HW2 6915   0.000   3.079   6.570
 2007SOL     OW 6916   0.688   3.524   7.302
 2007SOL    HW1 6917   0.632   3.605   7.311
 2007SOL    HW2 6918   0.740   3.528   7.216
 2008SOL     OW 6919   1.388   3.435   6.063
 2008SOL    HW1 6920   1.455   3.447   5.989
 2008SOL    HW2 6921   1.348   3.524   6.086
 2009SOL     OW 6922   0.130   3.656   7.437
 2009SOL    HW1 6923   0.089   3.582   7.490
 2009SOL    HW2 6924   0.194   3.707   7.495
 2010SOL     OW 6925   1.280   2.789   6.258
 2010SOL    HW1 6926   1.340   2.708   6.260
 2010SOL    HW2 6927   1.320   2.858   6.198
 2011SOL     OW 6928   0.830   3.135   7.008
 2011SOL    HW1 6929   0.825   3.168   7.103
 2011SOL    HW2 6930   0.744   3.154   6.962
 2012SOL     OW 6931   0.672   3.478   5.740
 2012SOL    HW1 6932   0.681   3.488   5.641
 2012SOL    HW2 6933   0.632   3.389   5.761
 2013SOL     OW 6934   1.650   3.582   6.980
 2013SOL    HW1 6935   1.703   3.592   6.896
 2013SOL    HW2 6936   1.623   3.672   7.014
 2014SOL     OW 6937   1.841   2.037   6.549
 2014SOL    HW1 6938   1.880   1.952   6.513
 2014SOL    HW2 6939   1.743   2.039   6.530
 2015SOL     OW 6940   0.263   2.188   6.306
 2015SOL    HW1 6941   0.184   2.239   6.272
 2015SOL    HW2 6942   0.254   2.173   6.404
 2016SOL     OW 6943   1.194   3.474   5.617
 2016SOL    HW1 6944   1.200   3.381   5.654
 2016SOL    HW2 6945   1.135   3.474   5.537
 2017SOL     OW 6946   0.822   2.864   6.958
 2017SOL    HW1 6947   0.862   2.863   6.866
 2017SOL    HW2 6948   0.832   2.956   6.998
 2018SOL     OW 6949   0.916   2.772   5.877
 2018SOL    HW1 6950   0.979   2.810   5.809
 2018SOL    HW2 6951   0.956   2.689   5.916
 2019SOL     OW 6952   1.504   3.469   5.630
 2019SOL    HW1 6953   1.412   3.506   5.637
 2019SOL    HW2 6954   1.542   3.489   5.540
 2020SOL     OW 6955   0.372   3.150   7.076
 2020SOL    HW1 6956   0.359   3.243   7.042
 2020SOL    HW2 6957   0.288   3.098   7.063
 2021SOL     OW 6958   1.614   3.154   6.875
 2021SOL    HW1 6959   1.674   3.157   6.955
 2021SOL    HW2 6960   1.539   3.218   6.888
 2022SOL     OW 6961   1.039   2.960   6.282
 2022SOL    HW1 6962   0.969   2.913   6.336
 2022SOL    HW2 6963   1.098   2.892   6.239
 2023SOL     OW 6964   1.014   2.098   6.557
 2023SOL    HW1 6965   1.006   2.062   6.464
 2023SOL    HW2 6966   1.012   2.022   6.622
 2024SOL     OW 6967   0.590   3.349   6.077
 2024SOL    HW1 6968   0.632   3.291   6.007
 2024SOL    HW2 6969   0.546   3.428   6.033
 2025SOL     OW 6970   1.709   2.247   6.967
 2025SOL    HW1 6971   1.782   2.316   6.971
 2025SOL    HW2 6972   1.737   2.172   6.908
 2026SOL     OW 6973   0.255   3.210   5.876
 2026SOL    HW1 6974   0.159   3.211   5.849
 2026SOL    HW2 6975   0.267   3.263   5.960
 2027SOL     OW 6976   0.105   2.875   7.312
 2027SOL    HW1 6977   0.028   2.842   7.366
 2027SOL    HW2 6978   0.190   2.845   7.354
 2028SOL     OW 6979   0.672   2.065   7.075
 2028SOL    HW1 6980   0.762   2.049   7.035
 2028SOL    HW2 6981   0.680   2.070   7.174
 2029SOL     OW 6982   0.075   2.207   5.619
 2029SOL    HW1 6983  -0.017   2.179   5.590
 2029SOL    HW2 6984   0.106   2.284   5.563
 2030SOL     OW 6985   1.440   2.718   6.984
 2030SOL    HW1 6986   1.383   2.770   6.921
 2030SOL    HW2 6987   1.536   2.730   6.960
 2031SOL     OW 6988   0.072   2.028   5.904
 2031SOL    HW1 6989   0.055   2.111   5.850
 2031SOL    HW2 6990   0.162   1.991   5.882
 2032SOL     OW 6991   1.183   3.197   5.705
 2032SOL    HW1 6992   1.084   3.186   5.707
 2032SOL    HW2 6993   1.217   3.212   5.798
 2033SOL     OW 6994   0.613   2.704   7.017
 2033SOL    HW1 6995   0.669   2.785   7.000
 2033SOL    HW2 6996   0.672   2.624   7.020
 2034SOL     OW 6997   1.493   3.629   6.545
 2034SOL    HW1 6998   1.526   3.693   6.476
 2034SOL    HW2 6999   1.559   3.623   6.620
 2035SOL     OW 7000   0.716   2.427   7.294
 2035SOL    HW1 7001   0.735   2.492   7.368
 2035SOL    HW2 7002   0.776   2.347   7.303
 2036SOL     OW 7003   1.450   3.082   7.219
 2036SOL    HW1 7004   1.441   3.072   7.318
 2036SOL    HW2 7005   1.546   3.075   7.193
 2037SOL     OW 7006   0.390   3.603   7.146
 2037SOL    HW1 7007   0.299   3.644   7.144
 2037SOL    HW2 7008   0.383   3.509   7.178
 2038SOL     OW 7009   1.674   2.745   6.840
 2038SOL    HW1 7010   1.647   2.656   6.803
 2038SOL    HW2 7011   1.675   2.813   6.767
 2039SOL     OW 7012   0.594   2.607   6.238
 2039SOL    HW1 7013   0.644   2.692   6.219
 2039SOL    HW2 7014   0.506   2.609   6.190
 2040SOL     OW 7015   1.777   2.204   7.228
 2040SOL    HW1 7016   1.760   2.235   7.134
 2040SOL    HW2 7017   1.693   2.167   7.266
 2041SOL     OW 7018   1.730   2.796   7.103
 2041SOL    HW1 7019   1.768   2.887   7.118
 2041SOL    HW2 7020   1.722   2.779   7.004
 2042SOL     OW 7021   0.859   3.236   5.602
 2042SOL    HW1 7022   0.813   3.251   5.690
 2042SOL    HW2 7023   0.903   3.321   5.572
 2043SOL     OW 7024   0.661   3.652   6.539
 2043SOL    HW1 7025   0.615   3.740   6.526
 2043SOL    HW2 7026   0.760   3.664   6.532
 2044SOL     OW 7027   0.859   2.818   6.447
 2044SOL    HW1 7028   0.913   2.749   6.495
 2044SOL    HW2 7029   0.827   2.887   6.513
 2045SOL     OW 7030   1.083   2.846   5.673
 2045SOL    HW1 7031   1.060   2.899   5.591
 2045SOL    HW2 7032   1.164   2.790   5.654
 2046SOL     OW 7033   1.861   3.431   6.437
 2046SOL    HW1 7034   1.790   3.419   6.367
 2046SOL    HW2 7035   1.862   3.352   6.497
 2047SOL     OW 7036   0.221   3.176   7.430
 2047SOL    HW1 7037   0.156   3.103   7.409
 2047SOL    HW2 7038   0.225   3.190   7.528
 2048SOL     OW 7039   0.079   3.102   6.239
 2048SOL    HW1 7040   0.078   3.055   6.327
 2048SOL    HW2 7041   0.161   3.074   6.188
 2049SOL     OW 7042   0.672   3.253   7.210
 2049SOL    HW1 7043   0.594   3.203   7.248
 2049SOL    HW2 7044   0.669   3.348   7.241
 2050SOL     OW 7045   1.824   2.054   6.813
 2050SOL    HW1 7046   1.820   1.964   6.857
 2050SOL    HW2 7047   1.827   2.043   6.714
 2051SOL     OW 7048   0.428   2.286   6.106
 2051SOL    HW1 7049   0.458   2.214   6.044
 2051SOL    HW2 7050   0.389   2.246   6.189
 2052SOL     OW 7051   1.705   3.349   6.690
 2052SOL    HW1 7052   1.612   3.324   6.663
 2052SOL    HW2 7053   1.731   3.299   6.772
 2053SOL     OW 7054   0.317   2.409   6.866
 2053SOL    HW1 7055   0.355   2.350   6.938
 2053SOL    HW2 7056   0.357   2.383   6.778
 2054SOL     OW 7057   0.812   3.448   6.273
 2054SOL    HW1 7058   0.844   3.458   6.179
 2054SOL    HW2 7059   0.733   3.386   6.275
 2055SOL     OW 7060   1.424   2.076   6.698
 2055SOL    HW1 7061   1.476   2.011   6.753
 2055SOL    HW2 7062   1.375   2.139   6.759
 2056SOL     OW 7063   1.001   1.896   6.740
 2056SOL    HW1 7064   0.938   1.824   6.709
 2056SOL    HW2 7065   1.094   1.860   6.740
 2057SOL     OW 7066   0.770   3.192   5.887
 2057SOL    HW1 7067   0.724   3.105   5.904
 2057SOL    HW2 7068   0.861   3.189   5.928
 2058SOL     OW 7069   0.618   3.429   6.870
 2058SOL    HW1 7070   0.613   3.511   6.927
 2058SOL    HW2 7071   0.707   3.426   6.825
 2059SOL     OW 7072   1.352   1.914   5.754
 2059SOL    HW1 7073   1.387   1.873   5.670
 2059SOL    HW2 7074   1.262   1.876   5.774
 2060SOL     OW 7075   1.300   2.315   6.277
 2060SOL    HW1 7076   1.241   2.395   6.281
 2060SOL    HW2 7077   1.315   2.280   6.370
 2061SOL     OW 7078   0.039   2.939   5.886
 2061SOL    HW1 7079   0.138   2.928   5.877
 2061SOL    HW2 7080  -0.001   2.853   5.918
 2062SOL     OW 7081   0.875   3.508   5.923
 2062SOL    HW1 7082   0.798   3.473   5.869
 2062SOL    HW2 7083   0.843   3.579   5.985
 2063SOL     OW 7084   0.230   2.490   7.561
 2063SOL    HW1 7085   0.137   2.488   7.598
 2063SOL    HW2 7086   0.231   2.451   7.469
 2064SOL     OW 7087   0.225   2.137   8.444
 2064SOL    HW1 7088   0.260   2.120   8.536
 2064SOL    HW2 7089   0.137   2.092   8.432
 2065SOL     OW 7090   0.019   2.230   8.095
 2065SOL    HW1 7091  -0.063   2.273   8.134
 2065SOL    HW2 7092  -0.009   2.157   8.032
 2066SOL     OW 7093   0.569   3.137   8.613
 2066SOL    HW1 7094   0.476   3.130   8.576
 2066SOL    HW2 7095   0.580   3.226   8.657
 2067SOL     OW 7096   1.555   3.373   8.151
 2067SOL    HW1 7097   1.498   3.357   8.232
 2067SOL    HW2 7098   1.496   3.383   8.071
 2068SOL     OW 7099   1.135   2.565   8.165
 2068SOL    HW1 7100   1.192   2.643   8.140
 2068SOL    HW2 7101   1.075   2.591   8.241
 2069SOL     OW 7102   1.755   2.469   7.679
 2069SOL    HW1 7103   1.743   2.456   7.580
 2069SOL    HW2 7104   1.725   2.388   7.728
 2070SOL     OW 7105   0.768   3.006   8.471
 2070SOL    HW1 7106   0.690   3.023   8.531
 2070SOL    HW2 7107   0.802   3.093   8.435
 2071SOL     OW 7108   0.850   2.660   9.271
 2071SOL    HW1 7109   0.846   2.736   9.336
 2071SOL    HW2 7110   0.872   2.696   9.180
 2072SOL     OW 7111   0.685   2.874   8.113
 2072SOL    HW1 7112   0.754   2.858   8.183
 2072SOL    HW2 7113   0.612   2.931   8.151
 2073SOL     OW 7114   0.686   3.023   9.251
 2073SOL    HW1 7115   0.746   3.102   9.265
 2073SOL    HW2 7116   0.600   3.054   9.210
 2074SOL     OW 7117   0.335   3.297   8.509
 2074SOL    HW1 7118   0.257   3.266   8.456
 2074SOL    HW2 7119   0.393   3.355   8.452
 2075SOL     OW 7120   1.460   3.367   8.787
 2075SOL    HW1 7121   1.484   3.461   8.813
 2075SOL    HW2 7122   1.444   3.313   8.869
 2076SOL     OW 7123   0.438   2.254   8.947
 2076SOL    HW1 7124   0.520   2.198   8.956
 2076SOL    HW2 7125   0.357   2.196   8.951
 2077SOL     OW 7126   1.603   2.309   8.185
 2077SOL    HW1 7127   1.529   2.355   8.135
 2077SOL    HW2 7128   1.654   2.377   8.238
 2078SOL     OW 7129   0.231   3.575   7.931
 2078SOL    HW1 7130   0.265   3.652   7.985
 2078SOL    HW2 7131   0.275   3.575   7.841
 2079SOL     OW 7132   1.127   3.203   9.138
 2079SOL    HW1 7133   1.174   3.203   9.226
 2079SOL    HW2 7134   1.079   3.116   9.127
 2080SOL     OW 7135   0.230   3.296   7.986
 2080SOL    HW1 7136   0.204   3.392   7.986
 2080SOL    HW2 7137   0.159   3.242   8.031
 2081SOL     OW 7138   0.240   2.953   8.334
 2081SOL    HW1 7139   0.254   2.869   8.386
 2081SOL    HW2 7140   0.185   3.017   8.389
 2082SOL     OW 7141   0.620   3.648   8.887
 2082SOL    HW1 7142   0.528   3.631   8.922
 2082SOL    HW2 7143   0.648   3.740   8.913
 2083SOL     OW 7144   0.606   2.826   7.571
 2083SOL    HW1 7145   0.613   2.910   7.517
 2083SOL    HW2 7146   0.652   2.839   7.659
 2084SOL     OW 7147   1.594   1.976   8.928
 2084SOL    HW1 7148   1.576   2.043   8.856
 2084SOL    HW2 7149   1.591   2.022   9.017
 2085SOL     OW 7150   0.122   2.505   8.011
 2085SOL    HW1 7151   0.077   2.417   8.028
 2085SOL    HW2 7152   0.121   2.559   8.095
 2086SOL     OW 7153   1.842   3.629   7.807
 2086SOL    HW1 7154   1.896   3.600   7.887
 2086SOL    HW2 7155   1.872   3.719   7.778
 2087SOL     OW 7156   0.027   3.458   7.565
 2087SOL    HW1 7157   0.008   3.362   7.586
 2087SOL    HW2 7158  -0.006   3.516   7.640
 2088SOL     OW 7159   1.689   2.784   8.060
 2088SOL    HW1 7160   1.784   2.755   8.068
 2088SOL    HW2 7161   1.681   2.849   7.985
 2089SOL     OW 7162   1.641   2.970   7.880
 2089SOL    HW1 7163   1.727   2.972   7.828
 2089SOL    HW2 7164   1.655   3.017   7.968
 2090SOL     OW 7165   0.113   2.599   9.045
 2090SOL    HW1 7166   0.201   2.586   9.090
 2090SOL    HW2 7167   0.100   2.696   9.023
 2091SOL     OW 7168   0.613   3.227   8.174
 2091SOL    HW1 7169   0.564   3.140   8.183
 2091SOL    HW2 7170   0.590   3.270   8.087
 2092SOL     OW 7171   1.293   3.090   8.871
 2092SOL    HW1 7172   1.330   3.017   8.813
 2092SOL    HW2 7173   1.345   3.095   8.956
 2093SOL     OW 7174   0.809   1.866   7.950
 2093SOL    HW1 7175   0.849   1.957   7.941
 2093SOL    HW2 7176   0.709   1.874   7.956
 2094SOL     OW 7177   0.197   2.838   8.712
 2094SOL    HW1 7178   0.286   2.793   8.698
 2094SOL    HW2 7179   0.124   2.773   8.693
 2095SOL     OW 7180   1.525   2.861   7.638
 2095SOL    HW1 7181   1.462   2.785   7.651
 2095SOL    HW2 7182   1.573   2.879   7.724
 2096SOL     OW 7183   1.187   3.654   9.064
 2096SOL    HW1 7184   1.211   3.714   8.988
 2096SOL    HW2 7185   1.194   3.559   9.034
 2097SOL     OW 7186   0.317   2.113   9.249
 2097SOL    HW1 7187   0.388   2.184   9.255
 2097SOL    HW2 7188   0.229   2.152   9.277
 2098SOL     OW 7189   1.466   3.279   8.401
 2098SOL    HW1 7190   1.407   3.285   8.481
 2098SOL    HW2 7191   1.451   3.191   8.355
 2099SOL     OW 7192   1.667   3.576   8.020
 2099SOL    HW1 7193   1.626   3.553   7.932
 2099SOL    HW2 7194   1.649   3.502   8.085
 2100SOL     OW 7195   0.598   2.591   7.718
 2100SOL    HW1 7196   0.622   2.660   7.650
 2100SOL    HW2 7197   0.520   2.624   7.772
 2101SOL     OW 7198   1.281   2.207   8.392
 2101SOL    HW1 7199   1.195   2.157   8.379
 2101SOL    HW2 7200   1.343   2.153   8.448
 2102SOL     OW 7201   1.576   3.524   7.755
 2102SOL    HW1 7202   1.665   3.570   7.758
 2102SOL    HW2 7203   1.555   3.500   7.660
 2103SOL     OW 7204   0.807   2.467   8.913
 2103SOL    HW1 7205   0.760   2.464   9.002
 2103SOL    HW2 7206   0.756   2.412   8.847
 2104SOL     OW 7207   1.394   2.331   9.122
 2104SOL    HW1 7208   1.374   2.374   9.210
 2104SOL    HW2 7209   1.472   2.269   9.131
 2105SOL     OW 7210   0.973   2.752   9.020
 2105SOL    HW1 7211   1.019   2.668   8.991
 2105SOL    HW2 7212   0.917   2.786   8.945
 2106SOL     OW 7213   0.991   2.272   8.690
 2106SOL    HW1 7214   0.914   2.306   8.744
 2106SOL    HW2 7215   0.957   2.221   8.611
 2107SOL     OW 7216   1.041   2.563   7.877
 2107SOL    HW1 7217   1.067   2.559   7.973
 2107SOL    HW2 7218   0.956   2.512   7.863
 2108SOL     OW 7219   0.076   2.673   8.237
 2108SOL    HW1 7220   0.175   2.661   8.246
 2108SOL    HW2 7221   0.052   2.768   8.258
 2109SOL     OW 7222   0.130   3.683   9.019
 2109SOL    HW1 7223   0.120   3.668   9.118
 2109SOL    HW2 7224   0.044   3.719   8.983
 2110SOL     OW 7225   0.865   2.210   7.643
 2110SOL    HW1 7226   0.924   2.273   7.594
 2110SOL    HW2 7227   0.884   2.116   7.614
 2111SOL     OW 7228   1.719   2.447   9.279
 2111SOL    HW1 7229   1.693   2.536   9.243
 2111SOL    HW2 7230   1.717   2.379   9.206
 2112SOL     OW 7231   1.362   3.006   7.993
 2112SOL    HW1 7232   1.445   2.977   7.945
 2112SOL    HW2 7233   1.313   3.073   7.937
 2113SOL     OW 7234   0.550   2.058   8.333
 2113SOL    HW1 7235   0.545   2.053   8.433
 2113SOL    HW2 7236   0.552   2.154   8.304
 2114SOL     OW 7237   1.008   3.318   7.925
 2114SOL    HW1 7238   0.962   3.390   7.873
 2114SOL    HW2 7239   1.004   3.338   8.023
 2115SOL     OW 7240   0.351   3.663   8.301
 2115SOL    HW1 7241   0.401   3.577   8.307
 2115SOL    HW2 7242   0.416   3.740   8.298
 2116SOL     OW 7243   1.795   2.928   8.321
 2116SOL    HW1 7244   1.733   2.913   8.245
 2116SOL    HW2 7245   1.743   2.939   8.406
 2117SOL     OW 7246   1.227   3.412   8.954
 2117SOL    HW1 7247   1.233   3.335   9.018
 2117SOL    HW2 7248   1.175   3.386   8.874
 2118SOL     OW 7249   0.321   2.805   7.690
 2118SOL    HW1 7250   0.403   2.844   7.648
 2118SOL    HW2 7251   0.294   2.723   7.641
 2119SOL     OW 7252   1.458   2.597   8.176
 2119SOL    HW1 7253   1.453   2.532   8.251
 2119SOL    HW2 7254   1.538   2.656   8.189
 2120SOL     OW 7255   0.461   3.128   9.175
 2120SOL    HW1 7256   0.411   3.129   9.089
 2120SOL    HW2 7257   0.398   3.110   9.251
 2121SOL     OW 7258   1.111   3.638   7.685
 2121SOL    HW1 7259   1.051   3.576   7.735
 2121SOL    HW2 7260   1.142   3.594   7.600
 2122SOL     OW 7261   0.202   2.147   8.946
 2122SOL    HW1 7262   0.122   2.207   8.933
 2122SOL    HW2 7263   0.192   2.098   9.032
 2123SOL     OW 7264   1.632   3.239   7.529
 2123SOL    HW1 7265   1.600   3.333   7.519
 2123SOL    HW2 7266   1.556   3.176   7.517
 2124SOL     OW 7267   0.464   3.605   7.771
 2124SOL    HW1 7268   0.497   3.644   7.857
 2124SOL    HW2 7269   0.540   3.598   7.706
 2125SOL     OW 7270   1.400   1.969   7.874
 2125SOL    HW1 7271   1.376   1.932   7.784
 2125SOL    HW2 7272   1.499   1.985   7.878
 2126SOL     OW 7273   0.249   3.647   8.689
 2126SOL    HW1 7274   0.306   3.582   8.739
 2126SOL    HW2 7275   0.233   3.614   8.596
 2127SOL     OW 7276   0.940   3.560   8.352
 2127SOL    HW1 7277   1.020   3.503   8.373
 2127SOL    HW2 7278   0.891   3.520   8.275
 2128SOL     OW 7279   0.382   2.562   7.928
 2128SOL    HW1 7280   0.427   2.472   7.925
 2128SOL    HW2 7281   0.288   2.551   7.961
 2129SOL     OW 7282   1.547   2.084   9.177
 2129SOL    HW1 7283   1.542   2.121   9.269
 2129SOL    HW2 7284   1.475   2.015   9.165
 2130SOL     OW 7285   0.614   1.984   7.565
 2130SOL    HW1 7286   0.712   1.962   7.572
 2130SOL    HW2 7287   0.583   1.967   7.472
 2131SOL     OW 7288   0.781   2.126   9.197
 2131SOL    HW1 7289   0.848   2.065   9.240
 2131SOL    HW2 7290   0.708   2.145   9.262
 2132SOL     OW 7291   0.888   3.376   8.643
 2132SOL    HW1 7292   0.865   3.351   8.549
 2132SOL    HW2 7293   0.949   3.307   8.682
 2133SOL     OW 7294   1.351   2.452   8.881
 2133SOL    HW1 7295   1.379   2.409   8.966
 2133SOL    HW2 7296   1.376   2.548   8.882
 2134SOL     OW 7297   0.803   3.264   8.372
 2134SOL    HW1 7298   0.893   3.278   8.330
 2134SOL    HW2 7299   0.732   3.266   8.301
 2135SOL     OW 7300   0.922   2.365   8.347
 2135SOL    HW1 7301   0.897   2.356   8.251
 2135SOL    HW2 7302   0.970   2.283   8.378
 2136SOL     OW 7303   0.539   1.926   7.960
 2136SOL    HW1 7304   0.458   1.927   8.018
 2136SOL    HW2 7305   0.542   2.009   7.905
 2137SOL     OW 7306   1.434   3.050   7.489
 2137SOL    HW1 7307   1.466   2.974   7.546
 2137SOL    HW2 7308   1.342   3.077   7.519
 2138SOL     OW 7309   0.297   1.897   7.619
 2138SOL    HW1 7310   0.346   1.981   7.598
 2138SOL    HW2 7311   0.359   1.832   7.664
 2139SOL     OW 7312   0.935   2.098   7.928
 2139SOL    HW1 7313   0.887   2.139   7.850
 2139SOL    HW2 7314   1.034   2.096   7.909
 2140SOL     OW 7315   1.076   2.545   8.912
 2140SOL    HW1 7316   0.996   2.484   8.915
 2140SOL    HW2 7317   1.157   2.492   8.888
 2141SOL     OW 7318   1.227   3.432   8.241
 2141SOL    HW1 7319   1.248   3.506   8.176
 2141SOL    HW2 7320   1.295   3.432   8.314
 2142SOL     OW 7321   0.459   3.014   8.189
 2142SOL    HW1 7322   0.388   2.987   8.254
 2142SOL    HW2 7323   0.433   2.986   8.096
 2143SOL     OW 7324   1.271   3.659   8.039
 2143SOL    HW1 7325   1.315   3.723   7.975
 2143SOL    HW2 7326   1.221   3.711   8.109
 2144SOL     OW 7327   1.032   2.411   7.464
 2144SOL    HW1 7328   0.991   2.493   7.425
 2144SOL    HW2 7329   1.096   2.437   7.537
 2145SOL     OW 7330   0.078   2.418   8.834
 2145SOL    HW1 7331   0.170   2.417   8.793
 2145SOL    HW2 7332   0.072   2.492   8.901
 2146SOL     OW 7333   0.561   2.084   8.595
 2146SOL    HW1 7334   0.599   2.000   8.632
 2146SOL    HW2 7335   0.473   2.103   8.639
 2147SOL     OW 7336   0.866   2.316   8.090
 2147SOL    HW1 7337   0.834   2.388   8.028
 2147SOL    HW2 7338   0.890   2.235   8.037
 2148SOL     OW 7339   1.017   1.901   8.201
 2148SOL    HW1 7340   0.945   1.906   8.132
 2148SOL    HW2 7341   0.993   1.832   8.270
 2149SOL     OW 7342   1.429   3.035   8.315
 2149SOL    HW1 7343   1.374   2.951   8.308
 2149SOL    HW2 7344   1.455   3.064   8.223
 2150SOL     OW 7345   1.466   2.452   8.440
 2150SOL    HW1 7346   1.436   2.357   8.447
 2150SOL    HW2 7347   1.539   2.468   8.506
 2151SOL     OW 7348   1.857   2.695   7.825
 2151SOL    HW1 7349   1.899   2.631   7.889
 2151SOL    HW2 7350   1.819   2.644   7.747
 2152SOL     OW 7351   0.488   3.247   7.622
 2152SOL    HW1 7352   0.401   3.232   7.669
 2152SOL    HW2 7353   0.471   3.273   7.527
 2153SOL     OW 7354   1.664   3.142   8.105
 2153SOL    HW1 7355   1.763   3.150   8.119
 2153SOL    HW2 7356   1.619   3.226   8.136
 2154SOL     OW 7357   1.390   2.437   7.526
 2154SOL    HW1 7358   1.336   2.416   7.607
 2154SOL    HW2 7359   1.481   2.396   7.535
 2155SOL     OW 7360   0.527   2.118   7.776
 2155SOL    HW1 7361   0.554   2.059   7.701
 2155SOL    HW2 7362   0.527   2.213   7.745
 2156SOL     OW 7363   1.754   3.085   9.036
 2156SOL    HW1 7364   1.845   3.046   9.023
 2156SOL    HW2 7365   1.762   3.181   9.060
 2157SOL     OW 7366   1.064   3.209   8.788
 2157SOL    HW1 7367   0.984   3.186   8.843
 2157SOL    HW2 7368   1.147   3.183   8.837
 2158SOL     OW 7369   1.592   3.491   9.073
 2158SOL    HW1 7370   1.619   3.525   8.983
 2158SOL    HW2 7371   1.671   3.453   9.119
 2159SOL     OW 7372   1.111   3.057   8.548
 2159SOL    HW1 7373   1.071   3.101   8.629
 2159SOL    HW2 7374   1.070   3.094   8.465
 2160SOL     OW 7375   1.638   2.961   8.527
 2160SOL    HW1 7376   1.643   3.042   8.586
 2160SOL    HW2 7377   1.552   2.963   8.476
 2161SOL     OW 7378   0.915   1.951   8.850
 2161SOL    HW1 7379   0.940   1.931   8.755
 2161SOL    HW2 7380   0.987   2.007   8.892
 2162SOL     OW 7381   0.980   2.978   9.167
 2162SOL    HW1 7382   0.881   2.984   9.177
 2162SOL    HW2 7383   1.003   2.898   9.111
 2163SOL     OW 7384   0.705   2.912   7.816
 2163SOL    HW1 7385   0.691   2.919   7.915
 2163SOL    HW2 7386   0.789   2.861   7.798
 2164SOL     OW 7387   0.410   2.675   8.699
 2164SOL    HW1 7388   0.496   2.687   8.749
 2164SOL    HW2 7389   0.368   2.588   8.726
 2165SOL     OW 7390   1.274   2.248   8.710
 2165SOL    HW1 7391   1.295   2.322   8.774
 2165SOL    HW2 7392   1.185   2.265   8.667
 2166SOL     OW 7393   0.064   3.426   8.779
 2166SOL    HW1 7394   0.018   3.508   8.745
 2166SOL    HW2 7395   0.162   3.445   8.788
 2167SOL     OW 7396   0.367   2.962   7.949
 2167SOL    HW1 7397   0.360   3.045   7.893
 2167SOL    HW2 7398   0.371   2.882   7.889
 2168SOL     OW 7399   0.566   2.399   8.313
 2168SOL    HW1 7400   0.578   2.465   8.239
 2168SOL    HW2 7401   0.612   2.433   8.396
 2169SOL     OW 7402   1.252   3.210   7.836
 2169SOL    HW1 7403   1.302   3.287   7.876
 2169SOL    HW2 7404   1.157   3.212   7.868
 2170SOL     OW 7405   1.272   3.307   8.590
 2170SOL    HW1 7406   1.319   3.320   8.677
 2170SOL    HW2 7407   1.206   3.233   8.599
 2171SOL     OW 7408   1.582   2.501   7.920
 2171SOL    HW1 7409   1.551   2.562   7.993
 2171SOL    HW2 7410   1.632   2.553   7.851
 2172SOL     OW 7411   0.354   3.372   8.777
 2172SOL    HW1 7412   0.333   3.328   8.690
 2172SOL    HW2 7413   0.451   3.398   8.780
 2173SOL     OW 7414   0.402   2.613   9.046
 2173SOL    HW1 7415   0.470   2.668   8.999
 2173SOL    HW2 7416   0.442   2.525   9.073
 2174SOL     OW 7417   1.587   2.641   9.118
 2174SOL    HW1 7418   1.495   2.679   9.113
 2174SOL    HW2 7419   1.647   2.688   9.053
 2175SOL     OW 7420   1.013   1.967   9.218
 2175SOL    HW1 7421   1.019   2.052   9.166
 2175SOL    HW2 7422   1.045   1.891   9.161
 2176SOL     OW 7423   0.504   1.912   9.188
 2176SOL    HW1 7424   0.462   1.855   9.118
 2176SOL    HW2 7425   0.438   1.981   9.220
 2177SOL     OW 7426   0.573   2.732   8.477
 2177SOL    HW1 7427   0.617   2.821   8.468
 2177SOL    HW2 7428   0.510   2.732   8.554
 2178SOL     OW 7429   1.360   2.724   8.493
 2178SOL    HW1 7430   1.285   2.724   8.427
 2178SOL    HW2 7431   1.397   2.632   8.502
 2179SOL     OW 7432   1.209   2.387   7.723
 2179SOL    HW1 7433   1.222   2.303   7.777
 2179SOL    HW2 7434   1.180   2.461   7.783
 2180SOL     OW 7435   0.307   2.075   8.679
 2180SOL    HW1 7436   0.284   2.112   8.769
 2180SOL    HW2 7437   0.277   1.980   8.673
 2181SOL     OW 7438   0.037   3.172   8.730
 2181SOL    HW1 7439   0.090   3.123   8.798
 2181SOL    HW2 7440   0.059   3.270   8.735
 2182SOL     OW 7441   0.732   2.496   8.512
 2182SOL    HW1 7442   0.791   2.470   8.436
 2182SOL    HW2 7443   0.704   2.592   8.501
 2183SOL     OW 7444   1.728   2.797   9.302
 2183SOL    HW1 7445   1.682   2.790   9.213
 2183SOL    HW2 7446   1.666   2.841   9.368
 2184SOL     OW 7447   0.307   1.925   8.066
 2184SOL    HW1 7448   0.296   2.019   8.099
 2184SOL    HW2 7449   0.302   1.862   8.143
 2185SOL     OW 7450   1.622   2.229   7.822
 2185SOL    HW1 7451   1.624   2.153   7.886
 2185SOL    HW2 7452   1.574   2.306   7.862
 2186SOL     OW 7453   1.023   2.628   8.414
 2186SOL    HW1 7454   1.038   2.649   8.510
 2186SOL    HW2 7455   0.993   2.533   8.405
 2187SOL     OW 7456   0.980   3.435   9.148
 2187SOL    HW1 7457   0.960   3.479   9.060
 2187SOL    HW2 7458   1.019   3.344   9.132
 2188SOL     OW 7459   1.859   3.380   9.053
 2188SOL    HW1 7460   1.873   3.407   8.958
 2188SOL    HW2 7461   1.942   3.402   9.106
 2189SOL     OW 7462   0.350   2.760   9.252
 2189SOL    HW1 7463   0.426   2.804   9.300
 2189SOL    HW2 7464   0.385   2.713   9.170
 2190SOL     OW 7465   1.540   2.136   7.573
 2190SOL    HW1 7466   1.479   2.061   7.596
 2190SOL    HW2 7467   1.562   2.188   7.656
 2191SOL     OW 7468   1.303   2.700   7.490
 2191SOL    HW1 7469   1.337   2.607   7.505
 2191SOL    HW2 7470   1.321   2.727   7.395
 2192SOL     OW 7471   1.068   3.195   8.297
 2192SOL    HW1 7472   1.075   3.111   8.242
 2192SOL    HW2 7473   1.130   3.264   8.261
 2193SOL     OW 7474   0.319   2.672   8.397
 2193SOL    HW1 7475   0.412   2.708   8.402
 2193SOL    HW2 7476   0.313   2.587   8.449
 2194SOL     OW 7477   0.339   2.371   8.454
 2194SOL    HW1 7478   0.287   2.288   8.437
 2194SOL    HW2 7479   0.416   2.376   8.390
 2195SOL     OW 7480   1.138   2.242   9.126
 2195SOL    HW1 7481   1.093   2.305   9.190
 2195SOL    HW2 7482   1.231   2.273   9.109
 2196SOL     OW 7483   1.160   2.069   8.925
 2196SOL    HW1 7484   1.160   2.133   9.002
 2196SOL    HW2 7485   1.188   2.117   8.842
 2197SOL     OW 7486   0.008   3.188   7.648
 2197SOL    HW1 7487  -0.085   3.209   7.617
 2197SOL    HW2 7488   0.018   3.089   7.661
 2198SOL     OW 7489   0.088   3.663   8.375
 2198SOL    HW1 7490   0.046   3.577   8.348
 2198SOL    HW2 7491   0.182   3.666   8.341
 2199SOL     OW 7492   0.504   3.430   8.358
 2199SOL    HW1 7493   0.570   3.504   8.367
 2199SOL    HW2 7494   0.548   3.351   8.316
 2200SOL     OW 7495   1.002   2.658   8.686
 2200SOL    HW1 7496   1.043   2.626   8.772
 2200SOL    HW2 7497   0.906   2.631   8.683
 2201SOL     OW 7498   0.040   2.406   8.562
 2201SOL    HW1 7499   0.125   2.373   8.521
 2201SOL    HW2 7500   0.053   2.421   8.660
 2202SOL     OW 7501   0.189   2.382   9.170
 2202SOL    HW1 7502   0.248   2.342   9.100
 2202SOL    HW2 7503   0.131   2.453   9.129
 2203SOL     OW 7504   1.369   2.812   9.108
 2203SOL    HW1 7505   1.408   2.901   9.128
 2203SOL    HW2 7506   1.379   2.792   9.011
 2204SOL     OW 7507   0.815   2.434   7.773
 2204SOL    HW1 7508   0.822   2.345   7.727
 2204SOL    HW2 7509   0.721   2.468   7.765
 2205SOL     OW 7510   1.657   2.466   8.654
 2205SOL    HW1 7511   1.619   2.397   8.716
 2205SOL    HW2 7512   1.739   2.430   8.610
 2206SOL     OW 7513   0.252   3.426   9.192
 2206SOL    HW1 7514   0.222   3.483   9.268
 2206SOL    HW2 7515   0.245   3.329   9.218
 2207SOL     OW 7516   0.671   2.326   8.717
 2207SOL    HW1 7517   0.637   2.237   8.687
 2207SOL    HW2 7518   0.697   2.380   8.637
 2208SOL     OW 7519   0.930   3.540   8.913
 2208SOL    HW1 7520   0.906   3.522   8.818
 2208SOL    HW2 7521   0.960   3.634   8.923
 2209SOL     OW 7522   0.473   2.362   7.639
 2209SOL    HW1 7523   0.534   2.442   7.643
 2209SOL    HW2 7524   0.378   2.393   7.646
 2210SOL     OW 7525   0.159   2.999   8.914
 2210SOL    HW1 7526   0.181   2.938   8.990
 2210SOL    HW2 7527   0.169   2.950   8.828
 2211SOL     OW 7528   1.347   2.921   8.682
 2211SOL    HW1 7529   1.371   2.858   8.608
 2211SOL    HW2 7530   1.257   2.961   8.664
 2212SOL     OW 7531   1.302   2.717   7.757
 2212SOL    HW1 7532   1.216   2.686   7.799
 2212SOL    HW2 7533   1.298   2.703   7.658
 2213SOL     OW 7534   1.759   3.609   8.602
 2213SOL    HW1 7535   1.820   3.639   8.529
 2213SOL    HW2 7536   1.721   3.520   8.580
 2214SOL     OW 7537   1.252   3.593   8.576
 2214SOL    HW1 7538   1.336   3.598   8.522
 2214SOL    HW2 7539   1.229   3.497   8.594
 2215SOL     OW 7540   0.083   3.120   8.470
 2215SOL    HW1 7541   0.078   3.119   8.570
 2215SOL    HW2 7542   0.000   3.079   8.432
 2216SOL     OW 7543   0.688   3.524   9.164
 2216SOL    HW1 7544   0.632   3.605   9.173
 2216SOL    HW2 7545   0.740   3.528   9.078
 2217SOL     OW 7546   1.726   1.997   7.971
 2217SOL    HW1 7547   1.799   1.980   7.904
 2217SOL    HW2 7548   1.695   1.910   8.009
 2218SOL     OW 7549   1.388   3.435   7.925
 2218SOL    HW1 7550   1.455   3.447   7.851
 2218SOL    HW2 7551   1.348   3.524   7.948
 2219SOL     OW 7552   0.130   3.656   9.299
 2219SOL    HW1 7553   0.089   3.582   9.352
 2219SOL    HW2 7554   0.194   3.707   9.357
 2220SOL     OW 7555   1.280   2.789   8.120
 2220SOL    HW1 7556   1.340   2.708   8.122
 2220SOL    HW2 7557   1.320   2.858   8.060
 2221SOL     OW 7558   0.830   3.135   8.870
 2221SOL    HW1 7559   0.825   3.168   8.965
 2221SOL    HW2 7560   0.744   3.154   8.824
 2222SOL     OW 7561   0.672   3.478   7.602
 2222SOL    HW1 7562   0.681   3.488   7.503
 2222SOL    HW2 7563   0.632   3.389   7.623
 2223SOL     OW 7564   1.650   3.582   8.842
 2223SOL    HW1 7565   1.703   3.592   8.758
 2223SOL    HW2 7566   1.623   3.672   8.876
 2224SOL     OW 7567   1.841   2.037   8.411
 2224SOL    HW1 7568   1.880   1.952   8.375
 2224SOL    HW2 7569   1.743   2.039   8.392
 2225SOL     OW 7570   0.263   2.188   8.168
 2225SOL    HW1 7571   0.184   2.239   8.134
 2225SOL    HW2 7572   0.254   2.173   8.266
 2226SOL     OW 7573   1.194   3.474   7.479
 2226SOL    HW1 7574   1.200   3.381   7.516
 2226SOL    HW2 7575   1.135   3.474   7.399
 2227SOL     OW 7576   0.822   2.864   8.820
 2227SOL    HW1 7577   0.862   2.863   8.728
 2227SOL    HW2 7578   0.832   2.956   8.860
 2228SOL     OW 7579   0.916   2.772   7.739
 2228SOL    HW1 7580   0.979   2.810   7.671
 2228SOL    HW2 7581   0.956   2.689   7.778
 2229SOL     OW 7582   1.504   3.469   7.492
 2229SOL    HW1 7583   1.412   3.506   7.499
 2229SOL    HW2 7584   1.542   3.489   7.402
 2230SOL     OW 7585   0.372   3.150   8.938
 2230SOL    HW1 7586   0.359   3.243   8.904
 2230SOL    HW2 7587   0.288   3.098   8.925
 2231SOL     OW 7588   1.614   3.154   8.737
 2231SOL    HW1 7589   1.674   3.157   8.817
 2231SOL    HW2 7590   1.539   3.218   8.750
 2232SOL     OW 7591   1.039   2.960   8.144
 2232SOL    HW1 7592   0.969   2.913   8.198
 2232SOL    HW2 7593   1.098   2.892   8.101
 2233SOL     OW 7594   1.014   2.098   8.419
 2233SOL    HW1 7595   1.006   2.062   8.326
 2233SOL    HW2 7596   1.012   2.022   8.484
 2234SOL     OW 7597   0.590   3.349   7.939
 2234SOL    HW1 7598   0.632   3.291   7.869
 2234SOL    HW2 7599   0.546   3.428   7.895
 2235SOL     OW 7600   1.709   2.247   8.829
 2235SOL    HW1 7601   1.782   2.316   8.833
 2235SOL    HW2 7602   1.737   2.172   8.770
 2236SOL     OW 7603   0.255   3.210   7.738
 2236SOL    HW1 7604   0.159   3.211   7.711
 2236SOL    HW2 7605   0.267   3.263   7.822
 2237SOL     OW 7606   0.105   2.875   9.174
 2237SOL    HW1 7607   0.028   2.842   9.228
 2237SOL    HW2 7608   0.190   2.845   9.216
 2238SOL     OW 7609   0.672   2.065   8.937
 2238SOL    HW1 7610   0.762   2.049   8.897
 2238SOL    HW2 7611   0.680   2.070   9.036
 2239SOL     OW 7612   0.075   2.207   7.481
 2239SOL    HW1 7613  -0.017   2.179   7.452
 2239SOL    HW2 7614   0.106   2.284   7.425
 2240SOL     OW 7615   1.440   2.718   8.846
 2240SOL    HW1 7616   1.383   2.770   8.783
 2240SOL    HW2 7617   1.536   2.730   8.822
 2241SOL     OW 7618   0.072   2.028   7.766
 2241SOL    HW1 7619   0.055   2.111   7.712
 2241SOL    HW2 7620   0.162   1.991   7.744
 2242SOL     OW 7621   1.183   3.197   7.567
 2242SOL    HW1 7622   1.084   3.186   7.569
 2242SOL    HW2 7623   1.217   3.212   7.660
 2243SOL     OW 7624   0.613   2.704   8.879
 2243SOL    HW1 7625   0.669   2.785   8.862
 2243SOL    HW2 7626   0.672   2.624   8.882
 2244SOL     OW 7627   1.493   3.629   8.407
 2244SOL    HW1 7628   1.526   3.693   8.338
 2244SOL    HW2 7629   1.559   3.623   8.482
 2245SOL     OW 7630   0.716   2.427   9.156
 2245SOL    HW1 7631   0.735   2.492   9.230
 2245SOL    HW2 7632   0.776   2.347   9.165
 2246SOL     OW 7633   1.450   3.082   9.081
 2246SOL    HW1 7634   1.441   3.072   9.180
 2246SOL    HW2 7635   1.546   3.075   9.055
 2247SOL     OW 7636   0.390   3.603   9.008
 2247SOL    HW1 7637   0.299   3.644   9.006
 2247SOL    HW2 7638   0.383   3.509   9.040
 2248SOL     OW 7639   1.674   2.745   8.702
 2248SOL    HW1 7640   1.647   2.656   8.665
 2248SOL    HW2 7641   1.675   2.813   8.629
 2249SOL     OW 7642   1.225   2.187   7.897
 2249SOL    HW1 7643   1.290   2.113   7.886
 2249SOL    HW2 7644   1.245   2.237   7.981
 2250SOL     OW 7645   0.594   2.607   8.100
 2250SOL    HW1 7646   0.644   2.692   8.081
 2250SOL    HW2 7647   0.506   2.609   8.052
 2251SOL     OW 7648   1.777   2.204   9.090
 2251SOL    HW1 7649   1.760   2.235   8.996
 2251SOL    HW2 7650   1.693   2.167   9.128
 2252SOL     OW 7651   1.730   2.796   8.965
 2252SOL    HW1 7652   1.768   2.887   8.980
 2252SOL    HW2 7653   1.722   2.779   8.866
 2253SOL     OW 7654   0.859   3.236   7.464
 2253SOL    HW1 7655   0.813   3.251   7.552
 2253SOL    HW2 7656   0.903   3.321   7.434
 2254SOL     OW 7657   0.661   3.652   8.401
 2254SOL    HW1 7658   0.615   3.740   8.388
 2254SOL    HW2 7659   0.760   3.664   8.394
 2255SOL     OW 7660   0.859   2.818   8.309
 2255SOL    HW1 7661   0.913   2.749   8.357
 2255SOL    HW2 7662   0.827   2.887   8.375
 2256SOL     OW 7663   1.083   2.846   7.535
 2256SOL    HW1 7664   1.060   2.899   7.453
 2256SOL    HW2 7665   1.164   2.790   7.516
 2257SOL     OW 7666   1.861   3.431   8.299
 2257SOL    HW1 7667   1.790   3.419   8.229
 2257SOL    HW2 7668   1.862   3.352   8.359
 2258SOL     OW 7669   0.221   3.176   9.292
 2258SOL    HW1 7670   0.156   3.103   9.271
 2258SOL    HW2 7671   0.225   3.190   9.390
 2259SOL     OW 7672   0.079   3.102   8.101
 2259SOL    HW1 7673   0.078   3.055   8.189
 2259SOL    HW2 7674   0.161   3.074   8.050
 2260SOL     OW 7675   0.672   3.253   9.072
 2260SOL    HW1 7676   0.594   3.203   9.110
 2260SOL    HW2 7677   0.669   3.348   9.103
 2261SOL     OW 7678   1.824   2.054   8.675
 2261SOL    HW1 7679   1.820   1.964   8.719
 2261SOL    HW2 7680   1.827   2.043   8.576
 2262SOL     OW 7681   0.428   2.286   7.968
 2262SOL    HW1 7682   0.458   2.214   7.906
 2262SOL    HW2 7683   0.389   2.246   8.051
 2263SOL     OW 7684   1.705   3.349   8.552
 2263SOL    HW1 7685   1.612   3.324   8.525
 2263SOL    HW2 7686   1.731   3.299   8.634
 2264SOL     OW 7687   0.317   2.409   8.728
 2264SOL    HW1 7688   0.355   2.350   8.800
 2264SOL    HW2 7689   0.357   2.383   8.640
 2265SOL     OW 7690   0.812   3.448   8.135
 2265SOL    HW1 7691   0.844   3.458   8.041
 2265SOL    HW2 7692   0.733   3.386   8.137
 2266SOL     OW 7693   1.424   2.076   8.560
 2266SOL    HW1 7694   1.476   2.011   8.615
 2266SOL    HW2 7695   1.375   2.139   8.621
 2267SOL     OW 7696   1.001   1.896   8.602
 2267SOL    HW1 7697   0.938   1.824   8.571
 2267SOL    HW2 7698   1.094   1.860   8.602
 2268SOL     OW 7699   0.770   3.192   7.749
 2268SOL    HW1 7700   0.724   3.105   7.766
 2268SOL    HW2 7701   0.861   3.189   7.790
 2269SOL     OW 7702   0.618   3.429   8.732
 2269SOL    HW1 7703   0.613   3.511   8.789
 2269SOL    HW2 7704   0.707   3.426   8.687
 2270SOL     OW 7705   1.352   1.914   7.616
 2270SOL    HW1 7706   1.387   1.873   7.532
 2270SOL    HW2 7707   1.262   1.876   7.636
 2271SOL     OW 7708   1.300   2.315   8.139
 2271SOL    HW1 7709   1.241   2.395   8.143
 2271SOL    HW2 7710   1.315   2.280   8.232
 2272SOL     OW 7711   1.593   2.083   8.330
 2272SOL    HW1 7712   1.509   2.082   8.384
 2272SOL    HW2 7713   1.595   2.166   8.274
 2273SOL     OW 7714   0.039   2.939   7.748
 2273SOL    HW1 7715   0.138   2.928   7.739
 2273SOL    HW2 7716  -0.001   2.853   7.780
 2274SOL     OW 7717   0.875   3.508   7.785
 2274SOL    HW1 7718   0.798   3.473   7.731
 2274SOL    HW2 7719   0.843   3.579   7.847
 2275SOL     OW 7720   0.230   2.490   9.423
 2275SOL    HW1 7721   0.137   2.488   9.460
 2275SOL    HW2 7722   0.231   2.451   9.331
 2276SOL     OW 7723   0.225   2.137  10.306
 2276SOL    HW1 7724   0.260   2.120  10.398
 2276SOL    HW2 7725   0.137   2.092  10.294
 2277SOL     OW 7726   0.019   2.230   9.957
 2277SOL    HW1 7727  -0.063   2.273   9.996
 2277SOL    HW2 7728  -0.009   2.157   9.894
 2278SOL     OW 7729   0.569   3.137  10.475
 2278SOL    HW1 7730   0.476   3.130  10.438
 2278SOL    HW2 7731   0.580   3.226  10.519
 2279SOL     OW 7732   1.555   3.373  10.013
 2279SOL    HW1 7733   1.498   3.357  10.094
 2279SOL    HW2 7734   1.496   3.383   9.933
 2280SOL     OW 7735   1.135   2.565  10.027
 2280SOL    HW1 7736   1.192   2.643  10.002
 2280SOL    HW2 7737   1.075   2.591  10.103
 2281SOL     OW 7738   1.755   2.469   9.541
 2281SOL    HW1 7739   1.743   2.456   9.442
 2281SOL    HW2 7740   1.725   2.388   9.590
 2282SOL     OW 7741   0.768   3.006  10.333
 2282SOL    HW1 7742   0.690   3.023  10.393
 2282SOL    HW2 7743   0.802   3.093  10.297
 2283SOL     OW 7744   0.850   2.660  11.133
 2283SOL    HW1 7745   0.846   2.736  11.198
 2283SOL    HW2 7746   0.872   2.696  11.042
 2284SOL     OW 7747   0.685   2.874   9.975
 2284SOL    HW1 7748   0.754   2.858  10.045
 2284SOL    HW2 7749   0.612   2.931  10.013
 2285SOL     OW 7750   0.335   3.297  10.371
 2285SOL    HW1 7751   0.257   3.266  10.318
 2285SOL    HW2 7752   0.393   3.355  10.314
 2286SOL     OW 7753   1.460   3.367  10.649
 2286SOL    HW1 7754   1.484   3.461  10.675
 2286SOL    HW2 7755   1.444   3.313  10.731
 2287SOL     OW 7756   0.438   2.254  10.809
 2287SOL    HW1 7757   0.520   2.198  10.818
 2287SOL    HW2 7758   0.357   2.196  10.813
 2288SOL     OW 7759   1.603   2.309  10.047
 2288SOL    HW1 7760   1.529   2.355   9.997
 2288SOL    HW2 7761   1.654   2.377  10.100
 2289SOL     OW 7762   0.231   3.575   9.793
 2289SOL    HW1 7763   0.265   3.652   9.847
 2289SOL    HW2 7764   0.275   3.575   9.703
 2290SOL     OW 7765   0.230   3.296   9.848
 2290SOL    HW1 7766   0.204   3.392   9.848
 2290SOL    HW2 7767   0.159   3.242   9.893
 2291SOL     OW 7768   0.240   2.953  10.196
 2291SOL    HW1 7769   0.254   2.869  10.248
 2291SOL    HW2 7770   0.185   3.017  10.251
 2292SOL     OW 7771   0.620   3.648  10.749
 2292SOL    HW1 7772   0.528   3.631  10.784
 2292SOL    HW2 7773   0.648   3.740  10.775
 2293SOL     OW 7774   0.606   2.826   9.433
 2293SOL    HW1 7775   0.613   2.910   9.379
 2293SOL    HW2 7776   0.652   2.839   9.521
 2294SOL     OW 7777   1.594   1.976  10.790
 2294SOL    HW1 7778   1.576   2.043  10.718
 2294SOL    HW2 7779   1.591   2.022  10.879
 2295SOL     OW 7780   0.122   2.505   9.873
 2295SOL    HW1 7781   0.077   2.417   9.890
 2295SOL    HW2 7782   0.121   2.559   9.957
 2296SOL     OW 7783   1.842   3.629   9.669
 2296SOL    HW1 7784   1.896   3.600   9.749
 2296SOL    HW2 7785   1.872   3.719   9.640
 2297SOL     OW 7786   0.027   3.458   9.427
 2297SOL    HW1 7787   0.008   3.362   9.448
 2297SOL    HW2 7788  -0.006   3.516   9.502
 2298SOL     OW 7789   1.689   2.784   9.922
 2298SOL    HW1 7790   1.784   2.755   9.930
 2298SOL    HW2 7791   1.681   2.849   9.847
 2299SOL     OW 7792   1.641   2.970   9.742
 2299SOL    HW1 7793   1.727   2.972   9.690
 2299SOL    HW2 7794   1.655   3.017   9.830
 2300SOL     OW 7795   0.113   2.599  10.907
 2300SOL    HW1 7796   0.201   2.586  10.952
 2300SOL    HW2 7797   0.100   2.696  10.885
 2301SOL     OW 7798   0.613   3.227  10.036
 2301SOL    HW1 7799   0.564   3.140  10.045
 2301SOL    HW2 7800   0.590   3.270   9.949
 2302SOL     OW 7801   1.293   3.090  10.733
 2302SOL    HW1 7802   1.330   3.017  10.675
 2302SOL    HW2 7803   1.345   3.095  10.818
 2303SOL     OW 7804   0.809   1.866   9.812
 2303SOL    HW1 7805   0.849   1.957   9.803
 2303SOL    HW2 7806   0.709   1.874   9.818
 2304SOL     OW 7807   0.197   2.838  10.574
 2304SOL    HW1 7808   0.286   2.793  10.560
 2304SOL    HW2 7809   0.124   2.773  10.555
 2305SOL     OW 7810   1.525   2.861   9.500
 2305SOL    HW1 7811   1.462   2.785   9.513
 2305SOL    HW2 7812   1.573   2.879   9.586
 2306SOL     OW 7813   1.187   3.654  10.926
 2306SOL    HW1 7814   1.211   3.714  10.850
 2306SOL    HW2 7815   1.194   3.559  10.896
 2307SOL     OW 7816   0.317   2.113  11.111
 2307SOL    HW1 7817   0.388   2.184  11.117
 2307SOL    HW2 7818   0.229   2.152  11.139
 2308SOL     OW 7819   1.466   3.279  10.263
 2308SOL    HW1 7820   1.407   3.285  10.343
 2308SOL    HW2 7821   1.451   3.191  10.217
 2309SOL     OW 7822   1.667   3.576   9.882
 2309SOL    HW1 7823   1.626   3.553   9.794
 2309SOL    HW2 7824   1.649   3.502   9.947
 2310SOL     OW 7825   0.598   2.591   9.580
 2310SOL    HW1 7826   0.622   2.660   9.512
 2310SOL    HW2 7827   0.520   2.624   9.634
 2311SOL     OW 7828   1.281   2.207  10.254
 2311SOL    HW1 7829   1.195   2.157  10.241
 2311SOL    HW2 7830   1.343   2.153  10.310
 2312SOL     OW 7831   1.576   3.524   9.617
 2312SOL    HW1 7832   1.665   3.570   9.620
 2312SOL    HW2 7833   1.555   3.500   9.522
 2313SOL     OW 7834   0.807   2.467  10.775
 2313SOL    HW1 7835   0.760   2.464  10.864
 2313SOL    HW2 7836   0.756   2.412  10.709
 2314SOL     OW 7837   0.973   2.752  10.882
 2314SOL    HW1 7838   1.019   2.668  10.853
 2314SOL    HW2 7839   0.917   2.786  10.807
 2315SOL     OW 7840   0.991   2.272  10.552
 2315SOL    HW1 7841   0.914   2.306  10.606
 2315SOL    HW2 7842   0.957   2.221  10.473
 2316SOL     OW 7843   1.041   2.563   9.739
 2316SOL    HW1 7844   1.067   2.559   9.835
 2316SOL    HW2 7845   0.956   2.512   9.725
 2317SOL     OW 7846   0.076   2.673  10.099
 2317SOL    HW1 7847   0.175   2.661  10.108
 2317SOL    HW2 7848   0.052   2.768  10.120
 2318SOL     OW 7849   0.130   3.683  10.881
 2318SOL    HW1 7850   0.120   3.668  10.980
 2318SOL    HW2 7851   0.044   3.719  10.845
 2319SOL     OW 7852   0.865   2.210   9.505
 2319SOL    HW1 7853   0.924   2.273   9.456
 2319SOL    HW2 7854   0.884   2.116   9.476
 2320SOL     OW 7855   1.362   3.006   9.855
 2320SOL    HW1 7856   1.445   2.977   9.807
 2320SOL    HW2 7857   1.313   3.073   9.799
 2321SOL     OW 7858   0.550   2.058  10.195
 2321SOL    HW1 7859   0.545   2.053  10.295
 2321SOL    HW2 7860   0.552   2.154  10.166
 2322SOL     OW 7861   1.008   3.318   9.787
 2322SOL    HW1 7862   0.962   3.390   9.735
 2322SOL    HW2 7863   1.004   3.338   9.885
 2323SOL     OW 7864   0.351   3.663  10.163
 2323SOL    HW1 7865   0.401   3.577  10.169
 2323SOL    HW2 7866   0.416   3.740  10.160
 2324SOL     OW 7867   1.795   2.928  10.183
 2324SOL    HW1 7868   1.733   2.913  10.107
 2324SOL    HW2 7869   1.743   2.939  10.268
 2325SOL     OW 7870   1.227   3.412  10.816
 2325SOL    HW1 7871   1.233   3.335  10.880
 2325SOL    HW2 7872   1.175   3.386  10.736
 2326SOL     OW 7873   0.321   2.805   9.552
 2326SOL    HW1 7874   0.403   2.844   9.510
 2326SOL    HW2 7875   0.294   2.723   9.503
 2327SOL     OW 7876   1.458   2.597  10.038
 2327SOL    HW1 7877   1.453   2.532  10.113
 2327SOL    HW2 7878   1.538   2.656  10.051
 2328SOL     OW 7879   0.461   3.128  11.037
 2328SOL    HW1 7880   0.411   3.129  10.951
 2328SOL    HW2 7881   0.398   3.110  11.113
 2329SOL     OW 7882   1.111   3.638   9.547
 2329SOL    HW1 7883   1.051   3.576   9.597
 2329SOL    HW2 7884   1.142   3.594   9.462
 2330SOL     OW 7885   0.202   2.147  10.808
 2330SOL    HW1 7886   0.122   2.207  10.795
 2330SOL    HW2 7887   0.192   2.098  10.894
 2331SOL     OW 7888   1.632   3.239   9.391
 2331SOL    HW1 7889   1.600   3.333   9.381
 2331SOL    HW2 7890   1.556   3.176   9.379
 2332SOL     OW 7891   0.464   3.605   9.633
 2332SOL    HW1 7892   0.497   3.644   9.719
 2332SOL    HW2 7893   0.540   3.598   9.568
 2333SOL     OW 7894   1.400   1.969   9.736
 2333SOL    HW1 7895   1.376   1.932   9.646
 2333SOL    HW2 7896   1.499   1.985   9.740
 2334SOL     OW 7897   0.249   3.647  10.551
 2334SOL    HW1 7898   0.306   3.582  10.601
 2334SOL    HW2 7899   0.233   3.614  10.458
 2335SOL     OW 7900   0.940   3.560  10.214
 2335SOL    HW1 7901   1.020   3.503  10.235
 2335SOL    HW2 7902   0.891   3.520  10.137
 2336SOL     OW 7903   0.382   2.562   9.790
 2336SOL    HW1 7904   0.427   2.472   9.787
 2336SOL    HW2 7905   0.288   2.551   9.823
 2337SOL     OW 7906   0.614   1.984   9.427
 2337SOL    HW1 7907   0.712   1.962   9.434
 2337SOL    HW2 7908   0.583   1.967   9.334
 2338SOL     OW 7909   0.781   2.126  11.059
 2338SOL    HW1 7910   0.848   2.065  11.102
 2338SOL    HW2 7911   0.708   2.145  11.124
 2339SOL     OW 7912   0.888   3.376  10.505
 2339SOL    HW1 7913   0.865   3.351  10.411
 2339SOL    HW2 7914   0.949   3.307  10.544
 2340SOL     OW 7915   1.351   2.452  10.743
 2340SOL    HW1 7916   1.379   2.409  10.828
 2340SOL    HW2 7917   1.376   2.548  10.744
 2341SOL     OW 7918   0.803   3.264  10.234
 2341SOL    HW1 7919   0.893   3.278  10.192
 2341SOL    HW2 7920   0.732   3.266  10.163
 2342SOL     OW 7921   0.922   2.365  10.209
 2342SOL    HW1 7922   0.897   2.356  10.113
 2342SOL    HW2 7923   0.970   2.283  10.240
 2343SOL     OW 7924   0.539   1.926   9.822
 2343SOL    HW1 7925   0.458   1.927   9.880
 2343SOL    HW2 7926   0.542   2.009   9.767
 2344SOL     OW 7927   1.434   3.050   9.351
 2344SOL    HW1 7928   1.466   2.974   9.408
 2344SOL    HW2 7929   1.342   3.077   9.381
 2345SOL     OW 7930   0.297   1.897   9.481
 2345SOL    HW1 7931   0.346   1.981   9.460
 2345SOL    HW2 7932   0.359   1.832   9.526
 2346SOL     OW 7933   0.935   2.098   9.790
 2346SOL    HW1 7934   0.887   2.139   9.712
 2346SOL    HW2 7935   1.034   2.096   9.771
 2347SOL     OW 7936   1.076   2.545  10.774
 2347SOL    HW1 7937   0.996   2.484  10.777
 2347SOL    HW2 7938   1.157   2.492  10.750
 2348SOL     OW 7939   1.227   3.432  10.103
 2348SOL    HW1 7940   1.248   3.506  10.038
 2348SOL    HW2 7941   1.295   3.432  10.176
 2349SOL     OW 7942   0.459   3.014  10.051
 2349SOL    HW1 7943   0.388   2.987  10.116
 2349SOL    HW2 7944   0.433   2.986   9.958
 2350SOL     OW 7945   1.271   3.659   9.901
 2350SOL    HW1 7946   1.315   3.723   9.837
 2350SOL    HW2 7947   1.221   3.711   9.971
 2351SOL     OW 7948   1.032   2.411   9.326
 2351SOL    HW1 7949   0.991   2.493   9.287
 2351SOL    HW2 7950   1.096   2.437   9.399
 2352SOL     OW 7951   0.078   2.418  10.696
 2352SOL    HW1 7952   0.170   2.417  10.655
 2352SOL    HW2 7953   0.072   2.492  10.763
 2353SOL     OW 7954   0.561   2.084  10.457
 2353SOL    HW1 7955   0.599   2.000  10.494
 2353SOL    HW2 7956   0.473   2.103  10.501
 2354SOL     OW 7957   0.866   2.316   9.952
 2354SOL    HW1 7958   0.834   2.388   9.890
 2354SOL    HW2 7959   0.890   2.235   9.899
 2355SOL     OW 7960   1.017   1.901  10.063
 2355SOL    HW1 7961   0.945   1.906   9.994
 2355SOL    HW2 7962   0.993   1.832  10.132
 2356SOL     OW 7963   1.429   3.035  10.177
 2356SOL    HW1 7964   1.374   2.951  10.170
 2356SOL    HW2 7965   1.455   3.064  10.085
 2357SOL     OW 7966   1.466   2.452  10.302
 2357SOL    HW1 7967   1.436   2.357  10.309
 2357SOL    HW2 7968   1.539   2.468  10.368
 2358SOL     OW 7969   1.857   2.695   9.687
 2358SOL    HW1 7970   1.899   2.631   9.751
 2358SOL    HW2 7971   1.819   2.644   9.609
 2359SOL     OW 7972   0.488   3.247   9.484
 2359SOL    HW1 7973   0.401   3.232   9.531
 2359SOL    HW2 7974   0.471   3.273   9.389
 2360SOL     OW 7975   1.664   3.142   9.967
 2360SOL    HW1 7976   1.763   3.150   9.981
 2360SOL    HW2 7977   1.619   3.226   9.998
 2361SOL     OW 7978   1.390   2.437   9.388
 2361SOL    HW1 7979   1.336   2.416   9.469
 2361SOL    HW2 7980   1.481   2.396   9.397
 2362SOL     OW 7981   0.527   2.118   9.638
 2362SOL    HW1 7982   0.554   2.059   9.563
 2362SOL    HW2 7983   0.527   2.213   9.607
 2363SOL     OW 7984   1.754   3.085  10.898
 2363SOL    HW1 7985   1.845   3.046  10.885
 2363SOL    HW2 7986   1.762   3.181  10.922
 2364SOL     OW 7987   1.064   3.209  10.650
 2364SOL    HW1 7988   0.984   3.186  10.705
 2364SOL    HW2 7989   1.147   3.183  10.699
 2365SOL     OW 7990   1.111   3.057  10.410
 2365SOL    HW1 7991   1.071   3.101  10.491
 2365SOL    HW2 7992   1.070   3.094  10.327
 2366SOL     OW 7993   1.638   2.961  10.389
 2366SOL    HW1 7994   1.643   3.042  10.448
 2366SOL    HW2 7995   1.552   2.963  10.338
 2367SOL     OW 7996   0.915   1.951  10.712
 2367SOL    HW1 7997   0.940   1.931  10.617
 2367SOL    HW2 7998   0.987   2.007  10.754
 2368SOL     OW 7999   0.705   2.912   9.678
 2368SOL    HW1 8000   0.691   2.919   9.777
 2368SOL    HW2 8001   0.789   2.861   9.660
 2369SOL     OW 8002   0.410   2.675  10.561
 2369SOL    HW1 8003   0.496   2.687  10.611
 2369SOL    HW2 8004   0.368   2.588  10.588
 2370SOL     OW 8005   1.274   2.248  10.572
 2370SOL    HW1 8006   1.295   2.322  10.636
 2370SOL    HW2 8007   1.185   2.265  10.529
 2371SOL     OW 8008   0.064   3.426  10.641
 2371SOL    HW1 8009   0.018   3.508  10.607
 2371SOL    HW2 8010   0.162   3.445  10.650
 2372SOL     OW 8011   0.367   2.962   9.811
 2372SOL    HW1 8012   0.360   3.045   9.755
 2372SOL    HW2 8013   0.371   2.882   9.751
 2373SOL     OW 8014   0.566   2.399  10.175
 2373SOL    HW1 8015   0.578   2.465  10.101
 2373SOL    HW2 8016   0.612   2.433  10.258
 2374SOL     OW 8017   1.252   3.210   9.698
 2374SOL    HW1 8018   1.302   3.287   9.738
 2374SOL    HW2 8019   1.157   3.212   9.730
 2375SOL     OW 8020   1.272   3.307  10.452
 2375SOL    HW1 8021   1.319   3.320  10.539
 2375SOL    HW2 8022   1.206   3.233  10.461
 2376SOL     OW 8023   1.582   2.501   9.782
 2376SOL    HW1 8024   1.551   2.562   9.855
 2376SOL    HW2 8025   1.632   2.553   9.713
 2377SOL     OW 8026   0.354   3.372  10.639
 2377SOL    HW1 8027   0.333   3.328  10.552
 2377SOL    HW2 8028   0.451   3.398  10.642
 2378SOL     OW 8029   0.402   2.613  10.908
 2378SOL    HW1 8030   0.470   2.668  10.861
 2378SOL    HW2 8031   0.442   2.525  10.935
 2379SOL     OW 8032   1.587   2.641  10.980
 2379SOL    HW1 8033   1.495   2.679  10.975
 2379SOL    HW2 8034   1.647   2.688  10.915
 2380SOL     OW 8035   0.573   2.732  10.339
 2380SOL    HW1 8036   0.617   2.821  10.330
 2380SOL    HW2 8037   0.510   2.732  10.416
 2381SOL     OW 8038   1.360   2.724  10.355
 2381SOL    HW1 8039   1.285   2.724  10.289
 2381SOL    HW2 8040   1.397   2.632  10.364
 2382SOL     OW 8041   1.209   2.387   9.585
 2382SOL    HW1 8042   1.222   2.303   9.639
 2382SOL    HW2 8043   1.180   2.461   9.645
 2383SOL     OW 8044   0.307   2.075  10.541
 2383SOL    HW1 8045   0.284   2.112  10.631
 2383SOL    HW2 8046   0.277   1.980  10.535
 2384SOL     OW 8047   0.037   3.172  10.592
 2384SOL    HW1 8048   0.090   3.123  10.660
 2384SOL    HW2 8049   0.059   3.270  10.597
 2385SOL     OW 8050   0.732   2.496  10.374
 2385SOL    HW1 8051   0.791   2.470  10.298
 2385SOL    HW2 8052   0.704   2.592  10.363
 2386SOL     OW 8053   0.307   1.925   9.928
 2386SOL    HW1 8054   0.296   2.019   9.961
 2386SOL    HW2 8055   0.302   1.862  10.005
 2387SOL     OW 8056   1.622   2.229   9.684
 2387SOL    HW1 8057   1.624   2.153   9.748
 2387SOL    HW2 8058   1.574   2.306   9.724
 2388SOL     OW 8059   1.023   2.628  10.276
 2388SOL    HW1 8060   1.038   2.649  10.372
 2388SOL    HW2 8061   0.993   2.533  10.267
 2389SOL     OW 8062   0.980   3.435  11.010
 2389SOL    HW1 8063   0.960   3.479  10.922
 2389SOL    HW2 8064   1.019   3.344  10.994
 2390SOL     OW 8065   1.859   3.380  10.915
 2390SOL    HW1 8066   1.873   3.407  10.820
 2390SOL    HW2 8067   1.942   3.402  10.968
 2391SOL     OW 8068   0.350   2.760  11.114
 2391SOL    HW1 8069   0.426   2.804  11.162
 2391SOL    HW2 8070   0.385   2.713  11.032
 2392SOL     OW 8071   1.540   2.136   9.435
 2392SOL    HW1 8072   1.479   2.061   9.458
 2392SOL    HW2 8073   1.562   2.188   9.518
 2393SOL     OW 8074   1.303   2.700   9.352
 2393SOL    HW1 8075   1.337   2.607   9.367
 2393SOL    HW2 8076   1.321   2.727   9.257
 2394SOL     OW 8077   1.068   3.195  10.159
 2394SOL    HW1 8078   1.075   3.111  10.104
 2394SOL    HW2 8079   1.130   3.264  10.123
 2395SOL     OW 8080   0.319   2.672  10.259
 2395SOL    HW1 8081   0.412   2.708  10.264
 2395SOL    HW2 8082   0.313   2.587  10.311
 2396SOL     OW 8083   0.339   2.371  10.316
 2396SOL    HW1 8084   0.287   2.288  10.299
 2396SOL    HW2 8085   0.416   2.376  10.252
 2397SOL     OW 8086   1.160   2.069  10.787
 2397SOL    HW1 8087   1.160   2.133  10.864
 2397SOL    HW2 8088   1.188   2.117  10.704
 2398SOL     OW 8089   0.008   3.188   9.510
 2398SOL    HW1 8090  -0.085   3.209   9.479
 2398SOL    HW2 8091   0.018   3.089   9.523
 2399SOL     OW 8092   0.088   3.663  10.237
 2399SOL    HW1 8093   0.046   3.577  10.210
 2399SOL    HW2 8094   0.182   3.666  10.203
 2400SOL     OW 8095   0.504   3.430  10.220
 2400SOL    HW1 8096   0.570   3.504  10.229
 2400SOL    HW2 8097   0.548   3.351  10.178
 2401SOL     OW 8098   1.002   2.658  10.548
 2401SOL    HW1 8099   1.043   2.626  10.634
 2401SOL    HW2 8100   0.906   2.631  10.545
 2402SOL     OW 8101   0.040   2.406  10.424
 2402SOL    HW1 8102   0.125   2.373  10.383
 2402SOL    HW2 8103   0.053   2.421  10.522
 2403SOL     OW 8104   0.815   2.434   9.635
 2403SOL    HW1 8105   0.822   2.345   9.589
 2403SOL    HW2 8106   0.721   2.468   9.627
 2404SOL     OW 8107   1.657   2.466  10.516
 2404SOL    HW1 8108   1.619   2.397  10.578
 2404SOL    HW2 8109   1.739   2.430  10.472
 2405SOL     OW 8110   0.252   3.426  11.054
 2405SOL    HW1 8111   0.222   3.483  11.130
 2405SOL    HW2 8112   0.245   3.329  11.080
 2406SOL     OW 8113   0.671   2.326  10.579
 2406SOL    HW1 8114   0.637   2.237  10.549
 2406SOL    HW2 8115   0.697   2.380  10.499
 2407SOL     OW 8116   0.930   3.540  10.775
 2407SOL    HW1 8117   0.906   3.522  10.680
 2407SOL    HW2 8118   0.960   3.634  10.785
 2408SOL     OW 8119   0.473   2.362   9.501
 2408SOL    HW1 8120   0.534   2.442   9.505
 2408SOL    HW2 8121   0.378   2.393   9.508
 2409SOL     OW 8122   0.159   2.999  10.776
 2409SOL    HW1 8123   0.181   2.938  10.852
 2409SOL    HW2 8124   0.169   2.950  10.690
 2410SOL     OW 8125   1.347   2.921  10.544
 2410SOL    HW1 8126   1.371   2.858  10.470
 2410SOL    HW2 8127   1.257   2.961  10.526
 2411SOL     OW 8128   1.302   2.717   9.619
 2411SOL    HW1 8129   1.216   2.686   9.661
 2411SOL    HW2 8130   1.298   2.703   9.520
 2412SOL     OW 8131   1.759   3.609  10.464
 2412SOL    HW1 8132   1.820   3.639  10.391
 2412SOL    HW2 8133   1.721   3.520  10.442
 2413SOL     OW 8134   1.252   3.593  10.438
 2413SOL    HW1 8135   1.336   3.598  10.384
 2413SOL    HW2 8136   1.229   3.497  10.456
 2414SOL     OW 8137   0.083   3.120  10.332
 2414SOL    HW1 8138   0.078   3.119  10.432
 2414SOL    HW2 8139   0.000   3.079  10.294
 2415SOL     OW 8140   1.726   1.997   9.833
 2415SOL    HW1 8141   1.799   1.980   9.766
 2415SOL    HW2 8142   1.695   1.910   9.871
 2416SOL     OW 8143   1.388   3.435   9.787
 2416SOL    HW1 8144   1.455   3.447   9.713
 2416SOL    HW2 8145   1.348   3.524   9.810
 2417SOL     OW 8146   1.280   2.789   9.982
 2417SOL    HW1 8147   1.340   2.708   9.984
 2417SOL    HW2 8148   1.320   2.858   9.922
 2418SOL     OW 8149   0.830   3.135  10.732
 2418SOL    HW1 8150   0.825   3.168  10.827
 2418SOL    HW2 8151   0.744   3.154  10.686
 2419SOL     OW 8152   0.672   3.478   9.464
 2419SOL    HW1 8153   0.681   3.488   9.365
 2419SOL    HW2 8154   0.632   3.389   9.485
 2420SOL     OW 8155   1.650   3.582  10.704
 2420SOL    HW1 8156   1.703   3.592  10.620
 2420SOL    HW2 8157   1.623   3.672  10.738
 2421SOL     OW 8158   1.841   2.037  10.273
 2421SOL    HW1 8159   1.880   1.952  10.237
 2421SOL    HW2 8160   1.743   2.039  10.254
 2422SOL     OW 8161   0.263   2.188  10.030
 2422SOL    HW1 8162   0.184   2.239   9.996
 2422SOL    HW2 8163   0.254   2.173  10.128
 2423SOL     OW 8164   1.194   3.474   9.341
 2423SOL    HW1 8165   1.200   3.381   9.378
 2423SOL    HW2 8166   1.135   3.474   9.261
 2424SOL     OW 8167   0.822   2.864  10.682
 2424SOL    HW1 8168   0.862   2.863  10.590
 2424SOL    HW2 8169   0.832   2.956  10.722
 2425SOL     OW 8170   0.916   2.772   9.601
 2425SOL    HW1 8171   0.979   2.810   9.533
 2425SOL    HW2 8172   0.956   2.689   9.640
 2426SOL     OW 8173   1.504   3.469   9.354
 2426SOL    HW1 8174   1.412   3.506   9.361
 2426SOL    HW2 8175   1.542   3.489   9.264
 2427SOL     OW 8176   0.372   3.150  10.800
 2427SOL    HW1 8177   0.359   3.243  10.766
 2427SOL    HW2 8178   0.288   3.098  10.787
 2428SOL     OW 8179   1.614   3.154  10.599
 2428SOL    HW1 8180   1.674   3.157  10.679
 2428SOL    HW2 8181   1.539   3.218  10.612
 2429SOL     OW 8182   1.039   2.960  10.006
 2429SOL    HW1 8183   0.969   2.913  10.060
 2429SOL    HW2 8184   1.098   2.892   9.963
 2430SOL     OW 8185   1.014   2.098  10.281
 2430SOL    HW1 8186   1.006   2.062  10.188
 2430SOL    HW2 8187   1.012   2.022  10.346
 2431SOL     OW 8188   0.590   3.349   9.801
 2431SOL    HW1 8189   0.632   3.291   9.731
 2431SOL    HW2 8190   0.546   3.428   9.757
 2432SOL     OW 8191   1.709   2.247  10.691
 2432SOL    HW1 8192   1.782   2.316  10.695
 2432SOL    HW2 8193   1.737   2.172  10.632
 2433SOL     OW 8194   0.255   3.210   9.600
 2433SOL    HW1 8195   0.159   3.211   9.573
 2433SOL    HW2 8196   0.267   3.263   9.684
 2434SOL     OW 8197   0.105   2.875  11.036
 2434SOL    HW1 8198   0.028   2.842  11.090
 2434SOL    HW2 8199   0.190   2.845  11.078
 2435SOL     OW 8200   0.672   2.065  10.799
 2435SOL    HW1 8201   0.762   2.049  10.759
 2435SOL    HW2 8202   0.680   2.070  10.898
 2436SOL     OW 8203   0.075   2.207   9.343
 2436SOL    HW1 8204  -0.017   2.179   9.314
 2436SOL    HW2 8205   0.106   2.284   9.287
 2437SOL     OW 8206   1.440   2.718  10.708
 2437SOL    HW1 8207   1.383   2.770  10.645
 2437SOL    HW2 8208   1.536   2.730  10.684
 2438SOL     OW 8209   0.072   2.028   9.628
 2438SOL    HW1 8210   0.055   2.111   9.574
 2438SOL    HW2 8211   0.162   1.991   9.606
 2439SOL     OW 8212   1.183   3.197   9.429
 2439SOL    HW1 8213   1.084   3.186   9.431
 2439SOL    HW2 8214   1.217   3.212   9.522
 2440SOL     OW 8215   0.613   2.704  10.741
 2440SOL    HW1 8216   0.669   2.785  10.724
 2440SOL    HW2 8217   0.672   2.624  10.744
 2441SOL     OW 8218   1.493   3.629  10.269
 2441SOL    HW1 8219   1.526   3.693  10.200
 2441SOL    HW2 8220   1.559   3.623  10.344
 2442SOL     OW 8221   0.716   2.427  11.018
 2442SOL    HW1 8222   0.735   2.492  11.092
 2442SOL    HW2 8223   0.776   2.347  11.027
 2443SOL     OW 8224   0.390   3.603  10.870
 2443SOL    HW1 8225   0.299   3.644  10.868
 2443SOL    HW2 8226   0.383   3.509  10.902
 2444SOL     OW 8227   1.674   2.745  10.564
 2444SOL    HW1 8228   1.647   2.656  10.527
 2444SOL    HW2 8229   1.675   2.813  10.491
 2445SOL     OW 8230   1.225   2.187   9.759
 2445SOL    HW1 8231   1.290   2.113   9.748
 2445SOL    HW2 8232   1.245   2.237   9.843
 2446SOL     OW 8233   0.594   2.607   9.962
 2446SOL    HW1 8234   0.644   2.692   9.943
 2446SOL    HW2 8235   0.506   2.609   9.914
 2447SOL     OW 8236   1.777   2.204  10.952
 2447SOL    HW1 8237   1.760   2.235  10.858
 2447SOL    HW2 8238   1.693   2.167  10.990
 2448SOL     OW 8239   1.730   2.796  10.827
 2448SOL    HW1 8240   1.768   2.887  10.842
 2448SOL    HW2 8241   1.722   2.779  10.728
 2449SOL     OW 8242   0.859   3.236   9.326
 2449SOL    HW1 8243   0.813   3.251   9.414
 2449SOL    HW2 8244   0.903   3.321   9.296
 2450SOL     OW 8245   0.661   3.652  10.263
 2450SOL    HW1 8246   0.615   3.740  10.250
 2450SOL    HW2 8247   0.760   3.664  10.256
 2451SOL     OW 8248   0.859   2.818  10.171
 2451SOL    HW1 8249   0.913   2.749  10.219
 2451SOL    HW2 8250   0.827   2.887  10.237
 2452SOL     OW 8251   1.083   2.846   9.397
 2452SOL    HW1 8252   1.060   2.899   9.315
 2452SOL    HW2 8253   1.164   2.790   9.378
 2453SOL     OW 8254   1.861   3.431  10.161
 2453SOL    HW1 8255   1.790   3.419  10.091
 2453SOL    HW2 8256   1.862   3.352  10.221
 2454SOL     OW 8257   0.079   3.102   9.963
 2454SOL    HW1 8258   0.078   3.055  10.051
 2454SOL    HW2 8259   0.161   3.074   9.912
 2455SOL     OW 8260   0.672   3.253  10.934
 2455SOL    HW1 8261   0.594   3.203  10.972
 2455SOL    HW2 8262   0.669   3.348  10.965
 2456SOL     OW 8263   1.824   2.054  10.537
 2456SOL    HW1 8264   1.820   1.964  10.581
 2456SOL    HW2 8265   1.827   2.043  10.438
 2457SOL     OW 8266   0.428   2.286   9.830
 2457SOL    HW1 8267   0.458   2.214   9.768
 2457SOL    HW2 8268   0.389   2.246   9.913
 2458SOL     OW 8269   1.705   3.349  10.414
 2458SOL    HW1 8270   1.612   3.324  10.387
 2458SOL    HW2 8271   1.731   3.299  10.496
 2459SOL     OW 8272   0.317   2.409  10.590
 2459SOL    HW1 8273   0.355   2.350  10.662
 2459SOL    HW2 8274   0.357   2.383  10.502
 2460SOL     OW 8275   0.812   3.448   9.997
 2460SOL    HW1 8276   0.844   3.458   9.903
 2460SOL    HW2 8277   0.733   3.386   9.999
 2461SOL     OW 8278   1.424   2.076  10.422
 2461SOL    HW1 8279   1.476   2.011  10.477
 2461SOL    HW2 8280   1.375   2.139  10.483
 2462SOL     OW 8281   1.001   1.896  10.464
 2462SOL    HW1 8282   0.938   1.824  10.433
 2462SOL    HW2 8283   1.094   1.860  10.464
 2463SOL     OW 8284   0.770   3.192   9.611
 2463SOL    HW1 8285   0.724   3.105   9.628
 2463SOL    HW2 8286   0.861   3.189   9.652
 2464SOL     OW 8287   0.618   3.429  10.594
 2464SOL    HW1 8288   0.613   3.511  10.651
 2464SOL    HW2 8289   0.707   3.426  10.549
 2465SOL     OW 8290   1.352   1.914   9.478
 2465SOL    HW1 8291   1.387   1.873   9.394
 2465SOL    HW2 8292   1.262   1.876   9.498
 2466SOL     OW 8293   1.300   2.315  10.001
 2466SOL    HW1 8294   1.241   2.395  10.005
 2466SOL    HW2 8295   1.315   2.280  10.094
 2467SOL     OW 8296   1.593   2.083  10.192
 2467SOL    HW1 8297   1.509   2.082  10.246
 2467SOL    HW2 8298   1.595   2.166  10.136
 2468SOL     OW 8299   0.039   2.939   9.610
 2468SOL    HW1 8300   0.138   2.928   9.601
 2468SOL    HW2 8301  -0.001   2.853   9.642
 2469SOL     OW 8302   0.875   3.508   9.647
 2469SOL    HW1 8303   0.798   3.473   9.593
 2469SOL    HW2 8304   0.843   3.579   9.709
 2470SOL     OW 8305   0.230   4.352   0.113
 2470SOL    HW1 8306   0.137   4.350   0.150
 2470SOL    HW2 8307   0.231   4.313   0.021
 2471SOL     OW 8308   0.225   3.999   0.996
 2471SOL    HW1 8309   0.260   3.982   1.088
 2471SOL    HW2 8310   0.137   3.954   0.984
 2472SOL     OW 8311   0.019   4.092   0.647
 2472SOL    HW1 8312  -0.063   4.135   0.686
 2472SOL    HW2 8313  -0.009   4.019   0.584
 2473SOL     OW 8314   1.755   4.331   0.231
 2473SOL    HW1 8315   1.743   4.318   0.132
 2473SOL    HW2 8316   1.725   4.250   0.280
 2474SOL     OW 8317   0.685   4.736   0.665
 2474SOL    HW1 8318   0.754   4.720   0.735
 2474SOL    HW2 8319   0.612   4.793   0.703
 2475SOL     OW 8320   0.438   4.116   1.499
 2475SOL    HW1 8321   0.520   4.060   1.508
 2475SOL    HW2 8322   0.357   4.058   1.503
 2476SOL     OW 8323   1.603   4.171   0.737
 2476SOL    HW1 8324   1.529   4.217   0.687
 2476SOL    HW2 8325   1.654   4.239   0.790
 2477SOL     OW 8326   1.594   3.838   1.480
 2477SOL    HW1 8327   1.576   3.905   1.408
 2477SOL    HW2 8328   1.591   3.884   1.569
 2478SOL     OW 8329   0.122   4.367   0.563
 2478SOL    HW1 8330   0.077   4.279   0.580
 2478SOL    HW2 8331   0.121   4.421   0.647
 2479SOL     OW 8332   0.113   4.461   1.597
 2479SOL    HW1 8333   0.201   4.448   1.642
 2479SOL    HW2 8334   0.100   4.558   1.575
 2480SOL     OW 8335   0.809   3.728   0.502
 2480SOL    HW1 8336   0.849   3.819   0.493
 2480SOL    HW2 8337   0.709   3.736   0.508
 2481SOL     OW 8338   0.317   3.975   1.801
 2481SOL    HW1 8339   0.388   4.046   1.807
 2481SOL    HW2 8340   0.229   4.014   1.829
 2482SOL     OW 8341   1.281   4.069   0.944
 2482SOL    HW1 8342   1.195   4.019   0.931
 2482SOL    HW2 8343   1.343   4.015   1.000
 2483SOL     OW 8344   0.807   4.329   1.465
 2483SOL    HW1 8345   0.760   4.326   1.554
 2483SOL    HW2 8346   0.756   4.274   1.399
 2484SOL     OW 8347   1.394   4.193   1.674
 2484SOL    HW1 8348   1.374   4.236   1.762
 2484SOL    HW2 8349   1.472   4.131   1.683
 2485SOL     OW 8350   0.991   4.134   1.242
 2485SOL    HW1 8351   0.914   4.168   1.296
 2485SOL    HW2 8352   0.957   4.083   1.163
 2486SOL     OW 8353   1.041   4.425   0.429
 2486SOL    HW1 8354   1.067   4.421   0.525
 2486SOL    HW2 8355   0.956   4.374   0.415
 2487SOL     OW 8356   0.076   4.535   0.789
 2487SOL    HW1 8357   0.175   4.523   0.798
 2487SOL    HW2 8358   0.052   4.630   0.810
 2488SOL     OW 8359   0.865   4.072   0.195
 2488SOL    HW1 8360   0.924   4.135   0.146
 2488SOL    HW2 8361   0.884   3.978   0.166
 2489SOL     OW 8362   1.719   4.309   1.831
 2489SOL    HW1 8363   1.693   4.398   1.795
 2489SOL    HW2 8364   1.717   4.241   1.758
 2490SOL     OW 8365   0.550   3.920   0.885
 2490SOL    HW1 8366   0.545   3.915   0.985
 2490SOL    HW2 8367   0.552   4.016   0.856
 2491SOL     OW 8368   1.458   4.459   0.728
 2491SOL    HW1 8369   1.453   4.394   0.803
 2491SOL    HW2 8370   1.538   4.518   0.741
 2492SOL     OW 8371   0.202   4.009   1.498
 2492SOL    HW1 8372   0.122   4.069   1.485
 2492SOL    HW2 8373   0.192   3.960   1.584
 2493SOL     OW 8374   1.400   3.831   0.426
 2493SOL    HW1 8375   1.376   3.794   0.336
 2493SOL    HW2 8376   1.499   3.847   0.430
 2494SOL     OW 8377   0.382   4.424   0.480
 2494SOL    HW1 8378   0.427   4.334   0.477
 2494SOL    HW2 8379   0.288   4.413   0.513
 2495SOL     OW 8380   1.547   3.946   1.729
 2495SOL    HW1 8381   1.542   3.983   1.821
 2495SOL    HW2 8382   1.475   3.877   1.717
 2496SOL     OW 8383   0.614   3.846   0.117
 2496SOL    HW1 8384   0.712   3.824   0.124
 2496SOL    HW2 8385   0.583   3.829   0.024
 2497SOL     OW 8386   0.781   3.988   1.749
 2497SOL    HW1 8387   0.848   3.927   1.792
 2497SOL    HW2 8388   0.708   4.007   1.814
 2498SOL     OW 8389   1.351   4.314   1.433
 2498SOL    HW1 8390   1.379   4.271   1.518
 2498SOL    HW2 8391   1.376   4.410   1.434
 2499SOL     OW 8392   0.922   4.227   0.899
 2499SOL    HW1 8393   0.897   4.218   0.803
 2499SOL    HW2 8394   0.970   4.145   0.930
 2500SOL     OW 8395   0.539   3.788   0.512
 2500SOL    HW1 8396   0.458   3.789   0.570
 2500SOL    HW2 8397   0.542   3.871   0.457
 2501SOL     OW 8398   0.297   3.759   0.171
 2501SOL    HW1 8399   0.346   3.843   0.150
 2501SOL    HW2 8400   0.359   3.694   0.216
 2502SOL     OW 8401   0.935   3.960   0.480
 2502SOL    HW1 8402   0.887   4.001   0.402
 2502SOL    HW2 8403   1.034   3.958   0.461
 2503SOL     OW 8404   1.076   4.407   1.464
 2503SOL    HW1 8405   0.996   4.346   1.467
 2503SOL    HW2 8406   1.157   4.354   1.440
 2504SOL     OW 8407   1.032   4.273   0.016
 2504SOL    HW1 8408   0.991   4.355  -0.023
 2504SOL    HW2 8409   1.096   4.299   0.089
 2505SOL     OW 8410   0.078   4.280   1.386
 2505SOL    HW1 8411   0.170   4.279   1.345
 2505SOL    HW2 8412   0.072   4.354   1.453
 2506SOL     OW 8413   0.561   3.946   1.147
 2506SOL    HW1 8414   0.599   3.862   1.184
 2506SOL    HW2 8415   0.473   3.965   1.191
 2507SOL     OW 8416   0.866   4.178   0.642
 2507SOL    HW1 8417   0.834   4.250   0.580
 2507SOL    HW2 8418   0.890   4.097   0.589
 2508SOL     OW 8419   1.017   3.763   0.753
 2508SOL    HW1 8420   0.945   3.768   0.684
 2508SOL    HW2 8421   0.993   3.694   0.822
 2509SOL     OW 8422   1.466   4.314   0.992
 2509SOL    HW1 8423   1.436   4.219   0.999
 2509SOL    HW2 8424   1.539   4.330   1.058
 2510SOL     OW 8425   1.390   4.299   0.078
 2510SOL    HW1 8426   1.336   4.278   0.159
 2510SOL    HW2 8427   1.481   4.258   0.087
 2511SOL     OW 8428   0.527   3.980   0.328
 2511SOL    HW1 8429   0.554   3.921   0.253
 2511SOL    HW2 8430   0.527   4.075   0.297
 2512SOL     OW 8431   0.915   3.813   1.402
 2512SOL    HW1 8432   0.940   3.793   1.307
 2512SOL    HW2 8433   0.987   3.869   1.444
 2513SOL     OW 8434   0.410   4.537   1.251
 2513SOL    HW1 8435   0.496   4.549   1.301
 2513SOL    HW2 8436   0.368   4.450   1.278
 2514SOL     OW 8437   1.274   4.110   1.262
 2514SOL    HW1 8438   1.295   4.184   1.326
 2514SOL    HW2 8439   1.185   4.127   1.219
 2515SOL     OW 8440   0.566   4.261   0.865
 2515SOL    HW1 8441   0.578   4.327   0.791
 2515SOL    HW2 8442   0.612   4.295   0.948
 2516SOL     OW 8443   1.582   4.363   0.472
 2516SOL    HW1 8444   1.551   4.424   0.545
 2516SOL    HW2 8445   1.632   4.415   0.403
 2517SOL     OW 8446   1.013   3.829   1.770
 2517SOL    HW1 8447   1.019   3.914   1.718
 2517SOL    HW2 8448   1.045   3.753   1.713
 2518SOL     OW 8449   0.504   3.774   1.740
 2518SOL    HW1 8450   0.462   3.717   1.670
 2518SOL    HW2 8451   0.438   3.843   1.772
 2519SOL     OW 8452   1.209   4.249   0.275
 2519SOL    HW1 8453   1.222   4.165   0.329
 2519SOL    HW2 8454   1.180   4.323   0.335
 2520SOL     OW 8455   0.307   3.937   1.231
 2520SOL    HW1 8456   0.284   3.974   1.321
 2520SOL    HW2 8457   0.277   3.842   1.225
 2521SOL     OW 8458   0.732   4.358   1.064
 2521SOL    HW1 8459   0.791   4.332   0.988
 2521SOL    HW2 8460   0.704   4.454   1.053
 2522SOL     OW 8461   1.728   4.659   1.854
 2522SOL    HW1 8462   1.682   4.652   1.765
 2522SOL    HW2 8463   1.666   4.703   1.920
 2523SOL     OW 8464   0.307   3.787   0.618
 2523SOL    HW1 8465   0.296   3.881   0.651
 2523SOL    HW2 8466   0.302   3.724   0.695
 2524SOL     OW 8467   1.622   4.091   0.374
 2524SOL    HW1 8468   1.624   4.015   0.438
 2524SOL    HW2 8469   1.574   4.168   0.414
 2525SOL     OW 8470   1.540   3.998   0.125
 2525SOL    HW1 8471   1.479   3.923   0.148
 2525SOL    HW2 8472   1.562   4.050   0.208
 2526SOL     OW 8473   0.319   4.534   0.949
 2526SOL    HW1 8474   0.412   4.570   0.954
 2526SOL    HW2 8475   0.313   4.449   1.001
 2527SOL     OW 8476   0.339   4.233   1.006
 2527SOL    HW1 8477   0.287   4.150   0.989
 2527SOL    HW2 8478   0.416   4.238   0.942
 2528SOL     OW 8479   1.138   4.104   1.678
 2528SOL    HW1 8480   1.093   4.167   1.742
 2528SOL    HW2 8481   1.231   4.135   1.661
 2529SOL     OW 8482   1.160   3.931   1.477
 2529SOL    HW1 8483   1.160   3.995   1.554
 2529SOL    HW2 8484   1.188   3.979   1.394
 2530SOL     OW 8485   0.040   4.268   1.114
 2530SOL    HW1 8486   0.125   4.235   1.073
 2530SOL    HW2 8487   0.053   4.283   1.212
 2531SOL     OW 8488   0.189   4.244   1.722
 2531SOL    HW1 8489   0.248   4.204   1.652
 2531SOL    HW2 8490   0.131   4.315   1.681
 2532SOL     OW 8491   0.815   4.296   0.325
 2532SOL    HW1 8492   0.822   4.207   0.279
 2532SOL    HW2 8493   0.721   4.330   0.317
 2533SOL     OW 8494   1.657   4.328   1.206
 2533SOL    HW1 8495   1.619   4.259   1.268
 2533SOL    HW2 8496   1.739   4.292   1.162
 2534SOL     OW 8497   0.671   4.188   1.269
 2534SOL    HW1 8498   0.637   4.099   1.239
 2534SOL    HW2 8499   0.697   4.242   1.189
 2535SOL     OW 8500   0.473   4.224   0.191
 2535SOL    HW1 8501   0.534   4.304   0.195
 2535SOL    HW2 8502   0.378   4.255   0.198
 2536SOL     OW 8503   0.903   3.810   0.133
 2536SOL    HW1 8504   0.954   3.811   0.047
 2536SOL    HW2 8505   0.959   3.768   0.204
 2537SOL     OW 8506   1.726   3.859   0.523
 2537SOL    HW1 8507   1.799   3.842   0.456
 2537SOL    HW2 8508   1.695   3.772   0.561
 2538SOL     OW 8509   1.280   4.651   0.672
 2538SOL    HW1 8510   1.340   4.570   0.674
 2538SOL    HW2 8511   1.320   4.720   0.612
 2539SOL     OW 8512   1.841   3.899   0.963
 2539SOL    HW1 8513   1.880   3.814   0.927
 2539SOL    HW2 8514   1.743   3.901   0.944
 2540SOL     OW 8515   0.263   4.050   0.720
 2540SOL    HW1 8516   0.184   4.101   0.686
 2540SOL    HW2 8517   0.254   4.035   0.818
 2541SOL     OW 8518   1.039   4.822   0.696
 2541SOL    HW1 8519   0.969   4.775   0.750
 2541SOL    HW2 8520   1.098   4.754   0.653
 2542SOL     OW 8521   1.014   3.960   0.971
 2542SOL    HW1 8522   1.006   3.924   0.878
 2542SOL    HW2 8523   1.012   3.884   1.036
 2543SOL     OW 8524   1.709   4.109   1.381
 2543SOL    HW1 8525   1.782   4.178   1.385
 2543SOL    HW2 8526   1.737   4.034   1.322
 2544SOL     OW 8527   0.672   3.927   1.489
 2544SOL    HW1 8528   0.762   3.911   1.449
 2544SOL    HW2 8529   0.680   3.932   1.588
 2545SOL     OW 8530   0.075   4.069   0.033
 2545SOL    HW1 8531  -0.017   4.041   0.004
 2545SOL    HW2 8532   0.106   4.146  -0.023
 2546SOL     OW 8533   0.072   3.890   0.318
 2546SOL    HW1 8534   0.055   3.973   0.264
 2546SOL    HW2 8535   0.162   3.853   0.296
 2547SOL     OW 8536   0.716   4.289   1.708
 2547SOL    HW1 8537   0.735   4.354   1.782
 2547SOL    HW2 8538   0.776   4.209   1.717
 2548SOL     OW 8539   1.225   4.049   0.449
 2548SOL    HW1 8540   1.290   3.975   0.438
 2548SOL    HW2 8541   1.245   4.099   0.533
 2549SOL     OW 8542   1.777   4.066   1.642
 2549SOL    HW1 8543   1.760   4.097   1.548
 2549SOL    HW2 8544   1.693   4.029   1.680
 2550SOL     OW 8545   1.083   4.708   0.087
 2550SOL    HW1 8546   1.060   4.761   0.005
 2550SOL    HW2 8547   1.164   4.652   0.068
 2551SOL     OW 8548   1.824   3.916   1.227
 2551SOL    HW1 8549   1.820   3.826   1.271
 2551SOL    HW2 8550   1.827   3.905   1.128
 2552SOL     OW 8551   0.428   4.148   0.520
 2552SOL    HW1 8552   0.458   4.076   0.458
 2552SOL    HW2 8553   0.389   4.108   0.603
 2553SOL     OW 8554   0.317   4.271   1.280
 2553SOL    HW1 8555   0.355   4.212   1.352
 2553SOL    HW2 8556   0.357   4.245   1.192
 2554SOL     OW 8557   1.424   3.938   1.112
 2554SOL    HW1 8558   1.476   3.873   1.167
 2554SOL    HW2 8559   1.375   4.001   1.173
 2555SOL     OW 8560   1.001   3.758   1.154
 2555SOL    HW1 8561   0.938   3.686   1.123
 2555SOL    HW2 8562   1.094   3.722   1.154
 2556SOL     OW 8563   1.352   3.776   0.168
 2556SOL    HW1 8564   1.387   3.735   0.084
 2556SOL    HW2 8565   1.262   3.738   0.188
 2557SOL     OW 8566   1.300   4.177   0.691
 2557SOL    HW1 8567   1.241   4.257   0.695
 2557SOL    HW2 8568   1.315   4.142   0.784
 2558SOL     OW 8569   1.593   3.945   0.882
 2558SOL    HW1 8570   1.509   3.944   0.936
 2558SOL    HW2 8571   1.595   4.028   0.826
 2559SOL     OW 8572   0.230   4.352   1.975
 2559SOL    HW1 8573   0.137   4.350   2.012
 2559SOL    HW2 8574   0.231   4.313   1.883
 2560SOL     OW 8575   0.225   3.999   2.858
 2560SOL    HW1 8576   0.260   3.982   2.950
 2560SOL    HW2 8577   0.137   3.954   2.846
 2561SOL     OW 8578   0.019   4.092   2.509
 2561SOL    HW1 8579  -0.063   4.135   2.548
 2561SOL    HW2 8580  -0.009   4.019   2.446
 2562SOL     OW 8581   1.755   4.331   2.093
 2562SOL    HW1 8582   1.743   4.318   1.994
 2562SOL    HW2 8583   1.725   4.250   2.142
 2563SOL     OW 8584   0.685   4.736   2.527
 2563SOL    HW1 8585   0.754   4.720   2.597
 2563SOL    HW2 8586   0.612   4.793   2.565
 2564SOL     OW 8587   0.438   4.116   3.361
 2564SOL    HW1 8588   0.520   4.060   3.370
 2564SOL    HW2 8589   0.357   4.058   3.365
 2565SOL     OW 8590   1.603   4.171   2.599
 2565SOL    HW1 8591   1.529   4.217   2.549
 2565SOL    HW2 8592   1.654   4.239   2.652
 2566SOL     OW 8593   1.594   3.838   3.342
 2566SOL    HW1 8594   1.576   3.905   3.270
 2566SOL    HW2 8595   1.591   3.884   3.431
 2567SOL     OW 8596   0.122   4.367   2.425
 2567SOL    HW1 8597   0.077   4.279   2.442
 2567SOL    HW2 8598   0.121   4.421   2.509
 2568SOL     OW 8599   0.113   4.461   3.459
 2568SOL    HW1 8600   0.201   4.448   3.504
 2568SOL    HW2 8601   0.100   4.558   3.437
 2569SOL     OW 8602   0.809   3.728   2.364
 2569SOL    HW1 8603   0.849   3.819   2.355
 2569SOL    HW2 8604   0.709   3.736   2.370
 2570SOL     OW 8605   0.317   3.975   3.663
 2570SOL    HW1 8606   0.388   4.046   3.669
 2570SOL    HW2 8607   0.229   4.014   3.691
 2571SOL     OW 8608   1.281   4.069   2.806
 2571SOL    HW1 8609   1.195   4.019   2.793
 2571SOL    HW2 8610   1.343   4.015   2.862
 2572SOL     OW 8611   0.807   4.329   3.327
 2572SOL    HW1 8612   0.760   4.326   3.416
 2572SOL    HW2 8613   0.756   4.274   3.261
 2573SOL     OW 8614   1.394   4.193   3.536
 2573SOL    HW1 8615   1.374   4.236   3.624
 2573SOL    HW2 8616   1.472   4.131   3.545
 2574SOL     OW 8617   0.991   4.134   3.104
 2574SOL    HW1 8618   0.914   4.168   3.158
 2574SOL    HW2 8619   0.957   4.083   3.025
 2575SOL     OW 8620   1.041   4.425   2.291
 2575SOL    HW1 8621   1.067   4.421   2.387
 2575SOL    HW2 8622   0.956   4.374   2.277
 2576SOL     OW 8623   0.076   4.535   2.651
 2576SOL    HW1 8624   0.175   4.523   2.660
 2576SOL    HW2 8625   0.052   4.630   2.672
 2577SOL     OW 8626   0.865   4.072   2.057
 2577SOL    HW1 8627   0.924   4.135   2.008
 2577SOL    HW2 8628   0.884   3.978   2.028
 2578SOL     OW 8629   1.719   4.309   3.693
 2578SOL    HW1 8630   1.693   4.398   3.657
 2578SOL    HW2 8631   1.717   4.241   3.620
 2579SOL     OW 8632   0.550   3.920   2.747
 2579SOL    HW1 8633   0.545   3.915   2.847
 2579SOL    HW2 8634   0.552   4.016   2.718
 2580SOL     OW 8635   1.458   4.459   2.590
 2580SOL    HW1 8636   1.453   4.394   2.665
 2580SOL    HW2 8637   1.538   4.518   2.603
 2581SOL     OW 8638   0.202   4.009   3.360
 2581SOL    HW1 8639   0.122   4.069   3.347
 2581SOL    HW2 8640   0.192   3.960   3.446
 2582SOL     OW 8641   1.400   3.831   2.288
 2582SOL    HW1 8642   1.376   3.794   2.198
 2582SOL    HW2 8643   1.499   3.847   2.292
 2583SOL     OW 8644   0.382   4.424   2.342
 2583SOL    HW1 8645   0.427   4.334   2.339
 2583SOL    HW2 8646   0.288   4.413   2.375
 2584SOL     OW 8647   1.547   3.946   3.591
 2584SOL    HW1 8648   1.542   3.983   3.683
 2584SOL    HW2 8649   1.475   3.877   3.579
 2585SOL     OW 8650   0.614   3.846   1.979
 2585SOL    HW1 8651   0.712   3.824   1.986
 2585SOL    HW2 8652   0.583   3.829   1.886
 2586SOL     OW 8653   0.781   3.988   3.611
 2586SOL    HW1 8654   0.848   3.927   3.654
 2586SOL    HW2 8655   0.708   4.007   3.676
 2587SOL     OW 8656   1.351   4.314   3.295
 2587SOL    HW1 8657   1.379   4.271   3.380
 2587SOL    HW2 8658   1.376   4.410   3.296
 2588SOL     OW 8659   0.922   4.227   2.761
 2588SOL    HW1 8660   0.897   4.218   2.665
 2588SOL    HW2 8661   0.970   4.145   2.792
 2589SOL     OW 8662   0.539   3.788   2.374
 2589SOL    HW1 8663   0.458   3.789   2.432
 2589SOL    HW2 8664   0.542   3.871   2.319
 2590SOL     OW 8665   0.297   3.759   2.033
 2590SOL    HW1 8666   0.346   3.843   2.012
 2590SOL    HW2 8667   0.359   3.694   2.078
 2591SOL     OW 8668   0.935   3.960   2.342
 2591SOL    HW1 8669   0.887   4.001   2.264
 2591SOL    HW2 8670   1.034   3.958   2.323
 2592SOL     OW 8671   1.076   4.407   3.326
 2592SOL    HW1 8672   0.996   4.346   3.329
 2592SOL    HW2 8673   1.157   4.354   3.302
 2593SOL     OW 8674   1.032   4.273   1.878
 2593SOL    HW1 8675   0.991   4.355   1.839
 2593SOL    HW2 8676   1.096   4.299   1.951
 2594SOL     OW 8677   0.078   4.280   3.248
 2594SOL    HW1 8678   0.170   4.279   3.207
 2594SOL    HW2 8679   0.072   4.354   3.315
 2595SOL     OW 8680   0.561   3.946   3.009
 2595SOL    HW1 8681   0.599   3.862   3.046
 2595SOL    HW2 8682   0.473   3.965   3.053
 2596SOL     OW 8683   0.866   4.178   2.504
 2596SOL    HW1 8684   0.834   4.250   2.442
 2596SOL    HW2 8685   0.890   4.097   2.451
 2597SOL     OW 8686   1.017   3.763   2.615
 2597SOL    HW1 8687   0.945   3.768   2.546
 2597SOL    HW2 8688   0.993   3.694   2.684
 2598SOL     OW 8689   1.466   4.314   2.854
 2598SOL    HW1 8690   1.436   4.219   2.861
 2598SOL    HW2 8691   1.539   4.330   2.920
 2599SOL     OW 8692   1.390   4.299   1.940
 2599SOL    HW1 8693   1.336   4.278   2.021
 2599SOL    HW2 8694   1.481   4.258   1.949
 2600SOL     OW 8695   0.527   3.980   2.190
 2600SOL    HW1 8696   0.554   3.921   2.115
 2600SOL    HW2 8697   0.527   4.075   2.159
 2601SOL     OW 8698   0.915   3.813   3.264
 2601SOL    HW1 8699   0.940   3.793   3.169
 2601SOL    HW2 8700   0.987   3.869   3.306
 2602SOL     OW 8701   0.410   4.537   3.113
 2602SOL    HW1 8702   0.496   4.549   3.163
 2602SOL    HW2 8703   0.368   4.450   3.140
 2603SOL     OW 8704   1.274   4.110   3.124
 2603SOL    HW1 8705   1.295   4.184   3.188
 2603SOL    HW2 8706   1.185   4.127   3.081
 2604SOL     OW 8707   0.566   4.261   2.727
 2604SOL    HW1 8708   0.578   4.327   2.653
 2604SOL    HW2 8709   0.612   4.295   2.810
 2605SOL     OW 8710   1.582   4.363   2.334
 2605SOL    HW1 8711   1.551   4.424   2.407
 2605SOL    HW2 8712   1.632   4.415   2.265
 2606SOL     OW 8713   1.013   3.829   3.632
 2606SOL    HW1 8714   1.019   3.914   3.580
 2606SOL    HW2 8715   1.045   3.753   3.575
 2607SOL     OW 8716   0.504   3.774   3.602
 2607SOL    HW1 8717   0.462   3.717   3.532
 2607SOL    HW2 8718   0.438   3.843   3.634
 2608SOL     OW 8719   1.209   4.249   2.137
 2608SOL    HW1 8720   1.222   4.165   2.191
 2608SOL    HW2 8721   1.180   4.323   2.197
 2609SOL     OW 8722   0.307   3.937   3.093
 2609SOL    HW1 8723   0.284   3.974   3.183
 2609SOL    HW2 8724   0.277   3.842   3.087
 2610SOL     OW 8725   0.732   4.358   2.926
 2610SOL    HW1 8726   0.791   4.332   2.850
 2610SOL    HW2 8727   0.704   4.454   2.915
 2611SOL     OW 8728   1.728   4.659   3.716
 2611SOL    HW1 8729   1.682   4.652   3.627
 2611SOL    HW2 8730   1.666   4.703   3.782
 2612SOL     OW 8731   0.307   3.787   2.480
 2612SOL    HW1 8732   0.296   3.881   2.513
 2612SOL    HW2 8733   0.302   3.724   2.557
 2613SOL     OW 8734   1.622   4.091   2.236
 2613SOL    HW1 8735   1.624   4.015   2.300
 2613SOL    HW2 8736   1.574   4.168   2.276
 2614SOL     OW 8737   1.540   3.998   1.987
 2614SOL    HW1 8738   1.479   3.923   2.010
 2614SOL    HW2 8739   1.562   4.050   2.070
 2615SOL     OW 8740   0.319   4.534   2.811
 2615SOL    HW1 8741   0.412   4.570   2.816
 2615SOL    HW2 8742   0.313   4.449   2.863
 2616SOL     OW 8743   0.339   4.233   2.868
 2616SOL    HW1 8744   0.287   4.150   2.851
 2616SOL    HW2 8745   0.416   4.238   2.804
 2617SOL     OW 8746   1.138   4.104   3.540
 2617SOL    HW1 8747   1.093   4.167   3.604
 2617SOL    HW2 8748   1.231   4.135   3.523
 2618SOL     OW 8749   1.160   3.931   3.339
 2618SOL    HW1 8750   1.160   3.995   3.416
 2618SOL    HW2 8751   1.188   3.979   3.256
 2619SOL     OW 8752   0.040   4.268   2.976
 2619SOL    HW1 8753   0.125   4.235   2.935
 2619SOL    HW2 8754   0.053   4.283   3.074
 2620SOL     OW 8755   0.189   4.244   3.584
 2620SOL    HW1 8756   0.248   4.204   3.514
 2620SOL    HW2 8757   0.131   4.315   3.543
 2621SOL     OW 8758   0.815   4.296   2.187
 2621SOL    HW1 8759   0.822   4.207   2.141
 2621SOL    HW2 8760   0.721   4.330   2.179
 2622SOL     OW 8761   1.657   4.328   3.068
 2622SOL    HW1 8762   1.619   4.259   3.130
 2622SOL    HW2 8763   1.739   4.292   3.024
 2623SOL     OW 8764   0.671   4.188   3.131
 2623SOL    HW1 8765   0.637   4.099   3.101
 2623SOL    HW2 8766   0.697   4.242   3.051
 2624SOL     OW 8767   0.473   4.224   2.053
 2624SOL    HW1 8768   0.534   4.304   2.057
 2624SOL    HW2 8769   0.378   4.255   2.060
 2625SOL     OW 8770   1.726   3.859   2.385
 2625SOL    HW1 8771   1.799   3.842   2.318
 2625SOL    HW2 8772   1.695   3.772   2.423
 2626SOL     OW 8773   1.280   4.651   2.534
 2626SOL    HW1 8774   1.340   4.570   2.536
 2626SOL    HW2 8775   1.320   4.720   2.474
 2627SOL     OW 8776   1.841   3.899   2.825
 2627SOL    HW1 8777   1.880   3.814   2.789
 2627SOL    HW2 8778   1.743   3.901   2.806
 2628SOL     OW 8779   0.263   4.050   2.582
 2628SOL    HW1 8780   0.184   4.101   2.548
 2628SOL    HW2 8781   0.254   4.035   2.680
 2629SOL     OW 8782   0.916   4.634   2.153
 2629SOL    HW1 8783   0.979   4.672   2.085
 2629SOL    HW2 8784   0.956   4.551   2.192
 2630SOL     OW 8785   1.039   4.822   2.558
 2630SOL    HW1 8786   0.969   4.775   2.612
 2630SOL    HW2 8787   1.098   4.754   2.515
 2631SOL     OW 8788   1.014   3.960   2.833
 2631SOL    HW1 8789   1.006   3.924   2.740
 2631SOL    HW2 8790   1.012   3.884   2.898
 2632SOL     OW 8791   1.709   4.109   3.243
 2632SOL    HW1 8792   1.782   4.178   3.247
 2632SOL    HW2 8793   1.737   4.034   3.184
 2633SOL     OW 8794   0.672   3.927   3.351
 2633SOL    HW1 8795   0.762   3.911   3.311
 2633SOL    HW2 8796   0.680   3.932   3.450
 2634SOL     OW 8797   0.075   4.069   1.895
 2634SOL    HW1 8798  -0.017   4.041   1.866
 2634SOL    HW2 8799   0.106   4.146   1.839
 2635SOL     OW 8800   0.072   3.890   2.180
 2635SOL    HW1 8801   0.055   3.973   2.126
 2635SOL    HW2 8802   0.162   3.853   2.158
 2636SOL     OW 8803   0.716   4.289   3.570
 2636SOL    HW1 8804   0.735   4.354   3.644
 2636SOL    HW2 8805   0.776   4.209   3.579
 2637SOL     OW 8806   1.225   4.049   2.311
 2637SOL    HW1 8807   1.290   3.975   2.300
 2637SOL    HW2 8808   1.245   4.099   2.395
 2638SOL     OW 8809   1.777   4.066   3.504
 2638SOL    HW1 8810   1.760   4.097   3.410
 2638SOL    HW2 8811   1.693   4.029   3.542
 2639SOL     OW 8812   1.083   4.708   1.949
 2639SOL    HW1 8813   1.060   4.761   1.867
 2639SOL    HW2 8814   1.164   4.652   1.930
 2640SOL     OW 8815   1.824   3.916   3.089
 2640SOL    HW1 8816   1.820   3.826   3.133
 2640SOL    HW2 8817   1.827   3.905   2.990
 2641SOL     OW 8818   0.428   4.148   2.382
 2641SOL    HW1 8819   0.458   4.076   2.320
 2641SOL    HW2 8820   0.389   4.108   2.465
 2642SOL     OW 8821   0.317   4.271   3.142
 2642SOL    HW1 8822   0.355   4.212   3.214
 2642SOL    HW2 8823   0.357   4.245   3.054
 2643SOL     OW 8824   1.424   3.938   2.974
 2643SOL    HW1 8825   1.476   3.873   3.029
 2643SOL    HW2 8826   1.375   4.001   3.035
 2644SOL     OW 8827   1.001   3.758   3.016
 2644SOL    HW1 8828   0.938   3.686   2.985
 2644SOL    HW2 8829   1.094   3.722   3.016
 2645SOL     OW 8830   1.352   3.776   2.030
 2645SOL    HW1 8831   1.387   3.735   1.946
 2645SOL    HW2 8832   1.262   3.738   2.050
 2646SOL     OW 8833   1.300   4.177   2.553
 2646SOL    HW1 8834   1.241   4.257   2.557
 2646SOL    HW2 8835   1.315   4.142   2.646
 2647SOL     OW 8836   1.593   3.945   2.744
 2647SOL    HW1 8837   1.509   3.944   2.798
 2647SOL    HW2 8838   1.595   4.028   2.688
 2648SOL     OW 8839   0.230   4.352   3.837
 2648SOL    HW1 8840   0.137   4.350   3.874
 2648SOL    HW2 8841   0.231   4.313   3.745
 2649SOL     OW 8842   0.225   3.999   4.720
 2649SOL    HW1 8843   0.260   3.982   4.812
 2649SOL    HW2 8844   0.137   3.954   4.708
 2650SOL     OW 8845   0.019   4.092   4.371
 2650SOL    HW1 8846  -0.063   4.135   4.410
 2650SOL    HW2 8847  -0.009   4.019   4.308
 2651SOL     OW 8848   1.755   4.331   3.955
 2651SOL    HW1 8849   1.743   4.318   3.856
 2651SOL    HW2 8850   1.725   4.250   4.004
 2652SOL     OW 8851   0.685   4.736   4.389
 2652SOL    HW1 8852   0.754   4.720   4.459
 2652SOL    HW2 8853   0.612   4.793   4.427
 2653SOL     OW 8854   0.438   4.116   5.223
 2653SOL    HW1 8855   0.520   4.060   5.232
 2653SOL    HW2 8856   0.357   4.058   5.227
 2654SOL     OW 8857   1.603   4.171   4.461
 2654SOL    HW1 8858   1.529   4.217   4.411
 2654SOL    HW2 8859   1.654   4.239   4.514
 2655SOL     OW 8860   1.594   3.838   5.204
 2655SOL    HW1 8861   1.576   3.905   5.132
 2655SOL    HW2 8862   1.591   3.884   5.293
 2656SOL     OW 8863   0.122   4.367   4.287
 2656SOL    HW1 8864   0.077   4.279   4.304
 2656SOL    HW2 8865   0.121   4.421   4.371
 2657SOL     OW 8866   0.113   4.461   5.321
 2657SOL    HW1 8867   0.201   4.448   5.366
 2657SOL    HW2 8868   0.100   4.558   5.299
 2658SOL     OW 8869   0.809   3.728   4.226
 2658SOL    HW1 8870   0.849   3.819   4.217
 2658SOL    HW2 8871   0.709   3.736   4.232
 2659SOL     OW 8872   0.317   3.975   5.525
 2659SOL    HW1 8873   0.388   4.046   5.531
 2659SOL    HW2 8874   0.229   4.014   5.553
 2660SOL     OW 8875   1.281   4.069   4.668
 2660SOL    HW1 8876   1.195   4.019   4.655
 2660SOL    HW2 8877   1.343   4.015   4.724
 2661SOL     OW 8878   0.807   4.329   5.189
 2661SOL    HW1 8879   0.760   4.326   5.278
 2661SOL    HW2 8880   0.756   4.274   5.123
 2662SOL     OW 8881   1.394   4.193   5.398
 2662SOL    HW1 8882   1.374   4.236   5.486
 2662SOL    HW2 8883   1.472   4.131   5.407
 2663SOL     OW 8884   0.991   4.134   4.966
 2663SOL    HW1 8885   0.914   4.168   5.020
 2663SOL    HW2 8886   0.957   4.083   4.887
 2664SOL     OW 8887   1.041   4.425   4.153
 2664SOL    HW1 8888   1.067   4.421   4.249
 2664SOL    HW2 8889   0.956   4.374   4.139
 2665SOL     OW 8890   0.076   4.535   4.513
 2665SOL    HW1 8891   0.175   4.523   4.522
 2665SOL    HW2 8892   0.052   4.630   4.534
 2666SOL     OW 8893   0.865   4.072   3.919
 2666SOL    HW1 8894   0.924   4.135   3.870
 2666SOL    HW2 8895   0.884   3.978   3.890
 2667SOL     OW 8896   1.719   4.309   5.555
 2667SOL    HW1 8897   1.693   4.398   5.519
 2667SOL    HW2 8898   1.717   4.241   5.482
 2668SOL     OW 8899   0.550   3.920   4.609
 2668SOL    HW1 8900   0.545   3.915   4.709
 2668SOL    HW2 8901   0.552   4.016   4.580
 2669SOL     OW 8902   1.458   4.459   4.452
 2669SOL    HW1 8903   1.453   4.394   4.527
 2669SOL    HW2 8904   1.538   4.518   4.465
 2670SOL     OW 8905   0.202   4.009   5.222
 2670SOL    HW1 8906   0.122   4.069   5.209
 2670SOL    HW2 8907   0.192   3.960   5.308
 2671SOL     OW 8908   1.400   3.831   4.150
 2671SOL    HW1 8909   1.376   3.794   4.060
 2671SOL    HW2 8910   1.499   3.847   4.154
 2672SOL     OW 8911   0.382   4.424   4.204
 2672SOL    HW1 8912   0.427   4.334   4.201
 2672SOL    HW2 8913   0.288   4.413   4.237
 2673SOL     OW 8914   1.547   3.946   5.453
 2673SOL    HW1 8915   1.542   3.983   5.545
 2673SOL    HW2 8916   1.475   3.877   5.441
 2674SOL     OW 8917   0.614   3.846   3.841
 2674SOL    HW1 8918   0.712   3.824   3.848
 2674SOL    HW2 8919   0.583   3.829   3.748
 2675SOL     OW 8920   0.781   3.988   5.473
 2675SOL    HW1 8921   0.848   3.927   5.516
 2675SOL    HW2 8922   0.708   4.007   5.538
 2676SOL     OW 8923   1.351   4.314   5.157
 2676SOL    HW1 8924   1.379   4.271   5.242
 2676SOL    HW2 8925   1.376   4.410   5.158
 2677SOL     OW 8926   0.922   4.227   4.623
 2677SOL    HW1 8927   0.897   4.218   4.527
 2677SOL    HW2 8928   0.970   4.145   4.654
 2678SOL     OW 8929   0.539   3.788   4.236
 2678SOL    HW1 8930   0.458   3.789   4.294
 2678SOL    HW2 8931   0.542   3.871   4.181
 2679SOL     OW 8932   0.297   3.759   3.895
 2679SOL    HW1 8933   0.346   3.843   3.874
 2679SOL    HW2 8934   0.359   3.694   3.940
 2680SOL     OW 8935   0.935   3.960   4.204
 2680SOL    HW1 8936   0.887   4.001   4.126
 2680SOL    HW2 8937   1.034   3.958   4.185
 2681SOL     OW 8938   1.076   4.407   5.188
 2681SOL    HW1 8939   0.996   4.346   5.191
 2681SOL    HW2 8940   1.157   4.354   5.164
 2682SOL     OW 8941   1.032   4.273   3.740
 2682SOL    HW1 8942   0.991   4.355   3.701
 2682SOL    HW2 8943   1.096   4.299   3.813
 2683SOL     OW 8944   0.078   4.280   5.110
 2683SOL    HW1 8945   0.170   4.279   5.069
 2683SOL    HW2 8946   0.072   4.354   5.177
 2684SOL     OW 8947   0.561   3.946   4.871
 2684SOL    HW1 8948   0.599   3.862   4.908
 2684SOL    HW2 8949   0.473   3.965   4.915
 2685SOL     OW 8950   0.866   4.178   4.366
 2685SOL    HW1 8951   0.834   4.250   4.304
 2685SOL    HW2 8952   0.890   4.097   4.313
 2686SOL     OW 8953   1.017   3.763   4.477
 2686SOL    HW1 8954   0.945   3.768   4.408
 2686SOL    HW2 8955   0.993   3.694   4.546
 2687SOL     OW 8956   1.466   4.314   4.716
 2687SOL    HW1 8957   1.436   4.219   4.723
 2687SOL    HW2 8958   1.539   4.330   4.782
 2688SOL     OW 8959   1.390   4.299   3.802
 2688SOL    HW1 8960   1.336   4.278   3.883
 2688SOL    HW2 8961   1.481   4.258   3.811
 2689SOL     OW 8962   0.527   3.980   4.052
 2689SOL    HW1 8963   0.554   3.921   3.977
 2689SOL    HW2 8964   0.527   4.075   4.021
 2690SOL     OW 8965   0.915   3.813   5.126
 2690SOL    HW1 8966   0.940   3.793   5.031
 2690SOL    HW2 8967   0.987   3.869   5.168
 2691SOL     OW 8968   0.410   4.537   4.975
 2691SOL    HW1 8969   0.496   4.549   5.025
 2691SOL    HW2 8970   0.368   4.450   5.002
 2692SOL     OW 8971   1.274   4.110   4.986
 2692SOL    HW1 8972   1.295   4.184   5.050
 2692SOL    HW2 8973   1.185   4.127   4.943
 2693SOL     OW 8974   0.566   4.261   4.589
 2693SOL    HW1 8975   0.578   4.327   4.515
 2693SOL    HW2 8976   0.612   4.295   4.672
 2694SOL     OW 8977   1.582   4.363   4.196
 2694SOL    HW1 8978   1.551   4.424   4.269
 2694SOL    HW2 8979   1.632   4.415   4.127
 2695SOL     OW 8980   1.013   3.829   5.494
 2695SOL    HW1 8981   1.019   3.914   5.442
 2695SOL    HW2 8982   1.045   3.753   5.437
 2696SOL     OW 8983   0.504   3.774   5.464
 2696SOL    HW1 8984   0.462   3.717   5.394
 2696SOL    HW2 8985   0.438   3.843   5.496
 2697SOL     OW 8986   1.209   4.249   3.999
 2697SOL    HW1 8987   1.222   4.165   4.053
 2697SOL    HW2 8988   1.180   4.323   4.059
 2698SOL     OW 8989   0.307   3.937   4.955
 2698SOL    HW1 8990   0.284   3.974   5.045
 2698SOL    HW2 8991   0.277   3.842   4.949
 2699SOL     OW 8992   0.732   4.358   4.788
 2699SOL    HW1 8993   0.791   4.332   4.712
 2699SOL    HW2 8994   0.704   4.454   4.777
 2700SOL     OW 8995   1.728   4.659   5.578
 2700SOL    HW1 8996   1.682   4.652   5.489
 2700SOL    HW2 8997   1.666   4.703   5.644
 2701SOL     OW 8998   0.307   3.787   4.342
 2701SOL    HW1 8999   0.296   3.881   4.375
 2701SOL    HW2 9000   0.302   3.724   4.419
 2702SOL     OW 9001   1.622   4.091   4.098
 2702SOL    HW1 9002   1.624   4.015   4.162
 2702SOL    HW2 9003   1.574   4.168   4.138
 2703SOL     OW 9004   1.540   3.998   3.849
 2703SOL    HW1 9005   1.479   3.923   3.872
 2703SOL    HW2 9006   1.562   4.050   3.932
 2704SOL     OW 9007   0.319   4.534   4.673
 2704SOL    HW1 9008   0.412   4.570   4.678
 2704SOL    HW2 9009   0.313   4.449   4.725
 2705SOL     OW 9010   0.339   4.233   4.730
 2705SOL    HW1 9011   0.287   4.150   4.713
 2705SOL    HW2 9012   0.416   4.238   4.666
 2706SOL     OW 9013   1.138   4.104   5.402
 2706SOL    HW1 9014   1.093   4.167   5.466
 2706SOL    HW2 9015   1.231   4.135   5.385
 2707SOL     OW 9016   1.160   3.931   5.201
 2707SOL    HW1 9017   1.160   3.995   5.278
 2707SOL    HW2 9018   1.188   3.979   5.118
 2708SOL     OW 9019   0.040   4.268   4.838
 2708SOL    HW1 9020   0.125   4.235   4.797
 2708SOL    HW2 9021   0.053   4.283   4.936
 2709SOL     OW 9022   0.189   4.244   5.446
 2709SOL    HW1 9023   0.248   4.204   5.376
 2709SOL    HW2 9024   0.131   4.315   5.405
 2710SOL     OW 9025   0.815   4.296   4.049
 2710SOL    HW1 9026   0.822   4.207   4.003
 2710SOL    HW2 9027   0.721   4.330   4.041
 2711SOL     OW 9028   1.657   4.328   4.930
 2711SOL    HW1 9029   1.619   4.259   4.992
 2711SOL    HW2 9030   1.739   4.292   4.886
 2712SOL     OW 9031   0.671   4.188   4.993
 2712SOL    HW1 9032   0.637   4.099   4.963
 2712SOL    HW2 9033   0.697   4.242   4.913
 2713SOL     OW 9034   0.473   4.224   3.915
 2713SOL    HW1 9035   0.534   4.304   3.919
 2713SOL    HW2 9036   0.378   4.255   3.922
 2714SOL     OW 9037   1.726   3.859   4.247
 2714SOL    HW1 9038   1.799   3.842   4.180
 2714SOL    HW2 9039   1.695   3.772   4.285
 2715SOL     OW 9040   1.280   4.651   4.396
 2715SOL    HW1 9041   1.340   4.570   4.398
 2715SOL    HW2 9042   1.320   4.720   4.336
 2716SOL     OW 9043   1.841   3.899   4.687
 2716SOL    HW1 9044   1.880   3.814   4.651
 2716SOL    HW2 9045   1.743   3.901   4.668
 2717SOL     OW 9046   0.263   4.050   4.444
 2717SOL    HW1 9047   0.184   4.101   4.410
 2717SOL    HW2 9048   0.254   4.035   4.542
 2718SOL     OW 9049   0.916   4.634   4.015
 2718SOL    HW1 9050   0.979   4.672   3.947
 2718SOL    HW2 9051   0.956   4.551   4.054
 2719SOL     OW 9052   1.039   4.822   4.420
 2719SOL    HW1 9053   0.969   4.775   4.474
 2719SOL    HW2 9054   1.098   4.754   4.377
 2720SOL     OW 9055   1.014   3.960   4.695
 2720SOL    HW1 9056   1.006   3.924   4.602
 2720SOL    HW2 9057   1.012   3.884   4.760
 2721SOL     OW 9058   1.709   4.109   5.105
 2721SOL    HW1 9059   1.782   4.178   5.109
 2721SOL    HW2 9060   1.737   4.034   5.046
 2722SOL     OW 9061   0.672   3.927   5.213
 2722SOL    HW1 9062   0.762   3.911   5.173
 2722SOL    HW2 9063   0.680   3.932   5.312
 2723SOL     OW 9064   0.075   4.069   3.757
 2723SOL    HW1 9065  -0.017   4.041   3.728
 2723SOL    HW2 9066   0.106   4.146   3.701
 2724SOL     OW 9067   0.072   3.890   4.042
 2724SOL    HW1 9068   0.055   3.973   3.988
 2724SOL    HW2 9069   0.162   3.853   4.020
 2725SOL     OW 9070   0.716   4.289   5.432
 2725SOL    HW1 9071   0.735   4.354   5.506
 2725SOL    HW2 9072   0.776   4.209   5.441
 2726SOL     OW 9073   1.225   4.049   4.173
 2726SOL    HW1 9074   1.290   3.975   4.162
 2726SOL    HW2 9075   1.245   4.099   4.257
 2727SOL     OW 9076   1.777   4.066   5.366
 2727SOL    HW1 9077   1.760   4.097   5.272
 2727SOL    HW2 9078   1.693   4.029   5.404
 2728SOL     OW 9079   1.083   4.708   3.811
 2728SOL    HW1 9080   1.060   4.761   3.729
 2728SOL    HW2 9081   1.164   4.652   3.792
 2729SOL     OW 9082   1.824   3.916   4.951
 2729SOL    HW1 9083   1.820   3.826   4.995
 2729SOL    HW2 9084   1.827   3.905   4.852
 2730SOL     OW 9085   0.428   4.148   4.244
 2730SOL    HW1 9086   0.458   4.076   4.182
 2730SOL    HW2 9087   0.389   4.108   4.327
 2731SOL     OW 9088   0.317   4.271   5.004
 2731SOL    HW1 9089   0.355   4.212   5.076
 2731SOL    HW2 9090   0.357   4.245   4.916
 2732SOL     OW 9091   1.424   3.938   4.836
 2732SOL    HW1 9092   1.476   3.873   4.891
 2732SOL    HW2 9093   1.375   4.001   4.897
 2733SOL     OW 9094   1.001   3.758   4.878
 2733SOL    HW1 9095   0.938   3.686   4.847
 2733SOL    HW2 9096   1.094   3.722   4.878
 2734SOL     OW 9097   1.352   3.776   3.892
 2734SOL    HW1 9098   1.387   3.735   3.808
 2734SOL    HW2 9099   1.262   3.738   3.912
 2735SOL     OW 9100   1.300   4.177   4.415
 2735SOL    HW1 9101   1.241   4.257   4.419
 2735SOL    HW2 9102   1.315   4.142   4.508
 2736SOL     OW 9103   1.593   3.945   4.606
 2736SOL    HW1 9104   1.509   3.944   4.660
 2736SOL    HW2 9105   1.595   4.028   4.550
 2737SOL     OW 9106   0.230   4.352   5.699
 2737SOL    HW1 9107   0.137   4.350   5.736
 2737SOL    HW2 9108   0.231   4.313   5.607
 2738SOL     OW 9109   0.225   3.999   6.582
 2738SOL    HW1 9110   0.260   3.982   6.674
 2738SOL    HW2 9111   0.137   3.954   6.570
 2739SOL     OW 9112   0.019   4.092   6.233
 2739SOL    HW1 9113  -0.063   4.135   6.272
 2739SOL    HW2 9114  -0.009   4.019   6.170
 2740SOL     OW 9115   1.755   4.331   5.817
 2740SOL    HW1 9116   1.743   4.318   5.718
 2740SOL    HW2 9117   1.725   4.250   5.866
 2741SOL     OW 9118   0.685   4.736   6.251
 2741SOL    HW1 9119   0.754   4.720   6.321
 2741SOL    HW2 9120   0.612   4.793   6.289
 2742SOL     OW 9121   0.438   4.116   7.085
 2742SOL    HW1 9122   0.520   4.060   7.094
 2742SOL    HW2 9123   0.357   4.058   7.089
 2743SOL     OW 9124   1.603   4.171   6.323
 2743SOL    HW1 9125   1.529   4.217   6.273
 2743SOL    HW2 9126   1.654   4.239   6.376
 2744SOL     OW 9127   1.594   3.838   7.066
 2744SOL    HW1 9128   1.576   3.905   6.994
 2744SOL    HW2 9129   1.591   3.884   7.155
 2745SOL     OW 9130   0.122   4.367   6.149
 2745SOL    HW1 9131   0.077   4.279   6.166
 2745SOL    HW2 9132   0.121   4.421   6.233
 2746SOL     OW 9133   0.113   4.461   7.183
 2746SOL    HW1 9134   0.201   4.448   7.228
 2746SOL    HW2 9135   0.100   4.558   7.161
 2747SOL     OW 9136   0.809   3.728   6.088
 2747SOL    HW1 9137   0.849   3.819   6.079
 2747SOL    HW2 9138   0.709   3.736   6.094
 2748SOL     OW 9139   0.317   3.975   7.387
 2748SOL    HW1 9140   0.388   4.046   7.393
 2748SOL    HW2 9141   0.229   4.014   7.415
 2749SOL     OW 9142   1.281   4.069   6.530
 2749SOL    HW1 9143   1.195   4.019   6.517
 2749SOL    HW2 9144   1.343   4.015   6.586
 2750SOL     OW 9145   0.807   4.329   7.051
 2750SOL    HW1 9146   0.760   4.326   7.140
 2750SOL    HW2 9147   0.756   4.274   6.985
 2751SOL     OW 9148   1.394   4.193   7.260
 2751SOL    HW1 9149   1.374   4.236   7.348
 2751SOL    HW2 9150   1.472   4.131   7.269
 2752SOL     OW 9151   0.991   4.134   6.828
 2752SOL    HW1 9152   0.914   4.168   6.882
 2752SOL    HW2 9153   0.957   4.083   6.749
 2753SOL     OW 9154   1.041   4.425   6.015
 2753SOL    HW1 9155   1.067   4.421   6.111
 2753SOL    HW2 9156   0.956   4.374   6.001
 2754SOL     OW 9157   0.076   4.535   6.375
 2754SOL    HW1 9158   0.175   4.523   6.384
 2754SOL    HW2 9159   0.052   4.630   6.396
 2755SOL     OW 9160   0.865   4.072   5.781
 2755SOL    HW1 9161   0.924   4.135   5.732
 2755SOL    HW2 9162   0.884   3.978   5.752
 2756SOL     OW 9163   1.719   4.309   7.417
 2756SOL    HW1 9164   1.693   4.398   7.381
 2756SOL    HW2 9165   1.717   4.241   7.344
 2757SOL     OW 9166   0.550   3.920   6.471
 2757SOL    HW1 9167   0.545   3.915   6.571
 2757SOL    HW2 9168   0.552   4.016   6.442
 2758SOL     OW 9169   1.458   4.459   6.314
 2758SOL    HW1 9170   1.453   4.394   6.389
 2758SOL    HW2 9171   1.538   4.518   6.327
 2759SOL     OW 9172   0.202   4.009   7.084
 2759SOL    HW1 9173   0.122   4.069   7.071
 2759SOL    HW2 9174   0.192   3.960   7.170
 2760SOL     OW 9175   1.400   3.831   6.012
 2760SOL    HW1 9176   1.376   3.794   5.922
 2760SOL    HW2 9177   1.499   3.847   6.016
 2761SOL     OW 9178   0.382   4.424   6.066
 2761SOL    HW1 9179   0.427   4.334   6.063
 2761SOL    HW2 9180   0.288   4.413   6.099
 2762SOL     OW 9181   1.547   3.946   7.315
 2762SOL    HW1 9182   1.542   3.983   7.407
 2762SOL    HW2 9183   1.475   3.877   7.303
 2763SOL     OW 9184   0.614   3.846   5.703
 2763SOL    HW1 9185   0.712   3.824   5.710
 2763SOL    HW2 9186   0.583   3.829   5.610
 2764SOL     OW 9187   0.781   3.988   7.335
 2764SOL    HW1 9188   0.848   3.927   7.378
 2764SOL    HW2 9189   0.708   4.007   7.400
 2765SOL     OW 9190   1.351   4.314   7.019
 2765SOL    HW1 9191   1.379   4.271   7.104
 2765SOL    HW2 9192   1.376   4.410   7.020
 2766SOL     OW 9193   0.922   4.227   6.485
 2766SOL    HW1 9194   0.897   4.218   6.389
 2766SOL    HW2 9195   0.970   4.145   6.516
 2767SOL     OW 9196   0.539   3.788   6.098
 2767SOL    HW1 9197   0.458   3.789   6.156
 2767SOL    HW2 9198   0.542   3.871   6.043
 2768SOL     OW 9199   0.297   3.759   5.757
 2768SOL    HW1 9200   0.346   3.843   5.736
 2768SOL    HW2 9201   0.359   3.694   5.802
 2769SOL     OW 9202   0.935   3.960   6.066
 2769SOL    HW1 9203   0.887   4.001   5.988
 2769SOL    HW2 9204   1.034   3.958   6.047
 2770SOL     OW 9205   1.076   4.407   7.050
 2770SOL    HW1 9206   0.996   4.346   7.053
 2770SOL    HW2 9207   1.157   4.354   7.026
 2771SOL     OW 9208   1.032   4.273   5.602
 2771SOL    HW1 9209   0.991   4.355   5.563
 2771SOL    HW2 9210   1.096   4.299   5.675
 2772SOL     OW 9211   0.078   4.280   6.972
 2772SOL    HW1 9212   0.170   4.279   6.931
 2772SOL    HW2 9213   0.072   4.354   7.039
 2773SOL     OW 9214   0.561   3.946   6.733
 2773SOL    HW1 9215   0.599   3.862   6.770
 2773SOL    HW2 9216   0.473   3.965   6.777
 2774SOL     OW 9217   0.866   4.178   6.228
 2774SOL    HW1 9218   0.834   4.250   6.166
 2774SOL    HW2 9219   0.890   4.097   6.175
 2775SOL     OW 9220   1.017   3.763   6.339
 2775SOL    HW1 9221   0.945   3.768   6.270
 2775SOL    HW2 9222   0.993   3.694   6.408
 2776SOL     OW 9223   1.466   4.314   6.578
 2776SOL    HW1 9224   1.436   4.219   6.585
 2776SOL    HW2 9225   1.539   4.330   6.644
 2777SOL     OW 9226   1.390   4.299   5.664
 2777SOL    HW1 9227   1.336   4.278   5.745
 2777SOL    HW2 9228   1.481   4.258   5.673
 2778SOL     OW 9229   0.527   3.980   5.914
 2778SOL    HW1 9230   0.554   3.921   5.839
 2778SOL    HW2 9231   0.527   4.075   5.883
 2779SOL     OW 9232   0.915   3.813   6.988
 2779SOL    HW1 9233   0.940   3.793   6.893
 2779SOL    HW2 9234   0.987   3.869   7.030
 2780SOL     OW 9235   0.410   4.537   6.837
 2780SOL    HW1 9236   0.496   4.549   6.887
 2780SOL    HW2 9237   0.368   4.450   6.864
 2781SOL     OW 9238   1.274   4.110   6.848
 2781SOL    HW1 9239   1.295   4.184   6.912
 2781SOL    HW2 9240   1.185   4.127   6.805
 2782SOL     OW 9241   0.566   4.261   6.451
 2782SOL    HW1 9242   0.578   4.327   6.377
 2782SOL    HW2 9243   0.612   4.295   6.534
 2783SOL     OW 9244   1.582   4.363   6.058
 2783SOL    HW1 9245   1.551   4.424   6.131
 2783SOL    HW2 9246   1.632   4.415   5.989
 2784SOL     OW 9247   1.013   3.829   7.356
 2784SOL    HW1 9248   1.019   3.914   7.304
 2784SOL    HW2 9249   1.045   3.753   7.299
 2785SOL     OW 9250   0.504   3.774   7.326
 2785SOL    HW1 9251   0.462   3.717   7.256
 2785SOL    HW2 9252   0.438   3.843   7.358
 2786SOL     OW 9253   1.209   4.249   5.861
 2786SOL    HW1 9254   1.222   4.165   5.915
 2786SOL    HW2 9255   1.180   4.323   5.921
 2787SOL     OW 9256   0.307   3.937   6.817
 2787SOL    HW1 9257   0.284   3.974   6.907
 2787SOL    HW2 9258   0.277   3.842   6.811
 2788SOL     OW 9259   0.732   4.358   6.650
 2788SOL    HW1 9260   0.791   4.332   6.574
 2788SOL    HW2 9261   0.704   4.454   6.639
 2789SOL     OW 9262   1.728   4.659   7.440
 2789SOL    HW1 9263   1.682   4.652   7.351
 2789SOL    HW2 9264   1.666   4.703   7.506
 2790SOL     OW 9265   0.307   3.787   6.204
 2790SOL    HW1 9266   0.296   3.881   6.237
 2790SOL    HW2 9267   0.302   3.724   6.281
 2791SOL     OW 9268   1.622   4.091   5.960
 2791SOL    HW1 9269   1.624   4.015   6.024
 2791SOL    HW2 9270   1.574   4.168   6.000
 2792SOL     OW 9271   1.540   3.998   5.711
 2792SOL    HW1 9272   1.479   3.923   5.734
 2792SOL    HW2 9273   1.562   4.050   5.794
 2793SOL     OW 9274   0.319   4.534   6.535
 2793SOL    HW1 9275   0.412   4.570   6.540
 2793SOL    HW2 9276   0.313   4.449   6.587
 2794SOL     OW 9277   0.339   4.233   6.592
 2794SOL    HW1 9278   0.287   4.150   6.575
 2794SOL    HW2 9279   0.416   4.238   6.528
 2795SOL     OW 9280   1.138   4.104   7.264
 2795SOL    HW1 9281   1.093   4.167   7.328
 2795SOL    HW2 9282   1.231   4.135   7.247
 2796SOL     OW 9283   1.160   3.931   7.063
 2796SOL    HW1 9284   1.160   3.995   7.140
 2796SOL    HW2 9285   1.188   3.979   6.980
 2797SOL     OW 9286   0.040   4.268   6.700
 2797SOL    HW1 9287   0.125   4.235   6.659
 2797SOL    HW2 9288   0.053   4.283   6.798
 2798SOL     OW 9289   0.189   4.244   7.308
 2798SOL    HW1 9290   0.248   4.204   7.238
 2798SOL    HW2 9291   0.131   4.315   7.267
 2799SOL     OW 9292   0.815   4.296   5.911
 2799SOL    HW1 9293   0.822   4.207   5.865
 2799SOL    HW2 9294   0.721   4.330   5.903
 2800SOL     OW 9295   1.657   4.328   6.792
 2800SOL    HW1 9296   1.619   4.259   6.854
 2800SOL    HW2 9297   1.739   4.292   6.748
 2801SOL     OW 9298   0.671   4.188   6.855
 2801SOL    HW1 9299   0.637   4.099   6.825
 2801SOL    HW2 9300   0.697   4.242   6.775
 2802SOL     OW 9301   0.473   4.224   5.777
 2802SOL    HW1 9302   0.534   4.304   5.781
 2802SOL    HW2 9303   0.378   4.255   5.784
 2803SOL     OW 9304   1.726   3.859   6.109
 2803SOL    HW1 9305   1.799   3.842   6.042
 2803SOL    HW2 9306   1.695   3.772   6.147
 2804SOL     OW 9307   1.280   4.651   6.258
 2804SOL    HW1 9308   1.340   4.570   6.260
 2804SOL    HW2 9309   1.320   4.720   6.198
 2805SOL     OW 9310   1.841   3.899   6.549
 2805SOL    HW1 9311   1.880   3.814   6.513
 2805SOL    HW2 9312   1.743   3.901   6.530
 2806SOL     OW 9313   0.263   4.050   6.306
 2806SOL    HW1 9314   0.184   4.101   6.272
 2806SOL    HW2 9315   0.254   4.035   6.404
 2807SOL     OW 9316   0.916   4.634   5.877
 2807SOL    HW1 9317   0.979   4.672   5.809
 2807SOL    HW2 9318   0.956   4.551   5.916
 2808SOL     OW 9319   1.039   4.822   6.282
 2808SOL    HW1 9320   0.969   4.775   6.336
 2808SOL    HW2 9321   1.098   4.754   6.239
 2809SOL     OW 9322   1.014   3.960   6.557
 2809SOL    HW1 9323   1.006   3.924   6.464
 2809SOL    HW2 9324   1.012   3.884   6.622
 2810SOL     OW 9325   1.709   4.109   6.967
 2810SOL    HW1 9326   1.782   4.178   6.971
 2810SOL    HW2 9327   1.737   4.034   6.908
 2811SOL     OW 9328   0.672   3.927   7.075
 2811SOL    HW1 9329   0.762   3.911   7.035
 2811SOL    HW2 9330   0.680   3.932   7.174
 2812SOL     OW 9331   0.075   4.069   5.619
 2812SOL    HW1 9332  -0.017   4.041   5.590
 2812SOL    HW2 9333   0.106   4.146   5.563
 2813SOL     OW 9334   0.072   3.890   5.904
 2813SOL    HW1 9335   0.055   3.973   5.850
 2813SOL    HW2 9336   0.162   3.853   5.882
 2814SOL     OW 9337   0.716   4.289   7.294
 2814SOL    HW1 9338   0.735   4.354   7.368
 2814SOL    HW2 9339   0.776   4.209   7.303
 2815SOL     OW 9340   1.225   4.049   6.035
 2815SOL    HW1 9341   1.290   3.975   6.024
 2815SOL    HW2 9342   1.245   4.099   6.119
 2816SOL     OW 9343   1.777   4.066   7.228
 2816SOL    HW1 9344   1.760   4.097   7.134
 2816SOL    HW2 9345   1.693   4.029   7.266
 2817SOL     OW 9346   1.083   4.708   5.673
 2817SOL    HW1 9347   1.060   4.761   5.591
 2817SOL    HW2 9348   1.164   4.652   5.654
 2818SOL     OW 9349   1.824   3.916   6.813
 2818SOL    HW1 9350   1.820   3.826   6.857
 2818SOL    HW2 9351   1.827   3.905   6.714
 2819SOL     OW 9352   0.428   4.148   6.106
 2819SOL    HW1 9353   0.458   4.076   6.044
 2819SOL    HW2 9354   0.389   4.108   6.189
 2820SOL     OW 9355   0.317   4.271   6.866
 2820SOL    HW1 9356   0.355   4.212   6.938
 2820SOL    HW2 9357   0.357   4.245   6.778
 2821SOL     OW 9358   1.424   3.938   6.698
 2821SOL    HW1 9359   1.476   3.873   6.753
 2821SOL    HW2 9360   1.375   4.001   6.759
 2822SOL     OW 9361   1.001   3.758   6.740
 2822SOL    HW1 9362   0.938   3.686   6.709
 2822SOL    HW2 9363   1.094   3.722   6.740
 2823SOL     OW 9364   1.352   3.776   5.754
 2823SOL    HW1 9365   1.387   3.735   5.670
 2823SOL    HW2 9366   1.262   3.738   5.774
 2824SOL     OW 9367   1.300   4.177   6.277
 2824SOL    HW1 9368   1.241   4.257   6.281
 2824SOL    HW2 9369   1.315   4.142   6.370
 2825SOL     OW 9370   1.593   3.945   6.468
 2825SOL    HW1 9371   1.509   3.944   6.522
 2825SOL    HW2 9372   1.595   4.028   6.412
 2826SOL     OW 9373   0.230   4.352   7.561
 2826SOL    HW1 9374   0.137   4.350   7.598
 2826SOL    HW2 9375   0.231   4.313   7.469
 2827SOL     OW 9376   0.225   3.999   8.444
 2827SOL    HW1 9377   0.260   3.982   8.536
 2827SOL    HW2 9378   0.137   3.954   8.432
 2828SOL     OW 9379   0.019   4.092   8.095
 2828SOL    HW1 9380  -0.063   4.135   8.134
 2828SOL    HW2 9381  -0.009   4.019   8.032
 2829SOL     OW 9382   1.755   4.331   7.679
 2829SOL    HW1 9383   1.743   4.318   7.580
 2829SOL    HW2 9384   1.725   4.250   7.728
 2830SOL     OW 9385   0.685   4.736   8.113
 2830SOL    HW1 9386   0.754   4.720   8.183
 2830SOL    HW2 9387   0.612   4.793   8.151
 2831SOL     OW 9388   0.438   4.116   8.947
 2831SOL    HW1 9389   0.520   4.060   8.956
 2831SOL    HW2 9390   0.357   4.058   8.951
 2832SOL     OW 9391   1.603   4.171   8.185
 2832SOL    HW1 9392   1.529   4.217   8.135
 2832SOL    HW2 9393   1.654   4.239   8.238
 2833SOL     OW 9394   1.594   3.838   8.928
 2833SOL    HW1 9395   1.576   3.905   8.856
 2833SOL    HW2 9396   1.591   3.884   9.017
 2834SOL     OW 9397   0.122   4.367   8.011
 2834SOL    HW1 9398   0.077   4.279   8.028
 2834SOL    HW2 9399   0.121   4.421   8.095
 2835SOL     OW 9400   0.113   4.461   9.045
 2835SOL    HW1 9401   0.201   4.448   9.090
 2835SOL    HW2 9402   0.100   4.558   9.023
 2836SOL     OW 9403   0.809   3.728   7.950
 2836SOL    HW1 9404   0.849   3.819   7.941
 2836SOL    HW2 9405   0.709   3.736   7.956
 2837SOL     OW 9406   0.317   3.975   9.249
 2837SOL    HW1 9407   0.388   4.046   9.255
 2837SOL    HW2 9408   0.229   4.014   9.277
 2838SOL     OW 9409   1.281   4.069   8.392
 2838SOL    HW1 9410   1.195   4.019   8.379
 2838SOL    HW2 9411   1.343   4.015   8.448
 2839SOL     OW 9412   0.807   4.329   8.913
 2839SOL    HW1 9413   0.760   4.326   9.002
 2839SOL    HW2 9414   0.756   4.274   8.847
 2840SOL     OW 9415   1.394   4.193   9.122
 2840SOL    HW1 9416   1.374   4.236   9.210
 2840SOL    HW2 9417   1.472   4.131   9.131
 2841SOL     OW 9418   0.991   4.134   8.690
 2841SOL    HW1 9419   0.914   4.168   8.744
 2841SOL    HW2 9420   0.957   4.083   8.611
 2842SOL     OW 9421   1.041   4.425   7.877
 2842SOL    HW1 9422   1.067   4.421   7.973
 2842SOL    HW2 9423   0.956   4.374   7.863
 2843SOL     OW 9424   0.076   4.535   8.237
 2843SOL    HW1 9425   0.175   4.523   8.246
 2843SOL    HW2 9426   0.052   4.630   8.258
 2844SOL     OW 9427   0.865   4.072   7.643
 2844SOL    HW1 9428   0.924   4.135   7.594
 2844SOL    HW2 9429   0.884   3.978   7.614
 2845SOL     OW 9430   1.719   4.309   9.279
 2845SOL    HW1 9431   1.693   4.398   9.243
 2845SOL    HW2 9432   1.717   4.241   9.206
 2846SOL     OW 9433   0.550   3.920   8.333
 2846SOL    HW1 9434   0.545   3.915   8.433
 2846SOL    HW2 9435   0.552   4.016   8.304
 2847SOL     OW 9436   1.458   4.459   8.176
 2847SOL    HW1 9437   1.453   4.394   8.251
 2847SOL    HW2 9438   1.538   4.518   8.189
 2848SOL     OW 9439   0.202   4.009   8.946
 2848SOL    HW1 9440   0.122   4.069   8.933
 2848SOL    HW2 9441   0.192   3.960   9.032
 2849SOL     OW 9442   1.400   3.831   7.874
 2849SOL    HW1 9443   1.376   3.794   7.784
 2849SOL    HW2 9444   1.499   3.847   7.878
 2850SOL     OW 9445   0.382   4.424   7.928
 2850SOL    HW1 9446   0.427   4.334   7.925
 2850SOL    HW2 9447   0.288   4.413   7.961
 2851SOL     OW 9448   1.547   3.946   9.177
 2851SOL    HW1 9449   1.542   3.983   9.269
 2851SOL    HW2 9450   1.475   3.877   9.165
 2852SOL     OW 9451   0.614   3.846   7.565
 2852SOL    HW1 9452   0.712   3.824   7.572
 2852SOL    HW2 9453   0.583   3.829   7.472
 2853SOL     OW 9454   0.781   3.988   9.197
 2853SOL    HW1 9455   0.848   3.927   9.240
 2853SOL    HW2 9456   0.708   4.007   9.262
 2854SOL     OW 9457   1.351   4.314   8.881
 2854SOL    HW1 9458   1.379   4.271   8.966
 2854SOL    HW2 9459   1.376   4.410   8.882
 2855SOL     OW 9460   0.922   4.227   8.347
 2855SOL    HW1 9461   0.897   4.218   8.251
 2855SOL    HW2 9462   0.970   4.145   8.378
 2856SOL     OW 9463   0.539   3.788   7.960
 2856SOL    HW1 9464   0.458   3.789   8.018
 2856SOL    HW2 9465   0.542   3.871   7.905
 2857SOL     OW 9466   0.297   3.759   7.619
 2857SOL    HW1 9467   0.346   3.843   7.598
 2857SOL    HW2 9468   0.359   3.694   7.664
 2858SOL     OW 9469   0.935   3.960   7.928
 2858SOL    HW1 9470   0.887   4.001   7.850
 2858SOL    HW2 9471   1.034   3.958   7.909
 2859SOL     OW 9472   1.076   4.407   8.912
 2859SOL    HW1 9473   0.996   4.346   8.915
 2859SOL    HW2 9474   1.157   4.354   8.888
 2860SOL     OW 9475   1.032   4.273   7.464
 2860SOL    HW1 9476   0.991   4.355   7.425
 2860SOL    HW2 9477   1.096   4.299   7.537
 2861SOL     OW 9478   0.078   4.280   8.834
 2861SOL    HW1 9479   0.170   4.279   8.793
 2861SOL    HW2 9480   0.072   4.354   8.901
 2862SOL     OW 9481   0.561   3.946   8.595
 2862SOL    HW1 9482   0.599   3.862   8.632
 2862SOL    HW2 9483   0.473   3.965   8.639
 2863SOL     OW 9484   0.866   4.178   8.090
 2863SOL    HW1 9485   0.834   4.250   8.028
 2863SOL    HW2 9486   0.890   4.097   8.037
 2864SOL     OW 9487   1.017   3.763   8.201
 2864SOL    HW1 9488   0.945   3.768   8.132
 2864SOL    HW2 9489   0.993   3.694   8.270
 2865SOL     OW 9490   1.466   4.314   8.440
 2865SOL    HW1 9491   1.436   4.219   8.447
 2865SOL    HW2 9492   1.539   4.330   8.506
 2866SOL     OW 9493   1.390   4.299   7.526
 2866SOL    HW1 9494   1.336   4.278   7.607
 2866SOL    HW2 9495   1.481   4.258   7.535
 2867SOL     OW 9496   0.527   3.980   7.776
 2867SOL    HW1 9497   0.554   3.921   7.701
 2867SOL    HW2 9498   0.527   4.075   7.745
 2868SOL     OW 9499   0.915   3.813   8.850
 2868SOL    HW1 9500   0.940   3.793   8.755
 2868SOL    HW2 9501   0.987   3.869   8.892
 2869SOL     OW 9502   0.410   4.537   8.699
 2869SOL    HW1 9503   0.496   4.549   8.749
 2869SOL    HW2 9504   0.368   4.450   8.726
 2870SOL     OW 9505   1.274   4.110   8.710
 2870SOL    HW1 9506   1.295   4.184   8.774
 2870SOL    HW2 9507   1.185   4.127   8.667
 2871SOL     OW 9508   0.566   4.261   8.313
 2871SOL    HW1 9509   0.578   4.327   8.239
 2871SOL    HW2 9510   0.612   4.295   8.396
 2872SOL     OW 9511   1.582   4.363   7.920
 2872SOL    HW1 9512   1.551   4.424   7.993
 2872SOL    HW2 9513   1.632   4.415   7.851
 2873SOL     OW 9514   1.013   3.829   9.218
 2873SOL    HW1 9515   1.019   3.914   9.166
 2873SOL    HW2 9516   1.045   3.753   9.161
 2874SOL     OW 9517   0.504   3.774   9.188
 2874SOL    HW1 9518   0.462   3.717   9.118
 2874SOL    HW2 9519   0.438   3.843   9.220
 2875SOL     OW 9520   1.209   4.249   7.723
 2875SOL    HW1 9521   1.222   4.165   7.777
 2875SOL    HW2 9522   1.180   4.323   7.783
 2876SOL     OW 9523   0.307   3.937   8.679
 2876SOL    HW1 9524   0.284   3.974   8.769
 2876SOL    HW2 9525   0.277   3.842   8.673
 2877SOL     OW 9526   0.732   4.358   8.512
 2877SOL    HW1 9527   0.791   4.332   8.436
 2877SOL    HW2 9528   0.704   4.454   8.501
 2878SOL     OW 9529   1.728   4.659   9.302
 2878SOL    HW1 9530   1.682   4.652   9.213
 2878SOL    HW2 9531   1.666   4.703   9.368
 2879SOL     OW 9532   0.307   3.787   8.066
 2879SOL    HW1 9533   0.296   3.881   8.099
 2879SOL    HW2 9534   0.302   3.724   8.143
 2880SOL     OW 9535   1.622   4.091   7.822
 2880SOL    HW1 9536   1.624   4.015   7.886
 2880SOL    HW2 9537   1.574   4.168   7.862
 2881SOL     OW 9538   1.540   3.998   7.573
 2881SOL    HW1 9539   1.479   3.923   7.596
 2881SOL    HW2 9540   1.562   4.050   7.656
 2882SOL     OW 9541   0.319   4.534   8.397
 2882SOL    HW1 9542   0.412   4.570   8.402
 2882SOL    HW2 9543   0.313   4.449   8.449
 2883SOL     OW 9544   0.339   4.233   8.454
 2883SOL    HW1 9545   0.287   4.150   8.437
 2883SOL    HW2 9546   0.416   4.238   8.390
 2884SOL     OW 9547   1.138   4.104   9.126
 2884SOL    HW1 9548   1.093   4.167   9.190
 2884SOL    HW2 9549   1.231   4.135   9.109
 2885SOL     OW 9550   1.160   3.931   8.925
 2885SOL    HW1 9551   1.160   3.995   9.002
 2885SOL    HW2 9552   1.188   3.979   8.842
 2886SOL     OW 9553   0.040   4.268   8.562
 2886SOL    HW1 9554   0.125   4.235   8.521
 2886SOL    HW2 9555   0.053   4.283   8.660
 2887SOL     OW 9556   0.189   4.244   9.170
 2887SOL    HW1 9557   0.248   4.204   9.100
 2887SOL    HW2 9558   0.131   4.315   9.129
 2888SOL     OW 9559   0.815   4.296   7.773
 2888SOL    HW1 9560   0.822   4.207   7.727
 2888SOL    HW2 9561   0.721   4.330   7.765
 2889SOL     OW 9562   1.657   4.328   8.654
 2889SOL    HW1 9563   1.619   4.259   8.716
 2889SOL    HW2 9564   1.739   4.292   8.610
 2890SOL     OW 9565   0.671   4.188   8.717
 2890SOL    HW1 9566   0.637   4.099   8.687
 2890SOL    HW2 9567   0.697   4.242   8.637
 2891SOL     OW 9568   0.473   4.224   7.639
 2891SOL    HW1 9569   0.534   4.304   7.643
 2891SOL    HW2 9570   0.378   4.255   7.646
 2892SOL     OW 9571   1.726   3.859   7.971
 2892SOL    HW1 9572   1.799   3.842   7.904
 2892SOL    HW2 9573   1.695   3.772   8.009
 2893SOL     OW 9574   1.280   4.651   8.120
 2893SOL    HW1 9575   1.340   4.570   8.122
 2893SOL    HW2 9576   1.320   4.720   8.060
 2894SOL     OW 9577   1.841   3.899   8.411
 2894SOL    HW1 9578   1.880   3.814   8.375
 2894SOL    HW2 9579   1.743   3.901   8.392
 2895SOL     OW 9580   0.263   4.050   8.168
 2895SOL    HW1 9581   0.184   4.101   8.134
 2895SOL    HW2 9582   0.254   4.035   8.266
 2896SOL     OW 9583   0.916   4.634   7.739
 2896SOL    HW1 9584   0.979   4.672   7.671
 2896SOL    HW2 9585   0.956   4.551   7.778
 2897SOL     OW 9586   1.039   4.822   8.144
 2897SOL    HW1 9587   0.969   4.775   8.198
 2897SOL    HW2 9588   1.098   4.754   8.101
 2898SOL     OW 9589   1.014   3.960   8.419
 2898SOL    HW1 9590   1.006   3.924   8.326
 2898SOL    HW2 9591   1.012   3.884   8.484
 2899SOL     OW 9592   1.709   4.109   8.829
 2899SOL    HW1 9593   1.782   4.178   8.833
 2899SOL    HW2 9594   1.737   4.034   8.770
 2900SOL     OW 9595   0.672   3.927   8.937
 2900SOL    HW1 9596   0.762   3.911   8.897
 2900SOL    HW2 9597   0.680   3.932   9.036
 2901SOL     OW 9598   0.075   4.069   7.481
 2901SOL    HW1 9599  -0.017   4.041   7.452
 2901SOL    HW2 9600   0.106   4.146   7.425
 2902SOL     OW 9601   0.072   3.890   7.766
 2902SOL    HW1 9602   0.055   3.973   7.712
 2902SOL    HW2 9603   0.162   3.853   7.744
 2903SOL     OW 9604   0.716   4.289   9.156
 2903SOL    HW1 9605   0.735   4.354   9.230
 2903SOL    HW2 9606   0.776   4.209   9.165
 2904SOL     OW 9607   1.225   4.049   7.897
 2904SOL    HW1 9608   1.290   3.975   7.886
 2904SOL    HW2 9609   1.245   4.099   7.981
 2905SOL     OW 9610   1.777   4.066   9.090
 2905SOL    HW1 9611   1.760   4.097   8.996
 2905SOL    HW2 9612   1.693   4.029   9.128
 2906SOL     OW 9613   1.083   4.708   7.535
 2906SOL    HW1 9614   1.060   4.761   7.453
 2906SOL    HW2 9615   1.164   4.652   7.516
 2907SOL     OW 9616   1.824   3.916   8.675
 2907SOL    HW1 9617   1.820   3.826   8.719
 2907SOL    HW2 9618   1.827   3.905   8.576
 2908SOL     OW 9619   0.428   4.148   7.968
 2908SOL    HW1 9620   0.458   4.076   7.906
 2908SOL    HW2 9621   0.389   4.108   8.051
 2909SOL     OW 9622   0.317   4.271   8.728
 2909SOL    HW1 9623   0.355   4.212   8.800
 2909SOL    HW2 9624   0.357   4.245   8.640
 2910SOL     OW 9625   1.424   3.938   8.560
 2910SOL    HW1 9626   1.476   3.873   8.615
 2910SOL    HW2 9627   1.375   4.001   8.621
 2911SOL     OW 9628   1.001   3.758   8.602
 2911SOL    HW1 9629   0.938   3.686   8.571
 2911SOL    HW2 9630   1.094   3.722   8.602
 2912SOL     OW 9631   1.352   3.776   7.616
 2912SOL    HW1 9632   1.387   3.735   7.532
 2912SOL    HW2 9633   1.262   3.738   7.636
 2913SOL     OW 9634   1.300   4.177   8.139
 2913SOL    HW1 9635   1.241   4.257   8.143
 2913SOL    HW2 9636   1.315   4.142   8.232
 2914SOL     OW 9637   1.593   3.945   8.330
 2914SOL    HW1 9638   1.509   3.944   8.384
 2914SOL    HW2 9639   1.595   4.028   8.274
 2915SOL     OW 9640   0.230   4.352   9.423
 2915SOL    HW1 9641   0.137   4.350   9.460
 2915SOL    HW2 9642   0.231   4.313   9.331
 2916SOL     OW 9643   0.225   3.999  10.306
 2916SOL    HW1 9644   0.260   3.982  10.398
 2916SOL    HW2 9645   0.137   3.954  10.294
 2917SOL     OW 9646   0.019   4.092   9.957
 2917SOL    HW1 9647  -0.063   4.135   9.996
 2917SOL    HW2 9648  -0.009   4.019   9.894
 2918SOL     OW 9649   1.755   4.331   9.541
 2918SOL    HW1 9650   1.743   4.318   9.442
 2918SOL    HW2 9651   1.725   4.250   9.590
 2919SOL     OW 9652   0.685   4.736   9.975
 2919SOL    HW1 9653   0.754   4.720  10.045
 2919SOL    HW2 9654   0.612   4.793  10.013
 2920SOL     OW 9655   0.438   4.116  10.809
 2920SOL    HW1 9656   0.520   4.060  10.818
 2920SOL    HW2 9657   0.357   4.058  10.813
 2921SOL     OW 9658   1.603   4.171  10.047
 2921SOL    HW1 9659   1.529   4.217   9.997
 2921SOL    HW2 9660   1.654   4.239  10.100
 2922SOL     OW 9661   1.594   3.838  10.790
 2922SOL    HW1 9662   1.576   3.905  10.718
 2922SOL    HW2 9663   1.591   3.884  10.879
 2923SOL     OW 9664   0.122   4.367   9.873
 2923SOL    HW1 9665   0.077   4.279   9.890
 2923SOL    HW2 9666   0.121   4.421   9.957
 2924SOL     OW 9667   0.113   4.461  10.907
 2924SOL    HW1 9668   0.201   4.448  10.952
 2924SOL    HW2 9669   0.100   4.558  10.885
 2925SOL     OW 9670   0.809   3.728   9.812
 2925SOL    HW1 9671   0.849   3.819   9.803
 2925SOL    HW2 9672   0.709   3.736   9.818
 2926SOL     OW 9673   0.317   3.975  11.111
 2926SOL    HW1 9674   0.388   4.046  11.117
 2926SOL    HW2 9675   0.229   4.014  11.139
 2927SOL     OW 9676   1.281   4.069  10.254
 2927SOL    HW1 9677   1.195   4.019  10.241
 2927SOL    HW2 9678   1.343   4.015  10.310
 2928SOL     OW 9679   0.807   4.329  10.775
 2928SOL    HW1 9680   0.760   4.326  10.864
 2928SOL    HW2 9681   0.756   4.274  10.709
 2929SOL     OW 9682   0.991   4.134  10.552
 2929SOL    HW1 9683   0.914   4.168  10.606
 2929SOL    HW2 9684   0.957   4.083  10.473
 2930SOL     OW 9685   1.041   4.425   9.739
 2930SOL    HW1 9686   1.067   4.421   9.835
 2930SOL    HW2 9687   0.956   4.374   9.725
 2931SOL     OW 9688   0.076   4.535  10.099
 2931SOL    HW1 9689   0.175   4.523  10.108
 2931SOL    HW2 9690   0.052   4.630  10.120
 2932SOL     OW 9691   0.865   4.072   9.505
 2932SOL    HW1 9692   0.924   4.135   9.456
 2932SOL    HW2 9693   0.884   3.978   9.476
 2933SOL     OW 9694   0.550   3.920  10.195
 2933SOL    HW1 9695   0.545   3.915  10.295
 2933SOL    HW2 9696   0.552   4.016  10.166
 2934SOL     OW 9697   1.458   4.459  10.038
 2934SOL    HW1 9698   1.453   4.394  10.113
 2934SOL    HW2 9699   1.538   4.518  10.051
 2935SOL     OW 9700   0.202   4.009  10.808
 2935SOL    HW1 9701   0.122   4.069  10.795
 2935SOL    HW2 9702   0.192   3.960  10.894
 2936SOL     OW 9703   1.400   3.831   9.736
 2936SOL    HW1 9704   1.376   3.794   9.646
 2936SOL    HW2 9705   1.499   3.847   9.740
 2937SOL     OW 9706   0.382   4.424   9.790
 2937SOL    HW1 9707   0.427   4.334   9.787
 2937SOL    HW2 9708   0.288   4.413   9.823
 2938SOL     OW 9709   0.614   3.846   9.427
 2938SOL    HW1 9710   0.712   3.824   9.434
 2938SOL    HW2 9711   0.583   3.829   9.334
 2939SOL     OW 9712   0.781   3.988  11.059
 2939SOL    HW1 9713   0.848   3.927  11.102
 2939SOL    HW2 9714   0.708   4.007  11.124
 2940SOL     OW 9715   1.351   4.314  10.743
 2940SOL    HW1 9716   1.379   4.271  10.828
 2940SOL    HW2 9717   1.376   4.410  10.744
 2941SOL     OW 9718   0.922   4.227  10.209
 2941SOL    HW1 9719   0.897   4.218  10.113
 2941SOL    HW2 9720   0.970   4.145  10.240
 2942SOL     OW 9721   0.539   3.788   9.822
 2942SOL    HW1 9722   0.458   3.789   9.880
 2942SOL    HW2 9723   0.542   3.871   9.767
 2943SOL     OW 9724   0.297   3.759   9.481
 2943SOL    HW1 9725   0.346   3.843   9.460
 2943SOL    HW2 9726   0.359   3.694   9.526
 2944SOL     OW 9727   0.935   3.960   9.790
 2944SOL    HW1 9728   0.887   4.001   9.712
 2944SOL    HW2 9729   1.034   3.958   9.771
 2945SOL     OW 9730   1.076   4.407  10.774
 2945SOL    HW1 9731   0.996   4.346  10.777
 2945SOL    HW2 9732   1.157   4.354  10.750
 2946SOL     OW 9733   1.032   4.273   9.326
 2946SOL    HW1 9734   0.991   4.355   9.287
 2946SOL    HW2 9735   1.096   4.299   9.399
 2947SOL     OW 9736   0.078   4.280  10.696
 2947SOL    HW1 9737   0.170   4.279  10.655
 2947SOL    HW2 9738   0.072   4.354  10.763
 2948SOL     OW 9739   0.561   3.946  10.457
 2948SOL    HW1 9740   0.599   3.862  10.494
 2948SOL    HW2 9741   0.473   3.965  10.501
 2949SOL     OW 9742   0.866   4.178   9.952
 2949SOL    HW1 9743   0.834   4.250   9.890
 2949SOL    HW2 9744   0.890   4.097   9.899
 2950SOL     OW 9745   1.017   3.763  10.063
 2950SOL    HW1 9746   0.945   3.768   9.994
 2950SOL    HW2 9747   0.993   3.694  10.132
 2951SOL     OW 9748   1.466   4.314  10.302
 2951SOL    HW1 9749   1.436   4.219  10.309
 2951SOL    HW2 9750   1.539   4.330  10.368
 2952SOL     OW 9751   1.390   4.299   9.388
 2952SOL    HW1 9752   1.336   4.278   9.469
 2952SOL    HW2 9753   1.481   4.258   9.397
 2953SOL     OW 9754   0.527   3.980   9.638
 2953SOL    HW1 9755   0.554   3.921   9.563
 2953SOL    HW2 9756   0.527   4.075   9.607
 2954SOL     OW 9757   0.915   3.813  10.712
 2954SOL    HW1 9758   0.940   3.793  10.617
 2954SOL    HW2 9759   0.987   3.869  10.754
 2955SOL     OW 9760   0.410   4.537  10.561
 2955SOL    HW1 9761   0.496   4.549  10.611
 2955SOL    HW2 9762   0.368   4.450  10.588
 2956SOL     OW 9763   1.274   4.110  10.572
 2956SOL    HW1 9764   1.295   4.184  10.636
 2956SOL    HW2 9765   1.185   4.127  10.529
 2957SOL     OW 9766   0.566   4.261  10.175
 2957SOL    HW1 9767   0.578   4.327  10.101
 2957SOL    HW2 9768   0.612   4.295  10.258
 2958SOL     OW 9769   1.582   4.363   9.782
 2958SOL    HW1 9770   1.551   4.424   9.855
 2958SOL    HW2 9771   1.632   4.415   9.713
 2959SOL     OW 9772   0.402   4.475  10.908
 2959SOL    HW1 9773   0.470   4.530  10.861
 2959SOL    HW2 9774   0.442   4.387  10.935
 2960SOL     OW 9775   1.209   4.249   9.585
 2960SOL    HW1 9776   1.222   4.165   9.639
 2960SOL    HW2 9777   1.180   4.323   9.645
 2961SOL     OW 9778   0.307   3.937  10.541
 2961SOL    HW1 9779   0.284   3.974  10.631
 2961SOL    HW2 9780   0.277   3.842  10.535
 2962SOL     OW 9781   0.732   4.358  10.374
 2962SOL    HW1 9782   0.791   4.332  10.298
 2962SOL    HW2 9783   0.704   4.454  10.363
 2963SOL     OW 9784   0.307   3.787   9.928
 2963SOL    HW1 9785   0.296   3.881   9.961
 2963SOL    HW2 9786   0.302   3.724  10.005
 2964SOL     OW 9787   1.622   4.091   9.684
 2964SOL    HW1 9788   1.624   4.015   9.748
 2964SOL    HW2 9789   1.574   4.168   9.724
 2965SOL     OW 9790   1.540   3.998   9.435
 2965SOL    HW1 9791   1.479   3.923   9.458
 2965SOL    HW2 9792   1.562   4.050   9.518
 2966SOL     OW 9793   0.319   4.534  10.259
 2966SOL    HW1 9794   0.412   4.570  10.264
 2966SOL    HW2 9795   0.313   4.449  10.311
 2967SOL     OW 9796   0.339   4.233  10.316
 2967SOL    HW1 9797   0.287   4.150  10.299
 2967SOL    HW2 9798   0.416   4.238  10.252
 2968SOL     OW 9799   1.160   3.931  10.787
 2968SOL    HW1 9800   1.160   3.995  10.864
 2968SOL    HW2 9801   1.188   3.979  10.704
 2969SOL     OW 9802   0.040   4.268  10.424
 2969SOL    HW1 9803   0.125   4.235  10.383
 2969SOL    HW2 9804   0.053   4.283  10.522
 2970SOL     OW 9805   1.369   4.674  10.970
 2970SOL    HW1 9806   1.408   4.763  10.990
 2970SOL    HW2 9807   1.379   4.654  10.873
 2971SOL     OW 9808   0.815   4.296   9.635
 2971SOL    HW1 9809   0.822   4.207   9.589
 2971SOL    HW2 9810   0.721   4.330   9.627
 2972SOL     OW 9811   1.657   4.328  10.516
 2972SOL    HW1 9812   1.619   4.259  10.578
 2972SOL    HW2 9813   1.739   4.292  10.472
 2973SOL     OW 9814   0.671   4.188  10.579
 2973SOL    HW1 9815   0.637   4.099  10.549
 2973SOL    HW2 9816   0.697   4.242  10.499
 2974SOL     OW 9817   0.473   4.224   9.501
 2974SOL    HW1 9818   0.534   4.304   9.505
 2974SOL    HW2 9819   0.378   4.255   9.508
 2975SOL     OW 9820   1.726   3.859   9.833
 2975SOL    HW1 9821   1.799   3.842   9.766
 2975SOL    HW2 9822   1.695   3.772   9.871
 2976SOL     OW 9823   1.280   4.651   9.982
 2976SOL    HW1 9824   1.340   4.570   9.984
 2976SOL    HW2 9825   1.320   4.720   9.922
 2977SOL     OW 9826   1.841   3.899  10.273
 2977SOL    HW1 9827   1.880   3.814  10.237
 2977SOL    HW2 9828   1.743   3.901  10.254
 2978SOL     OW 9829   0.263   4.050  10.030
 2978SOL    HW1 9830   0.184   4.101   9.996
 2978SOL    HW2 9831   0.254   4.035  10.128
 2979SOL     OW 9832   0.916   4.634   9.601
 2979SOL    HW1 9833   0.979   4.672   9.533
 2979SOL    HW2 9834   0.956   4.551   9.640
 2980SOL     OW 9835   1.039   4.822  10.006
 2980SOL    HW1 9836   0.969   4.775  10.060
 2980SOL    HW2 9837   1.098   4.754   9.963
 2981SOL     OW 9838   1.014   3.960  10.281
 2981SOL    HW1 9839   1.006   3.924  10.188
 2981SOL    HW2 9840   1.012   3.884  10.346
 2982SOL     OW 9841   1.709   4.109  10.691
 2982SOL    HW1 9842   1.782   4.178  10.695
 2982SOL    HW2 9843   1.737   4.034  10.632
 2983SOL     OW 9844   0.672   3.927  10.799
 2983SOL    HW1 9845   0.762   3.911  10.759
 2983SOL    HW2 9846   0.680   3.932  10.898
 2984SOL     OW 9847   0.075   4.069   9.343
 2984SOL    HW1 9848  -0.017   4.041   9.314
 2984SOL    HW2 9849   0.106   4.146   9.287
 2985SOL     OW 9850   0.072   3.890   9.628
 2985SOL    HW1 9851   0.055   3.973   9.574
 2985SOL    HW2 9852   0.162   3.853   9.606
 2986SOL     OW 9853   0.716   4.289  11.018
 2986SOL    HW1 9854   0.735   4.354  11.092
 2986SOL    HW2 9855   0.776   4.209  11.027
 2987SOL     OW 9856   1.225   4.049   9.759
 2987SOL    HW1 9857   1.290   3.975   9.748
 2987SOL    HW2 9858   1.245   4.099   9.843
 2988SOL     OW 9859   1.777   4.066  10.952
 2988SOL    HW1 9860   1.760   4.097  10.858
 2988SOL    HW2 9861   1.693   4.029  10.990
 2989SOL     OW 9862   1.083   4.708   9.397
 2989SOL    HW1 9863   1.060   4.761   9.315
 2989SOL    HW2 9864   1.164   4.652   9.378
 2990SOL     OW 9865   1.824   3.916  10.537
 2990SOL    HW1 9866   1.820   3.826  10.581
 2990SOL    HW2 9867   1.827   3.905  10.438
 2991SOL     OW 9868   0.428   4.148   9.830
 2991SOL    HW1 9869   0.458   4.076   9.768
 2991SOL    HW2 9870   0.389   4.108   9.913
 2992SOL     OW 9871   0.317   4.271  10.590
 2992SOL    HW1 9872   0.355   4.212  10.662
 2992SOL    HW2 9873   0.357   4.245  10.502
 2993SOL     OW 9874   1.424   3.938  10.422
 2993SOL    HW1 9875   1.476   3.873  10.477
 2993SOL    HW2 9876   1.375   4.001  10.483
 2994SOL     OW 9877   1.001   3.758  10.464
 2994SOL    HW1 9878   0.938   3.686  10.433
 2994SOL    HW2 9879   1.094   3.722  10.464
 2995SOL     OW 9880   1.352   3.776   9.478
 2995SOL    HW1 9881   1.387   3.735   9.394
 2995SOL    HW2 9882   1.262   3.738   9.498
 2996SOL     OW 9883   1.300   4.177  10.001
 2996SOL    HW1 9884   1.241   4.257  10.005
 2996SOL    HW2 9885   1.315   4.142  10.094
 2997SOL     OW 9886   1.593   3.945  10.192
 2997SOL    HW1 9887   1.509   3.944  10.246
 2997SOL    HW2 9888   1.595   4.028  10.136
 2998SOL     OW 9889   2.092   0.628   0.113
 2998SOL    HW1 9890   1.999   0.626   0.150
 2998SOL    HW2 9891   2.093   0.589   0.021
 2999SOL     OW 9892   2.087   0.275   0.996
 2999SOL    HW1 9893   2.122   0.258   1.088
 2999SOL    HW2 9894   1.999   0.230   0.984
 3000SOL     OW 9895   1.881   0.368   0.647
 3000SOL    HW1 9896   1.799   0.411   0.686
 3000SOL    HW2 9897   1.853   0.295   0.584
 3001SOL     OW 9898   2.431   1.275   1.165
 3001SOL    HW1 9899   2.338   1.268   1.128
 3001SOL    HW2 9900   2.442   1.364   1.209
 3002SOL     OW 9901   3.417   1.511   0.703
 3002SOL    HW1 9902   3.360   1.495   0.784
 3002SOL    HW2 9903   3.358   1.521   0.623
 3003SOL     OW 9904   2.997   0.703   0.717
 3003SOL    HW1 9905   3.054   0.781   0.692
 3003SOL    HW2 9906   2.937   0.729   0.793
 3004SOL     OW 9907   3.617   0.607   0.231
 3004SOL    HW1 9908   3.605   0.594   0.132
 3004SOL    HW2 9909   3.587   0.526   0.280
 3005SOL     OW 9910   2.630   1.144   1.023
 3005SOL    HW1 9911   2.552   1.161   1.083
 3005SOL    HW2 9912   2.664   1.231   0.987
 3006SOL     OW 9913   2.712   0.798   1.823
 3006SOL    HW1 9914   2.708   0.874   1.888
 3006SOL    HW2 9915   2.734   0.834   1.732
 3007SOL     OW 9916   2.547   1.012   0.665
 3007SOL    HW1 9917   2.616   0.996   0.735
 3007SOL    HW2 9918   2.474   1.069   0.703
 3008SOL     OW 9919   2.548   1.161   1.803
 3008SOL    HW1 9920   2.608   1.240   1.817
 3008SOL    HW2 9921   2.462   1.192   1.762
 3009SOL     OW 9922   2.197   1.435   1.061
 3009SOL    HW1 9923   2.119   1.404   1.008
 3009SOL    HW2 9924   2.255   1.493   1.004
 3010SOL     OW 9925   3.322   1.505   1.339
 3010SOL    HW1 9926   3.346   1.599   1.365
 3010SOL    HW2 9927   3.306   1.451   1.421
 3011SOL     OW 9928   2.300   0.392   1.499
 3011SOL    HW1 9929   2.382   0.336   1.508
 3011SOL    HW2 9930   2.219   0.334   1.503
 3012SOL     OW 9931   3.465   0.447   0.737
 3012SOL    HW1 9932   3.391   0.493   0.687
 3012SOL    HW2 9933   3.516   0.515   0.790
 3013SOL     OW 9934   2.093   1.713   0.483
 3013SOL    HW1 9935   2.127   1.790   0.537
 3013SOL    HW2 9936   2.137   1.713   0.393
 3014SOL     OW 9937   2.989   1.341   1.690
 3014SOL    HW1 9938   3.036   1.341   1.778
 3014SOL    HW2 9939   2.941   1.254   1.679
 3015SOL     OW 9940   2.092   1.434   0.538
 3015SOL    HW1 9941   2.066   1.530   0.538
 3015SOL    HW2 9942   2.021   1.380   0.583
 3016SOL     OW 9943   2.102   1.091   0.886
 3016SOL    HW1 9944   2.116   1.007   0.938
 3016SOL    HW2 9945   2.047   1.155   0.941
 3017SOL     OW 9946   2.482   1.786   1.439
 3017SOL    HW1 9947   2.390   1.769   1.474
 3017SOL    HW2 9948   2.510   1.878   1.465
 3018SOL     OW 9949   2.468   0.964   0.123
 3018SOL    HW1 9950   2.475   1.048   0.069
 3018SOL    HW2 9951   2.514   0.977   0.211
 3019SOL     OW 9952   3.456   0.114   1.480
 3019SOL    HW1 9953   3.438   0.181   1.408
 3019SOL    HW2 9954   3.453   0.160   1.569
 3020SOL     OW 9955   1.984   0.643   0.563
 3020SOL    HW1 9956   1.939   0.555   0.580
 3020SOL    HW2 9957   1.983   0.697   0.647
 3021SOL     OW 9958   3.704   1.767   0.359
 3021SOL    HW1 9959   3.758   1.738   0.439
 3021SOL    HW2 9960   3.734   1.857   0.330
 3022SOL     OW 9961   1.889   1.596   0.117
 3022SOL    HW1 9962   1.870   1.500   0.138
 3022SOL    HW2 9963   1.856   1.654   0.192
 3023SOL     OW 9964   3.551   0.922   0.612
 3023SOL    HW1 9965   3.646   0.893   0.620
 3023SOL    HW2 9966   3.543   0.987   0.537
 3024SOL     OW 9967   3.503   1.108   0.432
 3024SOL    HW1 9968   3.589   1.110   0.380
 3024SOL    HW2 9969   3.517   1.155   0.520
 3025SOL     OW 9970   1.975   0.737   1.597
 3025SOL    HW1 9971   2.063   0.724   1.642
 3025SOL    HW2 9972   1.962   0.834   1.575
 3026SOL     OW 9973   2.475   1.365   0.726
 3026SOL    HW1 9974   2.426   1.278   0.735
 3026SOL    HW2 9975   2.452   1.408   0.639
 3027SOL     OW 9976   3.155   1.228   1.423
 3027SOL    HW1 9977   3.192   1.155   1.365
 3027SOL    HW2 9978   3.207   1.233   1.508
 3028SOL     OW 9979   2.671   0.004   0.502
 3028SOL    HW1 9980   2.711   0.095   0.493
 3028SOL    HW2 9981   2.571   0.012   0.508
 3029SOL     OW 9982   2.059   0.976   1.264
 3029SOL    HW1 9983   2.148   0.931   1.250
 3029SOL    HW2 9984   1.986   0.911   1.245
 3030SOL     OW 9985   3.387   0.999   0.190
 3030SOL    HW1 9986   3.324   0.923   0.203
 3030SOL    HW2 9987   3.435   1.017   0.276
 3031SOL     OW 9988   3.049   1.792   1.616
 3031SOL    HW1 9989   3.073   1.852   1.540
 3031SOL    HW2 9990   3.056   1.697   1.586
 3032SOL     OW 9991   2.179   0.251   1.801
 3032SOL    HW1 9992   2.250   0.322   1.807
 3032SOL    HW2 9993   2.091   0.290   1.829
 3033SOL     OW 9994   3.328   1.417   0.953
 3033SOL    HW1 9995   3.269   1.423   1.033
 3033SOL    HW2 9996   3.313   1.329   0.907
 3034SOL     OW 9997   3.529   1.714   0.572
 3034SOL    HW1 9998   3.488   1.691   0.484
 3034SOL    HW2 9999   3.511   1.640   0.637
 3035SOL     OW10000   2.460   0.729   0.270
 3035SOL    HW110001   2.484   0.798   0.202
 3035SOL    HW210002   2.382   0.762   0.324
 3036SOL     OW10003   3.143   0.345   0.944
 3036SOL    HW110004   3.057   0.295   0.931
 3036SOL    HW210005   3.205   0.291   1.000
 3037SOL     OW10006   3.438   1.662   0.307
 3037SOL    HW110007   3.527   1.708   0.310
 3037SOL    HW210008   3.417   1.638   0.212
 3038SOL     OW10009   2.669   0.605   1.465
 3038SOL    HW110010   2.622   0.602   1.554
 3038SOL    HW210011   2.618   0.550   1.399
 3039SOL     OW10012   3.256   0.469   1.674
 3039SOL    HW110013   3.236   0.512   1.762
 3039SOL    HW210014   3.334   0.407   1.683
 3040SOL     OW10015   2.835   0.890   1.572
 3040SOL    HW110016   2.881   0.806   1.543
 3040SOL    HW210017   2.779   0.924   1.497
 3041SOL     OW10018   2.853   0.410   1.242
 3041SOL    HW110019   2.776   0.444   1.296
 3041SOL    HW210020   2.819   0.359   1.163
 3042SOL     OW10021   2.903   0.701   0.429
 3042SOL    HW110022   2.929   0.697   0.525
 3042SOL    HW210023   2.818   0.650   0.415
 3043SOL     OW10024   1.938   0.811   0.789
 3043SOL    HW110025   2.037   0.799   0.798
 3043SOL    HW210026   1.914   0.906   0.810
 3044SOL     OW10027   1.992   1.821   1.571
 3044SOL    HW110028   1.982   1.806   1.670
 3044SOL    HW210029   1.906   1.857   1.535
 3045SOL     OW10030   2.727   0.348   0.195
 3045SOL    HW110031   2.786   0.411   0.146
 3045SOL    HW210032   2.746   0.254   0.166
 3046SOL     OW10033   3.581   0.585   1.831
 3046SOL    HW110034   3.555   0.674   1.795
 3046SOL    HW210035   3.579   0.517   1.758
 3047SOL     OW10036   3.224   1.144   0.545
 3047SOL    HW110037   3.307   1.115   0.497
 3047SOL    HW210038   3.175   1.211   0.489
 3048SOL     OW10039   2.412   0.196   0.885
 3048SOL    HW110040   2.407   0.191   0.985
 3048SOL    HW210041   2.414   0.292   0.856
 3049SOL     OW10042   2.870   1.456   0.477
 3049SOL    HW110043   2.824   1.528   0.425
 3049SOL    HW210044   2.866   1.476   0.575
 3050SOL     OW10045   2.213   1.801   0.853
 3050SOL    HW110046   2.263   1.715   0.859
 3050SOL    HW210047   2.278   1.878   0.850
 3051SOL     OW10048   3.657   1.066   0.873
 3051SOL    HW110049   3.595   1.051   0.797
 3051SOL    HW210050   3.605   1.077   0.958
 3052SOL     OW10051   3.089   1.550   1.506
 3052SOL    HW110052   3.095   1.473   1.570
 3052SOL    HW210053   3.037   1.524   1.426
 3053SOL     OW10054   2.183   0.943   0.242
 3053SOL    HW110055   2.265   0.982   0.200
 3053SOL    HW210056   2.156   0.861   0.193
 3054SOL     OW10057   3.320   0.735   0.728
 3054SOL    HW110058   3.315   0.670   0.803
 3054SOL    HW210059   3.400   0.794   0.741
 3055SOL     OW10060   2.323   1.266   1.727
 3055SOL    HW110061   2.273   1.267   1.641
 3055SOL    HW210062   2.260   1.248   1.803
 3056SOL     OW10063   2.973   1.776   0.237
 3056SOL    HW110064   2.913   1.714   0.287
 3056SOL    HW210065   3.004   1.732   0.152
 3057SOL     OW10066   2.064   0.285   1.498
 3057SOL    HW110067   1.984   0.345   1.485
 3057SOL    HW210068   2.054   0.236   1.584
 3058SOL     OW10069   3.494   1.377   0.081
 3058SOL    HW110070   3.462   1.471   0.071
 3058SOL    HW210071   3.418   1.314   0.069
 3059SOL     OW10072   2.326   1.743   0.323
 3059SOL    HW110073   2.359   1.782   0.409
 3059SOL    HW210074   2.402   1.736   0.258
 3060SOL     OW10075   3.262   0.107   0.426
 3060SOL    HW110076   3.238   0.070   0.336
 3060SOL    HW210077   3.361   0.123   0.430
 3061SOL     OW10078   2.111   1.785   1.241
 3061SOL    HW110079   2.168   1.720   1.291
 3061SOL    HW210080   2.095   1.752   1.148
 3062SOL     OW10081   2.802   1.698   0.904
 3062SOL    HW110082   2.882   1.641   0.925
 3062SOL    HW210083   2.753   1.658   0.827
 3063SOL     OW10084   2.244   0.700   0.480
 3063SOL    HW110085   2.289   0.610   0.477
 3063SOL    HW210086   2.150   0.689   0.513
 3064SOL     OW10087   3.409   0.222   1.729
 3064SOL    HW110088   3.404   0.259   1.821
 3064SOL    HW210089   3.337   0.153   1.717
 3065SOL     OW10090   2.476   0.122   0.117
 3065SOL    HW110091   2.574   0.100   0.124
 3065SOL    HW210092   2.445   0.105   0.024
 3066SOL     OW10093   2.643   0.264   1.749
 3066SOL    HW110094   2.710   0.203   1.792
 3066SOL    HW210095   2.570   0.283   1.814
 3067SOL     OW10096   2.750   1.514   1.195
 3067SOL    HW110097   2.727   1.489   1.101
 3067SOL    HW210098   2.811   1.445   1.234
 3068SOL     OW10099   3.213   0.590   1.433
 3068SOL    HW110100   3.241   0.547   1.518
 3068SOL    HW210101   3.238   0.686   1.434
 3069SOL     OW10102   2.665   1.402   0.924
 3069SOL    HW110103   2.755   1.416   0.882
 3069SOL    HW210104   2.594   1.404   0.853
 3070SOL     OW10105   2.784   0.503   0.899
 3070SOL    HW110106   2.759   0.494   0.803
 3070SOL    HW210107   2.832   0.421   0.930
 3071SOL     OW10108   2.401   0.064   0.512
 3071SOL    HW110109   2.320   0.065   0.570
 3071SOL    HW210110   2.404   0.147   0.457
 3072SOL     OW10111   3.296   1.188   0.041
 3072SOL    HW110112   3.328   1.112   0.098
 3072SOL    HW210113   3.204   1.215   0.071
 3073SOL     OW10114   2.159   0.035   0.171
 3073SOL    HW110115   2.208   0.119   0.150
 3073SOL    HW210116   2.221  -0.030   0.216
 3074SOL     OW10117   2.797   0.236   0.480
 3074SOL    HW110118   2.749   0.277   0.402
 3074SOL    HW210119   2.896   0.234   0.461
 3075SOL     OW10120   2.938   0.683   1.464
 3075SOL    HW110121   2.858   0.622   1.467
 3075SOL    HW210122   3.019   0.630   1.440
 3076SOL     OW10123   3.089   1.570   0.793
 3076SOL    HW110124   3.110   1.644   0.728
 3076SOL    HW210125   3.157   1.570   0.866
 3077SOL     OW10126   2.321   1.152   0.741
 3077SOL    HW110127   2.250   1.125   0.806
 3077SOL    HW210128   2.295   1.124   0.648
 3078SOL     OW10129   3.133   1.797   0.591
 3078SOL    HW110130   3.177   1.861   0.527
 3078SOL    HW210131   3.083   1.849   0.661
 3079SOL     OW10132   2.894   0.549   0.016
 3079SOL    HW110133   2.853   0.631  -0.023
 3079SOL    HW210134   2.958   0.575   0.089
 3080SOL     OW10135   1.940   0.556   1.386
 3080SOL    HW110136   2.032   0.555   1.345
 3080SOL    HW210137   1.934   0.630   1.453
 3081SOL     OW10138   2.423   0.222   1.147
 3081SOL    HW110139   2.461   0.138   1.184
 3081SOL    HW210140   2.335   0.241   1.191
 3082SOL     OW10141   2.728   0.454   0.642
 3082SOL    HW110142   2.696   0.526   0.580
 3082SOL    HW210143   2.752   0.373   0.589
 3083SOL     OW10144   2.879   0.039   0.753
 3083SOL    HW110145   2.807   0.044   0.684
 3083SOL    HW210146   2.855  -0.030   0.822
 3084SOL     OW10147   3.291   1.173   0.867
 3084SOL    HW110148   3.236   1.089   0.860
 3084SOL    HW210149   3.317   1.202   0.775
 3085SOL     OW10150   3.328   0.590   0.992
 3085SOL    HW110151   3.298   0.495   0.999
 3085SOL    HW210152   3.401   0.606   1.058
 3086SOL     OW10153   3.719   0.833   0.377
 3086SOL    HW110154   3.761   0.769   0.441
 3086SOL    HW210155   3.681   0.782   0.299
 3087SOL     OW10156   2.350   1.385   0.174
 3087SOL    HW110157   2.263   1.370   0.221
 3087SOL    HW210158   2.333   1.411   0.079
 3088SOL     OW10159   3.526   1.280   0.657
 3088SOL    HW110160   3.625   1.288   0.671
 3088SOL    HW210161   3.481   1.364   0.688
 3089SOL     OW10162   3.252   0.575   0.078
 3089SOL    HW110163   3.198   0.554   0.159
 3089SOL    HW210164   3.343   0.534   0.087
 3090SOL     OW10165   2.389   0.256   0.328
 3090SOL    HW110166   2.416   0.197   0.253
 3090SOL    HW210167   2.389   0.351   0.297
 3091SOL     OW10168   3.616   1.223   1.588
 3091SOL    HW110169   3.707   1.184   1.575
 3091SOL    HW210170   3.624   1.319   1.612
 3092SOL     OW10171   2.926   1.347   1.340
 3092SOL    HW110172   2.846   1.324   1.395
 3092SOL    HW210173   3.009   1.321   1.389
 3093SOL     OW10174   3.454   1.629   1.625
 3093SOL    HW110175   3.481   1.663   1.535
 3093SOL    HW210176   3.533   1.591   1.671
 3094SOL     OW10177   2.973   1.195   1.100
 3094SOL    HW110178   2.933   1.239   1.181
 3094SOL    HW210179   2.932   1.232   1.017
 3095SOL     OW10180   3.500   1.099   1.079
 3095SOL    HW110181   3.505   1.180   1.138
 3095SOL    HW210182   3.414   1.101   1.028
 3096SOL     OW10183   2.777   0.089   1.402
 3096SOL    HW110184   2.802   0.069   1.307
 3096SOL    HW210185   2.849   0.145   1.444
 3097SOL     OW10186   2.842   1.116   1.719
 3097SOL    HW110187   2.743   1.122   1.729
 3097SOL    HW210188   2.865   1.036   1.663
 3098SOL     OW10189   2.567   1.050   0.368
 3098SOL    HW110190   2.553   1.057   0.467
 3098SOL    HW210191   2.651   0.999   0.350
 3099SOL     OW10192   2.272   0.813   1.251
 3099SOL    HW110193   2.358   0.825   1.301
 3099SOL    HW210194   2.230   0.726   1.278
 3100SOL     OW10195   3.136   0.386   1.262
 3100SOL    HW110196   3.157   0.460   1.326
 3100SOL    HW210197   3.047   0.403   1.219
 3101SOL     OW10198   1.926   1.564   1.331
 3101SOL    HW110199   1.880   1.646   1.297
 3101SOL    HW210200   2.024   1.583   1.340
 3102SOL     OW10201   2.229   1.100   0.501
 3102SOL    HW110202   2.222   1.183   0.445
 3102SOL    HW210203   2.233   1.020   0.441
 3103SOL     OW10204   2.428   0.537   0.865
 3103SOL    HW110205   2.440   0.603   0.791
 3103SOL    HW210206   2.474   0.571   0.948
 3104SOL     OW10207   3.114   1.348   0.388
 3104SOL    HW110208   3.164   1.425   0.428
 3104SOL    HW210209   3.019   1.350   0.420
 3105SOL     OW10210   3.134   1.445   1.142
 3105SOL    HW110211   3.181   1.458   1.229
 3105SOL    HW210212   3.068   1.371   1.151
 3106SOL     OW10213   3.444   0.639   0.472
 3106SOL    HW110214   3.413   0.700   0.545
 3106SOL    HW210215   3.494   0.691   0.403
 3107SOL     OW10216   2.216   1.510   1.329
 3107SOL    HW110217   2.195   1.466   1.242
 3107SOL    HW210218   2.313   1.536   1.332
 3108SOL     OW10219   2.264   0.751   1.598
 3108SOL    HW110220   2.332   0.806   1.551
 3108SOL    HW210221   2.304   0.663   1.625
 3109SOL     OW10222   3.449   0.779   1.670
 3109SOL    HW110223   3.357   0.817   1.665
 3109SOL    HW210224   3.509   0.826   1.605
 3110SOL     OW10225   2.875   0.105   1.770
 3110SOL    HW110226   2.881   0.190   1.718
 3110SOL    HW210227   2.907   0.029   1.713
 3111SOL     OW10228   2.366   0.050   1.740
 3111SOL    HW110229   2.324  -0.007   1.670
 3111SOL    HW210230   2.300   0.119   1.772
 3112SOL     OW10231   2.435   0.870   1.029
 3112SOL    HW110232   2.479   0.959   1.020
 3112SOL    HW210233   2.372   0.870   1.106
 3113SOL     OW10234   3.222   0.862   1.045
 3113SOL    HW110235   3.147   0.862   0.979
 3113SOL    HW210236   3.259   0.770   1.054
 3114SOL     OW10237   3.071   0.525   0.275
 3114SOL    HW110238   3.084   0.441   0.329
 3114SOL    HW210239   3.042   0.599   0.335
 3115SOL     OW10240   2.169   0.213   1.231
 3115SOL    HW110241   2.146   0.250   1.321
 3115SOL    HW210242   2.139   0.118   1.225
 3116SOL     OW10243   1.899   1.310   1.282
 3116SOL    HW110244   1.952   1.261   1.350
 3116SOL    HW210245   1.921   1.408   1.287
 3117SOL     OW10246   2.594   0.634   1.064
 3117SOL    HW110247   2.653   0.608   0.988
 3117SOL    HW210248   2.566   0.730   1.053
 3118SOL     OW10249   3.590   0.935   1.854
 3118SOL    HW110250   3.544   0.928   1.765
 3118SOL    HW210251   3.528   0.979   1.920
 3119SOL     OW10252   2.169   0.063   0.618
 3119SOL    HW110253   2.158   0.157   0.651
 3119SOL    HW210254   2.164   0.000   0.695
 3120SOL     OW10255   3.484   0.367   0.374
 3120SOL    HW110256   3.486   0.291   0.438
 3120SOL    HW210257   3.436   0.444   0.414
 3121SOL     OW10258   2.885   0.766   0.966
 3121SOL    HW110259   2.900   0.787   1.062
 3121SOL    HW210260   2.855   0.671   0.957
 3122SOL     OW10261   2.842   1.573   1.700
 3122SOL    HW110262   2.822   1.617   1.612
 3122SOL    HW210263   2.881   1.482   1.684
 3123SOL     OW10264   3.721   1.518   1.605
 3123SOL    HW110265   3.735   1.545   1.510
 3123SOL    HW210266   3.804   1.540   1.658
 3124SOL     OW10267   2.212   0.898   1.804
 3124SOL    HW110268   2.288   0.942   1.852
 3124SOL    HW210269   2.247   0.851   1.722
 3125SOL     OW10270   3.402   0.274   0.125
 3125SOL    HW110271   3.341   0.199   0.148
 3125SOL    HW210272   3.424   0.326   0.208
 3126SOL     OW10273   3.165   0.838   0.042
 3126SOL    HW110274   3.199   0.745   0.057
 3126SOL    HW210275   3.183   0.865  -0.053
 3127SOL     OW10276   2.930   1.333   0.849
 3127SOL    HW110277   2.937   1.249   0.794
 3127SOL    HW210278   2.992   1.402   0.813
 3128SOL     OW10279   2.181   0.810   0.949
 3128SOL    HW110280   2.274   0.846   0.954
 3128SOL    HW210281   2.175   0.725   1.001
 3129SOL     OW10282   2.201   0.509   1.006
 3129SOL    HW110283   2.149   0.426   0.989
 3129SOL    HW210284   2.278   0.514   0.942
 3130SOL     OW10285   3.000   0.380   1.678
 3130SOL    HW110286   2.955   0.443   1.742
 3130SOL    HW210287   3.093   0.411   1.661
 3131SOL     OW10288   3.022   0.207   1.477
 3131SOL    HW110289   3.022   0.271   1.554
 3131SOL    HW210290   3.050   0.255   1.394
 3132SOL     OW10291   1.870   1.326   0.200
 3132SOL    HW110292   1.777   1.347   0.169
 3132SOL    HW210293   1.880   1.227   0.213
 3133SOL     OW10294   1.950   1.801   0.927
 3133SOL    HW110295   1.908   1.715   0.900
 3133SOL    HW210296   2.044   1.804   0.893
 3134SOL     OW10297   2.366   1.568   0.910
 3134SOL    HW110298   2.432   1.642   0.919
 3134SOL    HW210299   2.410   1.489   0.868
 3135SOL     OW10300   2.864   0.796   1.238
 3135SOL    HW110301   2.905   0.764   1.324
 3135SOL    HW210302   2.768   0.769   1.235
 3136SOL     OW10303   1.902   0.544   1.114
 3136SOL    HW110304   1.987   0.511   1.073
 3136SOL    HW210305   1.915   0.559   1.212
 3137SOL     OW10306   2.051   0.520   1.722
 3137SOL    HW110307   2.110   0.480   1.652
 3137SOL    HW210308   1.993   0.591   1.681
 3138SOL     OW10309   3.231   0.950   1.660
 3138SOL    HW110310   3.270   1.039   1.680
 3138SOL    HW210311   3.241   0.930   1.563
 3139SOL     OW10312   2.677   0.572   0.325
 3139SOL    HW110313   2.684   0.483   0.279
 3139SOL    HW210314   2.583   0.606   0.317
 3140SOL     OW10315   3.519   0.604   1.206
 3140SOL    HW110316   3.481   0.535   1.268
 3140SOL    HW210317   3.601   0.568   1.162
 3141SOL     OW10318   2.114   1.564   1.744
 3141SOL    HW110319   2.084   1.621   1.820
 3141SOL    HW210320   2.107   1.467   1.770
 3142SOL     OW10321   2.533   0.464   1.269
 3142SOL    HW110322   2.499   0.375   1.239
 3142SOL    HW210323   2.559   0.518   1.189
 3143SOL     OW10324   2.792   1.678   1.465
 3143SOL    HW110325   2.768   1.660   1.370
 3143SOL    HW210326   2.822   1.772   1.475
 3144SOL     OW10327   2.335   0.500   0.191
 3144SOL    HW110328   2.396   0.580   0.195
 3144SOL    HW210329   2.240   0.531   0.198
 3145SOL     OW10330   2.021   1.137   1.466
 3145SOL    HW110331   2.043   1.076   1.542
 3145SOL    HW210332   2.031   1.088   1.380
 3146SOL     OW10333   3.209   1.059   1.234
 3146SOL    HW110334   3.233   0.996   1.160
 3146SOL    HW210335   3.119   1.099   1.216
 3147SOL     OW10336   3.164   0.855   0.309
 3147SOL    HW110337   3.078   0.824   0.351
 3147SOL    HW210338   3.160   0.841   0.210
 3148SOL     OW10339   3.621   1.747   1.154
 3148SOL    HW110340   3.682   1.777   1.081
 3148SOL    HW210341   3.583   1.658   1.132
 3149SOL     OW10342   3.114   1.731   1.128
 3149SOL    HW110343   3.198   1.736   1.074
 3149SOL    HW210344   3.091   1.635   1.146
 3150SOL     OW10345   1.945   1.258   1.022
 3150SOL    HW110346   1.940   1.257   1.122
 3150SOL    HW210347   1.862   1.217   0.984
 3151SOL     OW10348   2.550   1.662   1.716
 3151SOL    HW110349   2.494   1.743   1.725
 3151SOL    HW210350   2.602   1.666   1.630
 3152SOL     OW10351   2.765   0.086   0.133
 3152SOL    HW110352   2.816   0.087   0.047
 3152SOL    HW210353   2.821   0.044   0.204
 3153SOL     OW10354   3.588   0.135   0.523
 3153SOL    HW110355   3.661   0.118   0.456
 3153SOL    HW210356   3.557   0.048   0.561
 3154SOL     OW10357   3.250   1.573   0.477
 3154SOL    HW110358   3.317   1.585   0.403
 3154SOL    HW210359   3.210   1.662   0.500
 3155SOL     OW10360   1.992   1.794   1.851
 3155SOL    HW110361   1.951   1.720   1.904
 3155SOL    HW210362   2.056   1.845   1.909
 3156SOL     OW10363   3.142   0.927   0.672
 3156SOL    HW110364   3.202   0.846   0.674
 3156SOL    HW210365   3.182   0.996   0.612
 3157SOL     OW10366   2.692   1.273   1.422
 3157SOL    HW110367   2.687   1.306   1.517
 3157SOL    HW210368   2.606   1.292   1.376
 3158SOL     OW10369   2.534   1.616   0.154
 3158SOL    HW110370   2.543   1.626   0.055
 3158SOL    HW210371   2.494   1.527   0.175
 3159SOL     OW10372   3.512   1.720   1.394
 3159SOL    HW110373   3.565   1.730   1.310
 3159SOL    HW210374   3.485   1.810   1.428
 3160SOL     OW10375   3.703   0.175   0.963
 3160SOL    HW110376   3.742   0.090   0.927
 3160SOL    HW210377   3.605   0.177   0.944
 3161SOL     OW10378   2.125   0.326   0.720
 3161SOL    HW110379   2.046   0.377   0.686
 3161SOL    HW210380   2.116   0.311   0.818
 3162SOL     OW10381   3.056   1.612   0.031
 3162SOL    HW110382   3.062   1.519   0.068
 3162SOL    HW210383   2.997   1.612  -0.049
 3163SOL     OW10384   2.684   1.002   1.372
 3163SOL    HW110385   2.724   1.001   1.280
 3163SOL    HW210386   2.694   1.094   1.412
 3164SOL     OW10387   2.778   0.910   0.291
 3164SOL    HW110388   2.841   0.948   0.223
 3164SOL    HW210389   2.818   0.827   0.330
 3165SOL     OW10390   3.366   1.607   0.044
 3165SOL    HW110391   3.274   1.644   0.051
 3165SOL    HW210392   3.404   1.627  -0.046
 3166SOL     OW10393   2.234   1.288   1.490
 3166SOL    HW110394   2.221   1.381   1.456
 3166SOL    HW210395   2.150   1.236   1.477
 3167SOL     OW10396   3.476   1.292   1.289
 3167SOL    HW110397   3.536   1.295   1.369
 3167SOL    HW210398   3.401   1.356   1.302
 3168SOL     OW10399   2.901   1.098   0.696
 3168SOL    HW110400   2.831   1.051   0.750
 3168SOL    HW210401   2.960   1.030   0.653
 3169SOL     OW10402   2.876   0.236   0.971
 3169SOL    HW110403   2.868   0.200   0.878
 3169SOL    HW210404   2.874   0.160   1.036
 3170SOL     OW10405   2.452   1.487   0.491
 3170SOL    HW110406   2.494   1.429   0.421
 3170SOL    HW210407   2.408   1.566   0.447
 3171SOL     OW10408   3.571   0.385   1.381
 3171SOL    HW110409   3.644   0.454   1.385
 3171SOL    HW210410   3.599   0.310   1.322
 3172SOL     OW10411   2.117   1.348   0.290
 3172SOL    HW110412   2.021   1.349   0.263
 3172SOL    HW210413   2.129   1.401   0.374
 3173SOL     OW10414   1.967   1.013   1.726
 3173SOL    HW110415   1.890   0.980   1.780
 3173SOL    HW210416   2.052   0.983   1.768
 3174SOL     OW10417   2.534   0.203   1.489
 3174SOL    HW110418   2.624   0.187   1.449
 3174SOL    HW210419   2.542   0.208   1.588
 3175SOL     OW10420   1.937   0.345   0.033
 3175SOL    HW110421   1.845   0.317   0.004
 3175SOL    HW210422   1.968   0.422  -0.023
 3176SOL     OW10423   3.302   0.856   1.398
 3176SOL    HW110424   3.245   0.908   1.335
 3176SOL    HW210425   3.398   0.868   1.374
 3177SOL     OW10426   1.934   0.166   0.318
 3177SOL    HW110427   1.917   0.249   0.264
 3177SOL    HW210428   2.024   0.129   0.296
 3178SOL     OW10429   3.045   1.335   0.119
 3178SOL    HW110430   2.946   1.324   0.121
 3178SOL    HW210431   3.079   1.350   0.212
 3179SOL     OW10432   2.475   0.842   1.431
 3179SOL    HW110433   2.531   0.923   1.414
 3179SOL    HW210434   2.534   0.762   1.434
 3180SOL     OW10435   3.355   1.767   0.959
 3180SOL    HW110436   3.388   1.831   0.890
 3180SOL    HW210437   3.421   1.761   1.034
 3181SOL     OW10438   2.578   0.565   1.708
 3181SOL    HW110439   2.597   0.630   1.782
 3181SOL    HW210440   2.638   0.485   1.717
 3182SOL     OW10441   3.312   1.220   1.633
 3182SOL    HW110442   3.303   1.210   1.732
 3182SOL    HW210443   3.408   1.213   1.607
 3183SOL     OW10444   2.252   1.741   1.560
 3183SOL    HW110445   2.161   1.782   1.558
 3183SOL    HW210446   2.245   1.647   1.592
 3184SOL     OW10447   3.536   0.883   1.254
 3184SOL    HW110448   3.509   0.794   1.217
 3184SOL    HW210449   3.537   0.951   1.181
 3185SOL     OW10450   3.087   0.325   0.449
 3185SOL    HW110451   3.152   0.251   0.438
 3185SOL    HW210452   3.107   0.375   0.533
 3186SOL     OW10453   2.456   0.745   0.652
 3186SOL    HW110454   2.506   0.830   0.633
 3186SOL    HW210455   2.368   0.747   0.604
 3187SOL     OW10456   3.639   0.342   1.642
 3187SOL    HW110457   3.622   0.373   1.548
 3187SOL    HW210458   3.555   0.305   1.680
 3188SOL     OW10459   3.592   0.934   1.517
 3188SOL    HW110460   3.630   1.025   1.532
 3188SOL    HW210461   3.584   0.917   1.418
 3189SOL     OW10462   2.721   1.374   0.016
 3189SOL    HW110463   2.675   1.389   0.104
 3189SOL    HW210464   2.765   1.459  -0.014
 3190SOL     OW10465   2.523   1.790   0.953
 3190SOL    HW110466   2.477   1.878   0.940
 3190SOL    HW210467   2.622   1.802   0.946
 3191SOL     OW10468   2.721   0.956   0.861
 3191SOL    HW110469   2.775   0.887   0.909
 3191SOL    HW210470   2.689   1.025   0.927
 3192SOL     OW10471   2.945   0.984   0.087
 3192SOL    HW110472   2.922   1.037   0.005
 3192SOL    HW210473   3.026   0.928   0.068
 3193SOL     OW10474   3.723   1.569   0.851
 3193SOL    HW110475   3.652   1.557   0.781
 3193SOL    HW210476   3.724   1.490   0.911
 3194SOL     OW10477   2.083   1.314   1.844
 3194SOL    HW110478   2.018   1.241   1.823
 3194SOL    HW210479   2.087   1.328   1.942
 3195SOL     OW10480   1.941   1.240   0.653
 3195SOL    HW110481   1.940   1.193   0.741
 3195SOL    HW210482   2.023   1.212   0.602
 3196SOL     OW10483   2.534   1.391   1.624
 3196SOL    HW110484   2.456   1.341   1.662
 3196SOL    HW210485   2.531   1.486   1.655
 3197SOL     OW10486   3.686   0.192   1.227
 3197SOL    HW110487   3.682   0.102   1.271
 3197SOL    HW210488   3.689   0.181   1.128
 3198SOL     OW10489   2.290   0.424   0.520
 3198SOL    HW110490   2.320   0.352   0.458
 3198SOL    HW210491   2.251   0.384   0.603
 3199SOL     OW10492   3.567   1.487   1.104
 3199SOL    HW110493   3.474   1.462   1.077
 3199SOL    HW210494   3.593   1.437   1.186
 3200SOL     OW10495   2.179   0.547   1.280
 3200SOL    HW110496   2.217   0.488   1.352
 3200SOL    HW210497   2.219   0.521   1.192
 3201SOL     OW10498   2.674   1.586   0.687
 3201SOL    HW110499   2.706   1.596   0.593
 3201SOL    HW210500   2.595   1.524   0.689
 3202SOL     OW10501   3.286   0.214   1.112
 3202SOL    HW110502   3.338   0.149   1.167
 3202SOL    HW210503   3.237   0.277   1.173
 3203SOL     OW10504   2.863   0.034   1.154
 3203SOL    HW110505   2.800  -0.038   1.123
 3203SOL    HW210506   2.956  -0.002   1.154
 3204SOL     OW10507   2.632   1.330   0.301
 3204SOL    HW110508   2.586   1.243   0.318
 3204SOL    HW210509   2.723   1.327   0.342
 3205SOL     OW10510   2.480   1.567   1.284
 3205SOL    HW110511   2.475   1.649   1.341
 3205SOL    HW210512   2.569   1.564   1.239
 3206SOL     OW10513   3.214   0.052   0.168
 3206SOL    HW110514   3.249   0.011   0.084
 3206SOL    HW210515   3.124   0.014   0.188
 3207SOL     OW10516   3.162   0.453   0.691
 3207SOL    HW110517   3.103   0.533   0.695
 3207SOL    HW210518   3.177   0.418   0.784
 3208SOL     OW10519   3.455   0.221   0.882
 3208SOL    HW110520   3.371   0.220   0.936
 3208SOL    HW210521   3.457   0.304   0.826
 3209SOL     OW10522   1.901   1.077   0.300
 3209SOL    HW110523   2.000   1.066   0.291
 3209SOL    HW210524   1.861   0.991   0.332
 3210SOL     OW10525   2.737   1.646   0.337
 3210SOL    HW110526   2.660   1.611   0.283
 3210SOL    HW210527   2.705   1.717   0.399
 3211SOL     OW10528   2.092   0.628   1.975
 3211SOL    HW110529   1.999   0.626   2.012
 3211SOL    HW210530   2.093   0.589   1.883
 3212SOL     OW10531   2.087   0.275   2.858
 3212SOL    HW110532   2.122   0.258   2.950
 3212SOL    HW210533   1.999   0.230   2.846
 3213SOL     OW10534   1.881   0.368   2.509
 3213SOL    HW110535   1.799   0.411   2.548
 3213SOL    HW210536   1.853   0.295   2.446
 3214SOL     OW10537   2.431   1.275   3.027
 3214SOL    HW110538   2.338   1.268   2.990
 3214SOL    HW210539   2.442   1.364   3.071
 3215SOL     OW10540   3.417   1.511   2.565
 3215SOL    HW110541   3.360   1.495   2.646
 3215SOL    HW210542   3.358   1.521   2.485
 3216SOL     OW10543   2.997   0.703   2.579
 3216SOL    HW110544   3.054   0.781   2.554
 3216SOL    HW210545   2.937   0.729   2.655
 3217SOL     OW10546   3.617   0.607   2.093
 3217SOL    HW110547   3.605   0.594   1.994
 3217SOL    HW210548   3.587   0.526   2.142
 3218SOL     OW10549   2.630   1.144   2.885
 3218SOL    HW110550   2.552   1.161   2.945
 3218SOL    HW210551   2.664   1.231   2.849
 3219SOL     OW10552   2.712   0.798   3.685
 3219SOL    HW110553   2.708   0.874   3.750
 3219SOL    HW210554   2.734   0.834   3.594
 3220SOL     OW10555   2.547   1.012   2.527
 3220SOL    HW110556   2.616   0.996   2.597
 3220SOL    HW210557   2.474   1.069   2.565
 3221SOL     OW10558   2.548   1.161   3.665
 3221SOL    HW110559   2.608   1.240   3.679
 3221SOL    HW210560   2.462   1.192   3.624
 3222SOL     OW10561   2.197   1.435   2.923
 3222SOL    HW110562   2.119   1.404   2.870
 3222SOL    HW210563   2.255   1.493   2.866
 3223SOL     OW10564   3.322   1.505   3.201
 3223SOL    HW110565   3.346   1.599   3.227
 3223SOL    HW210566   3.306   1.451   3.283
 3224SOL     OW10567   2.300   0.392   3.361
 3224SOL    HW110568   2.382   0.336   3.370
 3224SOL    HW210569   2.219   0.334   3.365
 3225SOL     OW10570   3.465   0.447   2.599
 3225SOL    HW110571   3.391   0.493   2.549
 3225SOL    HW210572   3.516   0.515   2.652
 3226SOL     OW10573   2.093   1.713   2.345
 3226SOL    HW110574   2.127   1.790   2.399
 3226SOL    HW210575   2.137   1.713   2.255
 3227SOL     OW10576   2.989   1.341   3.552
 3227SOL    HW110577   3.036   1.341   3.640
 3227SOL    HW210578   2.941   1.254   3.541
 3228SOL     OW10579   2.092   1.434   2.400
 3228SOL    HW110580   2.066   1.530   2.400
 3228SOL    HW210581   2.021   1.380   2.445
 3229SOL     OW10582   2.102   1.091   2.748
 3229SOL    HW110583   2.116   1.007   2.800
 3229SOL    HW210584   2.047   1.155   2.803
 3230SOL     OW10585   2.482   1.786   3.301
 3230SOL    HW110586   2.390   1.769   3.336
 3230SOL    HW210587   2.510   1.878   3.327
 3231SOL     OW10588   2.468   0.964   1.985
 3231SOL    HW110589   2.475   1.048   1.931
 3231SOL    HW210590   2.514   0.977   2.073
 3232SOL     OW10591   3.456   0.114   3.342
 3232SOL    HW110592   3.438   0.181   3.270
 3232SOL    HW210593   3.453   0.160   3.431
 3233SOL     OW10594   1.984   0.643   2.425
 3233SOL    HW110595   1.939   0.555   2.442
 3233SOL    HW210596   1.983   0.697   2.509
 3234SOL     OW10597   3.704   1.767   2.221
 3234SOL    HW110598   3.758   1.738   2.301
 3234SOL    HW210599   3.734   1.857   2.192
 3235SOL     OW10600   1.889   1.596   1.979
 3235SOL    HW110601   1.870   1.500   2.000
 3235SOL    HW210602   1.856   1.654   2.054
 3236SOL     OW10603   3.551   0.922   2.474
 3236SOL    HW110604   3.646   0.893   2.482
 3236SOL    HW210605   3.543   0.987   2.399
 3237SOL     OW10606   3.503   1.108   2.294
 3237SOL    HW110607   3.589   1.110   2.242
 3237SOL    HW210608   3.517   1.155   2.382
 3238SOL     OW10609   1.975   0.737   3.459
 3238SOL    HW110610   2.063   0.724   3.504
 3238SOL    HW210611   1.962   0.834   3.437
 3239SOL     OW10612   2.475   1.365   2.588
 3239SOL    HW110613   2.426   1.278   2.597
 3239SOL    HW210614   2.452   1.408   2.501
 3240SOL     OW10615   3.155   1.228   3.285
 3240SOL    HW110616   3.192   1.155   3.227
 3240SOL    HW210617   3.207   1.233   3.370
 3241SOL     OW10618   2.671   0.004   2.364
 3241SOL    HW110619   2.711   0.095   2.355
 3241SOL    HW210620   2.571   0.012   2.370
 3242SOL     OW10621   2.059   0.976   3.126
 3242SOL    HW110622   2.148   0.931   3.112
 3242SOL    HW210623   1.986   0.911   3.107
 3243SOL     OW10624   3.387   0.999   2.052
 3243SOL    HW110625   3.324   0.923   2.065
 3243SOL    HW210626   3.435   1.017   2.138
 3244SOL     OW10627   3.049   1.792   3.478
 3244SOL    HW110628   3.073   1.852   3.402
 3244SOL    HW210629   3.056   1.697   3.448
 3245SOL     OW10630   2.179   0.251   3.663
 3245SOL    HW110631   2.250   0.322   3.669
 3245SOL    HW210632   2.091   0.290   3.691
 3246SOL     OW10633   3.328   1.417   2.815
 3246SOL    HW110634   3.269   1.423   2.895
 3246SOL    HW210635   3.313   1.329   2.769
 3247SOL     OW10636   3.529   1.714   2.434
 3247SOL    HW110637   3.488   1.691   2.346
 3247SOL    HW210638   3.511   1.640   2.499
 3248SOL     OW10639   2.460   0.729   2.132
 3248SOL    HW110640   2.484   0.798   2.064
 3248SOL    HW210641   2.382   0.762   2.186
 3249SOL     OW10642   3.143   0.345   2.806
 3249SOL    HW110643   3.057   0.295   2.793
 3249SOL    HW210644   3.205   0.291   2.862
 3250SOL     OW10645   3.438   1.662   2.169
 3250SOL    HW110646   3.527   1.708   2.172
 3250SOL    HW210647   3.417   1.638   2.074
 3251SOL     OW10648   2.669   0.605   3.327
 3251SOL    HW110649   2.622   0.602   3.416
 3251SOL    HW210650   2.618   0.550   3.261
 3252SOL     OW10651   3.256   0.469   3.536
 3252SOL    HW110652   3.236   0.512   3.624
 3252SOL    HW210653   3.334   0.407   3.545
 3253SOL     OW10654   2.835   0.890   3.434
 3253SOL    HW110655   2.881   0.806   3.405
 3253SOL    HW210656   2.779   0.924   3.359
 3254SOL     OW10657   2.853   0.410   3.104
 3254SOL    HW110658   2.776   0.444   3.158
 3254SOL    HW210659   2.819   0.359   3.025
 3255SOL     OW10660   2.903   0.701   2.291
 3255SOL    HW110661   2.929   0.697   2.387
 3255SOL    HW210662   2.818   0.650   2.277
 3256SOL     OW10663   1.938   0.811   2.651
 3256SOL    HW110664   2.037   0.799   2.660
 3256SOL    HW210665   1.914   0.906   2.672
 3257SOL     OW10666   1.992   1.821   3.433
 3257SOL    HW110667   1.982   1.806   3.532
 3257SOL    HW210668   1.906   1.857   3.397
 3258SOL     OW10669   2.727   0.348   2.057
 3258SOL    HW110670   2.786   0.411   2.008
 3258SOL    HW210671   2.746   0.254   2.028
 3259SOL     OW10672   3.581   0.585   3.693
 3259SOL    HW110673   3.555   0.674   3.657
 3259SOL    HW210674   3.579   0.517   3.620
 3260SOL     OW10675   3.224   1.144   2.407
 3260SOL    HW110676   3.307   1.115   2.359
 3260SOL    HW210677   3.175   1.211   2.351
 3261SOL     OW10678   2.412   0.196   2.747
 3261SOL    HW110679   2.407   0.191   2.847
 3261SOL    HW210680   2.414   0.292   2.718
 3262SOL     OW10681   2.870   1.456   2.339
 3262SOL    HW110682   2.824   1.528   2.287
 3262SOL    HW210683   2.866   1.476   2.437
 3263SOL     OW10684   2.213   1.801   2.715
 3263SOL    HW110685   2.263   1.715   2.721
 3263SOL    HW210686   2.278   1.878   2.712
 3264SOL     OW10687   3.657   1.066   2.735
 3264SOL    HW110688   3.595   1.051   2.659
 3264SOL    HW210689   3.605   1.077   2.820
 3265SOL     OW10690   3.089   1.550   3.368
 3265SOL    HW110691   3.095   1.473   3.432
 3265SOL    HW210692   3.037   1.524   3.288
 3266SOL     OW10693   2.183   0.943   2.104
 3266SOL    HW110694   2.265   0.982   2.062
 3266SOL    HW210695   2.156   0.861   2.055
 3267SOL     OW10696   3.320   0.735   2.590
 3267SOL    HW110697   3.315   0.670   2.665
 3267SOL    HW210698   3.400   0.794   2.603
 3268SOL     OW10699   2.323   1.266   3.589
 3268SOL    HW110700   2.273   1.267   3.503
 3268SOL    HW210701   2.260   1.248   3.665
 3269SOL     OW10702   2.973   1.776   2.099
 3269SOL    HW110703   2.913   1.714   2.149
 3269SOL    HW210704   3.004   1.732   2.014
 3270SOL     OW10705   2.064   0.285   3.360
 3270SOL    HW110706   1.984   0.345   3.347
 3270SOL    HW210707   2.054   0.236   3.446
 3271SOL     OW10708   3.494   1.377   1.943
 3271SOL    HW110709   3.462   1.471   1.933
 3271SOL    HW210710   3.418   1.314   1.931
 3272SOL     OW10711   2.326   1.743   2.185
 3272SOL    HW110712   2.359   1.782   2.271
 3272SOL    HW210713   2.402   1.736   2.120
 3273SOL     OW10714   3.262   0.107   2.288
 3273SOL    HW110715   3.238   0.070   2.198
 3273SOL    HW210716   3.361   0.123   2.292
 3274SOL     OW10717   2.111   1.785   3.103
 3274SOL    HW110718   2.168   1.720   3.153
 3274SOL    HW210719   2.095   1.752   3.010
 3275SOL     OW10720   2.802   1.698   2.766
 3275SOL    HW110721   2.882   1.641   2.787
 3275SOL    HW210722   2.753   1.658   2.689
 3276SOL     OW10723   2.244   0.700   2.342
 3276SOL    HW110724   2.289   0.610   2.339
 3276SOL    HW210725   2.150   0.689   2.375
 3277SOL     OW10726   3.409   0.222   3.591
 3277SOL    HW110727   3.404   0.259   3.683
 3277SOL    HW210728   3.337   0.153   3.579
 3278SOL     OW10729   2.476   0.122   1.979
 3278SOL    HW110730   2.574   0.100   1.986
 3278SOL    HW210731   2.445   0.105   1.886
 3279SOL     OW10732   2.643   0.264   3.611
 3279SOL    HW110733   2.710   0.203   3.654
 3279SOL    HW210734   2.570   0.283   3.676
 3280SOL     OW10735   2.750   1.514   3.057
 3280SOL    HW110736   2.727   1.489   2.963
 3280SOL    HW210737   2.811   1.445   3.096
 3281SOL     OW10738   3.213   0.590   3.295
 3281SOL    HW110739   3.241   0.547   3.380
 3281SOL    HW210740   3.238   0.686   3.296
 3282SOL     OW10741   2.665   1.402   2.786
 3282SOL    HW110742   2.755   1.416   2.744
 3282SOL    HW210743   2.594   1.404   2.715
 3283SOL     OW10744   2.784   0.503   2.761
 3283SOL    HW110745   2.759   0.494   2.665
 3283SOL    HW210746   2.832   0.421   2.792
 3284SOL     OW10747   2.401   0.064   2.374
 3284SOL    HW110748   2.320   0.065   2.432
 3284SOL    HW210749   2.404   0.147   2.319
 3285SOL     OW10750   3.296   1.188   1.903
 3285SOL    HW110751   3.328   1.112   1.960
 3285SOL    HW210752   3.204   1.215   1.933
 3286SOL     OW10753   2.159   0.035   2.033
 3286SOL    HW110754   2.208   0.119   2.012
 3286SOL    HW210755   2.221  -0.030   2.078
 3287SOL     OW10756   2.797   0.236   2.342
 3287SOL    HW110757   2.749   0.277   2.264
 3287SOL    HW210758   2.896   0.234   2.323
 3288SOL     OW10759   2.938   0.683   3.326
 3288SOL    HW110760   2.858   0.622   3.329
 3288SOL    HW210761   3.019   0.630   3.302
 3289SOL     OW10762   3.089   1.570   2.655
 3289SOL    HW110763   3.110   1.644   2.590
 3289SOL    HW210764   3.157   1.570   2.728
 3290SOL     OW10765   2.321   1.152   2.603
 3290SOL    HW110766   2.250   1.125   2.668
 3290SOL    HW210767   2.295   1.124   2.510
 3291SOL     OW10768   3.133   1.797   2.453
 3291SOL    HW110769   3.177   1.861   2.389
 3291SOL    HW210770   3.083   1.849   2.523
 3292SOL     OW10771   2.894   0.549   1.878
 3292SOL    HW110772   2.853   0.631   1.839
 3292SOL    HW210773   2.958   0.575   1.951
 3293SOL     OW10774   1.940   0.556   3.248
 3293SOL    HW110775   2.032   0.555   3.207
 3293SOL    HW210776   1.934   0.630   3.315
 3294SOL     OW10777   2.423   0.222   3.009
 3294SOL    HW110778   2.461   0.138   3.046
 3294SOL    HW210779   2.335   0.241   3.053
 3295SOL     OW10780   2.728   0.454   2.504
 3295SOL    HW110781   2.696   0.526   2.442
 3295SOL    HW210782   2.752   0.373   2.451
 3296SOL     OW10783   2.879   0.039   2.615
 3296SOL    HW110784   2.807   0.044   2.546
 3296SOL    HW210785   2.855  -0.030   2.684
 3297SOL     OW10786   3.291   1.173   2.729
 3297SOL    HW110787   3.236   1.089   2.722
 3297SOL    HW210788   3.317   1.202   2.637
 3298SOL     OW10789   3.328   0.590   2.854
 3298SOL    HW110790   3.298   0.495   2.861
 3298SOL    HW210791   3.401   0.606   2.920
 3299SOL     OW10792   3.719   0.833   2.239
 3299SOL    HW110793   3.761   0.769   2.303
 3299SOL    HW210794   3.681   0.782   2.161
 3300SOL     OW10795   2.350   1.385   2.036
 3300SOL    HW110796   2.263   1.370   2.083
 3300SOL    HW210797   2.333   1.411   1.941
 3301SOL     OW10798   3.526   1.280   2.519
 3301SOL    HW110799   3.625   1.288   2.533
 3301SOL    HW210800   3.481   1.364   2.550
 3302SOL     OW10801   3.252   0.575   1.940
 3302SOL    HW110802   3.198   0.554   2.021
 3302SOL    HW210803   3.343   0.534   1.949
 3303SOL     OW10804   2.389   0.256   2.190
 3303SOL    HW110805   2.416   0.197   2.115
 3303SOL    HW210806   2.389   0.351   2.159
 3304SOL     OW10807   3.616   1.223   3.450
 3304SOL    HW110808   3.707   1.184   3.437
 3304SOL    HW210809   3.624   1.319   3.474
 3305SOL     OW10810   2.926   1.347   3.202
 3305SOL    HW110811   2.846   1.324   3.257
 3305SOL    HW210812   3.009   1.321   3.251
 3306SOL     OW10813   3.454   1.629   3.487
 3306SOL    HW110814   3.481   1.663   3.397
 3306SOL    HW210815   3.533   1.591   3.533
 3307SOL     OW10816   2.973   1.195   2.962
 3307SOL    HW110817   2.933   1.239   3.043
 3307SOL    HW210818   2.932   1.232   2.879
 3308SOL     OW10819   3.500   1.099   2.941
 3308SOL    HW110820   3.505   1.180   3.000
 3308SOL    HW210821   3.414   1.101   2.890
 3309SOL     OW10822   2.777   0.089   3.264
 3309SOL    HW110823   2.802   0.069   3.169
 3309SOL    HW210824   2.849   0.145   3.306
 3310SOL     OW10825   2.842   1.116   3.581
 3310SOL    HW110826   2.743   1.122   3.591
 3310SOL    HW210827   2.865   1.036   3.525
 3311SOL     OW10828   2.567   1.050   2.230
 3311SOL    HW110829   2.553   1.057   2.329
 3311SOL    HW210830   2.651   0.999   2.212
 3312SOL     OW10831   2.272   0.813   3.113
 3312SOL    HW110832   2.358   0.825   3.163
 3312SOL    HW210833   2.230   0.726   3.140
 3313SOL     OW10834   3.136   0.386   3.124
 3313SOL    HW110835   3.157   0.460   3.188
 3313SOL    HW210836   3.047   0.403   3.081
 3314SOL     OW10837   1.926   1.564   3.193
 3314SOL    HW110838   1.880   1.646   3.159
 3314SOL    HW210839   2.024   1.583   3.202
 3315SOL     OW10840   2.229   1.100   2.363
 3315SOL    HW110841   2.222   1.183   2.307
 3315SOL    HW210842   2.233   1.020   2.303
 3316SOL     OW10843   2.428   0.537   2.727
 3316SOL    HW110844   2.440   0.603   2.653
 3316SOL    HW210845   2.474   0.571   2.810
 3317SOL     OW10846   3.114   1.348   2.250
 3317SOL    HW110847   3.164   1.425   2.290
 3317SOL    HW210848   3.019   1.350   2.282
 3318SOL     OW10849   3.134   1.445   3.004
 3318SOL    HW110850   3.181   1.458   3.091
 3318SOL    HW210851   3.068   1.371   3.013
 3319SOL     OW10852   3.444   0.639   2.334
 3319SOL    HW110853   3.413   0.700   2.407
 3319SOL    HW210854   3.494   0.691   2.265
 3320SOL     OW10855   2.216   1.510   3.191
 3320SOL    HW110856   2.195   1.466   3.104
 3320SOL    HW210857   2.313   1.536   3.194
 3321SOL     OW10858   2.264   0.751   3.460
 3321SOL    HW110859   2.332   0.806   3.413
 3321SOL    HW210860   2.304   0.663   3.487
 3322SOL     OW10861   3.449   0.779   3.532
 3322SOL    HW110862   3.357   0.817   3.527
 3322SOL    HW210863   3.509   0.826   3.467
 3323SOL     OW10864   2.875   0.105   3.632
 3323SOL    HW110865   2.881   0.190   3.580
 3323SOL    HW210866   2.907   0.029   3.575
 3324SOL     OW10867   2.366   0.050   3.602
 3324SOL    HW110868   2.324  -0.007   3.532
 3324SOL    HW210869   2.300   0.119   3.634
 3325SOL     OW10870   2.435   0.870   2.891
 3325SOL    HW110871   2.479   0.959   2.882
 3325SOL    HW210872   2.372   0.870   2.968
 3326SOL     OW10873   3.222   0.862   2.907
 3326SOL    HW110874   3.147   0.862   2.841
 3326SOL    HW210875   3.259   0.770   2.916
 3327SOL     OW10876   3.071   0.525   2.137
 3327SOL    HW110877   3.084   0.441   2.191
 3327SOL    HW210878   3.042   0.599   2.197
 3328SOL     OW10879   2.169   0.213   3.093
 3328SOL    HW110880   2.146   0.250   3.183
 3328SOL    HW210881   2.139   0.118   3.087
 3329SOL     OW10882   1.899   1.310   3.144
 3329SOL    HW110883   1.952   1.261   3.212
 3329SOL    HW210884   1.921   1.408   3.149
 3330SOL     OW10885   2.594   0.634   2.926
 3330SOL    HW110886   2.653   0.608   2.850
 3330SOL    HW210887   2.566   0.730   2.915
 3331SOL     OW10888   3.590   0.935   3.716
 3331SOL    HW110889   3.544   0.928   3.627
 3331SOL    HW210890   3.528   0.979   3.782
 3332SOL     OW10891   2.169   0.063   2.480
 3332SOL    HW110892   2.158   0.157   2.513
 3332SOL    HW210893   2.164   0.000   2.557
 3333SOL     OW10894   3.484   0.367   2.236
 3333SOL    HW110895   3.486   0.291   2.300
 3333SOL    HW210896   3.436   0.444   2.276
 3334SOL     OW10897   2.885   0.766   2.828
 3334SOL    HW110898   2.900   0.787   2.924
 3334SOL    HW210899   2.855   0.671   2.819
 3335SOL     OW10900   2.842   1.573   3.562
 3335SOL    HW110901   2.822   1.617   3.474
 3335SOL    HW210902   2.881   1.482   3.546
 3336SOL     OW10903   3.721   1.518   3.467
 3336SOL    HW110904   3.735   1.545   3.372
 3336SOL    HW210905   3.804   1.540   3.520
 3337SOL     OW10906   2.212   0.898   3.666
 3337SOL    HW110907   2.288   0.942   3.714
 3337SOL    HW210908   2.247   0.851   3.584
 3338SOL     OW10909   3.402   0.274   1.987
 3338SOL    HW110910   3.341   0.199   2.010
 3338SOL    HW210911   3.424   0.326   2.070
 3339SOL     OW10912   3.165   0.838   1.904
 3339SOL    HW110913   3.199   0.745   1.919
 3339SOL    HW210914   3.183   0.865   1.809
 3340SOL     OW10915   2.930   1.333   2.711
 3340SOL    HW110916   2.937   1.249   2.656
 3340SOL    HW210917   2.992   1.402   2.675
 3341SOL     OW10918   2.181   0.810   2.811
 3341SOL    HW110919   2.274   0.846   2.816
 3341SOL    HW210920   2.175   0.725   2.863
 3342SOL     OW10921   2.201   0.509   2.868
 3342SOL    HW110922   2.149   0.426   2.851
 3342SOL    HW210923   2.278   0.514   2.804
 3343SOL     OW10924   3.000   0.380   3.540
 3343SOL    HW110925   2.955   0.443   3.604
 3343SOL    HW210926   3.093   0.411   3.523
 3344SOL     OW10927   3.022   0.207   3.339
 3344SOL    HW110928   3.022   0.271   3.416
 3344SOL    HW210929   3.050   0.255   3.256
 3345SOL     OW10930   1.870   1.326   2.062
 3345SOL    HW110931   1.777   1.347   2.031
 3345SOL    HW210932   1.880   1.227   2.075
 3346SOL     OW10933   1.950   1.801   2.789
 3346SOL    HW110934   1.908   1.715   2.762
 3346SOL    HW210935   2.044   1.804   2.755
 3347SOL     OW10936   2.366   1.568   2.772
 3347SOL    HW110937   2.432   1.642   2.781
 3347SOL    HW210938   2.410   1.489   2.730
 3348SOL     OW10939   2.864   0.796   3.100
 3348SOL    HW110940   2.905   0.764   3.186
 3348SOL    HW210941   2.768   0.769   3.097
 3349SOL     OW10942   1.902   0.544   2.976
 3349SOL    HW110943   1.987   0.511   2.935
 3349SOL    HW210944   1.915   0.559   3.074
 3350SOL     OW10945   2.051   0.520   3.584
 3350SOL    HW110946   2.110   0.480   3.514
 3350SOL    HW210947   1.993   0.591   3.543
 3351SOL     OW10948   3.231   0.950   3.522
 3351SOL    HW110949   3.270   1.039   3.542
 3351SOL    HW210950   3.241   0.930   3.425
 3352SOL     OW10951   2.677   0.572   2.187
 3352SOL    HW110952   2.684   0.483   2.141
 3352SOL    HW210953   2.583   0.606   2.179
 3353SOL     OW10954   3.519   0.604   3.068
 3353SOL    HW110955   3.481   0.535   3.130
 3353SOL    HW210956   3.601   0.568   3.024
 3354SOL     OW10957   2.114   1.564   3.606
 3354SOL    HW110958   2.084   1.621   3.682
 3354SOL    HW210959   2.107   1.467   3.632
 3355SOL     OW10960   2.533   0.464   3.131
 3355SOL    HW110961   2.499   0.375   3.101
 3355SOL    HW210962   2.559   0.518   3.051
 3356SOL     OW10963   2.792   1.678   3.327
 3356SOL    HW110964   2.768   1.660   3.232
 3356SOL    HW210965   2.822   1.772   3.337
 3357SOL     OW10966   2.335   0.500   2.053
 3357SOL    HW110967   2.396   0.580   2.057
 3357SOL    HW210968   2.240   0.531   2.060
 3358SOL     OW10969   2.021   1.137   3.328
 3358SOL    HW110970   2.043   1.076   3.404
 3358SOL    HW210971   2.031   1.088   3.242
 3359SOL     OW10972   3.209   1.059   3.096
 3359SOL    HW110973   3.233   0.996   3.022
 3359SOL    HW210974   3.119   1.099   3.078
 3360SOL     OW10975   3.164   0.855   2.171
 3360SOL    HW110976   3.078   0.824   2.213
 3360SOL    HW210977   3.160   0.841   2.072
 3361SOL     OW10978   3.621   1.747   3.016
 3361SOL    HW110979   3.682   1.777   2.943
 3361SOL    HW210980   3.583   1.658   2.994
 3362SOL     OW10981   3.114   1.731   2.990
 3362SOL    HW110982   3.198   1.736   2.936
 3362SOL    HW210983   3.091   1.635   3.008
 3363SOL     OW10984   1.945   1.258   2.884
 3363SOL    HW110985   1.940   1.257   2.984
 3363SOL    HW210986   1.862   1.217   2.846
 3364SOL     OW10987   2.550   1.662   3.578
 3364SOL    HW110988   2.494   1.743   3.587
 3364SOL    HW210989   2.602   1.666   3.492
 3365SOL     OW10990   3.588   0.135   2.385
 3365SOL    HW110991   3.661   0.118   2.318
 3365SOL    HW210992   3.557   0.048   2.423
 3366SOL     OW10993   3.250   1.573   2.339
 3366SOL    HW110994   3.317   1.585   2.265
 3366SOL    HW210995   3.210   1.662   2.362
 3367SOL     OW10996   1.992   1.794   3.713
 3367SOL    HW110997   1.951   1.720   3.766
 3367SOL    HW210998   2.056   1.845   3.771
 3368SOL     OW10999   3.142   0.927   2.534
 3368SOL    HW111000   3.202   0.846   2.536
 3368SOL    HW211001   3.182   0.996   2.474
 3369SOL     OW11002   2.692   1.273   3.284
 3369SOL    HW111003   2.687   1.306   3.379
 3369SOL    HW211004   2.606   1.292   3.238
 3370SOL     OW11005   2.534   1.616   2.016
 3370SOL    HW111006   2.543   1.626   1.917
 3370SOL    HW211007   2.494   1.527   2.037
 3371SOL     OW11008   3.512   1.720   3.256
 3371SOL    HW111009   3.565   1.730   3.172
 3371SOL    HW211010   3.485   1.810   3.290
 3372SOL     OW11011   3.703   0.175   2.825
 3372SOL    HW111012   3.742   0.090   2.789
 3372SOL    HW211013   3.605   0.177   2.806
 3373SOL     OW11014   2.125   0.326   2.582
 3373SOL    HW111015   2.046   0.377   2.548
 3373SOL    HW211016   2.116   0.311   2.680
 3374SOL     OW11017   3.056   1.612   1.893
 3374SOL    HW111018   3.062   1.519   1.930
 3374SOL    HW211019   2.997   1.612   1.813
 3375SOL     OW11020   2.684   1.002   3.234
 3375SOL    HW111021   2.724   1.001   3.142
 3375SOL    HW211022   2.694   1.094   3.274
 3376SOL     OW11023   2.778   0.910   2.153
 3376SOL    HW111024   2.841   0.948   2.085
 3376SOL    HW211025   2.818   0.827   2.192
 3377SOL     OW11026   3.366   1.607   1.906
 3377SOL    HW111027   3.274   1.644   1.913
 3377SOL    HW211028   3.404   1.627   1.816
 3378SOL     OW11029   2.234   1.288   3.352
 3378SOL    HW111030   2.221   1.381   3.318
 3378SOL    HW211031   2.150   1.236   3.339
 3379SOL     OW11032   3.476   1.292   3.151
 3379SOL    HW111033   3.536   1.295   3.231
 3379SOL    HW211034   3.401   1.356   3.164
 3380SOL     OW11035   2.901   1.098   2.558
 3380SOL    HW111036   2.831   1.051   2.612
 3380SOL    HW211037   2.960   1.030   2.515
 3381SOL     OW11038   2.876   0.236   2.833
 3381SOL    HW111039   2.868   0.200   2.740
 3381SOL    HW211040   2.874   0.160   2.898
 3382SOL     OW11041   2.452   1.487   2.353
 3382SOL    HW111042   2.494   1.429   2.283
 3382SOL    HW211043   2.408   1.566   2.309
 3383SOL     OW11044   3.571   0.385   3.243
 3383SOL    HW111045   3.644   0.454   3.247
 3383SOL    HW211046   3.599   0.310   3.184
 3384SOL     OW11047   2.117   1.348   2.152
 3384SOL    HW111048   2.021   1.349   2.125
 3384SOL    HW211049   2.129   1.401   2.236
 3385SOL     OW11050   1.967   1.013   3.588
 3385SOL    HW111051   1.890   0.980   3.642
 3385SOL    HW211052   2.052   0.983   3.630
 3386SOL     OW11053   2.534   0.203   3.351
 3386SOL    HW111054   2.624   0.187   3.311
 3386SOL    HW211055   2.542   0.208   3.450
 3387SOL     OW11056   1.937   0.345   1.895
 3387SOL    HW111057   1.845   0.317   1.866
 3387SOL    HW211058   1.968   0.422   1.839
 3388SOL     OW11059   3.302   0.856   3.260
 3388SOL    HW111060   3.245   0.908   3.197
 3388SOL    HW211061   3.398   0.868   3.236
 3389SOL     OW11062   1.934   0.166   2.180
 3389SOL    HW111063   1.917   0.249   2.126
 3389SOL    HW211064   2.024   0.129   2.158
 3390SOL     OW11065   3.045   1.335   1.981
 3390SOL    HW111066   2.946   1.324   1.983
 3390SOL    HW211067   3.079   1.350   2.074
 3391SOL     OW11068   2.475   0.842   3.293
 3391SOL    HW111069   2.531   0.923   3.276
 3391SOL    HW211070   2.534   0.762   3.296
 3392SOL     OW11071   3.355   1.767   2.821
 3392SOL    HW111072   3.388   1.831   2.752
 3392SOL    HW211073   3.421   1.761   2.896
 3393SOL     OW11074   2.578   0.565   3.570
 3393SOL    HW111075   2.597   0.630   3.644
 3393SOL    HW211076   2.638   0.485   3.579
 3394SOL     OW11077   3.312   1.220   3.495
 3394SOL    HW111078   3.303   1.210   3.594
 3394SOL    HW211079   3.408   1.213   3.469
 3395SOL     OW11080   2.252   1.741   3.422
 3395SOL    HW111081   2.161   1.782   3.420
 3395SOL    HW211082   2.245   1.647   3.454
 3396SOL     OW11083   3.536   0.883   3.116
 3396SOL    HW111084   3.509   0.794   3.079
 3396SOL    HW211085   3.537   0.951   3.043
 3397SOL     OW11086   3.087   0.325   2.311
 3397SOL    HW111087   3.152   0.251   2.300
 3397SOL    HW211088   3.107   0.375   2.395
 3398SOL     OW11089   2.456   0.745   2.514
 3398SOL    HW111090   2.506   0.830   2.495
 3398SOL    HW211091   2.368   0.747   2.466
 3399SOL     OW11092   3.639   0.342   3.504
 3399SOL    HW111093   3.622   0.373   3.410
 3399SOL    HW211094   3.555   0.305   3.542
 3400SOL     OW11095   3.592   0.934   3.379
 3400SOL    HW111096   3.630   1.025   3.394
 3400SOL    HW211097   3.584   0.917   3.280
 3401SOL     OW11098   2.721   1.374   1.878
 3401SOL    HW111099   2.675   1.389   1.966
 3401SOL    HW211100   2.765   1.459   1.848
 3402SOL     OW11101   2.523   1.790   2.815
 3402SOL    HW111102   2.477   1.878   2.802
 3402SOL    HW211103   2.622   1.802   2.808
 3403SOL     OW11104   2.721   0.956   2.723
 3403SOL    HW111105   2.775   0.887   2.771
 3403SOL    HW211106   2.689   1.025   2.789
 3404SOL     OW11107   2.945   0.984   1.949
 3404SOL    HW111108   2.922   1.037   1.867
 3404SOL    HW211109   3.026   0.928   1.930
 3405SOL     OW11110   3.723   1.569   2.713
 3405SOL    HW111111   3.652   1.557   2.643
 3405SOL    HW211112   3.724   1.490   2.773
 3406SOL     OW11113   2.083   1.314   3.706
 3406SOL    HW111114   2.018   1.241   3.685
 3406SOL    HW211115   2.087   1.328   3.804
 3407SOL     OW11116   1.941   1.240   2.515
 3407SOL    HW111117   1.940   1.193   2.603
 3407SOL    HW211118   2.023   1.212   2.464
 3408SOL     OW11119   2.534   1.391   3.486
 3408SOL    HW111120   2.456   1.341   3.524
 3408SOL    HW211121   2.531   1.486   3.517
 3409SOL     OW11122   3.686   0.192   3.089
 3409SOL    HW111123   3.682   0.102   3.133
 3409SOL    HW211124   3.689   0.181   2.990
 3410SOL     OW11125   2.290   0.424   2.382
 3410SOL    HW111126   2.320   0.352   2.320
 3410SOL    HW211127   2.251   0.384   2.465
 3411SOL     OW11128   3.567   1.487   2.966
 3411SOL    HW111129   3.474   1.462   2.939
 3411SOL    HW211130   3.593   1.437   3.048
 3412SOL     OW11131   2.179   0.547   3.142
 3412SOL    HW111132   2.217   0.488   3.214
 3412SOL    HW211133   2.219   0.521   3.054
 3413SOL     OW11134   2.674   1.586   2.549
 3413SOL    HW111135   2.706   1.596   2.455
 3413SOL    HW211136   2.595   1.524   2.551
 3414SOL     OW11137   3.286   0.214   2.974
 3414SOL    HW111138   3.338   0.149   3.029
 3414SOL    HW211139   3.237   0.277   3.035
 3415SOL     OW11140   2.863   0.034   3.016
 3415SOL    HW111141   2.800  -0.038   2.985
 3415SOL    HW211142   2.956  -0.002   3.016
 3416SOL     OW11143   2.632   1.330   2.163
 3416SOL    HW111144   2.586   1.243   2.180
 3416SOL    HW211145   2.723   1.327   2.204
 3417SOL     OW11146   2.480   1.567   3.146
 3417SOL    HW111147   2.475   1.649   3.203
 3417SOL    HW211148   2.569   1.564   3.101
 3418SOL     OW11149   3.214   0.052   2.030
 3418SOL    HW111150   3.249   0.011   1.946
 3418SOL    HW211151   3.124   0.014   2.050
 3419SOL     OW11152   3.162   0.453   2.553
 3419SOL    HW111153   3.103   0.533   2.557
 3419SOL    HW211154   3.177   0.418   2.646
 3420SOL     OW11155   3.455   0.221   2.744
 3420SOL    HW111156   3.371   0.220   2.798
 3420SOL    HW211157   3.457   0.304   2.688
 3421SOL     OW11158   1.901   1.077   2.162
 3421SOL    HW111159   2.000   1.066   2.153
 3421SOL    HW211160   1.861   0.991   2.194
 3422SOL     OW11161   2.737   1.646   2.199
 3422SOL    HW111162   2.660   1.611   2.145
 3422SOL    HW211163   2.705   1.717   2.261
 3423SOL     OW11164   2.092   0.628   3.837
 3423SOL    HW111165   1.999   0.626   3.874
 3423SOL    HW211166   2.093   0.589   3.745
 3424SOL     OW11167   2.087   0.275   4.720
 3424SOL    HW111168   2.122   0.258   4.812
 3424SOL    HW211169   1.999   0.230   4.708
 3425SOL     OW11170   1.881   0.368   4.371
 3425SOL    HW111171   1.799   0.411   4.410
 3425SOL    HW211172   1.853   0.295   4.308
 3426SOL     OW11173   2.431   1.275   4.889
 3426SOL    HW111174   2.338   1.268   4.852
 3426SOL    HW211175   2.442   1.364   4.933
 3427SOL     OW11176   3.417   1.511   4.427
 3427SOL    HW111177   3.360   1.495   4.508
 3427SOL    HW211178   3.358   1.521   4.347
 3428SOL     OW11179   2.997   0.703   4.441
 3428SOL    HW111180   3.054   0.781   4.416
 3428SOL    HW211181   2.937   0.729   4.517
 3429SOL     OW11182   3.617   0.607   3.955
 3429SOL    HW111183   3.605   0.594   3.856
 3429SOL    HW211184   3.587   0.526   4.004
 3430SOL     OW11185   2.630   1.144   4.747
 3430SOL    HW111186   2.552   1.161   4.807
 3430SOL    HW211187   2.664   1.231   4.711
 3431SOL     OW11188   2.712   0.798   5.547
 3431SOL    HW111189   2.708   0.874   5.612
 3431SOL    HW211190   2.734   0.834   5.456
 3432SOL     OW11191   2.547   1.012   4.389
 3432SOL    HW111192   2.616   0.996   4.459
 3432SOL    HW211193   2.474   1.069   4.427
 3433SOL     OW11194   2.548   1.161   5.527
 3433SOL    HW111195   2.608   1.240   5.541
 3433SOL    HW211196   2.462   1.192   5.486
 3434SOL     OW11197   2.197   1.435   4.785
 3434SOL    HW111198   2.119   1.404   4.732
 3434SOL    HW211199   2.255   1.493   4.728
 3435SOL     OW11200   3.322   1.505   5.063
 3435SOL    HW111201   3.346   1.599   5.089
 3435SOL    HW211202   3.306   1.451   5.145
 3436SOL     OW11203   2.300   0.392   5.223
 3436SOL    HW111204   2.382   0.336   5.232
 3436SOL    HW211205   2.219   0.334   5.227
 3437SOL     OW11206   3.465   0.447   4.461
 3437SOL    HW111207   3.391   0.493   4.411
 3437SOL    HW211208   3.516   0.515   4.514
 3438SOL     OW11209   2.093   1.713   4.207
 3438SOL    HW111210   2.127   1.790   4.261
 3438SOL    HW211211   2.137   1.713   4.117
 3439SOL     OW11212   2.989   1.341   5.414
 3439SOL    HW111213   3.036   1.341   5.502
 3439SOL    HW211214   2.941   1.254   5.403
 3440SOL     OW11215   2.092   1.434   4.262
 3440SOL    HW111216   2.066   1.530   4.262
 3440SOL    HW211217   2.021   1.380   4.307
 3441SOL     OW11218   2.102   1.091   4.610
 3441SOL    HW111219   2.116   1.007   4.662
 3441SOL    HW211220   2.047   1.155   4.665
 3442SOL     OW11221   2.468   0.964   3.847
 3442SOL    HW111222   2.475   1.048   3.793
 3442SOL    HW211223   2.514   0.977   3.935
 3443SOL     OW11224   3.456   0.114   5.204
 3443SOL    HW111225   3.438   0.181   5.132
 3443SOL    HW211226   3.453   0.160   5.293
 3444SOL     OW11227   1.984   0.643   4.287
 3444SOL    HW111228   1.939   0.555   4.304
 3444SOL    HW211229   1.983   0.697   4.371
 3445SOL     OW11230   3.704   1.767   4.083
 3445SOL    HW111231   3.758   1.738   4.163
 3445SOL    HW211232   3.734   1.857   4.054
 3446SOL     OW11233   1.889   1.596   3.841
 3446SOL    HW111234   1.870   1.500   3.862
 3446SOL    HW211235   1.856   1.654   3.916
 3447SOL     OW11236   3.551   0.922   4.336
 3447SOL    HW111237   3.646   0.893   4.344
 3447SOL    HW211238   3.543   0.987   4.261
 3448SOL     OW11239   3.503   1.108   4.156
 3448SOL    HW111240   3.589   1.110   4.104
 3448SOL    HW211241   3.517   1.155   4.244
 3449SOL     OW11242   1.975   0.737   5.321
 3449SOL    HW111243   2.063   0.724   5.366
 3449SOL    HW211244   1.962   0.834   5.299
 3450SOL     OW11245   2.475   1.365   4.450
 3450SOL    HW111246   2.426   1.278   4.459
 3450SOL    HW211247   2.452   1.408   4.363
 3451SOL     OW11248   3.155   1.228   5.147
 3451SOL    HW111249   3.192   1.155   5.089
 3451SOL    HW211250   3.207   1.233   5.232
 3452SOL     OW11251   2.671   0.004   4.226
 3452SOL    HW111252   2.711   0.095   4.217
 3452SOL    HW211253   2.571   0.012   4.232
 3453SOL     OW11254   2.059   0.976   4.988
 3453SOL    HW111255   2.148   0.931   4.974
 3453SOL    HW211256   1.986   0.911   4.969
 3454SOL     OW11257   3.387   0.999   3.914
 3454SOL    HW111258   3.324   0.923   3.927
 3454SOL    HW211259   3.435   1.017   4.000
 3455SOL     OW11260   2.179   0.251   5.525
 3455SOL    HW111261   2.250   0.322   5.531
 3455SOL    HW211262   2.091   0.290   5.553
 3456SOL     OW11263   3.328   1.417   4.677
 3456SOL    HW111264   3.269   1.423   4.757
 3456SOL    HW211265   3.313   1.329   4.631
 3457SOL     OW11266   3.529   1.714   4.296
 3457SOL    HW111267   3.488   1.691   4.208
 3457SOL    HW211268   3.511   1.640   4.361
 3458SOL     OW11269   2.460   0.729   3.994
 3458SOL    HW111270   2.484   0.798   3.926
 3458SOL    HW211271   2.382   0.762   4.048
 3459SOL     OW11272   3.143   0.345   4.668
 3459SOL    HW111273   3.057   0.295   4.655
 3459SOL    HW211274   3.205   0.291   4.724
 3460SOL     OW11275   3.438   1.662   4.031
 3460SOL    HW111276   3.527   1.708   4.034
 3460SOL    HW211277   3.417   1.638   3.936
 3461SOL     OW11278   2.669   0.605   5.189
 3461SOL    HW111279   2.622   0.602   5.278
 3461SOL    HW211280   2.618   0.550   5.123
 3462SOL     OW11281   3.256   0.469   5.398
 3462SOL    HW111282   3.236   0.512   5.486
 3462SOL    HW211283   3.334   0.407   5.407
 3463SOL     OW11284   2.835   0.890   5.296
 3463SOL    HW111285   2.881   0.806   5.267
 3463SOL    HW211286   2.779   0.924   5.221
 3464SOL     OW11287   2.853   0.410   4.966
 3464SOL    HW111288   2.776   0.444   5.020
 3464SOL    HW211289   2.819   0.359   4.887
 3465SOL     OW11290   2.903   0.701   4.153
 3465SOL    HW111291   2.929   0.697   4.249
 3465SOL    HW211292   2.818   0.650   4.139
 3466SOL     OW11293   1.938   0.811   4.513
 3466SOL    HW111294   2.037   0.799   4.522
 3466SOL    HW211295   1.914   0.906   4.534
 3467SOL     OW11296   1.992   1.821   5.295
 3467SOL    HW111297   1.982   1.806   5.394
 3467SOL    HW211298   1.906   1.857   5.259
 3468SOL     OW11299   2.727   0.348   3.919
 3468SOL    HW111300   2.786   0.411   3.870
 3468SOL    HW211301   2.746   0.254   3.890
 3469SOL     OW11302   3.581   0.585   5.555
 3469SOL    HW111303   3.555   0.674   5.519
 3469SOL    HW211304   3.579   0.517   5.482
 3470SOL     OW11305   3.224   1.144   4.269
 3470SOL    HW111306   3.307   1.115   4.221
 3470SOL    HW211307   3.175   1.211   4.213
 3471SOL     OW11308   2.412   0.196   4.609
 3471SOL    HW111309   2.407   0.191   4.709
 3471SOL    HW211310   2.414   0.292   4.580
 3472SOL     OW11311   2.870   1.456   4.201
 3472SOL    HW111312   2.824   1.528   4.149
 3472SOL    HW211313   2.866   1.476   4.299
 3473SOL     OW11314   3.657   1.066   4.597
 3473SOL    HW111315   3.595   1.051   4.521
 3473SOL    HW211316   3.605   1.077   4.682
 3474SOL     OW11317   3.089   1.550   5.230
 3474SOL    HW111318   3.095   1.473   5.294
 3474SOL    HW211319   3.037   1.524   5.150
 3475SOL     OW11320   2.183   0.943   3.966
 3475SOL    HW111321   2.265   0.982   3.924
 3475SOL    HW211322   2.156   0.861   3.917
 3476SOL     OW11323   3.320   0.735   4.452
 3476SOL    HW111324   3.315   0.670   4.527
 3476SOL    HW211325   3.400   0.794   4.465
 3477SOL     OW11326   2.323   1.266   5.451
 3477SOL    HW111327   2.273   1.267   5.365
 3477SOL    HW211328   2.260   1.248   5.527
 3478SOL     OW11329   2.973   1.776   3.961
 3478SOL    HW111330   2.913   1.714   4.011
 3478SOL    HW211331   3.004   1.732   3.876
 3479SOL     OW11332   2.064   0.285   5.222
 3479SOL    HW111333   1.984   0.345   5.209
 3479SOL    HW211334   2.054   0.236   5.308
 3480SOL     OW11335   3.494   1.377   3.805
 3480SOL    HW111336   3.462   1.471   3.795
 3480SOL    HW211337   3.418   1.314   3.793
 3481SOL     OW11338   2.326   1.743   4.047
 3481SOL    HW111339   2.359   1.782   4.133
 3481SOL    HW211340   2.402   1.736   3.982
 3482SOL     OW11341   3.262   0.107   4.150
 3482SOL    HW111342   3.238   0.070   4.060
 3482SOL    HW211343   3.361   0.123   4.154
 3483SOL     OW11344   2.244   0.700   4.204
 3483SOL    HW111345   2.289   0.610   4.201
 3483SOL    HW211346   2.150   0.689   4.237
 3484SOL     OW11347   3.409   0.222   5.453
 3484SOL    HW111348   3.404   0.259   5.545
 3484SOL    HW211349   3.337   0.153   5.441
 3485SOL     OW11350   2.476   0.122   3.841
 3485SOL    HW111351   2.574   0.100   3.848
 3485SOL    HW211352   2.445   0.105   3.748
 3486SOL     OW11353   2.643   0.264   5.473
 3486SOL    HW111354   2.710   0.203   5.516
 3486SOL    HW211355   2.570   0.283   5.538
 3487SOL     OW11356   2.750   1.514   4.919
 3487SOL    HW111357   2.727   1.489   4.825
 3487SOL    HW211358   2.811   1.445   4.958
 3488SOL     OW11359   3.213   0.590   5.157
 3488SOL    HW111360   3.241   0.547   5.242
 3488SOL    HW211361   3.238   0.686   5.158
 3489SOL     OW11362   2.784   0.503   4.623
 3489SOL    HW111363   2.759   0.494   4.527
 3489SOL    HW211364   2.832   0.421   4.654
 3490SOL     OW11365   2.401   0.064   4.236
 3490SOL    HW111366   2.320   0.065   4.294
 3490SOL    HW211367   2.404   0.147   4.181
 3491SOL     OW11368   3.296   1.188   3.765
 3491SOL    HW111369   3.328   1.112   3.822
 3491SOL    HW211370   3.204   1.215   3.795
 3492SOL     OW11371   2.159   0.035   3.895
 3492SOL    HW111372   2.208   0.119   3.874
 3492SOL    HW211373   2.221  -0.030   3.940
 3493SOL     OW11374   2.797   0.236   4.204
 3493SOL    HW111375   2.749   0.277   4.126
 3493SOL    HW211376   2.896   0.234   4.185
 3494SOL     OW11377   2.938   0.683   5.188
 3494SOL    HW111378   2.858   0.622   5.191
 3494SOL    HW211379   3.019   0.630   5.164
 3495SOL     OW11380   3.089   1.570   4.517
 3495SOL    HW111381   3.110   1.644   4.452
 3495SOL    HW211382   3.157   1.570   4.590
 3496SOL     OW11383   2.321   1.152   4.465
 3496SOL    HW111384   2.250   1.125   4.530
 3496SOL    HW211385   2.295   1.124   4.372
 3497SOL     OW11386   3.133   1.797   4.315
 3497SOL    HW111387   3.177   1.861   4.251
 3497SOL    HW211388   3.083   1.849   4.385
 3498SOL     OW11389   2.894   0.549   3.740
 3498SOL    HW111390   2.853   0.631   3.701
 3498SOL    HW211391   2.958   0.575   3.813
 3499SOL     OW11392   1.940   0.556   5.110
 3499SOL    HW111393   2.032   0.555   5.069
 3499SOL    HW211394   1.934   0.630   5.177
 3500SOL     OW11395   2.423   0.222   4.871
 3500SOL    HW111396   2.461   0.138   4.908
 3500SOL    HW211397   2.335   0.241   4.915
 3501SOL     OW11398   2.728   0.454   4.366
 3501SOL    HW111399   2.696   0.526   4.304
 3501SOL    HW211400   2.752   0.373   4.313
 3502SOL     OW11401   2.879   0.039   4.477
 3502SOL    HW111402   2.807   0.044   4.408
 3502SOL    HW211403   2.855  -0.030   4.546
 3503SOL     OW11404   3.291   1.173   4.591
 3503SOL    HW111405   3.236   1.089   4.584
 3503SOL    HW211406   3.317   1.202   4.499
 3504SOL     OW11407   3.328   0.590   4.716
 3504SOL    HW111408   3.298   0.495   4.723
 3504SOL    HW211409   3.401   0.606   4.782
 3505SOL     OW11410   3.719   0.833   4.101
 3505SOL    HW111411   3.761   0.769   4.165
 3505SOL    HW211412   3.681   0.782   4.023
 3506SOL     OW11413   2.350   1.385   3.898
 3506SOL    HW111414   2.263   1.370   3.945
 3506SOL    HW211415   2.333   1.411   3.803
 3507SOL     OW11416   3.526   1.280   4.381
 3507SOL    HW111417   3.625   1.288   4.395
 3507SOL    HW211418   3.481   1.364   4.412
 3508SOL     OW11419   3.252   0.575   3.802
 3508SOL    HW111420   3.198   0.554   3.883
 3508SOL    HW211421   3.343   0.534   3.811
 3509SOL     OW11422   2.389   0.256   4.052
 3509SOL    HW111423   2.416   0.197   3.977
 3509SOL    HW211424   2.389   0.351   4.021
 3510SOL     OW11425   3.616   1.223   5.312
 3510SOL    HW111426   3.707   1.184   5.299
 3510SOL    HW211427   3.624   1.319   5.336
 3511SOL     OW11428   2.926   1.347   5.064
 3511SOL    HW111429   2.846   1.324   5.119
 3511SOL    HW211430   3.009   1.321   5.113
 3512SOL     OW11431   3.454   1.629   5.349
 3512SOL    HW111432   3.481   1.663   5.259
 3512SOL    HW211433   3.533   1.591   5.395
 3513SOL     OW11434   2.973   1.195   4.824
 3513SOL    HW111435   2.933   1.239   4.905
 3513SOL    HW211436   2.932   1.232   4.741
 3514SOL     OW11437   3.500   1.099   4.803
 3514SOL    HW111438   3.505   1.180   4.862
 3514SOL    HW211439   3.414   1.101   4.752
 3515SOL     OW11440   2.777   0.089   5.126
 3515SOL    HW111441   2.802   0.069   5.031
 3515SOL    HW211442   2.849   0.145   5.168
 3516SOL     OW11443   2.842   1.116   5.443
 3516SOL    HW111444   2.743   1.122   5.453
 3516SOL    HW211445   2.865   1.036   5.387
 3517SOL     OW11446   2.567   1.050   4.092
 3517SOL    HW111447   2.553   1.057   4.191
 3517SOL    HW211448   2.651   0.999   4.074
 3518SOL     OW11449   2.272   0.813   4.975
 3518SOL    HW111450   2.358   0.825   5.025
 3518SOL    HW211451   2.230   0.726   5.002
 3519SOL     OW11452   3.136   0.386   4.986
 3519SOL    HW111453   3.157   0.460   5.050
 3519SOL    HW211454   3.047   0.403   4.943
 3520SOL     OW11455   2.229   1.100   4.225
 3520SOL    HW111456   2.222   1.183   4.169
 3520SOL    HW211457   2.233   1.020   4.165
 3521SOL     OW11458   2.428   0.537   4.589
 3521SOL    HW111459   2.440   0.603   4.515
 3521SOL    HW211460   2.474   0.571   4.672
 3522SOL     OW11461   3.114   1.348   4.112
 3522SOL    HW111462   3.164   1.425   4.152
 3522SOL    HW211463   3.019   1.350   4.144
 3523SOL     OW11464   3.134   1.445   4.866
 3523SOL    HW111465   3.181   1.458   4.953
 3523SOL    HW211466   3.068   1.371   4.875
 3524SOL     OW11467   3.444   0.639   4.196
 3524SOL    HW111468   3.413   0.700   4.269
 3524SOL    HW211469   3.494   0.691   4.127
 3525SOL     OW11470   2.264   0.751   5.322
 3525SOL    HW111471   2.332   0.806   5.275
 3525SOL    HW211472   2.304   0.663   5.349
 3526SOL     OW11473   3.449   0.779   5.394
 3526SOL    HW111474   3.357   0.817   5.389
 3526SOL    HW211475   3.509   0.826   5.329
 3527SOL     OW11476   2.875   0.105   5.494
 3527SOL    HW111477   2.881   0.190   5.442
 3527SOL    HW211478   2.907   0.029   5.437
 3528SOL     OW11479   2.366   0.050   5.464
 3528SOL    HW111480   2.324  -0.007   5.394
 3528SOL    HW211481   2.300   0.119   5.496
 3529SOL     OW11482   2.435   0.870   4.753
 3529SOL    HW111483   2.479   0.959   4.744
 3529SOL    HW211484   2.372   0.870   4.830
 3530SOL     OW11485   3.222   0.862   4.769
 3530SOL    HW111486   3.147   0.862   4.703
 3530SOL    HW211487   3.259   0.770   4.778
 3531SOL     OW11488   3.071   0.525   3.999
 3531SOL    HW111489   3.084   0.441   4.053
 3531SOL    HW211490   3.042   0.599   4.059
 3532SOL     OW11491   2.169   0.213   4.955
 3532SOL    HW111492   2.146   0.250   5.045
 3532SOL    HW211493   2.139   0.118   4.949
 3533SOL     OW11494   1.899   1.310   5.006
 3533SOL    HW111495   1.952   1.261   5.074
 3533SOL    HW211496   1.921   1.408   5.011
 3534SOL     OW11497   2.594   0.634   4.788
 3534SOL    HW111498   2.653   0.608   4.712
 3534SOL    HW211499   2.566   0.730   4.777
 3535SOL     OW11500   3.590   0.935   5.578
 3535SOL    HW111501   3.544   0.928   5.489
 3535SOL    HW211502   3.528   0.979   5.644
 3536SOL     OW11503   2.169   0.063   4.342
 3536SOL    HW111504   2.158   0.157   4.375
 3536SOL    HW211505   2.164   0.000   4.419
 3537SOL     OW11506   3.484   0.367   4.098
 3537SOL    HW111507   3.486   0.291   4.162
 3537SOL    HW211508   3.436   0.444   4.138
 3538SOL     OW11509   2.885   0.766   4.690
 3538SOL    HW111510   2.900   0.787   4.786
 3538SOL    HW211511   2.855   0.671   4.681
 3539SOL     OW11512   3.721   1.518   5.329
 3539SOL    HW111513   3.735   1.545   5.234
 3539SOL    HW211514   3.804   1.540   5.382
 3540SOL     OW11515   2.212   0.898   5.528
 3540SOL    HW111516   2.288   0.942   5.576
 3540SOL    HW211517   2.247   0.851   5.446
 3541SOL     OW11518   3.402   0.274   3.849
 3541SOL    HW111519   3.341   0.199   3.872
 3541SOL    HW211520   3.424   0.326   3.932
 3542SOL     OW11521   3.165   0.838   3.766
 3542SOL    HW111522   3.199   0.745   3.781
 3542SOL    HW211523   3.183   0.865   3.671
 3543SOL     OW11524   2.930   1.333   4.573
 3543SOL    HW111525   2.937   1.249   4.518
 3543SOL    HW211526   2.992   1.402   4.537
 3544SOL     OW11527   2.181   0.810   4.673
 3544SOL    HW111528   2.274   0.846   4.678
 3544SOL    HW211529   2.175   0.725   4.725
 3545SOL     OW11530   2.201   0.509   4.730
 3545SOL    HW111531   2.149   0.426   4.713
 3545SOL    HW211532   2.278   0.514   4.666
 3546SOL     OW11533   3.000   0.380   5.402
 3546SOL    HW111534   2.955   0.443   5.466
 3546SOL    HW211535   3.093   0.411   5.385
 3547SOL     OW11536   3.022   0.207   5.201
 3547SOL    HW111537   3.022   0.271   5.278
 3547SOL    HW211538   3.050   0.255   5.118
 3548SOL     OW11539   1.870   1.326   3.924
 3548SOL    HW111540   1.777   1.347   3.893
 3548SOL    HW211541   1.880   1.227   3.937
 3549SOL     OW11542   2.864   0.796   4.962
 3549SOL    HW111543   2.905   0.764   5.048
 3549SOL    HW211544   2.768   0.769   4.959
 3550SOL     OW11545   1.902   0.544   4.838
 3550SOL    HW111546   1.987   0.511   4.797
 3550SOL    HW211547   1.915   0.559   4.936
 3551SOL     OW11548   2.051   0.520   5.446
 3551SOL    HW111549   2.110   0.480   5.376
 3551SOL    HW211550   1.993   0.591   5.405
 3552SOL     OW11551   3.231   0.950   5.384
 3552SOL    HW111552   3.270   1.039   5.404
 3552SOL    HW211553   3.241   0.930   5.287
 3553SOL     OW11554   2.677   0.572   4.049
 3553SOL    HW111555   2.684   0.483   4.003
 3553SOL    HW211556   2.583   0.606   4.041
 3554SOL     OW11557   3.519   0.604   4.930
 3554SOL    HW111558   3.481   0.535   4.992
 3554SOL    HW211559   3.601   0.568   4.886
 3555SOL     OW11560   2.533   0.464   4.993
 3555SOL    HW111561   2.499   0.375   4.963
 3555SOL    HW211562   2.559   0.518   4.913
 3556SOL     OW11563   2.335   0.500   3.915
 3556SOL    HW111564   2.396   0.580   3.919
 3556SOL    HW211565   2.240   0.531   3.922
 3557SOL     OW11566   2.021   1.137   5.190
 3557SOL    HW111567   2.043   1.076   5.266
 3557SOL    HW211568   2.031   1.088   5.104
 3558SOL     OW11569   3.209   1.059   4.958
 3558SOL    HW111570   3.233   0.996   4.884
 3558SOL    HW211571   3.119   1.099   4.940
 3559SOL     OW11572   3.164   0.855   4.033
 3559SOL    HW111573   3.078   0.824   4.075
 3559SOL    HW211574   3.160   0.841   3.934
 3560SOL     OW11575   3.621   1.747   4.878
 3560SOL    HW111576   3.682   1.777   4.805
 3560SOL    HW211577   3.583   1.658   4.856
 3561SOL     OW11578   3.114   1.731   4.852
 3561SOL    HW111579   3.198   1.736   4.798
 3561SOL    HW211580   3.091   1.635   4.870
 3562SOL     OW11581   1.945   1.258   4.746
 3562SOL    HW111582   1.940   1.257   4.846
 3562SOL    HW211583   1.862   1.217   4.708
 3563SOL     OW11584   3.588   0.135   4.247
 3563SOL    HW111585   3.661   0.118   4.180
 3563SOL    HW211586   3.557   0.048   4.285
 3564SOL     OW11587   3.250   1.573   4.201
 3564SOL    HW111588   3.317   1.585   4.127
 3564SOL    HW211589   3.210   1.662   4.224
 3565SOL     OW11590   3.142   0.927   4.396
 3565SOL    HW111591   3.202   0.846   4.398
 3565SOL    HW211592   3.182   0.996   4.336
 3566SOL     OW11593   2.692   1.273   5.146
 3566SOL    HW111594   2.687   1.306   5.241
 3566SOL    HW211595   2.606   1.292   5.100
 3567SOL     OW11596   2.534   1.616   3.878
 3567SOL    HW111597   2.543   1.626   3.779
 3567SOL    HW211598   2.494   1.527   3.899
 3568SOL     OW11599   3.512   1.720   5.118
 3568SOL    HW111600   3.565   1.730   5.034
 3568SOL    HW211601   3.485   1.810   5.152
 3569SOL     OW11602   3.703   0.175   4.687
 3569SOL    HW111603   3.742   0.090   4.651
 3569SOL    HW211604   3.605   0.177   4.668
 3570SOL     OW11605   2.125   0.326   4.444
 3570SOL    HW111606   2.046   0.377   4.410
 3570SOL    HW211607   2.116   0.311   4.542
 3571SOL     OW11608   3.056   1.612   3.755
 3571SOL    HW111609   3.062   1.519   3.792
 3571SOL    HW211610   2.997   1.612   3.675
 3572SOL     OW11611   2.684   1.002   5.096
 3572SOL    HW111612   2.724   1.001   5.004
 3572SOL    HW211613   2.694   1.094   5.136
 3573SOL     OW11614   2.778   0.910   4.015
 3573SOL    HW111615   2.841   0.948   3.947
 3573SOL    HW211616   2.818   0.827   4.054
 3574SOL     OW11617   3.366   1.607   3.768
 3574SOL    HW111618   3.274   1.644   3.775
 3574SOL    HW211619   3.404   1.627   3.678
 3575SOL     OW11620   2.234   1.288   5.214
 3575SOL    HW111621   2.221   1.381   5.180
 3575SOL    HW211622   2.150   1.236   5.201
 3576SOL     OW11623   3.476   1.292   5.013
 3576SOL    HW111624   3.536   1.295   5.093
 3576SOL    HW211625   3.401   1.356   5.026
 3577SOL     OW11626   2.901   1.098   4.420
 3577SOL    HW111627   2.831   1.051   4.474
 3577SOL    HW211628   2.960   1.030   4.377
 3578SOL     OW11629   2.876   0.236   4.695
 3578SOL    HW111630   2.868   0.200   4.602
 3578SOL    HW211631   2.874   0.160   4.760
 3579SOL     OW11632   2.452   1.487   4.215
 3579SOL    HW111633   2.494   1.429   4.145
 3579SOL    HW211634   2.408   1.566   4.171
 3580SOL     OW11635   3.571   0.385   5.105
 3580SOL    HW111636   3.644   0.454   5.109
 3580SOL    HW211637   3.599   0.310   5.046
 3581SOL     OW11638   2.117   1.348   4.014
 3581SOL    HW111639   2.021   1.349   3.987
 3581SOL    HW211640   2.129   1.401   4.098
 3582SOL     OW11641   1.967   1.013   5.450
 3582SOL    HW111642   1.890   0.980   5.504
 3582SOL    HW211643   2.052   0.983   5.492
 3583SOL     OW11644   2.534   0.203   5.213
 3583SOL    HW111645   2.624   0.187   5.173
 3583SOL    HW211646   2.542   0.208   5.312
 3584SOL     OW11647   1.937   0.345   3.757
 3584SOL    HW111648   1.845   0.317   3.728
 3584SOL    HW211649   1.968   0.422   3.701
 3585SOL     OW11650   3.302   0.856   5.122
 3585SOL    HW111651   3.245   0.908   5.059
 3585SOL    HW211652   3.398   0.868   5.098
 3586SOL     OW11653   1.934   0.166   4.042
 3586SOL    HW111654   1.917   0.249   3.988
 3586SOL    HW211655   2.024   0.129   4.020
 3587SOL     OW11656   3.045   1.335   3.843
 3587SOL    HW111657   2.946   1.324   3.845
 3587SOL    HW211658   3.079   1.350   3.936
 3588SOL     OW11659   2.475   0.842   5.155
 3588SOL    HW111660   2.531   0.923   5.138
 3588SOL    HW211661   2.534   0.762   5.158
 3589SOL     OW11662   3.355   1.767   4.683
 3589SOL    HW111663   3.388   1.831   4.614
 3589SOL    HW211664   3.421   1.761   4.758
 3590SOL     OW11665   2.578   0.565   5.432
 3590SOL    HW111666   2.597   0.630   5.506
 3590SOL    HW211667   2.638   0.485   5.441
 3591SOL     OW11668   3.312   1.220   5.357
 3591SOL    HW111669   3.303   1.210   5.456
 3591SOL    HW211670   3.408   1.213   5.331
 3592SOL     OW11671   3.536   0.883   4.978
 3592SOL    HW111672   3.509   0.794   4.941
 3592SOL    HW211673   3.537   0.951   4.905
 3593SOL     OW11674   3.087   0.325   4.173
 3593SOL    HW111675   3.152   0.251   4.162
 3593SOL    HW211676   3.107   0.375   4.257
 3594SOL     OW11677   2.456   0.745   4.376
 3594SOL    HW111678   2.506   0.830   4.357
 3594SOL    HW211679   2.368   0.747   4.328
 3595SOL     OW11680   3.639   0.342   5.366
 3595SOL    HW111681   3.622   0.373   5.272
 3595SOL    HW211682   3.555   0.305   5.404
 3596SOL     OW11683   3.592   0.934   5.241
 3596SOL    HW111684   3.630   1.025   5.256
 3596SOL    HW211685   3.584   0.917   5.142
 3597SOL     OW11686   2.721   1.374   3.740
 3597SOL    HW111687   2.675   1.389   3.828
 3597SOL    HW211688   2.765   1.459   3.710
 3598SOL     OW11689   2.721   0.956   4.585
 3598SOL    HW111690   2.775   0.887   4.633
 3598SOL    HW211691   2.689   1.025   4.651
 3599SOL     OW11692   2.945   0.984   3.811
 3599SOL    HW111693   2.922   1.037   3.729
 3599SOL    HW211694   3.026   0.928   3.792
 3600SOL     OW11695   3.723   1.569   4.575
 3600SOL    HW111696   3.652   1.557   4.505
 3600SOL    HW211697   3.724   1.490   4.635
 3601SOL     OW11698   2.083   1.314   5.568
 3601SOL    HW111699   2.018   1.241   5.547
 3601SOL    HW211700   2.087   1.328   5.666
 3602SOL     OW11701   1.941   1.240   4.377
 3602SOL    HW111702   1.940   1.193   4.465
 3602SOL    HW211703   2.023   1.212   4.326
 3603SOL     OW11704   2.534   1.391   5.348
 3603SOL    HW111705   2.456   1.341   5.386
 3603SOL    HW211706   2.531   1.486   5.379
 3604SOL     OW11707   3.686   0.192   4.951
 3604SOL    HW111708   3.682   0.102   4.995
 3604SOL    HW211709   3.689   0.181   4.852
 3605SOL     OW11710   2.290   0.424   4.244
 3605SOL    HW111711   2.320   0.352   4.182
 3605SOL    HW211712   2.251   0.384   4.327
 3606SOL     OW11713   3.567   1.487   4.828
 3606SOL    HW111714   3.474   1.462   4.801
 3606SOL    HW211715   3.593   1.437   4.910
 3607SOL     OW11716   2.179   0.547   5.004
 3607SOL    HW111717   2.217   0.488   5.076
 3607SOL    HW211718   2.219   0.521   4.916
 3608SOL     OW11719   2.674   1.586   4.411
 3608SOL    HW111720   2.706   1.596   4.317
 3608SOL    HW211721   2.595   1.524   4.413
 3609SOL     OW11722   3.286   0.214   4.836
 3609SOL    HW111723   3.338   0.149   4.891
 3609SOL    HW211724   3.237   0.277   4.897
 3610SOL     OW11725   2.863   0.034   4.878
 3610SOL    HW111726   2.800  -0.038   4.847
 3610SOL    HW211727   2.956  -0.002   4.878
 3611SOL     OW11728   2.632   1.330   4.025
 3611SOL    HW111729   2.586   1.243   4.042
 3611SOL    HW211730   2.723   1.327   4.066
 3612SOL     OW11731   3.214   0.052   3.892
 3612SOL    HW111732   3.249   0.011   3.808
 3612SOL    HW211733   3.124   0.014   3.912
 3613SOL     OW11734   3.162   0.453   4.415
 3613SOL    HW111735   3.103   0.533   4.419
 3613SOL    HW211736   3.177   0.418   4.508
 3614SOL     OW11737   3.455   0.221   4.606
 3614SOL    HW111738   3.371   0.220   4.660
 3614SOL    HW211739   3.457   0.304   4.550
 3615SOL     OW11740   1.901   1.077   4.024
 3615SOL    HW111741   2.000   1.066   4.015
 3615SOL    HW211742   1.861   0.991   4.056
 3616SOL     OW11743   2.737   1.646   4.061
 3616SOL    HW111744   2.660   1.611   4.007
 3616SOL    HW211745   2.705   1.717   4.123
 3617SOL     OW11746   2.092   0.628   5.699
 3617SOL    HW111747   1.999   0.626   5.736
 3617SOL    HW211748   2.093   0.589   5.607
 3618SOL     OW11749   2.087   0.275   6.582
 3618SOL    HW111750   2.122   0.258   6.674
 3618SOL    HW211751   1.999   0.230   6.570
 3619SOL     OW11752   1.881   0.368   6.233
 3619SOL    HW111753   1.799   0.411   6.272
 3619SOL    HW211754   1.853   0.295   6.170
 3620SOL     OW11755   2.431   1.275   6.751
 3620SOL    HW111756   2.338   1.268   6.714
 3620SOL    HW211757   2.442   1.364   6.795
 3621SOL     OW11758   3.417   1.511   6.289
 3621SOL    HW111759   3.360   1.495   6.370
 3621SOL    HW211760   3.358   1.521   6.209
 3622SOL     OW11761   2.997   0.703   6.303
 3622SOL    HW111762   3.054   0.781   6.278
 3622SOL    HW211763   2.937   0.729   6.379
 3623SOL     OW11764   3.617   0.607   5.817
 3623SOL    HW111765   3.605   0.594   5.718
 3623SOL    HW211766   3.587   0.526   5.866
 3624SOL     OW11767   2.630   1.144   6.609
 3624SOL    HW111768   2.552   1.161   6.669
 3624SOL    HW211769   2.664   1.231   6.573
 3625SOL     OW11770   2.712   0.798   7.409
 3625SOL    HW111771   2.708   0.874   7.474
 3625SOL    HW211772   2.734   0.834   7.318
 3626SOL     OW11773   2.547   1.012   6.251
 3626SOL    HW111774   2.616   0.996   6.321
 3626SOL    HW211775   2.474   1.069   6.289
 3627SOL     OW11776   2.548   1.161   7.389
 3627SOL    HW111777   2.608   1.240   7.403
 3627SOL    HW211778   2.462   1.192   7.348
 3628SOL     OW11779   2.197   1.435   6.647
 3628SOL    HW111780   2.119   1.404   6.594
 3628SOL    HW211781   2.255   1.493   6.590
 3629SOL     OW11782   3.322   1.505   6.925
 3629SOL    HW111783   3.346   1.599   6.951
 3629SOL    HW211784   3.306   1.451   7.007
 3630SOL     OW11785   2.300   0.392   7.085
 3630SOL    HW111786   2.382   0.336   7.094
 3630SOL    HW211787   2.219   0.334   7.089
 3631SOL     OW11788   3.465   0.447   6.323
 3631SOL    HW111789   3.391   0.493   6.273
 3631SOL    HW211790   3.516   0.515   6.376
 3632SOL     OW11791   2.989   1.341   7.276
 3632SOL    HW111792   3.036   1.341   7.364
 3632SOL    HW211793   2.941   1.254   7.265
 3633SOL     OW11794   2.102   1.091   6.472
 3633SOL    HW111795   2.116   1.007   6.524
 3633SOL    HW211796   2.047   1.155   6.527
 3634SOL     OW11797   2.482   1.786   7.025
 3634SOL    HW111798   2.390   1.769   7.060
 3634SOL    HW211799   2.510   1.878   7.051
 3635SOL     OW11800   2.468   0.964   5.709
 3635SOL    HW111801   2.475   1.048   5.655
 3635SOL    HW211802   2.514   0.977   5.797
 3636SOL     OW11803   3.456   0.114   7.066
 3636SOL    HW111804   3.438   0.181   6.994
 3636SOL    HW211805   3.453   0.160   7.155
 3637SOL     OW11806   1.984   0.643   6.149
 3637SOL    HW111807   1.939   0.555   6.166
 3637SOL    HW211808   1.983   0.697   6.233
 3638SOL     OW11809   3.704   1.767   5.945
 3638SOL    HW111810   3.758   1.738   6.025
 3638SOL    HW211811   3.734   1.857   5.916
 3639SOL     OW11812   3.551   0.922   6.198
 3639SOL    HW111813   3.646   0.893   6.206
 3639SOL    HW211814   3.543   0.987   6.123
 3640SOL     OW11815   3.503   1.108   6.018
 3640SOL    HW111816   3.589   1.110   5.966
 3640SOL    HW211817   3.517   1.155   6.106
 3641SOL     OW11818   1.975   0.737   7.183
 3641SOL    HW111819   2.063   0.724   7.228
 3641SOL    HW211820   1.962   0.834   7.161
 3642SOL     OW11821   2.475   1.365   6.312
 3642SOL    HW111822   2.426   1.278   6.321
 3642SOL    HW211823   2.452   1.408   6.225
 3643SOL     OW11824   3.155   1.228   7.009
 3643SOL    HW111825   3.192   1.155   6.951
 3643SOL    HW211826   3.207   1.233   7.094
 3644SOL     OW11827   2.671   0.004   6.088
 3644SOL    HW111828   2.711   0.095   6.079
 3644SOL    HW211829   2.571   0.012   6.094
 3645SOL     OW11830   2.059   0.976   6.850
 3645SOL    HW111831   2.148   0.931   6.836
 3645SOL    HW211832   1.986   0.911   6.831
 3646SOL     OW11833   3.387   0.999   5.776
 3646SOL    HW111834   3.324   0.923   5.789
 3646SOL    HW211835   3.435   1.017   5.862
 3647SOL     OW11836   3.049   1.792   7.202
 3647SOL    HW111837   3.073   1.852   7.126
 3647SOL    HW211838   3.056   1.697   7.172
 3648SOL     OW11839   2.179   0.251   7.387
 3648SOL    HW111840   2.250   0.322   7.393
 3648SOL    HW211841   2.091   0.290   7.415
 3649SOL     OW11842   3.328   1.417   6.539
 3649SOL    HW111843   3.269   1.423   6.619
 3649SOL    HW211844   3.313   1.329   6.493
 3650SOL     OW11845   3.529   1.714   6.158
 3650SOL    HW111846   3.488   1.691   6.070
 3650SOL    HW211847   3.511   1.640   6.223
 3651SOL     OW11848   2.460   0.729   5.856
 3651SOL    HW111849   2.484   0.798   5.788
 3651SOL    HW211850   2.382   0.762   5.910
 3652SOL     OW11851   3.143   0.345   6.530
 3652SOL    HW111852   3.057   0.295   6.517
 3652SOL    HW211853   3.205   0.291   6.586
 3653SOL     OW11854   3.438   1.662   5.893
 3653SOL    HW111855   3.527   1.708   5.896
 3653SOL    HW211856   3.417   1.638   5.798
 3654SOL     OW11857   2.669   0.605   7.051
 3654SOL    HW111858   2.622   0.602   7.140
 3654SOL    HW211859   2.618   0.550   6.985
 3655SOL     OW11860   3.256   0.469   7.260
 3655SOL    HW111861   3.236   0.512   7.348
 3655SOL    HW211862   3.334   0.407   7.269
 3656SOL     OW11863   2.835   0.890   7.158
 3656SOL    HW111864   2.881   0.806   7.129
 3656SOL    HW211865   2.779   0.924   7.083
 3657SOL     OW11866   2.853   0.410   6.828
 3657SOL    HW111867   2.776   0.444   6.882
 3657SOL    HW211868   2.819   0.359   6.749
 3658SOL     OW11869   2.903   0.701   6.015
 3658SOL    HW111870   2.929   0.697   6.111
 3658SOL    HW211871   2.818   0.650   6.001
 3659SOL     OW11872   1.938   0.811   6.375
 3659SOL    HW111873   2.037   0.799   6.384
 3659SOL    HW211874   1.914   0.906   6.396
 3660SOL     OW11875   1.992   1.821   7.157
 3660SOL    HW111876   1.982   1.806   7.256
 3660SOL    HW211877   1.906   1.857   7.121
 3661SOL     OW11878   2.727   0.348   5.781
 3661SOL    HW111879   2.786   0.411   5.732
 3661SOL    HW211880   2.746   0.254   5.752
 3662SOL     OW11881   3.581   0.585   7.417
 3662SOL    HW111882   3.555   0.674   7.381
 3662SOL    HW211883   3.579   0.517   7.344
 3663SOL     OW11884   3.224   1.144   6.131
 3663SOL    HW111885   3.307   1.115   6.083
 3663SOL    HW211886   3.175   1.211   6.075
 3664SOL     OW11887   2.412   0.196   6.471
 3664SOL    HW111888   2.407   0.191   6.571
 3664SOL    HW211889   2.414   0.292   6.442
 3665SOL     OW11890   3.657   1.066   6.459
 3665SOL    HW111891   3.595   1.051   6.383
 3665SOL    HW211892   3.605   1.077   6.544
 3666SOL     OW11893   3.089   1.550   7.092
 3666SOL    HW111894   3.095   1.473   7.156
 3666SOL    HW211895   3.037   1.524   7.012
 3667SOL     OW11896   2.183   0.943   5.828
 3667SOL    HW111897   2.265   0.982   5.786
 3667SOL    HW211898   2.156   0.861   5.779
 3668SOL     OW11899   3.320   0.735   6.314
 3668SOL    HW111900   3.315   0.670   6.389
 3668SOL    HW211901   3.400   0.794   6.327
 3669SOL     OW11902   2.323   1.266   7.313
 3669SOL    HW111903   2.273   1.267   7.227
 3669SOL    HW211904   2.260   1.248   7.389
 3670SOL     OW11905   2.064   0.285   7.084
 3670SOL    HW111906   1.984   0.345   7.071
 3670SOL    HW211907   2.054   0.236   7.170
 3671SOL     OW11908   3.494   1.377   5.667
 3671SOL    HW111909   3.462   1.471   5.657
 3671SOL    HW211910   3.418   1.314   5.655
 3672SOL     OW11911   3.262   0.107   6.012
 3672SOL    HW111912   3.238   0.070   5.922
 3672SOL    HW211913   3.361   0.123   6.016
 3673SOL     OW11914   2.111   1.785   6.827
 3673SOL    HW111915   2.168   1.720   6.877
 3673SOL    HW211916   2.095   1.752   6.734
 3674SOL     OW11917   2.244   0.700   6.066
 3674SOL    HW111918   2.289   0.610   6.063
 3674SOL    HW211919   2.150   0.689   6.099
 3675SOL     OW11920   3.409   0.222   7.315
 3675SOL    HW111921   3.404   0.259   7.407
 3675SOL    HW211922   3.337   0.153   7.303
 3676SOL     OW11923   2.476   0.122   5.703
 3676SOL    HW111924   2.574   0.100   5.710
 3676SOL    HW211925   2.445   0.105   5.610
 3677SOL     OW11926   2.643   0.264   7.335
 3677SOL    HW111927   2.710   0.203   7.378
 3677SOL    HW211928   2.570   0.283   7.400
 3678SOL     OW11929   2.750   1.514   6.781
 3678SOL    HW111930   2.727   1.489   6.687
 3678SOL    HW211931   2.811   1.445   6.820
 3679SOL     OW11932   3.213   0.590   7.019
 3679SOL    HW111933   3.241   0.547   7.104
 3679SOL    HW211934   3.238   0.686   7.020
 3680SOL     OW11935   2.665   1.402   6.510
 3680SOL    HW111936   2.755   1.416   6.468
 3680SOL    HW211937   2.594   1.404   6.439
 3681SOL     OW11938   2.784   0.503   6.485
 3681SOL    HW111939   2.759   0.494   6.389
 3681SOL    HW211940   2.832   0.421   6.516
 3682SOL     OW11941   2.401   0.064   6.098
 3682SOL    HW111942   2.320   0.065   6.156
 3682SOL    HW211943   2.404   0.147   6.043
 3683SOL     OW11944   3.296   1.188   5.627
 3683SOL    HW111945   3.328   1.112   5.684
 3683SOL    HW211946   3.204   1.215   5.657
 3684SOL     OW11947   2.159   0.035   5.757
 3684SOL    HW111948   2.208   0.119   5.736
 3684SOL    HW211949   2.221  -0.030   5.802
 3685SOL     OW11950   2.797   0.236   6.066
 3685SOL    HW111951   2.749   0.277   5.988
 3685SOL    HW211952   2.896   0.234   6.047
 3686SOL     OW11953   2.938   0.683   7.050
 3686SOL    HW111954   2.858   0.622   7.053
 3686SOL    HW211955   3.019   0.630   7.026
 3687SOL     OW11956   3.089   1.570   6.379
 3687SOL    HW111957   3.110   1.644   6.314
 3687SOL    HW211958   3.157   1.570   6.452
 3688SOL     OW11959   2.321   1.152   6.327
 3688SOL    HW111960   2.250   1.125   6.392
 3688SOL    HW211961   2.295   1.124   6.234
 3689SOL     OW11962   3.133   1.797   6.177
 3689SOL    HW111963   3.177   1.861   6.113
 3689SOL    HW211964   3.083   1.849   6.247
 3690SOL     OW11965   2.894   0.549   5.602
 3690SOL    HW111966   2.853   0.631   5.563
 3690SOL    HW211967   2.958   0.575   5.675
 3691SOL     OW11968   1.940   0.556   6.972
 3691SOL    HW111969   2.032   0.555   6.931
 3691SOL    HW211970   1.934   0.630   7.039
 3692SOL     OW11971   2.423   0.222   6.733
 3692SOL    HW111972   2.461   0.138   6.770
 3692SOL    HW211973   2.335   0.241   6.777
 3693SOL     OW11974   2.728   0.454   6.228
 3693SOL    HW111975   2.696   0.526   6.166
 3693SOL    HW211976   2.752   0.373   6.175
 3694SOL     OW11977   2.879   0.039   6.339
 3694SOL    HW111978   2.807   0.044   6.270
 3694SOL    HW211979   2.855  -0.030   6.408
 3695SOL     OW11980   3.291   1.173   6.453
 3695SOL    HW111981   3.236   1.089   6.446
 3695SOL    HW211982   3.317   1.202   6.361
 3696SOL     OW11983   3.328   0.590   6.578
 3696SOL    HW111984   3.298   0.495   6.585
 3696SOL    HW211985   3.401   0.606   6.644
 3697SOL     OW11986   3.719   0.833   5.963
 3697SOL    HW111987   3.761   0.769   6.027
 3697SOL    HW211988   3.681   0.782   5.885
 3698SOL     OW11989   3.526   1.280   6.243
 3698SOL    HW111990   3.625   1.288   6.257
 3698SOL    HW211991   3.481   1.364   6.274
 3699SOL     OW11992   3.252   0.575   5.664
 3699SOL    HW111993   3.198   0.554   5.745
 3699SOL    HW211994   3.343   0.534   5.673
 3700SOL     OW11995   2.389   0.256   5.914
 3700SOL    HW111996   2.416   0.197   5.839
 3700SOL    HW211997   2.389   0.351   5.883
 3701SOL     OW11998   3.616   1.223   7.174
 3701SOL    HW111999   3.707   1.184   7.161
 3701SOL    HW212000   3.624   1.319   7.198
 3702SOL     OW12001   2.926   1.347   6.926
 3702SOL    HW112002   2.846   1.324   6.981
 3702SOL    HW212003   3.009   1.321   6.975
 3703SOL     OW12004   3.454   1.629   7.211
 3703SOL    HW112005   3.481   1.663   7.121
 3703SOL    HW212006   3.533   1.591   7.257
 3704SOL     OW12007   2.973   1.195   6.686
 3704SOL    HW112008   2.933   1.239   6.767
 3704SOL    HW212009   2.932   1.232   6.603
 3705SOL     OW12010   3.500   1.099   6.665
 3705SOL    HW112011   3.505   1.180   6.724
 3705SOL    HW212012   3.414   1.101   6.614
 3706SOL     OW12013   2.777   0.089   6.988
 3706SOL    HW112014   2.802   0.069   6.893
 3706SOL    HW212015   2.849   0.145   7.030
 3707SOL     OW12016   2.842   1.116   7.305
 3707SOL    HW112017   2.743   1.122   7.315
 3707SOL    HW212018   2.865   1.036   7.249
 3708SOL     OW12019   2.567   1.050   5.954
 3708SOL    HW112020   2.553   1.057   6.053
 3708SOL    HW212021   2.651   0.999   5.936
 3709SOL     OW12022   2.272   0.813   6.837
 3709SOL    HW112023   2.358   0.825   6.887
 3709SOL    HW212024   2.230   0.726   6.864
 3710SOL     OW12025   3.136   0.386   6.848
 3710SOL    HW112026   3.157   0.460   6.912
 3710SOL    HW212027   3.047   0.403   6.805
 3711SOL     OW12028   1.926   1.564   6.917
 3711SOL    HW112029   1.880   1.646   6.883
 3711SOL    HW212030   2.024   1.583   6.926
 3712SOL     OW12031   2.229   1.100   6.087
 3712SOL    HW112032   2.222   1.183   6.031
 3712SOL    HW212033   2.233   1.020   6.027
 3713SOL     OW12034   2.428   0.537   6.451
 3713SOL    HW112035   2.440   0.603   6.377
 3713SOL    HW212036   2.474   0.571   6.534
 3714SOL     OW12037   3.114   1.348   5.974
 3714SOL    HW112038   3.164   1.425   6.014
 3714SOL    HW212039   3.019   1.350   6.006
 3715SOL     OW12040   3.134   1.445   6.728
 3715SOL    HW112041   3.181   1.458   6.815
 3715SOL    HW212042   3.068   1.371   6.737
 3716SOL     OW12043   3.444   0.639   6.058
 3716SOL    HW112044   3.413   0.700   6.131
 3716SOL    HW212045   3.494   0.691   5.989
 3717SOL     OW12046   2.216   1.510   6.915
 3717SOL    HW112047   2.195   1.466   6.828
 3717SOL    HW212048   2.313   1.536   6.918
 3718SOL     OW12049   2.264   0.751   7.184
 3718SOL    HW112050   2.332   0.806   7.137
 3718SOL    HW212051   2.304   0.663   7.211
 3719SOL     OW12052   3.449   0.779   7.256
 3719SOL    HW112053   3.357   0.817   7.251
 3719SOL    HW212054   3.509   0.826   7.191
 3720SOL     OW12055   2.875   0.105   7.356
 3720SOL    HW112056   2.881   0.190   7.304
 3720SOL    HW212057   2.907   0.029   7.299
 3721SOL     OW12058   2.366   0.050   7.326
 3721SOL    HW112059   2.324  -0.007   7.256
 3721SOL    HW212060   2.300   0.119   7.358
 3722SOL     OW12061   2.435   0.870   6.615
 3722SOL    HW112062   2.479   0.959   6.606
 3722SOL    HW212063   2.372   0.870   6.692
 3723SOL     OW12064   3.222   0.862   6.631
 3723SOL    HW112065   3.147   0.862   6.565
 3723SOL    HW212066   3.259   0.770   6.640
 3724SOL     OW12067   3.071   0.525   5.861
 3724SOL    HW112068   3.084   0.441   5.915
 3724SOL    HW212069   3.042   0.599   5.921
 3725SOL     OW12070   2.169   0.213   6.817
 3725SOL    HW112071   2.146   0.250   6.907
 3725SOL    HW212072   2.139   0.118   6.811
 3726SOL     OW12073   1.899   1.310   6.868
 3726SOL    HW112074   1.952   1.261   6.936
 3726SOL    HW212075   1.921   1.408   6.873
 3727SOL     OW12076   2.594   0.634   6.650
 3727SOL    HW112077   2.653   0.608   6.574
 3727SOL    HW212078   2.566   0.730   6.639
 3728SOL     OW12079   3.590   0.935   7.440
 3728SOL    HW112080   3.544   0.928   7.351
 3728SOL    HW212081   3.528   0.979   7.506
 3729SOL     OW12082   2.169   0.063   6.204
 3729SOL    HW112083   2.158   0.157   6.237
 3729SOL    HW212084   2.164   0.000   6.281
 3730SOL     OW12085   3.484   0.367   5.960
 3730SOL    HW112086   3.486   0.291   6.024
 3730SOL    HW212087   3.436   0.444   6.000
 3731SOL     OW12088   2.885   0.766   6.552
 3731SOL    HW112089   2.900   0.787   6.648
 3731SOL    HW212090   2.855   0.671   6.543
 3732SOL     OW12091   2.842   1.573   7.286
 3732SOL    HW112092   2.822   1.617   7.198
 3732SOL    HW212093   2.881   1.482   7.270
 3733SOL     OW12094   3.721   1.518   7.191
 3733SOL    HW112095   3.735   1.545   7.096
 3733SOL    HW212096   3.804   1.540   7.244
 3734SOL     OW12097   2.212   0.898   7.390
 3734SOL    HW112098   2.288   0.942   7.438
 3734SOL    HW212099   2.247   0.851   7.308
 3735SOL     OW12100   3.402   0.274   5.711
 3735SOL    HW112101   3.341   0.199   5.734
 3735SOL    HW212102   3.424   0.326   5.794
 3736SOL     OW12103   3.165   0.838   5.628
 3736SOL    HW112104   3.199   0.745   5.643
 3736SOL    HW212105   3.183   0.865   5.533
 3737SOL     OW12106   2.930   1.333   6.435
 3737SOL    HW112107   2.937   1.249   6.380
 3737SOL    HW212108   2.992   1.402   6.399
 3738SOL     OW12109   2.181   0.810   6.535
 3738SOL    HW112110   2.274   0.846   6.540
 3738SOL    HW212111   2.175   0.725   6.587
 3739SOL     OW12112   2.201   0.509   6.592
 3739SOL    HW112113   2.149   0.426   6.575
 3739SOL    HW212114   2.278   0.514   6.528
 3740SOL     OW12115   3.000   0.380   7.264
 3740SOL    HW112116   2.955   0.443   7.328
 3740SOL    HW212117   3.093   0.411   7.247
 3741SOL     OW12118   3.022   0.207   7.063
 3741SOL    HW112119   3.022   0.271   7.140
 3741SOL    HW212120   3.050   0.255   6.980
 3742SOL     OW12121   1.870   1.326   5.786
 3742SOL    HW112122   1.777   1.347   5.755
 3742SOL    HW212123   1.880   1.227   5.799
 3743SOL     OW12124   2.366   1.568   6.496
 3743SOL    HW112125   2.432   1.642   6.505
 3743SOL    HW212126   2.410   1.489   6.454
 3744SOL     OW12127   2.864   0.796   6.824
 3744SOL    HW112128   2.905   0.764   6.910
 3744SOL    HW212129   2.768   0.769   6.821
 3745SOL     OW12130   1.902   0.544   6.700
 3745SOL    HW112131   1.987   0.511   6.659
 3745SOL    HW212132   1.915   0.559   6.798
 3746SOL     OW12133   2.051   0.520   7.308
 3746SOL    HW112134   2.110   0.480   7.238
 3746SOL    HW212135   1.993   0.591   7.267
 3747SOL     OW12136   3.231   0.950   7.246
 3747SOL    HW112137   3.270   1.039   7.266
 3747SOL    HW212138   3.241   0.930   7.149
 3748SOL     OW12139   2.677   0.572   5.911
 3748SOL    HW112140   2.684   0.483   5.865
 3748SOL    HW212141   2.583   0.606   5.903
 3749SOL     OW12142   3.519   0.604   6.792
 3749SOL    HW112143   3.481   0.535   6.854
 3749SOL    HW212144   3.601   0.568   6.748
 3750SOL     OW12145   2.114   1.564   7.330
 3750SOL    HW112146   2.084   1.621   7.406
 3750SOL    HW212147   2.107   1.467   7.356
 3751SOL     OW12148   2.533   0.464   6.855
 3751SOL    HW112149   2.499   0.375   6.825
 3751SOL    HW212150   2.559   0.518   6.775
 3752SOL     OW12151   2.792   1.678   7.051
 3752SOL    HW112152   2.768   1.660   6.956
 3752SOL    HW212153   2.822   1.772   7.061
 3753SOL     OW12154   2.335   0.500   5.777
 3753SOL    HW112155   2.396   0.580   5.781
 3753SOL    HW212156   2.240   0.531   5.784
 3754SOL     OW12157   2.021   1.137   7.052
 3754SOL    HW112158   2.043   1.076   7.128
 3754SOL    HW212159   2.031   1.088   6.966
 3755SOL     OW12160   3.209   1.059   6.820
 3755SOL    HW112161   3.233   0.996   6.746
 3755SOL    HW212162   3.119   1.099   6.802
 3756SOL     OW12163   3.164   0.855   5.895
 3756SOL    HW112164   3.078   0.824   5.937
 3756SOL    HW212165   3.160   0.841   5.796
 3757SOL     OW12166   3.621   1.747   6.740
 3757SOL    HW112167   3.682   1.777   6.667
 3757SOL    HW212168   3.583   1.658   6.718
 3758SOL     OW12169   3.114   1.731   6.714
 3758SOL    HW112170   3.198   1.736   6.660
 3758SOL    HW212171   3.091   1.635   6.732
 3759SOL     OW12172   1.945   1.258   6.608
 3759SOL    HW112173   1.940   1.257   6.708
 3759SOL    HW212174   1.862   1.217   6.570
 3760SOL     OW12175   2.550   1.662   7.302
 3760SOL    HW112176   2.494   1.743   7.311
 3760SOL    HW212177   2.602   1.666   7.216
 3761SOL     OW12178   3.588   0.135   6.109
 3761SOL    HW112179   3.661   0.118   6.042
 3761SOL    HW212180   3.557   0.048   6.147
 3762SOL     OW12181   3.250   1.573   6.063
 3762SOL    HW112182   3.317   1.585   5.989
 3762SOL    HW212183   3.210   1.662   6.086
 3763SOL     OW12184   1.992   1.794   7.437
 3763SOL    HW112185   1.951   1.720   7.490
 3763SOL    HW212186   2.056   1.845   7.495
 3764SOL     OW12187   3.142   0.927   6.258
 3764SOL    HW112188   3.202   0.846   6.260
 3764SOL    HW212189   3.182   0.996   6.198
 3765SOL     OW12190   2.692   1.273   7.008
 3765SOL    HW112191   2.687   1.306   7.103
 3765SOL    HW212192   2.606   1.292   6.962
 3766SOL     OW12193   3.512   1.720   6.980
 3766SOL    HW112194   3.565   1.730   6.896
 3766SOL    HW212195   3.485   1.810   7.014
 3767SOL     OW12196   3.703   0.175   6.549
 3767SOL    HW112197   3.742   0.090   6.513
 3767SOL    HW212198   3.605   0.177   6.530
 3768SOL     OW12199   2.125   0.326   6.306
 3768SOL    HW112200   2.046   0.377   6.272
 3768SOL    HW212201   2.116   0.311   6.404
 3769SOL     OW12202   3.056   1.612   5.617
 3769SOL    HW112203   3.062   1.519   5.654
 3769SOL    HW212204   2.997   1.612   5.537
 3770SOL     OW12205   2.684   1.002   6.958
 3770SOL    HW112206   2.724   1.001   6.866
 3770SOL    HW212207   2.694   1.094   6.998
 3771SOL     OW12208   2.778   0.910   5.877
 3771SOL    HW112209   2.841   0.948   5.809
 3771SOL    HW212210   2.818   0.827   5.916
 3772SOL     OW12211   3.366   1.607   5.630
 3772SOL    HW112212   3.274   1.644   5.637
 3772SOL    HW212213   3.404   1.627   5.540
 3773SOL     OW12214   2.234   1.288   7.076
 3773SOL    HW112215   2.221   1.381   7.042
 3773SOL    HW212216   2.150   1.236   7.063
 3774SOL     OW12217   3.476   1.292   6.875
 3774SOL    HW112218   3.536   1.295   6.955
 3774SOL    HW212219   3.401   1.356   6.888
 3775SOL     OW12220   2.901   1.098   6.282
 3775SOL    HW112221   2.831   1.051   6.336
 3775SOL    HW212222   2.960   1.030   6.239
 3776SOL     OW12223   2.876   0.236   6.557
 3776SOL    HW112224   2.868   0.200   6.464
 3776SOL    HW212225   2.874   0.160   6.622
 3777SOL     OW12226   3.571   0.385   6.967
 3777SOL    HW112227   3.644   0.454   6.971
 3777SOL    HW212228   3.599   0.310   6.908
 3778SOL     OW12229   2.117   1.348   5.876
 3778SOL    HW112230   2.021   1.349   5.849
 3778SOL    HW212231   2.129   1.401   5.960
 3779SOL     OW12232   1.967   1.013   7.312
 3779SOL    HW112233   1.890   0.980   7.366
 3779SOL    HW212234   2.052   0.983   7.354
 3780SOL     OW12235   2.534   0.203   7.075
 3780SOL    HW112236   2.624   0.187   7.035
 3780SOL    HW212237   2.542   0.208   7.174
 3781SOL     OW12238   1.937   0.345   5.619
 3781SOL    HW112239   1.845   0.317   5.590
 3781SOL    HW212240   1.968   0.422   5.563
 3782SOL     OW12241   3.302   0.856   6.984
 3782SOL    HW112242   3.245   0.908   6.921
 3782SOL    HW212243   3.398   0.868   6.960
 3783SOL     OW12244   1.934   0.166   5.904
 3783SOL    HW112245   1.917   0.249   5.850
 3783SOL    HW212246   2.024   0.129   5.882
 3784SOL     OW12247   3.045   1.335   5.705
 3784SOL    HW112248   2.946   1.324   5.707
 3784SOL    HW212249   3.079   1.350   5.798
 3785SOL     OW12250   2.475   0.842   7.017
 3785SOL    HW112251   2.531   0.923   7.000
 3785SOL    HW212252   2.534   0.762   7.020
 3786SOL     OW12253   3.355   1.767   6.545
 3786SOL    HW112254   3.388   1.831   6.476
 3786SOL    HW212255   3.421   1.761   6.620
 3787SOL     OW12256   2.578   0.565   7.294
 3787SOL    HW112257   2.597   0.630   7.368
 3787SOL    HW212258   2.638   0.485   7.303
 3788SOL     OW12259   3.312   1.220   7.219
 3788SOL    HW112260   3.303   1.210   7.318
 3788SOL    HW212261   3.408   1.213   7.193
 3789SOL     OW12262   2.252   1.741   7.146
 3789SOL    HW112263   2.161   1.782   7.144
 3789SOL    HW212264   2.245   1.647   7.178
 3790SOL     OW12265   3.536   0.883   6.840
 3790SOL    HW112266   3.509   0.794   6.803
 3790SOL    HW212267   3.537   0.951   6.767
 3791SOL     OW12268   3.087   0.325   6.035
 3791SOL    HW112269   3.152   0.251   6.024
 3791SOL    HW212270   3.107   0.375   6.119
 3792SOL     OW12271   2.456   0.745   6.238
 3792SOL    HW112272   2.506   0.830   6.219
 3792SOL    HW212273   2.368   0.747   6.190
 3793SOL     OW12274   3.639   0.342   7.228
 3793SOL    HW112275   3.622   0.373   7.134
 3793SOL    HW212276   3.555   0.305   7.266
 3794SOL     OW12277   3.592   0.934   7.103
 3794SOL    HW112278   3.630   1.025   7.118
 3794SOL    HW212279   3.584   0.917   7.004
 3795SOL     OW12280   2.721   1.374   5.602
 3795SOL    HW112281   2.675   1.389   5.690
 3795SOL    HW212282   2.765   1.459   5.572
 3796SOL     OW12283   2.721   0.956   6.447
 3796SOL    HW112284   2.775   0.887   6.495
 3796SOL    HW212285   2.689   1.025   6.513
 3797SOL     OW12286   2.945   0.984   5.673
 3797SOL    HW112287   2.922   1.037   5.591
 3797SOL    HW212288   3.026   0.928   5.654
 3798SOL     OW12289   3.723   1.569   6.437
 3798SOL    HW112290   3.652   1.557   6.367
 3798SOL    HW212291   3.724   1.490   6.497
 3799SOL     OW12292   2.083   1.314   7.430
 3799SOL    HW112293   2.018   1.241   7.409
 3799SOL    HW212294   2.087   1.328   7.528
 3800SOL     OW12295   1.941   1.240   6.239
 3800SOL    HW112296   1.940   1.193   6.327
 3800SOL    HW212297   2.023   1.212   6.188
 3801SOL     OW12298   2.534   1.391   7.210
 3801SOL    HW112299   2.456   1.341   7.248
 3801SOL    HW212300   2.531   1.486   7.241
 3802SOL     OW12301   3.686   0.192   6.813
 3802SOL    HW112302   3.682   0.102   6.857
 3802SOL    HW212303   3.689   0.181   6.714
 3803SOL     OW12304   2.290   0.424   6.106
 3803SOL    HW112305   2.320   0.352   6.044
 3803SOL    HW212306   2.251   0.384   6.189
 3804SOL     OW12307   3.567   1.487   6.690
 3804SOL    HW112308   3.474   1.462   6.663
 3804SOL    HW212309   3.593   1.437   6.772
 3805SOL     OW12310   2.179   0.547   6.866
 3805SOL    HW112311   2.217   0.488   6.938
 3805SOL    HW212312   2.219   0.521   6.778
 3806SOL     OW12313   3.286   0.214   6.698
 3806SOL    HW112314   3.338   0.149   6.753
 3806SOL    HW212315   3.237   0.277   6.759
 3807SOL     OW12316   2.863   0.034   6.740
 3807SOL    HW112317   2.800  -0.038   6.709
 3807SOL    HW212318   2.956  -0.002   6.740
 3808SOL     OW12319   2.480   1.567   6.870
 3808SOL    HW112320   2.475   1.649   6.927
 3808SOL    HW212321   2.569   1.564   6.825
 3809SOL     OW12322   3.214   0.052   5.754
 3809SOL    HW112323   3.249   0.011   5.670
 3809SOL    HW212324   3.124   0.014   5.774
 3810SOL     OW12325   3.162   0.453   6.277
 3810SOL    HW112326   3.103   0.533   6.281
 3810SOL    HW212327   3.177   0.418   6.370
 3811SOL     OW12328   3.455   0.221   6.468
 3811SOL    HW112329   3.371   0.220   6.522
 3811SOL    HW212330   3.457   0.304   6.412
 3812SOL     OW12331   1.901   1.077   5.886
 3812SOL    HW112332   2.000   1.066   5.877
 3812SOL    HW212333   1.861   0.991   5.918
 3813SOL     OW12334   2.092   0.628   7.561
 3813SOL    HW112335   1.999   0.626   7.598
 3813SOL    HW212336   2.093   0.589   7.469
 3814SOL     OW12337   2.087   0.275   8.444
 3814SOL    HW112338   2.122   0.258   8.536
 3814SOL    HW212339   1.999   0.230   8.432
 3815SOL     OW12340   1.881   0.368   8.095
 3815SOL    HW112341   1.799   0.411   8.134
 3815SOL    HW212342   1.853   0.295   8.032
 3816SOL     OW12343   2.431   1.275   8.613
 3816SOL    HW112344   2.338   1.268   8.576
 3816SOL    HW212345   2.442   1.364   8.657
 3817SOL     OW12346   3.417   1.511   8.151
 3817SOL    HW112347   3.360   1.495   8.232
 3817SOL    HW212348   3.358   1.521   8.071
 3818SOL     OW12349   2.997   0.703   8.165
 3818SOL    HW112350   3.054   0.781   8.140
 3818SOL    HW212351   2.937   0.729   8.241
 3819SOL     OW12352   3.617   0.607   7.679
 3819SOL    HW112353   3.605   0.594   7.580
 3819SOL    HW212354   3.587   0.526   7.728
 3820SOL     OW12355   2.630   1.144   8.471
 3820SOL    HW112356   2.552   1.161   8.531
 3820SOL    HW212357   2.664   1.231   8.435
 3821SOL     OW12358   2.712   0.798   9.271
 3821SOL    HW112359   2.708   0.874   9.336
 3821SOL    HW212360   2.734   0.834   9.180
 3822SOL     OW12361   2.547   1.012   8.113
 3822SOL    HW112362   2.616   0.996   8.183
 3822SOL    HW212363   2.474   1.069   8.151
 3823SOL     OW12364   2.548   1.161   9.251
 3823SOL    HW112365   2.608   1.240   9.265
 3823SOL    HW212366   2.462   1.192   9.210
 3824SOL     OW12367   2.197   1.435   8.509
 3824SOL    HW112368   2.119   1.404   8.456
 3824SOL    HW212369   2.255   1.493   8.452
 3825SOL     OW12370   3.322   1.505   8.787
 3825SOL    HW112371   3.346   1.599   8.813
 3825SOL    HW212372   3.306   1.451   8.869
 3826SOL     OW12373   2.300   0.392   8.947
 3826SOL    HW112374   2.382   0.336   8.956
 3826SOL    HW212375   2.219   0.334   8.951
 3827SOL     OW12376   3.465   0.447   8.185
 3827SOL    HW112377   3.391   0.493   8.135
 3827SOL    HW212378   3.516   0.515   8.238
 3828SOL     OW12379   2.093   1.713   7.931
 3828SOL    HW112380   2.127   1.790   7.985
 3828SOL    HW212381   2.137   1.713   7.841
 3829SOL     OW12382   2.989   1.341   9.138
 3829SOL    HW112383   3.036   1.341   9.226
 3829SOL    HW212384   2.941   1.254   9.127
 3830SOL     OW12385   2.092   1.434   7.986
 3830SOL    HW112386   2.066   1.530   7.986
 3830SOL    HW212387   2.021   1.380   8.031
 3831SOL     OW12388   2.102   1.091   8.334
 3831SOL    HW112389   2.116   1.007   8.386
 3831SOL    HW212390   2.047   1.155   8.389
 3832SOL     OW12391   2.482   1.786   8.887
 3832SOL    HW112392   2.390   1.769   8.922
 3832SOL    HW212393   2.510   1.878   8.913
 3833SOL     OW12394   2.468   0.964   7.571
 3833SOL    HW112395   2.475   1.048   7.517
 3833SOL    HW212396   2.514   0.977   7.659
 3834SOL     OW12397   3.456   0.114   8.928
 3834SOL    HW112398   3.438   0.181   8.856
 3834SOL    HW212399   3.453   0.160   9.017
 3835SOL     OW12400   1.984   0.643   8.011
 3835SOL    HW112401   1.939   0.555   8.028
 3835SOL    HW212402   1.983   0.697   8.095
 3836SOL     OW12403   3.704   1.767   7.807
 3836SOL    HW112404   3.758   1.738   7.887
 3836SOL    HW212405   3.734   1.857   7.778
 3837SOL     OW12406   1.889   1.596   7.565
 3837SOL    HW112407   1.870   1.500   7.586
 3837SOL    HW212408   1.856   1.654   7.640
 3838SOL     OW12409   3.551   0.922   8.060
 3838SOL    HW112410   3.646   0.893   8.068
 3838SOL    HW212411   3.543   0.987   7.985
 3839SOL     OW12412   3.503   1.108   7.880
 3839SOL    HW112413   3.589   1.110   7.828
 3839SOL    HW212414   3.517   1.155   7.968
 3840SOL     OW12415   1.975   0.737   9.045
 3840SOL    HW112416   2.063   0.724   9.090
 3840SOL    HW212417   1.962   0.834   9.023
 3841SOL     OW12418   2.475   1.365   8.174
 3841SOL    HW112419   2.426   1.278   8.183
 3841SOL    HW212420   2.452   1.408   8.087
 3842SOL     OW12421   3.155   1.228   8.871
 3842SOL    HW112422   3.192   1.155   8.813
 3842SOL    HW212423   3.207   1.233   8.956
 3843SOL     OW12424   2.671   0.004   7.950
 3843SOL    HW112425   2.711   0.095   7.941
 3843SOL    HW212426   2.571   0.012   7.956
 3844SOL     OW12427   2.059   0.976   8.712
 3844SOL    HW112428   2.148   0.931   8.698
 3844SOL    HW212429   1.986   0.911   8.693
 3845SOL     OW12430   3.387   0.999   7.638
 3845SOL    HW112431   3.324   0.923   7.651
 3845SOL    HW212432   3.435   1.017   7.724
 3846SOL     OW12433   3.049   1.792   9.064
 3846SOL    HW112434   3.073   1.852   8.988
 3846SOL    HW212435   3.056   1.697   9.034
 3847SOL     OW12436   2.179   0.251   9.249
 3847SOL    HW112437   2.250   0.322   9.255
 3847SOL    HW212438   2.091   0.290   9.277
 3848SOL     OW12439   3.328   1.417   8.401
 3848SOL    HW112440   3.269   1.423   8.481
 3848SOL    HW212441   3.313   1.329   8.355
 3849SOL     OW12442   3.529   1.714   8.020
 3849SOL    HW112443   3.488   1.691   7.932
 3849SOL    HW212444   3.511   1.640   8.085
 3850SOL     OW12445   2.460   0.729   7.718
 3850SOL    HW112446   2.484   0.798   7.650
 3850SOL    HW212447   2.382   0.762   7.772
 3851SOL     OW12448   3.143   0.345   8.392
 3851SOL    HW112449   3.057   0.295   8.379
 3851SOL    HW212450   3.205   0.291   8.448
 3852SOL     OW12451   3.438   1.662   7.755
 3852SOL    HW112452   3.527   1.708   7.758
 3852SOL    HW212453   3.417   1.638   7.660
 3853SOL     OW12454   2.669   0.605   8.913
 3853SOL    HW112455   2.622   0.602   9.002
 3853SOL    HW212456   2.618   0.550   8.847
 3854SOL     OW12457   3.256   0.469   9.122
 3854SOL    HW112458   3.236   0.512   9.210
 3854SOL    HW212459   3.334   0.407   9.131
 3855SOL     OW12460   2.835   0.890   9.020
 3855SOL    HW112461   2.881   0.806   8.991
 3855SOL    HW212462   2.779   0.924   8.945
 3856SOL     OW12463   2.853   0.410   8.690
 3856SOL    HW112464   2.776   0.444   8.744
 3856SOL    HW212465   2.819   0.359   8.611
 3857SOL     OW12466   2.903   0.701   7.877
 3857SOL    HW112467   2.929   0.697   7.973
 3857SOL    HW212468   2.818   0.650   7.863
 3858SOL     OW12469   1.938   0.811   8.237
 3858SOL    HW112470   2.037   0.799   8.246
 3858SOL    HW212471   1.914   0.906   8.258
 3859SOL     OW12472   1.992   1.821   9.019
 3859SOL    HW112473   1.982   1.806   9.118
 3859SOL    HW212474   1.906   1.857   8.983
 3860SOL     OW12475   2.727   0.348   7.643
 3860SOL    HW112476   2.786   0.411   7.594
 3860SOL    HW212477   2.746   0.254   7.614
 3861SOL     OW12478   3.581   0.585   9.279
 3861SOL    HW112479   3.555   0.674   9.243
 3861SOL    HW212480   3.579   0.517   9.206
 3862SOL     OW12481   3.224   1.144   7.993
 3862SOL    HW112482   3.307   1.115   7.945
 3862SOL    HW212483   3.175   1.211   7.937
 3863SOL     OW12484   2.412   0.196   8.333
 3863SOL    HW112485   2.407   0.191   8.433
 3863SOL    HW212486   2.414   0.292   8.304
 3864SOL     OW12487   2.870   1.456   7.925
 3864SOL    HW112488   2.824   1.528   7.873
 3864SOL    HW212489   2.866   1.476   8.023
 3865SOL     OW12490   2.213   1.801   8.301
 3865SOL    HW112491   2.263   1.715   8.307
 3865SOL    HW212492   2.278   1.878   8.298
 3866SOL     OW12493   3.657   1.066   8.321
 3866SOL    HW112494   3.595   1.051   8.245
 3866SOL    HW212495   3.605   1.077   8.406
 3867SOL     OW12496   3.089   1.550   8.954
 3867SOL    HW112497   3.095   1.473   9.018
 3867SOL    HW212498   3.037   1.524   8.874
 3868SOL     OW12499   2.183   0.943   7.690
 3868SOL    HW112500   2.265   0.982   7.648
 3868SOL    HW212501   2.156   0.861   7.641
 3869SOL     OW12502   3.320   0.735   8.176
 3869SOL    HW112503   3.315   0.670   8.251
 3869SOL    HW212504   3.400   0.794   8.189
 3870SOL     OW12505   2.323   1.266   9.175
 3870SOL    HW112506   2.273   1.267   9.089
 3870SOL    HW212507   2.260   1.248   9.251
 3871SOL     OW12508   2.973   1.776   7.685
 3871SOL    HW112509   2.913   1.714   7.735
 3871SOL    HW212510   3.004   1.732   7.600
 3872SOL     OW12511   2.064   0.285   8.946
 3872SOL    HW112512   1.984   0.345   8.933
 3872SOL    HW212513   2.054   0.236   9.032
 3873SOL     OW12514   3.494   1.377   7.529
 3873SOL    HW112515   3.462   1.471   7.519
 3873SOL    HW212516   3.418   1.314   7.517
 3874SOL     OW12517   2.326   1.743   7.771
 3874SOL    HW112518   2.359   1.782   7.857
 3874SOL    HW212519   2.402   1.736   7.706
 3875SOL     OW12520   3.262   0.107   7.874
 3875SOL    HW112521   3.238   0.070   7.784
 3875SOL    HW212522   3.361   0.123   7.878
 3876SOL     OW12523   2.111   1.785   8.689
 3876SOL    HW112524   2.168   1.720   8.739
 3876SOL    HW212525   2.095   1.752   8.596
 3877SOL     OW12526   2.802   1.698   8.352
 3877SOL    HW112527   2.882   1.641   8.373
 3877SOL    HW212528   2.753   1.658   8.275
 3878SOL     OW12529   2.244   0.700   7.928
 3878SOL    HW112530   2.289   0.610   7.925
 3878SOL    HW212531   2.150   0.689   7.961
 3879SOL     OW12532   3.409   0.222   9.177
 3879SOL    HW112533   3.404   0.259   9.269
 3879SOL    HW212534   3.337   0.153   9.165
 3880SOL     OW12535   2.476   0.122   7.565
 3880SOL    HW112536   2.574   0.100   7.572
 3880SOL    HW212537   2.445   0.105   7.472
 3881SOL     OW12538   2.643   0.264   9.197
 3881SOL    HW112539   2.710   0.203   9.240
 3881SOL    HW212540   2.570   0.283   9.262
 3882SOL     OW12541   2.750   1.514   8.643
 3882SOL    HW112542   2.727   1.489   8.549
 3882SOL    HW212543   2.811   1.445   8.682
 3883SOL     OW12544   3.213   0.590   8.881
 3883SOL    HW112545   3.241   0.547   8.966
 3883SOL    HW212546   3.238   0.686   8.882
 3884SOL     OW12547   2.665   1.402   8.372
 3884SOL    HW112548   2.755   1.416   8.330
 3884SOL    HW212549   2.594   1.404   8.301
 3885SOL     OW12550   2.784   0.503   8.347
 3885SOL    HW112551   2.759   0.494   8.251
 3885SOL    HW212552   2.832   0.421   8.378
 3886SOL     OW12553   2.401   0.064   7.960
 3886SOL    HW112554   2.320   0.065   8.018
 3886SOL    HW212555   2.404   0.147   7.905
 3887SOL     OW12556   3.296   1.188   7.489
 3887SOL    HW112557   3.328   1.112   7.546
 3887SOL    HW212558   3.204   1.215   7.519
 3888SOL     OW12559   2.159   0.035   7.619
 3888SOL    HW112560   2.208   0.119   7.598
 3888SOL    HW212561   2.221  -0.030   7.664
 3889SOL     OW12562   2.797   0.236   7.928
 3889SOL    HW112563   2.749   0.277   7.850
 3889SOL    HW212564   2.896   0.234   7.909
 3890SOL     OW12565   2.938   0.683   8.912
 3890SOL    HW112566   2.858   0.622   8.915
 3890SOL    HW212567   3.019   0.630   8.888
 3891SOL     OW12568   3.089   1.570   8.241
 3891SOL    HW112569   3.110   1.644   8.176
 3891SOL    HW212570   3.157   1.570   8.314
 3892SOL     OW12571   2.321   1.152   8.189
 3892SOL    HW112572   2.250   1.125   8.254
 3892SOL    HW212573   2.295   1.124   8.096
 3893SOL     OW12574   3.133   1.797   8.039
 3893SOL    HW112575   3.177   1.861   7.975
 3893SOL    HW212576   3.083   1.849   8.109
 3894SOL     OW12577   2.894   0.549   7.464
 3894SOL    HW112578   2.853   0.631   7.425
 3894SOL    HW212579   2.958   0.575   7.537
 3895SOL     OW12580   1.940   0.556   8.834
 3895SOL    HW112581   2.032   0.555   8.793
 3895SOL    HW212582   1.934   0.630   8.901
 3896SOL     OW12583   2.423   0.222   8.595
 3896SOL    HW112584   2.461   0.138   8.632
 3896SOL    HW212585   2.335   0.241   8.639
 3897SOL     OW12586   2.728   0.454   8.090
 3897SOL    HW112587   2.696   0.526   8.028
 3897SOL    HW212588   2.752   0.373   8.037
 3898SOL     OW12589   2.879   0.039   8.201
 3898SOL    HW112590   2.807   0.044   8.132
 3898SOL    HW212591   2.855  -0.030   8.270
 3899SOL     OW12592   3.291   1.173   8.315
 3899SOL    HW112593   3.236   1.089   8.308
 3899SOL    HW212594   3.317   1.202   8.223
 3900SOL     OW12595   3.328   0.590   8.440
 3900SOL    HW112596   3.298   0.495   8.447
 3900SOL    HW212597   3.401   0.606   8.506
 3901SOL     OW12598   3.719   0.833   7.825
 3901SOL    HW112599   3.761   0.769   7.889
 3901SOL    HW212600   3.681   0.782   7.747
 3902SOL     OW12601   2.350   1.385   7.622
 3902SOL    HW112602   2.263   1.370   7.669
 3902SOL    HW212603   2.333   1.411   7.527
 3903SOL     OW12604   3.526   1.280   8.105
 3903SOL    HW112605   3.625   1.288   8.119
 3903SOL    HW212606   3.481   1.364   8.136
 3904SOL     OW12607   3.252   0.575   7.526
 3904SOL    HW112608   3.198   0.554   7.607
 3904SOL    HW212609   3.343   0.534   7.535
 3905SOL     OW12610   2.389   0.256   7.776
 3905SOL    HW112611   2.416   0.197   7.701
 3905SOL    HW212612   2.389   0.351   7.745
 3906SOL     OW12613   3.616   1.223   9.036
 3906SOL    HW112614   3.707   1.184   9.023
 3906SOL    HW212615   3.624   1.319   9.060
 3907SOL     OW12616   2.926   1.347   8.788
 3907SOL    HW112617   2.846   1.324   8.843
 3907SOL    HW212618   3.009   1.321   8.837
 3908SOL     OW12619   3.454   1.629   9.073
 3908SOL    HW112620   3.481   1.663   8.983
 3908SOL    HW212621   3.533   1.591   9.119
 3909SOL     OW12622   2.973   1.195   8.548
 3909SOL    HW112623   2.933   1.239   8.629
 3909SOL    HW212624   2.932   1.232   8.465
 3910SOL     OW12625   3.500   1.099   8.527
 3910SOL    HW112626   3.505   1.180   8.586
 3910SOL    HW212627   3.414   1.101   8.476
 3911SOL     OW12628   2.777   0.089   8.850
 3911SOL    HW112629   2.802   0.069   8.755
 3911SOL    HW212630   2.849   0.145   8.892
 3912SOL     OW12631   2.842   1.116   9.167
 3912SOL    HW112632   2.743   1.122   9.177
 3912SOL    HW212633   2.865   1.036   9.111
 3913SOL     OW12634   2.567   1.050   7.816
 3913SOL    HW112635   2.553   1.057   7.915
 3913SOL    HW212636   2.651   0.999   7.798
 3914SOL     OW12637   2.272   0.813   8.699
 3914SOL    HW112638   2.358   0.825   8.749
 3914SOL    HW212639   2.230   0.726   8.726
 3915SOL     OW12640   3.136   0.386   8.710
 3915SOL    HW112641   3.157   0.460   8.774
 3915SOL    HW212642   3.047   0.403   8.667
 3916SOL     OW12643   1.926   1.564   8.779
 3916SOL    HW112644   1.880   1.646   8.745
 3916SOL    HW212645   2.024   1.583   8.788
 3917SOL     OW12646   2.229   1.100   7.949
 3917SOL    HW112647   2.222   1.183   7.893
 3917SOL    HW212648   2.233   1.020   7.889
 3918SOL     OW12649   2.428   0.537   8.313
 3918SOL    HW112650   2.440   0.603   8.239
 3918SOL    HW212651   2.474   0.571   8.396
 3919SOL     OW12652   3.114   1.348   7.836
 3919SOL    HW112653   3.164   1.425   7.876
 3919SOL    HW212654   3.019   1.350   7.868
 3920SOL     OW12655   3.134   1.445   8.590
 3920SOL    HW112656   3.181   1.458   8.677
 3920SOL    HW212657   3.068   1.371   8.599
 3921SOL     OW12658   3.444   0.639   7.920
 3921SOL    HW112659   3.413   0.700   7.993
 3921SOL    HW212660   3.494   0.691   7.851
 3922SOL     OW12661   2.216   1.510   8.777
 3922SOL    HW112662   2.195   1.466   8.690
 3922SOL    HW212663   2.313   1.536   8.780
 3923SOL     OW12664   2.264   0.751   9.046
 3923SOL    HW112665   2.332   0.806   8.999
 3923SOL    HW212666   2.304   0.663   9.073
 3924SOL     OW12667   3.449   0.779   9.118
 3924SOL    HW112668   3.357   0.817   9.113
 3924SOL    HW212669   3.509   0.826   9.053
 3925SOL     OW12670   2.875   0.105   9.218
 3925SOL    HW112671   2.881   0.190   9.166
 3925SOL    HW212672   2.907   0.029   9.161
 3926SOL     OW12673   2.366   0.050   9.188
 3926SOL    HW112674   2.324  -0.007   9.118
 3926SOL    HW212675   2.300   0.119   9.220
 3927SOL     OW12676   2.435   0.870   8.477
 3927SOL    HW112677   2.479   0.959   8.468
 3927SOL    HW212678   2.372   0.870   8.554
 3928SOL     OW12679   3.222   0.862   8.493
 3928SOL    HW112680   3.147   0.862   8.427
 3928SOL    HW212681   3.259   0.770   8.502
 3929SOL     OW12682   3.071   0.525   7.723
 3929SOL    HW112683   3.084   0.441   7.777
 3929SOL    HW212684   3.042   0.599   7.783
 3930SOL     OW12685   2.169   0.213   8.679
 3930SOL    HW112686   2.146   0.250   8.769
 3930SOL    HW212687   2.139   0.118   8.673
 3931SOL     OW12688   1.899   1.310   8.730
 3931SOL    HW112689   1.952   1.261   8.798
 3931SOL    HW212690   1.921   1.408   8.735
 3932SOL     OW12691   2.594   0.634   8.512
 3932SOL    HW112692   2.653   0.608   8.436
 3932SOL    HW212693   2.566   0.730   8.501
 3933SOL     OW12694   3.590   0.935   9.302
 3933SOL    HW112695   3.544   0.928   9.213
 3933SOL    HW212696   3.528   0.979   9.368
 3934SOL     OW12697   2.169   0.063   8.066
 3934SOL    HW112698   2.158   0.157   8.099
 3934SOL    HW212699   2.164   0.000   8.143
 3935SOL     OW12700   3.484   0.367   7.822
 3935SOL    HW112701   3.486   0.291   7.886
 3935SOL    HW212702   3.436   0.444   7.862
 3936SOL     OW12703   2.885   0.766   8.414
 3936SOL    HW112704   2.900   0.787   8.510
 3936SOL    HW212705   2.855   0.671   8.405
 3937SOL     OW12706   2.842   1.573   9.148
 3937SOL    HW112707   2.822   1.617   9.060
 3937SOL    HW212708   2.881   1.482   9.132
 3938SOL     OW12709   3.721   1.518   9.053
 3938SOL    HW112710   3.735   1.545   8.958
 3938SOL    HW212711   3.804   1.540   9.106
 3939SOL     OW12712   2.212   0.898   9.252
 3939SOL    HW112713   2.288   0.942   9.300
 3939SOL    HW212714   2.247   0.851   9.170
 3940SOL     OW12715   3.402   0.274   7.573
 3940SOL    HW112716   3.341   0.199   7.596
 3940SOL    HW212717   3.424   0.326   7.656
 3941SOL     OW12718   3.165   0.838   7.490
 3941SOL    HW112719   3.199   0.745   7.505
 3941SOL    HW212720   3.183   0.865   7.395
 3942SOL     OW12721   2.930   1.333   8.297
 3942SOL    HW112722   2.937   1.249   8.242
 3942SOL    HW212723   2.992   1.402   8.261
 3943SOL     OW12724   2.181   0.810   8.397
 3943SOL    HW112725   2.274   0.846   8.402
 3943SOL    HW212726   2.175   0.725   8.449
 3944SOL     OW12727   2.201   0.509   8.454
 3944SOL    HW112728   2.149   0.426   8.437
 3944SOL    HW212729   2.278   0.514   8.390
 3945SOL     OW12730   3.000   0.380   9.126
 3945SOL    HW112731   2.955   0.443   9.190
 3945SOL    HW212732   3.093   0.411   9.109
 3946SOL     OW12733   3.022   0.207   8.925
 3946SOL    HW112734   3.022   0.271   9.002
 3946SOL    HW212735   3.050   0.255   8.842
 3947SOL     OW12736   1.870   1.326   7.648
 3947SOL    HW112737   1.777   1.347   7.617
 3947SOL    HW212738   1.880   1.227   7.661
 3948SOL     OW12739   1.950   1.801   8.375
 3948SOL    HW112740   1.908   1.715   8.348
 3948SOL    HW212741   2.044   1.804   8.341
 3949SOL     OW12742   2.366   1.568   8.358
 3949SOL    HW112743   2.432   1.642   8.367
 3949SOL    HW212744   2.410   1.489   8.316
 3950SOL     OW12745   2.864   0.796   8.686
 3950SOL    HW112746   2.905   0.764   8.772
 3950SOL    HW212747   2.768   0.769   8.683
 3951SOL     OW12748   1.902   0.544   8.562
 3951SOL    HW112749   1.987   0.511   8.521
 3951SOL    HW212750   1.915   0.559   8.660
 3952SOL     OW12751   2.051   0.520   9.170
 3952SOL    HW112752   2.110   0.480   9.100
 3952SOL    HW212753   1.993   0.591   9.129
 3953SOL     OW12754   3.231   0.950   9.108
 3953SOL    HW112755   3.270   1.039   9.128
 3953SOL    HW212756   3.241   0.930   9.011
 3954SOL     OW12757   2.677   0.572   7.773
 3954SOL    HW112758   2.684   0.483   7.727
 3954SOL    HW212759   2.583   0.606   7.765
 3955SOL     OW12760   3.519   0.604   8.654
 3955SOL    HW112761   3.481   0.535   8.716
 3955SOL    HW212762   3.601   0.568   8.610
 3956SOL     OW12763   2.114   1.564   9.192
 3956SOL    HW112764   2.084   1.621   9.268
 3956SOL    HW212765   2.107   1.467   9.218
 3957SOL     OW12766   2.533   0.464   8.717
 3957SOL    HW112767   2.499   0.375   8.687
 3957SOL    HW212768   2.559   0.518   8.637
 3958SOL     OW12769   2.792   1.678   8.913
 3958SOL    HW112770   2.768   1.660   8.818
 3958SOL    HW212771   2.822   1.772   8.923
 3959SOL     OW12772   2.335   0.500   7.639
 3959SOL    HW112773   2.396   0.580   7.643
 3959SOL    HW212774   2.240   0.531   7.646
 3960SOL     OW12775   2.021   1.137   8.914
 3960SOL    HW112776   2.043   1.076   8.990
 3960SOL    HW212777   2.031   1.088   8.828
 3961SOL     OW12778   3.209   1.059   8.682
 3961SOL    HW112779   3.233   0.996   8.608
 3961SOL    HW212780   3.119   1.099   8.664
 3962SOL     OW12781   3.164   0.855   7.757
 3962SOL    HW112782   3.078   0.824   7.799
 3962SOL    HW212783   3.160   0.841   7.658
 3963SOL     OW12784   3.621   1.747   8.602
 3963SOL    HW112785   3.682   1.777   8.529
 3963SOL    HW212786   3.583   1.658   8.580
 3964SOL     OW12787   3.114   1.731   8.576
 3964SOL    HW112788   3.198   1.736   8.522
 3964SOL    HW212789   3.091   1.635   8.594
 3965SOL     OW12790   1.945   1.258   8.470
 3965SOL    HW112791   1.940   1.257   8.570
 3965SOL    HW212792   1.862   1.217   8.432
 3966SOL     OW12793   2.550   1.662   9.164
 3966SOL    HW112794   2.494   1.743   9.173
 3966SOL    HW212795   2.602   1.666   9.078
 3967SOL     OW12796   3.588   0.135   7.971
 3967SOL    HW112797   3.661   0.118   7.904
 3967SOL    HW212798   3.557   0.048   8.009
 3968SOL     OW12799   3.250   1.573   7.925
 3968SOL    HW112800   3.317   1.585   7.851
 3968SOL    HW212801   3.210   1.662   7.948
 3969SOL     OW12802   1.992   1.794   9.299
 3969SOL    HW112803   1.951   1.720   9.352
 3969SOL    HW212804   2.056   1.845   9.357
 3970SOL     OW12805   3.142   0.927   8.120
 3970SOL    HW112806   3.202   0.846   8.122
 3970SOL    HW212807   3.182   0.996   8.060
 3971SOL     OW12808   2.692   1.273   8.870
 3971SOL    HW112809   2.687   1.306   8.965
 3971SOL    HW212810   2.606   1.292   8.824
 3972SOL     OW12811   2.534   1.616   7.602
 3972SOL    HW112812   2.543   1.626   7.503
 3972SOL    HW212813   2.494   1.527   7.623
 3973SOL     OW12814   3.512   1.720   8.842
 3973SOL    HW112815   3.565   1.730   8.758
 3973SOL    HW212816   3.485   1.810   8.876
 3974SOL     OW12817   3.703   0.175   8.411
 3974SOL    HW112818   3.742   0.090   8.375
 3974SOL    HW212819   3.605   0.177   8.392
 3975SOL     OW12820   2.125   0.326   8.168
 3975SOL    HW112821   2.046   0.377   8.134
 3975SOL    HW212822   2.116   0.311   8.266
 3976SOL     OW12823   3.056   1.612   7.479
 3976SOL    HW112824   3.062   1.519   7.516
 3976SOL    HW212825   2.997   1.612   7.399
 3977SOL     OW12826   2.684   1.002   8.820
 3977SOL    HW112827   2.724   1.001   8.728
 3977SOL    HW212828   2.694   1.094   8.860
 3978SOL     OW12829   2.778   0.910   7.739
 3978SOL    HW112830   2.841   0.948   7.671
 3978SOL    HW212831   2.818   0.827   7.778
 3979SOL     OW12832   3.366   1.607   7.492
 3979SOL    HW112833   3.274   1.644   7.499
 3979SOL    HW212834   3.404   1.627   7.402
 3980SOL     OW12835   2.234   1.288   8.938
 3980SOL    HW112836   2.221   1.381   8.904
 3980SOL    HW212837   2.150   1.236   8.925
 3981SOL     OW12838   3.476   1.292   8.737
 3981SOL    HW112839   3.536   1.295   8.817
 3981SOL    HW212840   3.401   1.356   8.750
 3982SOL     OW12841   2.901   1.098   8.144
 3982SOL    HW112842   2.831   1.051   8.198
 3982SOL    HW212843   2.960   1.030   8.101
 3983SOL     OW12844   2.876   0.236   8.419
 3983SOL    HW112845   2.868   0.200   8.326
 3983SOL    HW212846   2.874   0.160   8.484
 3984SOL     OW12847   2.452   1.487   7.939
 3984SOL    HW112848   2.494   1.429   7.869
 3984SOL    HW212849   2.408   1.566   7.895
 3985SOL     OW12850   3.571   0.385   8.829
 3985SOL    HW112851   3.644   0.454   8.833
 3985SOL    HW212852   3.599   0.310   8.770
 3986SOL     OW12853   2.117   1.348   7.738
 3986SOL    HW112854   2.021   1.349   7.711
 3986SOL    HW212855   2.129   1.401   7.822
 3987SOL     OW12856   1.967   1.013   9.174
 3987SOL    HW112857   1.890   0.980   9.228
 3987SOL    HW212858   2.052   0.983   9.216
 3988SOL     OW12859   2.534   0.203   8.937
 3988SOL    HW112860   2.624   0.187   8.897
 3988SOL    HW212861   2.542   0.208   9.036
 3989SOL     OW12862   1.937   0.345   7.481
 3989SOL    HW112863   1.845   0.317   7.452
 3989SOL    HW212864   1.968   0.422   7.425
 3990SOL     OW12865   3.302   0.856   8.846
 3990SOL    HW112866   3.245   0.908   8.783
 3990SOL    HW212867   3.398   0.868   8.822
 3991SOL     OW12868   1.934   0.166   7.766
 3991SOL    HW112869   1.917   0.249   7.712
 3991SOL    HW212870   2.024   0.129   7.744
 3992SOL     OW12871   3.045   1.335   7.567
 3992SOL    HW112872   2.946   1.324   7.569
 3992SOL    HW212873   3.079   1.350   7.660
 3993SOL     OW12874   2.475   0.842   8.879
 3993SOL    HW112875   2.531   0.923   8.862
 3993SOL    HW212876   2.534   0.762   8.882
 3994SOL     OW12877   3.355   1.767   8.407
 3994SOL    HW112878   3.388   1.831   8.338
 3994SOL    HW212879   3.421   1.761   8.482
 3995SOL     OW12880   2.578   0.565   9.156
 3995SOL    HW112881   2.597   0.630   9.230
 3995SOL    HW212882   2.638   0.485   9.165
 3996SOL     OW12883   3.312   1.220   9.081
 3996SOL    HW112884   3.303   1.210   9.180
 3996SOL    HW212885   3.408   1.213   9.055
 3997SOL     OW12886   2.252   1.741   9.008
 3997SOL    HW112887   2.161   1.782   9.006
 3997SOL    HW212888   2.245   1.647   9.040
 3998SOL     OW12889   3.536   0.883   8.702
 3998SOL    HW112890   3.509   0.794   8.665
 3998SOL    HW212891   3.537   0.951   8.629
 3999SOL     OW12892   3.087   0.325   7.897
 3999SOL    HW112893   3.152   0.251   7.886
 3999SOL    HW212894   3.107   0.375   7.981
 4000SOL     OW12895   2.456   0.745   8.100
 4000SOL    HW112896   2.506   0.830   8.081
 4000SOL    HW212897   2.368   0.747   8.052
 4001SOL     OW12898   3.639   0.342   9.090
 4001SOL    HW112899   3.622   0.373   8.996
 4001SOL    HW212900   3.555   0.305   9.128
 4002SOL     OW12901   3.592   0.934   8.965
 4002SOL    HW112902   3.630   1.025   8.980
 4002SOL    HW212903   3.584   0.917   8.866
 4003SOL     OW12904   2.721   1.374   7.464
 4003SOL    HW112905   2.675   1.389   7.552
 4003SOL    HW212906   2.765   1.459   7.434
 4004SOL     OW12907   2.523   1.790   8.401
 4004SOL    HW112908   2.477   1.878   8.388
 4004SOL    HW212909   2.622   1.802   8.394
 4005SOL     OW12910   2.721   0.956   8.309
 4005SOL    HW112911   2.775   0.887   8.357
 4005SOL    HW212912   2.689   1.025   8.375
 4006SOL     OW12913   2.945   0.984   7.535
 4006SOL    HW112914   2.922   1.037   7.453
 4006SOL    HW212915   3.026   0.928   7.516
 4007SOL     OW12916   3.723   1.569   8.299
 4007SOL    HW112917   3.652   1.557   8.229
 4007SOL    HW212918   3.724   1.490   8.359
 4008SOL     OW12919   2.083   1.314   9.292
 4008SOL    HW112920   2.018   1.241   9.271
 4008SOL    HW212921   2.087   1.328   9.390
 4009SOL     OW12922   1.941   1.240   8.101
 4009SOL    HW112923   1.940   1.193   8.189
 4009SOL    HW212924   2.023   1.212   8.050
 4010SOL     OW12925   2.534   1.391   9.072
 4010SOL    HW112926   2.456   1.341   9.110
 4010SOL    HW212927   2.531   1.486   9.103
 4011SOL     OW12928   3.686   0.192   8.675
 4011SOL    HW112929   3.682   0.102   8.719
 4011SOL    HW212930   3.689   0.181   8.576
 4012SOL     OW12931   2.290   0.424   7.968
 4012SOL    HW112932   2.320   0.352   7.906
 4012SOL    HW212933   2.251   0.384   8.051
 4013SOL     OW12934   3.567   1.487   8.552
 4013SOL    HW112935   3.474   1.462   8.525
 4013SOL    HW212936   3.593   1.437   8.634
 4014SOL     OW12937   2.179   0.547   8.728
 4014SOL    HW112938   2.217   0.488   8.800
 4014SOL    HW212939   2.219   0.521   8.640
 4015SOL     OW12940   2.674   1.586   8.135
 4015SOL    HW112941   2.706   1.596   8.041
 4015SOL    HW212942   2.595   1.524   8.137
 4016SOL     OW12943   3.286   0.214   8.560
 4016SOL    HW112944   3.338   0.149   8.615
 4016SOL    HW212945   3.237   0.277   8.621
 4017SOL     OW12946   2.863   0.034   8.602
 4017SOL    HW112947   2.800  -0.038   8.571
 4017SOL    HW212948   2.956  -0.002   8.602
 4018SOL     OW12949   2.632   1.330   7.749
 4018SOL    HW112950   2.586   1.243   7.766
 4018SOL    HW212951   2.723   1.327   7.790
 4019SOL     OW12952   2.480   1.567   8.732
 4019SOL    HW112953   2.475   1.649   8.789
 4019SOL    HW212954   2.569   1.564   8.687
 4020SOL     OW12955   3.214   0.052   7.616
 4020SOL    HW112956   3.249   0.011   7.532
 4020SOL    HW212957   3.124   0.014   7.636
 4021SOL     OW12958   3.162   0.453   8.139
 4021SOL    HW112959   3.103   0.533   8.143
 4021SOL    HW212960   3.177   0.418   8.232
 4022SOL     OW12961   3.455   0.221   8.330
 4022SOL    HW112962   3.371   0.220   8.384
 4022SOL    HW212963   3.457   0.304   8.274
 4023SOL     OW12964   1.901   1.077   7.748
 4023SOL    HW112965   2.000   1.066   7.739
 4023SOL    HW212966   1.861   0.991   7.780
 4024SOL     OW12967   2.737   1.646   7.785
 4024SOL    HW112968   2.660   1.611   7.731
 4024SOL    HW212969   2.705   1.717   7.847
 4025SOL     OW12970   2.092   0.628   9.423
 4025SOL    HW112971   1.999   0.626   9.460
 4025SOL    HW212972   2.093   0.589   9.331
 4026SOL     OW12973   2.087   0.275  10.306
 4026SOL    HW112974   2.122   0.258  10.398
 4026SOL    HW212975   1.999   0.230  10.294
 4027SOL     OW12976   1.881   0.368   9.957
 4027SOL    HW112977   1.799   0.411   9.996
 4027SOL    HW212978   1.853   0.295   9.894
 4028SOL     OW12979   2.431   1.275  10.475
 4028SOL    HW112980   2.338   1.268  10.438
 4028SOL    HW212981   2.442   1.364  10.519
 4029SOL     OW12982   3.417   1.511  10.013
 4029SOL    HW112983   3.360   1.495  10.094
 4029SOL    HW212984   3.358   1.521   9.933
 4030SOL     OW12985   2.997   0.703  10.027
 4030SOL    HW112986   3.054   0.781  10.002
 4030SOL    HW212987   2.937   0.729  10.103
 4031SOL     OW12988   3.617   0.607   9.541
 4031SOL    HW112989   3.605   0.594   9.442
 4031SOL    HW212990   3.587   0.526   9.590
 4032SOL     OW12991   2.630   1.144  10.333
 4032SOL    HW112992   2.552   1.161  10.393
 4032SOL    HW212993   2.664   1.231  10.297
 4033SOL     OW12994   2.712   0.798  11.133
 4033SOL    HW112995   2.708   0.874  11.198
 4033SOL    HW212996   2.734   0.834  11.042
 4034SOL     OW12997   2.547   1.012   9.975
 4034SOL    HW112998   2.616   0.996  10.045
 4034SOL    HW212999   2.474   1.069  10.013
 4035SOL     OW13000   2.197   1.435  10.371
 4035SOL    HW113001   2.119   1.404  10.318
 4035SOL    HW213002   2.255   1.493  10.314
 4036SOL     OW13003   3.322   1.505  10.649
 4036SOL    HW113004   3.346   1.599  10.675
 4036SOL    HW213005   3.306   1.451  10.731
 4037SOL     OW13006   2.300   0.392  10.809
 4037SOL    HW113007   2.382   0.336  10.818
 4037SOL    HW213008   2.219   0.334  10.813
 4038SOL     OW13009   3.465   0.447  10.047
 4038SOL    HW113010   3.391   0.493   9.997
 4038SOL    HW213011   3.516   0.515  10.100
 4039SOL     OW13012   2.093   1.713   9.793
 4039SOL    HW113013   2.127   1.790   9.847
 4039SOL    HW213014   2.137   1.713   9.703
 4040SOL     OW13015   2.092   1.434   9.848
 4040SOL    HW113016   2.066   1.530   9.848
 4040SOL    HW213017   2.021   1.380   9.893
 4041SOL     OW13018   2.102   1.091  10.196
 4041SOL    HW113019   2.116   1.007  10.248
 4041SOL    HW213020   2.047   1.155  10.251
 4042SOL     OW13021   2.482   1.786  10.749
 4042SOL    HW113022   2.390   1.769  10.784
 4042SOL    HW213023   2.510   1.878  10.775
 4043SOL     OW13024   2.468   0.964   9.433
 4043SOL    HW113025   2.475   1.048   9.379
 4043SOL    HW213026   2.514   0.977   9.521
 4044SOL     OW13027   3.456   0.114  10.790
 4044SOL    HW113028   3.438   0.181  10.718
 4044SOL    HW213029   3.453   0.160  10.879
 4045SOL     OW13030   1.984   0.643   9.873
 4045SOL    HW113031   1.939   0.555   9.890
 4045SOL    HW213032   1.983   0.697   9.957
 4046SOL     OW13033   3.704   1.767   9.669
 4046SOL    HW113034   3.758   1.738   9.749
 4046SOL    HW213035   3.734   1.857   9.640
 4047SOL     OW13036   1.889   1.596   9.427
 4047SOL    HW113037   1.870   1.500   9.448
 4047SOL    HW213038   1.856   1.654   9.502
 4048SOL     OW13039   3.551   0.922   9.922
 4048SOL    HW113040   3.646   0.893   9.930
 4048SOL    HW213041   3.543   0.987   9.847
 4049SOL     OW13042   3.503   1.108   9.742
 4049SOL    HW113043   3.589   1.110   9.690
 4049SOL    HW213044   3.517   1.155   9.830
 4050SOL     OW13045   1.975   0.737  10.907
 4050SOL    HW113046   2.063   0.724  10.952
 4050SOL    HW213047   1.962   0.834  10.885
 4051SOL     OW13048   2.475   1.365  10.036
 4051SOL    HW113049   2.426   1.278  10.045
 4051SOL    HW213050   2.452   1.408   9.949
 4052SOL     OW13051   3.155   1.228  10.733
 4052SOL    HW113052   3.192   1.155  10.675
 4052SOL    HW213053   3.207   1.233  10.818
 4053SOL     OW13054   2.671   0.004   9.812
 4053SOL    HW113055   2.711   0.095   9.803
 4053SOL    HW213056   2.571   0.012   9.818
 4054SOL     OW13057   2.059   0.976  10.574
 4054SOL    HW113058   2.148   0.931  10.560
 4054SOL    HW213059   1.986   0.911  10.555
 4055SOL     OW13060   3.387   0.999   9.500
 4055SOL    HW113061   3.324   0.923   9.513
 4055SOL    HW213062   3.435   1.017   9.586
 4056SOL     OW13063   3.049   1.792  10.926
 4056SOL    HW113064   3.073   1.852  10.850
 4056SOL    HW213065   3.056   1.697  10.896
 4057SOL     OW13066   2.179   0.251  11.111
 4057SOL    HW113067   2.250   0.322  11.117
 4057SOL    HW213068   2.091   0.290  11.139
 4058SOL     OW13069   3.328   1.417  10.263
 4058SOL    HW113070   3.269   1.423  10.343
 4058SOL    HW213071   3.313   1.329  10.217
 4059SOL     OW13072   3.529   1.714   9.882
 4059SOL    HW113073   3.488   1.691   9.794
 4059SOL    HW213074   3.511   1.640   9.947
 4060SOL     OW13075   2.460   0.729   9.580
 4060SOL    HW113076   2.484   0.798   9.512
 4060SOL    HW213077   2.382   0.762   9.634
 4061SOL     OW13078   3.143   0.345  10.254
 4061SOL    HW113079   3.057   0.295  10.241
 4061SOL    HW213080   3.205   0.291  10.310
 4062SOL     OW13081   3.438   1.662   9.617
 4062SOL    HW113082   3.527   1.708   9.620
 4062SOL    HW213083   3.417   1.638   9.522
 4063SOL     OW13084   2.669   0.605  10.775
 4063SOL    HW113085   2.622   0.602  10.864
 4063SOL    HW213086   2.618   0.550  10.709
 4064SOL     OW13087   2.835   0.890  10.882
 4064SOL    HW113088   2.881   0.806  10.853
 4064SOL    HW213089   2.779   0.924  10.807
 4065SOL     OW13090   2.853   0.410  10.552
 4065SOL    HW113091   2.776   0.444  10.606
 4065SOL    HW213092   2.819   0.359  10.473
 4066SOL     OW13093   2.903   0.701   9.739
 4066SOL    HW113094   2.929   0.697   9.835
 4066SOL    HW213095   2.818   0.650   9.725
 4067SOL     OW13096   1.938   0.811  10.099
 4067SOL    HW113097   2.037   0.799  10.108
 4067SOL    HW213098   1.914   0.906  10.120
 4068SOL     OW13099   1.992   1.821  10.881
 4068SOL    HW113100   1.982   1.806  10.980
 4068SOL    HW213101   1.906   1.857  10.845
 4069SOL     OW13102   2.727   0.348   9.505
 4069SOL    HW113103   2.786   0.411   9.456
 4069SOL    HW213104   2.746   0.254   9.476
 4070SOL     OW13105   3.224   1.144   9.855
 4070SOL    HW113106   3.307   1.115   9.807
 4070SOL    HW213107   3.175   1.211   9.799
 4071SOL     OW13108   2.412   0.196  10.195
 4071SOL    HW113109   2.407   0.191  10.295
 4071SOL    HW213110   2.414   0.292  10.166
 4072SOL     OW13111   2.870   1.456   9.787
 4072SOL    HW113112   2.824   1.528   9.735
 4072SOL    HW213113   2.866   1.476   9.885
 4073SOL     OW13114   2.213   1.801  10.163
 4073SOL    HW113115   2.263   1.715  10.169
 4073SOL    HW213116   2.278   1.878  10.160
 4074SOL     OW13117   3.657   1.066  10.183
 4074SOL    HW113118   3.595   1.051  10.107
 4074SOL    HW213119   3.605   1.077  10.268
 4075SOL     OW13120   3.089   1.550  10.816
 4075SOL    HW113121   3.095   1.473  10.880
 4075SOL    HW213122   3.037   1.524  10.736
 4076SOL     OW13123   2.183   0.943   9.552
 4076SOL    HW113124   2.265   0.982   9.510
 4076SOL    HW213125   2.156   0.861   9.503
 4077SOL     OW13126   3.320   0.735  10.038
 4077SOL    HW113127   3.315   0.670  10.113
 4077SOL    HW213128   3.400   0.794  10.051
 4078SOL     OW13129   2.323   1.266  11.037
 4078SOL    HW113130   2.273   1.267  10.951
 4078SOL    HW213131   2.260   1.248  11.113
 4079SOL     OW13132   2.973   1.776   9.547
 4079SOL    HW113133   2.913   1.714   9.597
 4079SOL    HW213134   3.004   1.732   9.462
 4080SOL     OW13135   2.064   0.285  10.808
 4080SOL    HW113136   1.984   0.345  10.795
 4080SOL    HW213137   2.054   0.236  10.894
 4081SOL     OW13138   3.494   1.377   9.391
 4081SOL    HW113139   3.462   1.471   9.381
 4081SOL    HW213140   3.418   1.314   9.379
 4082SOL     OW13141   2.326   1.743   9.633
 4082SOL    HW113142   2.359   1.782   9.719
 4082SOL    HW213143   2.402   1.736   9.568
 4083SOL     OW13144   3.262   0.107   9.736
 4083SOL    HW113145   3.238   0.070   9.646
 4083SOL    HW213146   3.361   0.123   9.740
 4084SOL     OW13147   2.111   1.785  10.551
 4084SOL    HW113148   2.168   1.720  10.601
 4084SOL    HW213149   2.095   1.752  10.458
 4085SOL     OW13150   2.802   1.698  10.214
 4085SOL    HW113151   2.882   1.641  10.235
 4085SOL    HW213152   2.753   1.658  10.137
 4086SOL     OW13153   2.244   0.700   9.790
 4086SOL    HW113154   2.289   0.610   9.787
 4086SOL    HW213155   2.150   0.689   9.823
 4087SOL     OW13156   2.476   0.122   9.427
 4087SOL    HW113157   2.574   0.100   9.434
 4087SOL    HW213158   2.445   0.105   9.334
 4088SOL     OW13159   2.643   0.264  11.059
 4088SOL    HW113160   2.710   0.203  11.102
 4088SOL    HW213161   2.570   0.283  11.124
 4089SOL     OW13162   2.750   1.514  10.505
 4089SOL    HW113163   2.727   1.489  10.411
 4089SOL    HW213164   2.811   1.445  10.544
 4090SOL     OW13165   3.213   0.590  10.743
 4090SOL    HW113166   3.241   0.547  10.828
 4090SOL    HW213167   3.238   0.686  10.744
 4091SOL     OW13168   2.665   1.402  10.234
 4091SOL    HW113169   2.755   1.416  10.192
 4091SOL    HW213170   2.594   1.404  10.163
 4092SOL     OW13171   2.784   0.503  10.209
 4092SOL    HW113172   2.759   0.494  10.113
 4092SOL    HW213173   2.832   0.421  10.240
 4093SOL     OW13174   2.401   0.064   9.822
 4093SOL    HW113175   2.320   0.065   9.880
 4093SOL    HW213176   2.404   0.147   9.767
 4094SOL     OW13177   3.296   1.188   9.351
 4094SOL    HW113178   3.328   1.112   9.408
 4094SOL    HW213179   3.204   1.215   9.381
 4095SOL     OW13180   2.159   0.035   9.481
 4095SOL    HW113181   2.208   0.119   9.460
 4095SOL    HW213182   2.221  -0.030   9.526
 4096SOL     OW13183   2.797   0.236   9.790
 4096SOL    HW113184   2.749   0.277   9.712
 4096SOL    HW213185   2.896   0.234   9.771
 4097SOL     OW13186   2.938   0.683  10.774
 4097SOL    HW113187   2.858   0.622  10.777
 4097SOL    HW213188   3.019   0.630  10.750
 4098SOL     OW13189   3.089   1.570  10.103
 4098SOL    HW113190   3.110   1.644  10.038
 4098SOL    HW213191   3.157   1.570  10.176
 4099SOL     OW13192   2.321   1.152  10.051
 4099SOL    HW113193   2.250   1.125  10.116
 4099SOL    HW213194   2.295   1.124   9.958
 4100SOL     OW13195   3.133   1.797   9.901
 4100SOL    HW113196   3.177   1.861   9.837
 4100SOL    HW213197   3.083   1.849   9.971
 4101SOL     OW13198   2.894   0.549   9.326
 4101SOL    HW113199   2.853   0.631   9.287
 4101SOL    HW213200   2.958   0.575   9.399
 4102SOL     OW13201   1.940   0.556  10.696
 4102SOL    HW113202   2.032   0.555  10.655
 4102SOL    HW213203   1.934   0.630  10.763
 4103SOL     OW13204   2.423   0.222  10.457
 4103SOL    HW113205   2.461   0.138  10.494
 4103SOL    HW213206   2.335   0.241  10.501
 4104SOL     OW13207   2.728   0.454   9.952
 4104SOL    HW113208   2.696   0.526   9.890
 4104SOL    HW213209   2.752   0.373   9.899
 4105SOL     OW13210   2.879   0.039  10.063
 4105SOL    HW113211   2.807   0.044   9.994
 4105SOL    HW213212   2.855  -0.030  10.132
 4106SOL     OW13213   3.291   1.173  10.177
 4106SOL    HW113214   3.236   1.089  10.170
 4106SOL    HW213215   3.317   1.202  10.085
 4107SOL     OW13216   3.328   0.590  10.302
 4107SOL    HW113217   3.298   0.495  10.309
 4107SOL    HW213218   3.401   0.606  10.368
 4108SOL     OW13219   3.719   0.833   9.687
 4108SOL    HW113220   3.761   0.769   9.751
 4108SOL    HW213221   3.681   0.782   9.609
 4109SOL     OW13222   2.350   1.385   9.484
 4109SOL    HW113223   2.263   1.370   9.531
 4109SOL    HW213224   2.333   1.411   9.389
 4110SOL     OW13225   3.526   1.280   9.967
 4110SOL    HW113226   3.625   1.288   9.981
 4110SOL    HW213227   3.481   1.364   9.998
 4111SOL     OW13228   3.252   0.575   9.388
 4111SOL    HW113229   3.198   0.554   9.469
 4111SOL    HW213230   3.343   0.534   9.397
 4112SOL     OW13231   2.389   0.256   9.638
 4112SOL    HW113232   2.416   0.197   9.563
 4112SOL    HW213233   2.389   0.351   9.607
 4113SOL     OW13234   3.616   1.223  10.898
 4113SOL    HW113235   3.707   1.184  10.885
 4113SOL    HW213236   3.624   1.319  10.922
 4114SOL     OW13237   2.926   1.347  10.650
 4114SOL    HW113238   2.846   1.324  10.705
 4114SOL    HW213239   3.009   1.321  10.699
 4115SOL     OW13240   2.973   1.195  10.410
 4115SOL    HW113241   2.933   1.239  10.491
 4115SOL    HW213242   2.932   1.232  10.327
 4116SOL     OW13243   3.500   1.099  10.389
 4116SOL    HW113244   3.505   1.180  10.448
 4116SOL    HW213245   3.414   1.101  10.338
 4117SOL     OW13246   2.777   0.089  10.712
 4117SOL    HW113247   2.802   0.069  10.617
 4117SOL    HW213248   2.849   0.145  10.754
 4118SOL     OW13249   2.567   1.050   9.678
 4118SOL    HW113250   2.553   1.057   9.777
 4118SOL    HW213251   2.651   0.999   9.660
 4119SOL     OW13252   2.272   0.813  10.561
 4119SOL    HW113253   2.358   0.825  10.611
 4119SOL    HW213254   2.230   0.726  10.588
 4120SOL     OW13255   3.136   0.386  10.572
 4120SOL    HW113256   3.157   0.460  10.636
 4120SOL    HW213257   3.047   0.403  10.529
 4121SOL     OW13258   1.926   1.564  10.641
 4121SOL    HW113259   1.880   1.646  10.607
 4121SOL    HW213260   2.024   1.583  10.650
 4122SOL     OW13261   2.229   1.100   9.811
 4122SOL    HW113262   2.222   1.183   9.755
 4122SOL    HW213263   2.233   1.020   9.751
 4123SOL     OW13264   2.428   0.537  10.175
 4123SOL    HW113265   2.440   0.603  10.101
 4123SOL    HW213266   2.474   0.571  10.258
 4124SOL     OW13267   3.114   1.348   9.698
 4124SOL    HW113268   3.164   1.425   9.738
 4124SOL    HW213269   3.019   1.350   9.730
 4125SOL     OW13270   3.134   1.445  10.452
 4125SOL    HW113271   3.181   1.458  10.539
 4125SOL    HW213272   3.068   1.371  10.461
 4126SOL     OW13273   3.444   0.639   9.782
 4126SOL    HW113274   3.413   0.700   9.855
 4126SOL    HW213275   3.494   0.691   9.713
 4127SOL     OW13276   2.216   1.510  10.639
 4127SOL    HW113277   2.195   1.466  10.552
 4127SOL    HW213278   2.313   1.536  10.642
 4128SOL     OW13279   2.264   0.751  10.908
 4128SOL    HW113280   2.332   0.806  10.861
 4128SOL    HW213281   2.304   0.663  10.935
 4129SOL     OW13282   3.449   0.779  10.980
 4129SOL    HW113283   3.357   0.817  10.975
 4129SOL    HW213284   3.509   0.826  10.915
 4130SOL     OW13285   2.435   0.870  10.339
 4130SOL    HW113286   2.479   0.959  10.330
 4130SOL    HW213287   2.372   0.870  10.416
 4131SOL     OW13288   3.222   0.862  10.355
 4131SOL    HW113289   3.147   0.862  10.289
 4131SOL    HW213290   3.259   0.770  10.364
 4132SOL     OW13291   3.071   0.525   9.585
 4132SOL    HW113292   3.084   0.441   9.639
 4132SOL    HW213293   3.042   0.599   9.645
 4133SOL     OW13294   2.169   0.213  10.541
 4133SOL    HW113295   2.146   0.250  10.631
 4133SOL    HW213296   2.139   0.118  10.535
 4134SOL     OW13297   1.899   1.310  10.592
 4134SOL    HW113298   1.952   1.261  10.660
 4134SOL    HW213299   1.921   1.408  10.597
 4135SOL     OW13300   2.594   0.634  10.374
 4135SOL    HW113301   2.653   0.608  10.298
 4135SOL    HW213302   2.566   0.730  10.363
 4136SOL     OW13303   2.169   0.063   9.928
 4136SOL    HW113304   2.158   0.157   9.961
 4136SOL    HW213305   2.164   0.000  10.005
 4137SOL     OW13306   3.484   0.367   9.684
 4137SOL    HW113307   3.486   0.291   9.748
 4137SOL    HW213308   3.436   0.444   9.724
 4138SOL     OW13309   2.885   0.766  10.276
 4138SOL    HW113310   2.900   0.787  10.372
 4138SOL    HW213311   2.855   0.671  10.267
 4139SOL     OW13312   2.842   1.573  11.010
 4139SOL    HW113313   2.822   1.617  10.922
 4139SOL    HW213314   2.881   1.482  10.994
 4140SOL     OW13315   3.721   1.518  10.915
 4140SOL    HW113316   3.735   1.545  10.820
 4140SOL    HW213317   3.804   1.540  10.968
 4141SOL     OW13318   2.212   0.898  11.114
 4141SOL    HW113319   2.288   0.942  11.162
 4141SOL    HW213320   2.247   0.851  11.032
 4142SOL     OW13321   3.402   0.274   9.435
 4142SOL    HW113322   3.341   0.199   9.458
 4142SOL    HW213323   3.424   0.326   9.518
 4143SOL     OW13324   3.165   0.838   9.352
 4143SOL    HW113325   3.199   0.745   9.367
 4143SOL    HW213326   3.183   0.865   9.257
 4144SOL     OW13327   2.930   1.333  10.159
 4144SOL    HW113328   2.937   1.249  10.104
 4144SOL    HW213329   2.992   1.402  10.123
 4145SOL     OW13330   2.181   0.810  10.259
 4145SOL    HW113331   2.274   0.846  10.264
 4145SOL    HW213332   2.175   0.725  10.311
 4146SOL     OW13333   2.201   0.509  10.316
 4146SOL    HW113334   2.149   0.426  10.299
 4146SOL    HW213335   2.278   0.514  10.252
 4147SOL     OW13336   3.022   0.207  10.787
 4147SOL    HW113337   3.022   0.271  10.864
 4147SOL    HW213338   3.050   0.255  10.704
 4148SOL     OW13339   1.870   1.326   9.510
 4148SOL    HW113340   1.777   1.347   9.479
 4148SOL    HW213341   1.880   1.227   9.523
 4149SOL     OW13342   1.950   1.801  10.237
 4149SOL    HW113343   1.908   1.715  10.210
 4149SOL    HW213344   2.044   1.804  10.203
 4150SOL     OW13345   2.366   1.568  10.220
 4150SOL    HW113346   2.432   1.642  10.229
 4150SOL    HW213347   2.410   1.489  10.178
 4151SOL     OW13348   2.864   0.796  10.548
 4151SOL    HW113349   2.905   0.764  10.634
 4151SOL    HW213350   2.768   0.769  10.545
 4152SOL     OW13351   1.902   0.544  10.424
 4152SOL    HW113352   1.987   0.511  10.383
 4152SOL    HW213353   1.915   0.559  10.522
 4153SOL     OW13354   2.677   0.572   9.635
 4153SOL    HW113355   2.684   0.483   9.589
 4153SOL    HW213356   2.583   0.606   9.627
 4154SOL     OW13357   3.519   0.604  10.516
 4154SOL    HW113358   3.481   0.535  10.578
 4154SOL    HW213359   3.601   0.568  10.472
 4155SOL     OW13360   2.114   1.564  11.054
 4155SOL    HW113361   2.084   1.621  11.130
 4155SOL    HW213362   2.107   1.467  11.080
 4156SOL     OW13363   2.533   0.464  10.579
 4156SOL    HW113364   2.499   0.375  10.549
 4156SOL    HW213365   2.559   0.518  10.499
 4157SOL     OW13366   2.792   1.678  10.775
 4157SOL    HW113367   2.768   1.660  10.680
 4157SOL    HW213368   2.822   1.772  10.785
 4158SOL     OW13369   2.335   0.500   9.501
 4158SOL    HW113370   2.396   0.580   9.505
 4158SOL    HW213371   2.240   0.531   9.508
 4159SOL     OW13372   2.021   1.137  10.776
 4159SOL    HW113373   2.043   1.076  10.852
 4159SOL    HW213374   2.031   1.088  10.690
 4160SOL     OW13375   3.209   1.059  10.544
 4160SOL    HW113376   3.233   0.996  10.470
 4160SOL    HW213377   3.119   1.099  10.526
 4161SOL     OW13378   3.164   0.855   9.619
 4161SOL    HW113379   3.078   0.824   9.661
 4161SOL    HW213380   3.160   0.841   9.520
 4162SOL     OW13381   3.621   1.747  10.464
 4162SOL    HW113382   3.682   1.777  10.391
 4162SOL    HW213383   3.583   1.658  10.442
 4163SOL     OW13384   3.114   1.731  10.438
 4163SOL    HW113385   3.198   1.736  10.384
 4163SOL    HW213386   3.091   1.635  10.456
 4164SOL     OW13387   1.945   1.258  10.332
 4164SOL    HW113388   1.940   1.257  10.432
 4164SOL    HW213389   1.862   1.217  10.294
 4165SOL     OW13390   3.588   0.135   9.833
 4165SOL    HW113391   3.661   0.118   9.766
 4165SOL    HW213392   3.557   0.048   9.871
 4166SOL     OW13393   3.250   1.573   9.787
 4166SOL    HW113394   3.317   1.585   9.713
 4166SOL    HW213395   3.210   1.662   9.810
 4167SOL     OW13396   3.142   0.927   9.982
 4167SOL    HW113397   3.202   0.846   9.984
 4167SOL    HW213398   3.182   0.996   9.922
 4168SOL     OW13399   2.692   1.273  10.732
 4168SOL    HW113400   2.687   1.306  10.827
 4168SOL    HW213401   2.606   1.292  10.686
 4169SOL     OW13402   2.534   1.616   9.464
 4169SOL    HW113403   2.543   1.626   9.365
 4169SOL    HW213404   2.494   1.527   9.485
 4170SOL     OW13405   3.512   1.720  10.704
 4170SOL    HW113406   3.565   1.730  10.620
 4170SOL    HW213407   3.485   1.810  10.738
 4171SOL     OW13408   3.703   0.175  10.273
 4171SOL    HW113409   3.742   0.090  10.237
 4171SOL    HW213410   3.605   0.177  10.254
 4172SOL     OW13411   2.125   0.326  10.030
 4172SOL    HW113412   2.046   0.377   9.996
 4172SOL    HW213413   2.116   0.311  10.128
 4173SOL     OW13414   3.056   1.612   9.341
 4173SOL    HW113415   3.062   1.519   9.378
 4173SOL    HW213416   2.997   1.612   9.261
 4174SOL     OW13417   2.684   1.002  10.682
 4174SOL    HW113418   2.724   1.001  10.590
 4174SOL    HW213419   2.694   1.094  10.722
 4175SOL     OW13420   2.778   0.910   9.601
 4175SOL    HW113421   2.841   0.948   9.533
 4175SOL    HW213422   2.818   0.827   9.640
 4176SOL     OW13423   3.366   1.607   9.354
 4176SOL    HW113424   3.274   1.644   9.361
 4176SOL    HW213425   3.404   1.627   9.264
 4177SOL     OW13426   2.234   1.288  10.800
 4177SOL    HW113427   2.221   1.381  10.766
 4177SOL    HW213428   2.150   1.236  10.787
 4178SOL     OW13429   3.476   1.292  10.599
 4178SOL    HW113430   3.536   1.295  10.679
 4178SOL    HW213431   3.401   1.356  10.612
 4179SOL     OW13432   2.901   1.098  10.006
 4179SOL    HW113433   2.831   1.051  10.060
 4179SOL    HW213434   2.960   1.030   9.963
 4180SOL     OW13435   2.876   0.236  10.281
 4180SOL    HW113436   2.868   0.200  10.188
 4180SOL    HW213437   2.874   0.160  10.346
 4181SOL     OW13438   2.452   1.487   9.801
 4181SOL    HW113439   2.494   1.429   9.731
 4181SOL    HW213440   2.408   1.566   9.757
 4182SOL     OW13441   3.571   0.385  10.691
 4182SOL    HW113442   3.644   0.454  10.695
 4182SOL    HW213443   3.599   0.310  10.632
 4183SOL     OW13444   2.117   1.348   9.600
 4183SOL    HW113445   2.021   1.349   9.573
 4183SOL    HW213446   2.129   1.401   9.684
 4184SOL     OW13447   1.967   1.013  11.036
 4184SOL    HW113448   1.890   0.980  11.090
 4184SOL    HW213449   2.052   0.983  11.078
 4185SOL     OW13450   2.534   0.203  10.799
 4185SOL    HW113451   2.624   0.187  10.759
 4185SOL    HW213452   2.542   0.208  10.898
 4186SOL     OW13453   1.937   0.345   9.343
 4186SOL    HW113454   1.845   0.317   9.314
 4186SOL    HW213455   1.968   0.422   9.287
 4187SOL     OW13456   3.302   0.856  10.708
 4187SOL    HW113457   3.245   0.908  10.645
 4187SOL    HW213458   3.398   0.868  10.684
 4188SOL     OW13459   1.934   0.166   9.628
 4188SOL    HW113460   1.917   0.249   9.574
 4188SOL    HW213461   2.024   0.129   9.606
 4189SOL     OW13462   3.045   1.335   9.429
 4189SOL    HW113463   2.946   1.324   9.431
 4189SOL    HW213464   3.079   1.350   9.522
 4190SOL     OW13465   2.475   0.842  10.741
 4190SOL    HW113466   2.531   0.923  10.724
 4190SOL    HW213467   2.534   0.762  10.744
 4191SOL     OW13468   3.355   1.767  10.269
 4191SOL    HW113469   3.388   1.831  10.200
 4191SOL    HW213470   3.421   1.761  10.344
 4192SOL     OW13471   2.578   0.565  11.018
 4192SOL    HW113472   2.597   0.630  11.092
 4192SOL    HW213473   2.638   0.485  11.027
 4193SOL     OW13474   2.252   1.741  10.870
 4193SOL    HW113475   2.161   1.782  10.868
 4193SOL    HW213476   2.245   1.647  10.902
 4194SOL     OW13477   3.536   0.883  10.564
 4194SOL    HW113478   3.509   0.794  10.527
 4194SOL    HW213479   3.537   0.951  10.491
 4195SOL     OW13480   3.087   0.325   9.759
 4195SOL    HW113481   3.152   0.251   9.748
 4195SOL    HW213482   3.107   0.375   9.843
 4196SOL     OW13483   2.456   0.745   9.962
 4196SOL    HW113484   2.506   0.830   9.943
 4196SOL    HW213485   2.368   0.747   9.914
 4197SOL     OW13486   3.639   0.342  10.952
 4197SOL    HW113487   3.622   0.373  10.858
 4197SOL    HW213488   3.555   0.305  10.990
 4198SOL     OW13489   3.592   0.934  10.827
 4198SOL    HW113490   3.630   1.025  10.842
 4198SOL    HW213491   3.584   0.917  10.728
 4199SOL     OW13492   2.721   1.374   9.326
 4199SOL    HW113493   2.675   1.389   9.414
 4199SOL    HW213494   2.765   1.459   9.296
 4200SOL     OW13495   2.523   1.790  10.263
 4200SOL    HW113496   2.477   1.878  10.250
 4200SOL    HW213497   2.622   1.802  10.256
 4201SOL     OW13498   2.721   0.956  10.171
 4201SOL    HW113499   2.775   0.887  10.219
 4201SOL    HW213500   2.689   1.025  10.237
 4202SOL     OW13501   2.945   0.984   9.397
 4202SOL    HW113502   2.922   1.037   9.315
 4202SOL    HW213503   3.026   0.928   9.378
 4203SOL     OW13504   3.723   1.569  10.161
 4203SOL    HW113505   3.652   1.557  10.091
 4203SOL    HW213506   3.724   1.490  10.221
 4204SOL     OW13507   1.941   1.240   9.963
 4204SOL    HW113508   1.940   1.193  10.051
 4204SOL    HW213509   2.023   1.212   9.912
 4205SOL     OW13510   2.534   1.391  10.934
 4205SOL    HW113511   2.456   1.341  10.972
 4205SOL    HW213512   2.531   1.486  10.965
 4206SOL     OW13513   3.686   0.192  10.537
 4206SOL    HW113514   3.682   0.102  10.581
 4206SOL    HW213515   3.689   0.181  10.438
 4207SOL     OW13516   2.290   0.424   9.830
 4207SOL    HW113517   2.320   0.352   9.768
 4207SOL    HW213518   2.251   0.384   9.913
 4208SOL     OW13519   3.567   1.487  10.414
 4208SOL    HW113520   3.474   1.462  10.387
 4208SOL    HW213521   3.593   1.437  10.496
 4209SOL     OW13522   2.179   0.547  10.590
 4209SOL    HW113523   2.217   0.488  10.662
 4209SOL    HW213524   2.219   0.521  10.502
 4210SOL     OW13525   2.674   1.586   9.997
 4210SOL    HW113526   2.706   1.596   9.903
 4210SOL    HW213527   2.595   1.524   9.999
 4211SOL     OW13528   3.286   0.214  10.422
 4211SOL    HW113529   3.338   0.149  10.477
 4211SOL    HW213530   3.237   0.277  10.483
 4212SOL     OW13531   2.863   0.034  10.464
 4212SOL    HW113532   2.800  -0.038  10.433
 4212SOL    HW213533   2.956  -0.002  10.464
 4213SOL     OW13534   2.632   1.330   9.611
 4213SOL    HW113535   2.586   1.243   9.628
 4213SOL    HW213536   2.723   1.327   9.652
 4214SOL     OW13537   2.480   1.567  10.594
 4214SOL    HW113538   2.475   1.649  10.651
 4214SOL    HW213539   2.569   1.564  10.549
 4215SOL     OW13540   3.214   0.052   9.478
 4215SOL    HW113541   3.249   0.011   9.394
 4215SOL    HW213542   3.124   0.014   9.498
 4216SOL     OW13543   3.162   0.453  10.001
 4216SOL    HW113544   3.103   0.533  10.005
 4216SOL    HW213545   3.177   0.418  10.094
 4217SOL     OW13546   3.455   0.221  10.192
 4217SOL    HW113547   3.371   0.220  10.246
 4217SOL    HW213548   3.457   0.304  10.136
 4218SOL     OW13549   1.901   1.077   9.610
 4218SOL    HW113550   2.000   1.066   9.601
 4218SOL    HW213551   1.861   0.991   9.642
 4219SOL     OW13552   2.737   1.646   9.647
 4219SOL    HW113553   2.660   1.611   9.593
 4219SOL    HW213554   2.705   1.717   9.709
 4220SOL     OW13555   2.092   2.490   0.113
 4220SOL    HW113556   1.999   2.488   0.150
 4220SOL    HW213557   2.093   2.451   0.021
 4221SOL     OW13558   1.881   2.230   0.647
 4221SOL    HW113559   1.799   2.273   0.686
 4221SOL    HW213560   1.853   2.157   0.584
 4222SOL     OW13561   2.431   3.137   1.165
 4222SOL    HW113562   2.338   3.130   1.128
 4222SOL    HW213563   2.442   3.226   1.209
 4223SOL     OW13564   3.417   3.373   0.703
 4223SOL    HW113565   3.360   3.357   0.784
 4223SOL    HW213566   3.358   3.383   0.623
 4224SOL     OW13567   2.997   2.565   0.717
 4224SOL    HW113568   3.054   2.643   0.692
 4224SOL    HW213569   2.937   2.591   0.793
 4225SOL     OW13570   3.617   2.469   0.231
 4225SOL    HW113571   3.605   2.456   0.132
 4225SOL    HW213572   3.587   2.388   0.280
 4226SOL     OW13573   2.630   3.006   1.023
 4226SOL    HW113574   2.552   3.023   1.083
 4226SOL    HW213575   2.664   3.093   0.987
 4227SOL     OW13576   2.712   2.660   1.823
 4227SOL    HW113577   2.708   2.736   1.888
 4227SOL    HW213578   2.734   2.696   1.732
 4228SOL     OW13579   2.547   2.874   0.665
 4228SOL    HW113580   2.616   2.858   0.735
 4228SOL    HW213581   2.474   2.931   0.703
 4229SOL     OW13582   2.548   3.023   1.803
 4229SOL    HW113583   2.608   3.102   1.817
 4229SOL    HW213584   2.462   3.054   1.762
 4230SOL     OW13585   2.197   3.297   1.061
 4230SOL    HW113586   2.119   3.266   1.008
 4230SOL    HW213587   2.255   3.355   1.004
 4231SOL     OW13588   3.322   3.367   1.339
 4231SOL    HW113589   3.346   3.461   1.365
 4231SOL    HW213590   3.306   3.313   1.421
 4232SOL     OW13591   3.465   2.309   0.737
 4232SOL    HW113592   3.391   2.355   0.687
 4232SOL    HW213593   3.516   2.377   0.790
 4233SOL     OW13594   2.093   3.575   0.483
 4233SOL    HW113595   2.127   3.652   0.537
 4233SOL    HW213596   2.137   3.575   0.393
 4234SOL     OW13597   2.989   3.203   1.690
 4234SOL    HW113598   3.036   3.203   1.778
 4234SOL    HW213599   2.941   3.116   1.679
 4235SOL     OW13600   2.092   3.296   0.538
 4235SOL    HW113601   2.066   3.392   0.538
 4235SOL    HW213602   2.021   3.242   0.583
 4236SOL     OW13603   2.102   2.953   0.886
 4236SOL    HW113604   2.116   2.869   0.938
 4236SOL    HW213605   2.047   3.017   0.941
 4237SOL     OW13606   2.482   3.648   1.439
 4237SOL    HW113607   2.390   3.631   1.474
 4237SOL    HW213608   2.510   3.740   1.465
 4238SOL     OW13609   2.468   2.826   0.123
 4238SOL    HW113610   2.475   2.910   0.069
 4238SOL    HW213611   2.514   2.839   0.211
 4239SOL     OW13612   3.456   1.976   1.480
 4239SOL    HW113613   3.438   2.043   1.408
 4239SOL    HW213614   3.453   2.022   1.569
 4240SOL     OW13615   1.984   2.505   0.563
 4240SOL    HW113616   1.939   2.417   0.580
 4240SOL    HW213617   1.983   2.559   0.647
 4241SOL     OW13618   3.704   3.629   0.359
 4241SOL    HW113619   3.758   3.600   0.439
 4241SOL    HW213620   3.734   3.719   0.330
 4242SOL     OW13621   1.889   3.458   0.117
 4242SOL    HW113622   1.870   3.362   0.138
 4242SOL    HW213623   1.856   3.516   0.192
 4243SOL     OW13624   3.551   2.784   0.612
 4243SOL    HW113625   3.646   2.755   0.620
 4243SOL    HW213626   3.543   2.849   0.537
 4244SOL     OW13627   3.503   2.970   0.432
 4244SOL    HW113628   3.589   2.972   0.380
 4244SOL    HW213629   3.517   3.017   0.520
 4245SOL     OW13630   1.975   2.599   1.597
 4245SOL    HW113631   2.063   2.586   1.642
 4245SOL    HW213632   1.962   2.696   1.575
 4246SOL     OW13633   2.475   3.227   0.726
 4246SOL    HW113634   2.426   3.140   0.735
 4246SOL    HW213635   2.452   3.270   0.639
 4247SOL     OW13636   3.155   3.090   1.423
 4247SOL    HW113637   3.192   3.017   1.365
 4247SOL    HW213638   3.207   3.095   1.508
 4248SOL     OW13639   2.671   1.866   0.502
 4248SOL    HW113640   2.711   1.957   0.493
 4248SOL    HW213641   2.571   1.874   0.508
 4249SOL     OW13642   2.059   2.838   1.264
 4249SOL    HW113643   2.148   2.793   1.250
 4249SOL    HW213644   1.986   2.773   1.245
 4250SOL     OW13645   3.387   2.861   0.190
 4250SOL    HW113646   3.324   2.785   0.203
 4250SOL    HW213647   3.435   2.879   0.276
 4251SOL     OW13648   3.049   3.654   1.616
 4251SOL    HW113649   3.073   3.714   1.540
 4251SOL    HW213650   3.056   3.559   1.586
 4252SOL     OW13651   3.328   3.279   0.953
 4252SOL    HW113652   3.269   3.285   1.033
 4252SOL    HW213653   3.313   3.191   0.907
 4253SOL     OW13654   3.529   3.576   0.572
 4253SOL    HW113655   3.488   3.553   0.484
 4253SOL    HW213656   3.511   3.502   0.637
 4254SOL     OW13657   2.460   2.591   0.270
 4254SOL    HW113658   2.484   2.660   0.202
 4254SOL    HW213659   2.382   2.624   0.324
 4255SOL     OW13660   3.143   2.207   0.944
 4255SOL    HW113661   3.057   2.157   0.931
 4255SOL    HW213662   3.205   2.153   1.000
 4256SOL     OW13663   3.438   3.524   0.307
 4256SOL    HW113664   3.527   3.570   0.310
 4256SOL    HW213665   3.417   3.500   0.212
 4257SOL     OW13666   2.669   2.467   1.465
 4257SOL    HW113667   2.622   2.464   1.554
 4257SOL    HW213668   2.618   2.412   1.399
 4258SOL     OW13669   3.256   2.331   1.674
 4258SOL    HW113670   3.236   2.374   1.762
 4258SOL    HW213671   3.334   2.269   1.683
 4259SOL     OW13672   2.835   2.752   1.572
 4259SOL    HW113673   2.881   2.668   1.543
 4259SOL    HW213674   2.779   2.786   1.497
 4260SOL     OW13675   2.853   2.272   1.242
 4260SOL    HW113676   2.776   2.306   1.296
 4260SOL    HW213677   2.819   2.221   1.163
 4261SOL     OW13678   2.903   2.563   0.429
 4261SOL    HW113679   2.929   2.559   0.525
 4261SOL    HW213680   2.818   2.512   0.415
 4262SOL     OW13681   1.938   2.673   0.789
 4262SOL    HW113682   2.037   2.661   0.798
 4262SOL    HW213683   1.914   2.768   0.810
 4263SOL     OW13684   1.992   3.683   1.571
 4263SOL    HW113685   1.982   3.668   1.670
 4263SOL    HW213686   1.906   3.719   1.535
 4264SOL     OW13687   2.727   2.210   0.195
 4264SOL    HW113688   2.786   2.273   0.146
 4264SOL    HW213689   2.746   2.116   0.166
 4265SOL     OW13690   3.581   2.447   1.831
 4265SOL    HW113691   3.555   2.536   1.795
 4265SOL    HW213692   3.579   2.379   1.758
 4266SOL     OW13693   3.224   3.006   0.545
 4266SOL    HW113694   3.307   2.977   0.497
 4266SOL    HW213695   3.175   3.073   0.489
 4267SOL     OW13696   2.412   2.058   0.885
 4267SOL    HW113697   2.407   2.053   0.985
 4267SOL    HW213698   2.414   2.154   0.856
 4268SOL     OW13699   2.870   3.318   0.477
 4268SOL    HW113700   2.824   3.390   0.425
 4268SOL    HW213701   2.866   3.338   0.575
 4269SOL     OW13702   2.213   3.663   0.853
 4269SOL    HW113703   2.263   3.577   0.859
 4269SOL    HW213704   2.278   3.740   0.850
 4270SOL     OW13705   3.657   2.928   0.873
 4270SOL    HW113706   3.595   2.913   0.797
 4270SOL    HW213707   3.605   2.939   0.958
 4271SOL     OW13708   3.089   3.412   1.506
 4271SOL    HW113709   3.095   3.335   1.570
 4271SOL    HW213710   3.037   3.386   1.426
 4272SOL     OW13711   2.183   2.805   0.242
 4272SOL    HW113712   2.265   2.844   0.200
 4272SOL    HW213713   2.156   2.723   0.193
 4273SOL     OW13714   3.320   2.597   0.728
 4273SOL    HW113715   3.315   2.532   0.803
 4273SOL    HW213716   3.400   2.656   0.741
 4274SOL     OW13717   2.323   3.128   1.727
 4274SOL    HW113718   2.273   3.129   1.641
 4274SOL    HW213719   2.260   3.110   1.803
 4275SOL     OW13720   2.973   3.638   0.237
 4275SOL    HW113721   2.913   3.576   0.287
 4275SOL    HW213722   3.004   3.594   0.152
 4276SOL     OW13723   3.494   3.239   0.081
 4276SOL    HW113724   3.462   3.333   0.071
 4276SOL    HW213725   3.418   3.176   0.069
 4277SOL     OW13726   2.326   3.605   0.323
 4277SOL    HW113727   2.359   3.644   0.409
 4277SOL    HW213728   2.402   3.598   0.258
 4278SOL     OW13729   3.262   1.969   0.426
 4278SOL    HW113730   3.238   1.932   0.336
 4278SOL    HW213731   3.361   1.985   0.430
 4279SOL     OW13732   2.111   3.647   1.241
 4279SOL    HW113733   2.168   3.582   1.291
 4279SOL    HW213734   2.095   3.614   1.148
 4280SOL     OW13735   2.802   3.560   0.904
 4280SOL    HW113736   2.882   3.503   0.925
 4280SOL    HW213737   2.753   3.520   0.827
 4281SOL     OW13738   3.409   2.084   1.729
 4281SOL    HW113739   3.404   2.121   1.821
 4281SOL    HW213740   3.337   2.015   1.717
 4282SOL     OW13741   2.476   1.984   0.117
 4282SOL    HW113742   2.574   1.962   0.124
 4282SOL    HW213743   2.445   1.967   0.024
 4283SOL     OW13744   2.643   2.126   1.749
 4283SOL    HW113745   2.710   2.065   1.792
 4283SOL    HW213746   2.570   2.145   1.814
 4284SOL     OW13747   2.750   3.376   1.195
 4284SOL    HW113748   2.727   3.351   1.101
 4284SOL    HW213749   2.811   3.307   1.234
 4285SOL     OW13750   3.213   2.452   1.433
 4285SOL    HW113751   3.241   2.409   1.518
 4285SOL    HW213752   3.238   2.548   1.434
 4286SOL     OW13753   2.665   3.264   0.924
 4286SOL    HW113754   2.755   3.278   0.882
 4286SOL    HW213755   2.594   3.266   0.853
 4287SOL     OW13756   2.784   2.365   0.899
 4287SOL    HW113757   2.759   2.356   0.803
 4287SOL    HW213758   2.832   2.283   0.930
 4288SOL     OW13759   2.401   1.926   0.512
 4288SOL    HW113760   2.320   1.927   0.570
 4288SOL    HW213761   2.404   2.009   0.457
 4289SOL     OW13762   3.296   3.050   0.041
 4289SOL    HW113763   3.328   2.974   0.098
 4289SOL    HW213764   3.204   3.077   0.071
 4290SOL     OW13765   2.159   1.897   0.171
 4290SOL    HW113766   2.208   1.981   0.150
 4290SOL    HW213767   2.221   1.832   0.216
 4291SOL     OW13768   2.797   2.098   0.480
 4291SOL    HW113769   2.749   2.139   0.402
 4291SOL    HW213770   2.896   2.096   0.461
 4292SOL     OW13771   2.938   2.545   1.464
 4292SOL    HW113772   2.858   2.484   1.467
 4292SOL    HW213773   3.019   2.492   1.440
 4293SOL     OW13774   3.089   3.432   0.793
 4293SOL    HW113775   3.110   3.506   0.728
 4293SOL    HW213776   3.157   3.432   0.866
 4294SOL     OW13777   2.321   3.014   0.741
 4294SOL    HW113778   2.250   2.987   0.806
 4294SOL    HW213779   2.295   2.986   0.648
 4295SOL     OW13780   3.133   3.659   0.591
 4295SOL    HW113781   3.177   3.723   0.527
 4295SOL    HW213782   3.083   3.711   0.661
 4296SOL     OW13783   2.894   2.411   0.016
 4296SOL    HW113784   2.853   2.493  -0.023
 4296SOL    HW213785   2.958   2.437   0.089
 4297SOL     OW13786   1.940   2.418   1.386
 4297SOL    HW113787   2.032   2.417   1.345
 4297SOL    HW213788   1.934   2.492   1.453
 4298SOL     OW13789   2.423   2.084   1.147
 4298SOL    HW113790   2.461   2.000   1.184
 4298SOL    HW213791   2.335   2.103   1.191
 4299SOL     OW13792   2.728   2.316   0.642
 4299SOL    HW113793   2.696   2.388   0.580
 4299SOL    HW213794   2.752   2.235   0.589
 4300SOL     OW13795   2.879   1.901   0.753
 4300SOL    HW113796   2.807   1.906   0.684
 4300SOL    HW213797   2.855   1.832   0.822
 4301SOL     OW13798   3.291   3.035   0.867
 4301SOL    HW113799   3.236   2.951   0.860
 4301SOL    HW213800   3.317   3.064   0.775
 4302SOL     OW13801   3.328   2.452   0.992
 4302SOL    HW113802   3.298   2.357   0.999
 4302SOL    HW213803   3.401   2.468   1.058
 4303SOL     OW13804   3.719   2.695   0.377
 4303SOL    HW113805   3.761   2.631   0.441
 4303SOL    HW213806   3.681   2.644   0.299
 4304SOL     OW13807   2.350   3.247   0.174
 4304SOL    HW113808   2.263   3.232   0.221
 4304SOL    HW213809   2.333   3.273   0.079
 4305SOL     OW13810   3.526   3.142   0.657
 4305SOL    HW113811   3.625   3.150   0.671
 4305SOL    HW213812   3.481   3.226   0.688
 4306SOL     OW13813   3.252   2.437   0.078
 4306SOL    HW113814   3.198   2.416   0.159
 4306SOL    HW213815   3.343   2.396   0.087
 4307SOL     OW13816   3.616   3.085   1.588
 4307SOL    HW113817   3.707   3.046   1.575
 4307SOL    HW213818   3.624   3.181   1.612
 4308SOL     OW13819   2.926   3.209   1.340
 4308SOL    HW113820   2.846   3.186   1.395
 4308SOL    HW213821   3.009   3.183   1.389
 4309SOL     OW13822   3.454   3.491   1.625
 4309SOL    HW113823   3.481   3.525   1.535
 4309SOL    HW213824   3.533   3.453   1.671
 4310SOL     OW13825   2.973   3.057   1.100
 4310SOL    HW113826   2.933   3.101   1.181
 4310SOL    HW213827   2.932   3.094   1.017
 4311SOL     OW13828   3.500   2.961   1.079
 4311SOL    HW113829   3.505   3.042   1.138
 4311SOL    HW213830   3.414   2.963   1.028
 4312SOL     OW13831   2.777   1.951   1.402
 4312SOL    HW113832   2.802   1.931   1.307
 4312SOL    HW213833   2.849   2.007   1.444
 4313SOL     OW13834   2.842   2.978   1.719
 4313SOL    HW113835   2.743   2.984   1.729
 4313SOL    HW213836   2.865   2.898   1.663
 4314SOL     OW13837   2.567   2.912   0.368
 4314SOL    HW113838   2.553   2.919   0.467
 4314SOL    HW213839   2.651   2.861   0.350
 4315SOL     OW13840   2.272   2.675   1.251
 4315SOL    HW113841   2.358   2.687   1.301
 4315SOL    HW213842   2.230   2.588   1.278
 4316SOL     OW13843   3.136   2.248   1.262
 4316SOL    HW113844   3.157   2.322   1.326
 4316SOL    HW213845   3.047   2.265   1.219
 4317SOL     OW13846   1.926   3.426   1.331
 4317SOL    HW113847   1.880   3.508   1.297
 4317SOL    HW213848   2.024   3.445   1.340
 4318SOL     OW13849   2.229   2.962   0.501
 4318SOL    HW113850   2.222   3.045   0.445
 4318SOL    HW213851   2.233   2.882   0.441
 4319SOL     OW13852   3.114   3.210   0.388
 4319SOL    HW113853   3.164   3.287   0.428
 4319SOL    HW213854   3.019   3.212   0.420
 4320SOL     OW13855   3.134   3.307   1.142
 4320SOL    HW113856   3.181   3.320   1.229
 4320SOL    HW213857   3.068   3.233   1.151
 4321SOL     OW13858   3.444   2.501   0.472
 4321SOL    HW113859   3.413   2.562   0.545
 4321SOL    HW213860   3.494   2.553   0.403
 4322SOL     OW13861   2.216   3.372   1.329
 4322SOL    HW113862   2.195   3.328   1.242
 4322SOL    HW213863   2.313   3.398   1.332
 4323SOL     OW13864   3.449   2.641   1.670
 4323SOL    HW113865   3.357   2.679   1.665
 4323SOL    HW213866   3.509   2.688   1.605
 4324SOL     OW13867   2.875   1.967   1.770
 4324SOL    HW113868   2.881   2.052   1.718
 4324SOL    HW213869   2.907   1.891   1.713
 4325SOL     OW13870   2.366   1.912   1.740
 4325SOL    HW113871   2.324   1.855   1.670
 4325SOL    HW213872   2.300   1.981   1.772
 4326SOL     OW13873   2.435   2.732   1.029
 4326SOL    HW113874   2.479   2.821   1.020
 4326SOL    HW213875   2.372   2.732   1.106
 4327SOL     OW13876   3.222   2.724   1.045
 4327SOL    HW113877   3.147   2.724   0.979
 4327SOL    HW213878   3.259   2.632   1.054
 4328SOL     OW13879   3.071   2.387   0.275
 4328SOL    HW113880   3.084   2.303   0.329
 4328SOL    HW213881   3.042   2.461   0.335
 4329SOL     OW13882   1.899   3.172   1.282
 4329SOL    HW113883   1.952   3.123   1.350
 4329SOL    HW213884   1.921   3.270   1.287
 4330SOL     OW13885   3.590   2.797   1.854
 4330SOL    HW113886   3.544   2.790   1.765
 4330SOL    HW213887   3.528   2.841   1.920
 4331SOL     OW13888   3.484   2.229   0.374
 4331SOL    HW113889   3.486   2.153   0.438
 4331SOL    HW213890   3.436   2.306   0.414
 4332SOL     OW13891   2.885   2.628   0.966
 4332SOL    HW113892   2.900   2.649   1.062
 4332SOL    HW213893   2.855   2.533   0.957
 4333SOL     OW13894   2.842   3.435   1.700
 4333SOL    HW113895   2.822   3.479   1.612
 4333SOL    HW213896   2.881   3.344   1.684
 4334SOL     OW13897   3.721   3.380   1.605
 4334SOL    HW113898   3.735   3.407   1.510
 4334SOL    HW213899   3.804   3.402   1.658
 4335SOL     OW13900   2.212   2.760   1.804
 4335SOL    HW113901   2.288   2.804   1.852
 4335SOL    HW213902   2.247   2.713   1.722
 4336SOL     OW13903   3.402   2.136   0.125
 4336SOL    HW113904   3.341   2.061   0.148
 4336SOL    HW213905   3.424   2.188   0.208
 4337SOL     OW13906   3.165   2.700   0.042
 4337SOL    HW113907   3.199   2.607   0.057
 4337SOL    HW213908   3.183   2.727  -0.053
 4338SOL     OW13909   2.930   3.195   0.849
 4338SOL    HW113910   2.937   3.111   0.794
 4338SOL    HW213911   2.992   3.264   0.813
 4339SOL     OW13912   2.181   2.672   0.949
 4339SOL    HW113913   2.274   2.708   0.954
 4339SOL    HW213914   2.175   2.587   1.001
 4340SOL     OW13915   3.000   2.242   1.678
 4340SOL    HW113916   2.955   2.305   1.742
 4340SOL    HW213917   3.093   2.273   1.661
 4341SOL     OW13918   3.022   2.069   1.477
 4341SOL    HW113919   3.022   2.133   1.554
 4341SOL    HW213920   3.050   2.117   1.394
 4342SOL     OW13921   1.870   3.188   0.200
 4342SOL    HW113922   1.777   3.209   0.169
 4342SOL    HW213923   1.880   3.089   0.213
 4343SOL     OW13924   1.950   3.663   0.927
 4343SOL    HW113925   1.908   3.577   0.900
 4343SOL    HW213926   2.044   3.666   0.893
 4344SOL     OW13927   2.366   3.430   0.910
 4344SOL    HW113928   2.432   3.504   0.919
 4344SOL    HW213929   2.410   3.351   0.868
 4345SOL     OW13930   2.864   2.658   1.238
 4345SOL    HW113931   2.905   2.626   1.324
 4345SOL    HW213932   2.768   2.631   1.235
 4346SOL     OW13933   1.902   2.406   1.114
 4346SOL    HW113934   1.987   2.373   1.073
 4346SOL    HW213935   1.915   2.421   1.212
 4347SOL     OW13936   3.231   2.812   1.660
 4347SOL    HW113937   3.270   2.901   1.680
 4347SOL    HW213938   3.241   2.792   1.563
 4348SOL     OW13939   3.519   2.466   1.206
 4348SOL    HW113940   3.481   2.397   1.268
 4348SOL    HW213941   3.601   2.430   1.162
 4349SOL     OW13942   2.114   3.426   1.744
 4349SOL    HW113943   2.084   3.483   1.820
 4349SOL    HW213944   2.107   3.329   1.770
 4350SOL     OW13945   2.792   3.540   1.465
 4350SOL    HW113946   2.768   3.522   1.370
 4350SOL    HW213947   2.822   3.634   1.475
 4351SOL     OW13948   2.021   2.999   1.466
 4351SOL    HW113949   2.043   2.938   1.542
 4351SOL    HW213950   2.031   2.950   1.380
 4352SOL     OW13951   3.209   2.921   1.234
 4352SOL    HW113952   3.233   2.858   1.160
 4352SOL    HW213953   3.119   2.961   1.216
 4353SOL     OW13954   3.164   2.717   0.309
 4353SOL    HW113955   3.078   2.686   0.351
 4353SOL    HW213956   3.160   2.703   0.210
 4354SOL     OW13957   3.621   3.609   1.154
 4354SOL    HW113958   3.682   3.639   1.081
 4354SOL    HW213959   3.583   3.520   1.132
 4355SOL     OW13960   3.114   3.593   1.128
 4355SOL    HW113961   3.198   3.598   1.074
 4355SOL    HW213962   3.091   3.497   1.146
 4356SOL     OW13963   1.945   3.120   1.022
 4356SOL    HW113964   1.940   3.119   1.122
 4356SOL    HW213965   1.862   3.079   0.984
 4357SOL     OW13966   2.550   3.524   1.716
 4357SOL    HW113967   2.494   3.605   1.725
 4357SOL    HW213968   2.602   3.528   1.630
 4358SOL     OW13969   2.765   1.948   0.133
 4358SOL    HW113970   2.816   1.949   0.047
 4358SOL    HW213971   2.821   1.906   0.204
 4359SOL     OW13972   3.588   1.997   0.523
 4359SOL    HW113973   3.661   1.980   0.456
 4359SOL    HW213974   3.557   1.910   0.561
 4360SOL     OW13975   3.250   3.435   0.477
 4360SOL    HW113976   3.317   3.447   0.403
 4360SOL    HW213977   3.210   3.524   0.500
 4361SOL     OW13978   1.992   3.656   1.851
 4361SOL    HW113979   1.951   3.582   1.904
 4361SOL    HW213980   2.056   3.707   1.909
 4362SOL     OW13981   3.142   2.789   0.672
 4362SOL    HW113982   3.202   2.708   0.674
 4362SOL    HW213983   3.182   2.858   0.612
 4363SOL     OW13984   2.692   3.135   1.422
 4363SOL    HW113985   2.687   3.168   1.517
 4363SOL    HW213986   2.606   3.154   1.376
 4364SOL     OW13987   2.534   3.478   0.154
 4364SOL    HW113988   2.543   3.488   0.055
 4364SOL    HW213989   2.494   3.389   0.175
 4365SOL     OW13990   3.512   3.582   1.394
 4365SOL    HW113991   3.565   3.592   1.310
 4365SOL    HW213992   3.485   3.672   1.428
 4366SOL     OW13993   3.703   2.037   0.963
 4366SOL    HW113994   3.742   1.952   0.927
 4366SOL    HW213995   3.605   2.039   0.944
 4367SOL     OW13996   3.056   3.474   0.031
 4367SOL    HW113997   3.062   3.381   0.068
 4367SOL    HW213998   2.997   3.474  -0.049
 4368SOL     OW13999   2.684   2.864   1.372
 4368SOL    HW114000   2.724   2.863   1.280
 4368SOL    HW214001   2.694   2.956   1.412
 4369SOL     OW14002   2.778   2.772   0.291
 4369SOL    HW114003   2.841   2.810   0.223
 4369SOL    HW214004   2.818   2.689   0.330
 4370SOL     OW14005   3.366   3.469   0.044
 4370SOL    HW114006   3.274   3.506   0.051
 4370SOL    HW214007   3.404   3.489  -0.046
 4371SOL     OW14008   2.234   3.150   1.490
 4371SOL    HW114009   2.221   3.243   1.456
 4371SOL    HW214010   2.150   3.098   1.477
 4372SOL     OW14011   3.476   3.154   1.289
 4372SOL    HW114012   3.536   3.157   1.369
 4372SOL    HW214013   3.401   3.218   1.302
 4373SOL     OW14014   2.901   2.960   0.696
 4373SOL    HW114015   2.831   2.913   0.750
 4373SOL    HW214016   2.960   2.892   0.653
 4374SOL     OW14017   2.876   2.098   0.971
 4374SOL    HW114018   2.868   2.062   0.878
 4374SOL    HW214019   2.874   2.022   1.036
 4375SOL     OW14020   2.452   3.349   0.491
 4375SOL    HW114021   2.494   3.291   0.421
 4375SOL    HW214022   2.408   3.428   0.447
 4376SOL     OW14023   3.571   2.247   1.381
 4376SOL    HW114024   3.644   2.316   1.385
 4376SOL    HW214025   3.599   2.172   1.322
 4377SOL     OW14026   2.117   3.210   0.290
 4377SOL    HW114027   2.021   3.211   0.263
 4377SOL    HW214028   2.129   3.263   0.374
 4378SOL     OW14029   1.967   2.875   1.726
 4378SOL    HW114030   1.890   2.842   1.780
 4378SOL    HW214031   2.052   2.845   1.768
 4379SOL     OW14032   2.534   2.065   1.489
 4379SOL    HW114033   2.624   2.049   1.449
 4379SOL    HW214034   2.542   2.070   1.588
 4380SOL     OW14035   1.937   2.207   0.033
 4380SOL    HW114036   1.845   2.179   0.004
 4380SOL    HW214037   1.968   2.284  -0.023
 4381SOL     OW14038   3.302   2.718   1.398
 4381SOL    HW114039   3.245   2.770   1.335
 4381SOL    HW214040   3.398   2.730   1.374
 4382SOL     OW14041   3.045   3.197   0.119
 4382SOL    HW114042   2.946   3.186   0.121
 4382SOL    HW214043   3.079   3.212   0.212
 4383SOL     OW14044   2.475   2.704   1.431
 4383SOL    HW114045   2.531   2.785   1.414
 4383SOL    HW214046   2.534   2.624   1.434
 4384SOL     OW14047   3.355   3.629   0.959
 4384SOL    HW114048   3.388   3.693   0.890
 4384SOL    HW214049   3.421   3.623   1.034
 4385SOL     OW14050   3.312   3.082   1.633
 4385SOL    HW114051   3.303   3.072   1.732
 4385SOL    HW214052   3.408   3.075   1.607
 4386SOL     OW14053   2.252   3.603   1.560
 4386SOL    HW114054   2.161   3.644   1.558
 4386SOL    HW214055   2.245   3.509   1.592
 4387SOL     OW14056   3.536   2.745   1.254
 4387SOL    HW114057   3.509   2.656   1.217
 4387SOL    HW214058   3.537   2.813   1.181
 4388SOL     OW14059   3.087   2.187   0.449
 4388SOL    HW114060   3.152   2.113   0.438
 4388SOL    HW214061   3.107   2.237   0.533
 4389SOL     OW14062   2.456   2.607   0.652
 4389SOL    HW114063   2.506   2.692   0.633
 4389SOL    HW214064   2.368   2.609   0.604
 4390SOL     OW14065   3.639   2.204   1.642
 4390SOL    HW114066   3.622   2.235   1.548
 4390SOL    HW214067   3.555   2.167   1.680
 4391SOL     OW14068   3.592   2.796   1.517
 4391SOL    HW114069   3.630   2.887   1.532
 4391SOL    HW214070   3.584   2.779   1.418
 4392SOL     OW14071   2.721   3.236   0.016
 4392SOL    HW114072   2.675   3.251   0.104
 4392SOL    HW214073   2.765   3.321  -0.014
 4393SOL     OW14074   2.523   3.652   0.953
 4393SOL    HW114075   2.477   3.740   0.940
 4393SOL    HW214076   2.622   3.664   0.946
 4394SOL     OW14077   2.721   2.818   0.861
 4394SOL    HW114078   2.775   2.749   0.909
 4394SOL    HW214079   2.689   2.887   0.927
 4395SOL     OW14080   2.945   2.846   0.087
 4395SOL    HW114081   2.922   2.899   0.005
 4395SOL    HW214082   3.026   2.790   0.068
 4396SOL     OW14083   3.723   3.431   0.851
 4396SOL    HW114084   3.652   3.419   0.781
 4396SOL    HW214085   3.724   3.352   0.911
 4397SOL     OW14086   2.083   3.176   1.844
 4397SOL    HW114087   2.018   3.103   1.823
 4397SOL    HW214088   2.087   3.190   1.942
 4398SOL     OW14089   1.941   3.102   0.653
 4398SOL    HW114090   1.940   3.055   0.741
 4398SOL    HW214091   2.023   3.074   0.602
 4399SOL     OW14092   2.534   3.253   1.624
 4399SOL    HW114093   2.456   3.203   1.662
 4399SOL    HW214094   2.531   3.348   1.655
 4400SOL     OW14095   3.686   2.054   1.227
 4400SOL    HW114096   3.682   1.964   1.271
 4400SOL    HW214097   3.689   2.043   1.128
 4401SOL     OW14098   3.567   3.349   1.104
 4401SOL    HW114099   3.474   3.324   1.077
 4401SOL    HW214100   3.593   3.299   1.186
 4402SOL     OW14101   2.674   3.448   0.687
 4402SOL    HW114102   2.706   3.458   0.593
 4402SOL    HW214103   2.595   3.386   0.689
 4403SOL     OW14104   3.286   2.076   1.112
 4403SOL    HW114105   3.338   2.011   1.167
 4403SOL    HW214106   3.237   2.139   1.173
 4404SOL     OW14107   2.863   1.896   1.154
 4404SOL    HW114108   2.800   1.824   1.123
 4404SOL    HW214109   2.956   1.860   1.154
 4405SOL     OW14110   2.632   3.192   0.301
 4405SOL    HW114111   2.586   3.105   0.318
 4405SOL    HW214112   2.723   3.189   0.342
 4406SOL     OW14113   2.480   3.429   1.284
 4406SOL    HW114114   2.475   3.511   1.341
 4406SOL    HW214115   2.569   3.426   1.239
 4407SOL     OW14116   3.214   1.914   0.168
 4407SOL    HW114117   3.249   1.873   0.084
 4407SOL    HW214118   3.124   1.876   0.188
 4408SOL     OW14119   3.162   2.315   0.691
 4408SOL    HW114120   3.103   2.395   0.695
 4408SOL    HW214121   3.177   2.280   0.784
 4409SOL     OW14122   3.455   2.083   0.882
 4409SOL    HW114123   3.371   2.082   0.936
 4409SOL    HW214124   3.457   2.166   0.826
 4410SOL     OW14125   1.901   2.939   0.300
 4410SOL    HW114126   2.000   2.928   0.291
 4410SOL    HW214127   1.861   2.853   0.332
 4411SOL     OW14128   2.737   3.508   0.337
 4411SOL    HW114129   2.660   3.473   0.283
 4411SOL    HW214130   2.705   3.579   0.399
 4412SOL     OW14131   2.092   2.490   1.975
 4412SOL    HW114132   1.999   2.488   2.012
 4412SOL    HW214133   2.093   2.451   1.883
 4413SOL     OW14134   2.431   3.137   3.027
 4413SOL    HW114135   2.338   3.130   2.990
 4413SOL    HW214136   2.442   3.226   3.071
 4414SOL     OW14137   3.417   3.373   2.565
 4414SOL    HW114138   3.360   3.357   2.646
 4414SOL    HW214139   3.358   3.383   2.485
 4415SOL     OW14140   2.997   2.565   2.579
 4415SOL    HW114141   3.054   2.643   2.554
 4415SOL    HW214142   2.937   2.591   2.655
 4416SOL     OW14143   3.617   2.469   2.093
 4416SOL    HW114144   3.605   2.456   1.994
 4416SOL    HW214145   3.587   2.388   2.142
 4417SOL     OW14146   2.630   3.006   2.885
 4417SOL    HW114147   2.552   3.023   2.945
 4417SOL    HW214148   2.664   3.093   2.849
 4418SOL     OW14149   2.712   2.660   3.685
 4418SOL    HW114150   2.708   2.736   3.750
 4418SOL    HW214151   2.734   2.696   3.594
 4419SOL     OW14152   2.547   2.874   2.527
 4419SOL    HW114153   2.616   2.858   2.597
 4419SOL    HW214154   2.474   2.931   2.565
 4420SOL     OW14155   2.548   3.023   3.665
 4420SOL    HW114156   2.608   3.102   3.679
 4420SOL    HW214157   2.462   3.054   3.624
 4421SOL     OW14158   2.197   3.297   2.923
 4421SOL    HW114159   2.119   3.266   2.870
 4421SOL    HW214160   2.255   3.355   2.866
 4422SOL     OW14161   3.322   3.367   3.201
 4422SOL    HW114162   3.346   3.461   3.227
 4422SOL    HW214163   3.306   3.313   3.283
 4423SOL     OW14164   3.465   2.309   2.599
 4423SOL    HW114165   3.391   2.355   2.549
 4423SOL    HW214166   3.516   2.377   2.652
 4424SOL     OW14167   2.093   3.575   2.345
 4424SOL    HW114168   2.127   3.652   2.399
 4424SOL    HW214169   2.137   3.575   2.255
 4425SOL     OW14170   2.989   3.203   3.552
 4425SOL    HW114171   3.036   3.203   3.640
 4425SOL    HW214172   2.941   3.116   3.541
 4426SOL     OW14173   2.092   3.296   2.400
 4426SOL    HW114174   2.066   3.392   2.400
 4426SOL    HW214175   2.021   3.242   2.445
 4427SOL     OW14176   2.102   2.953   2.748
 4427SOL    HW114177   2.116   2.869   2.800
 4427SOL    HW214178   2.047   3.017   2.803
 4428SOL     OW14179   2.482   3.648   3.301
 4428SOL    HW114180   2.390   3.631   3.336
 4428SOL    HW214181   2.510   3.740   3.327
 4429SOL     OW14182   2.468   2.826   1.985
 4429SOL    HW114183   2.475   2.910   1.931
 4429SOL    HW214184   2.514   2.839   2.073
 4430SOL     OW14185   3.456   1.976   3.342
 4430SOL    HW114186   3.438   2.043   3.270
 4430SOL    HW214187   3.453   2.022   3.431
 4431SOL     OW14188   1.984   2.505   2.425
 4431SOL    HW114189   1.939   2.417   2.442
 4431SOL    HW214190   1.983   2.559   2.509
 4432SOL     OW14191   3.704   3.629   2.221
 4432SOL    HW114192   3.758   3.600   2.301
 4432SOL    HW214193   3.734   3.719   2.192
 4433SOL     OW14194   1.889   3.458   1.979
 4433SOL    HW114195   1.870   3.362   2.000
 4433SOL    HW214196   1.856   3.516   2.054
 4434SOL     OW14197   3.551   2.784   2.474
 4434SOL    HW114198   3.646   2.755   2.482
 4434SOL    HW214199   3.543   2.849   2.399
 4435SOL     OW14200   3.503   2.970   2.294
 4435SOL    HW114201   3.589   2.972   2.242
 4435SOL    HW214202   3.517   3.017   2.382
 4436SOL     OW14203   1.975   2.599   3.459
 4436SOL    HW114204   2.063   2.586   3.504
 4436SOL    HW214205   1.962   2.696   3.437
 4437SOL     OW14206   2.475   3.227   2.588
 4437SOL    HW114207   2.426   3.140   2.597
 4437SOL    HW214208   2.452   3.270   2.501
 4438SOL     OW14209   3.155   3.090   3.285
 4438SOL    HW114210   3.192   3.017   3.227
 4438SOL    HW214211   3.207   3.095   3.370
 4439SOL     OW14212   2.671   1.866   2.364
 4439SOL    HW114213   2.711   1.957   2.355
 4439SOL    HW214214   2.571   1.874   2.370
 4440SOL     OW14215   2.059   2.838   3.126
 4440SOL    HW114216   2.148   2.793   3.112
 4440SOL    HW214217   1.986   2.773   3.107
 4441SOL     OW14218   3.387   2.861   2.052
 4441SOL    HW114219   3.324   2.785   2.065
 4441SOL    HW214220   3.435   2.879   2.138
 4442SOL     OW14221   3.049   3.654   3.478
 4442SOL    HW114222   3.073   3.714   3.402
 4442SOL    HW214223   3.056   3.559   3.448
 4443SOL     OW14224   3.328   3.279   2.815
 4443SOL    HW114225   3.269   3.285   2.895
 4443SOL    HW214226   3.313   3.191   2.769
 4444SOL     OW14227   3.529   3.576   2.434
 4444SOL    HW114228   3.488   3.553   2.346
 4444SOL    HW214229   3.511   3.502   2.499
 4445SOL     OW14230   2.460   2.591   2.132
 4445SOL    HW114231   2.484   2.660   2.064
 4445SOL    HW214232   2.382   2.624   2.186
 4446SOL     OW14233   3.143   2.207   2.806
 4446SOL    HW114234   3.057   2.157   2.793
 4446SOL    HW214235   3.205   2.153   2.862
 4447SOL     OW14236   3.438   3.524   2.169
 4447SOL    HW114237   3.527   3.570   2.172
 4447SOL    HW214238   3.417   3.500   2.074
 4448SOL     OW14239   3.256   2.331   3.536
 4448SOL    HW114240   3.236   2.374   3.624
 4448SOL    HW214241   3.334   2.269   3.545
 4449SOL     OW14242   2.835   2.752   3.434
 4449SOL    HW114243   2.881   2.668   3.405
 4449SOL    HW214244   2.779   2.786   3.359
 4450SOL     OW14245   2.853   2.272   3.104
 4450SOL    HW114246   2.776   2.306   3.158
 4450SOL    HW214247   2.819   2.221   3.025
 4451SOL     OW14248   2.903   2.563   2.291
 4451SOL    HW114249   2.929   2.559   2.387
 4451SOL    HW214250   2.818   2.512   2.277
 4452SOL     OW14251   1.938   2.673   2.651
 4452SOL    HW114252   2.037   2.661   2.660
 4452SOL    HW214253   1.914   2.768   2.672
 4453SOL     OW14254   1.992   3.683   3.433
 4453SOL    HW114255   1.982   3.668   3.532
 4453SOL    HW214256   1.906   3.719   3.397
 4454SOL     OW14257   2.727   2.210   2.057
 4454SOL    HW114258   2.786   2.273   2.008
 4454SOL    HW214259   2.746   2.116   2.028
 4455SOL     OW14260   3.581   2.447   3.693
 4455SOL    HW114261   3.555   2.536   3.657
 4455SOL    HW214262   3.579   2.379   3.620
 4456SOL     OW14263   3.224   3.006   2.407
 4456SOL    HW114264   3.307   2.977   2.359
 4456SOL    HW214265   3.175   3.073   2.351
 4457SOL     OW14266   2.870   3.318   2.339
 4457SOL    HW114267   2.824   3.390   2.287
 4457SOL    HW214268   2.866   3.338   2.437
 4458SOL     OW14269   2.213   3.663   2.715
 4458SOL    HW114270   2.263   3.577   2.721
 4458SOL    HW214271   2.278   3.740   2.712
 4459SOL     OW14272   3.657   2.928   2.735
 4459SOL    HW114273   3.595   2.913   2.659
 4459SOL    HW214274   3.605   2.939   2.820
 4460SOL     OW14275   3.089   3.412   3.368
 4460SOL    HW114276   3.095   3.335   3.432
 4460SOL    HW214277   3.037   3.386   3.288
 4461SOL     OW14278   2.183   2.805   2.104
 4461SOL    HW114279   2.265   2.844   2.062
 4461SOL    HW214280   2.156   2.723   2.055
 4462SOL     OW14281   3.320   2.597   2.590
 4462SOL    HW114282   3.315   2.532   2.665
 4462SOL    HW214283   3.400   2.656   2.603
 4463SOL     OW14284   2.323   3.128   3.589
 4463SOL    HW114285   2.273   3.129   3.503
 4463SOL    HW214286   2.260   3.110   3.665
 4464SOL     OW14287   2.973   3.638   2.099
 4464SOL    HW114288   2.913   3.576   2.149
 4464SOL    HW214289   3.004   3.594   2.014
 4465SOL     OW14290   3.494   3.239   1.943
 4465SOL    HW114291   3.462   3.333   1.933
 4465SOL    HW214292   3.418   3.176   1.931
 4466SOL     OW14293   2.326   3.605   2.185
 4466SOL    HW114294   2.359   3.644   2.271
 4466SOL    HW214295   2.402   3.598   2.120
 4467SOL     OW14296   3.262   1.969   2.288
 4467SOL    HW114297   3.238   1.932   2.198
 4467SOL    HW214298   3.361   1.985   2.292
 4468SOL     OW14299   2.111   3.647   3.103
 4468SOL    HW114300   2.168   3.582   3.153
 4468SOL    HW214301   2.095   3.614   3.010
 4469SOL     OW14302   2.802   3.560   2.766
 4469SOL    HW114303   2.882   3.503   2.787
 4469SOL    HW214304   2.753   3.520   2.689
 4470SOL     OW14305   3.409   2.084   3.591
 4470SOL    HW114306   3.404   2.121   3.683
 4470SOL    HW214307   3.337   2.015   3.579
 4471SOL     OW14308   2.476   1.984   1.979
 4471SOL    HW114309   2.574   1.962   1.986
 4471SOL    HW214310   2.445   1.967   1.886
 4472SOL     OW14311   2.643   2.126   3.611
 4472SOL    HW114312   2.710   2.065   3.654
 4472SOL    HW214313   2.570   2.145   3.676
 4473SOL     OW14314   2.750   3.376   3.057
 4473SOL    HW114315   2.727   3.351   2.963
 4473SOL    HW214316   2.811   3.307   3.096
 4474SOL     OW14317   3.213   2.452   3.295
 4474SOL    HW114318   3.241   2.409   3.380
 4474SOL    HW214319   3.238   2.548   3.296
 4475SOL     OW14320   2.665   3.264   2.786
 4475SOL    HW114321   2.755   3.278   2.744
 4475SOL    HW214322   2.594   3.266   2.715
 4476SOL     OW14323   2.784   2.365   2.761
 4476SOL    HW114324   2.759   2.356   2.665
 4476SOL    HW214325   2.832   2.283   2.792
 4477SOL     OW14326   2.401   1.926   2.374
 4477SOL    HW114327   2.320   1.927   2.432
 4477SOL    HW214328   2.404   2.009   2.319
 4478SOL     OW14329   3.296   3.050   1.903
 4478SOL    HW114330   3.328   2.974   1.960
 4478SOL    HW214331   3.204   3.077   1.933
 4479SOL     OW14332   2.797   2.098   2.342
 4479SOL    HW114333   2.749   2.139   2.264
 4479SOL    HW214334   2.896   2.096   2.323
 4480SOL     OW14335   2.938   2.545   3.326
 4480SOL    HW114336   2.858   2.484   3.329
 4480SOL    HW214337   3.019   2.492   3.302
 4481SOL     OW14338   3.089   3.432   2.655
 4481SOL    HW114339   3.110   3.506   2.590
 4481SOL    HW214340   3.157   3.432   2.728
 4482SOL     OW14341   2.321   3.014   2.603
 4482SOL    HW114342   2.250   2.987   2.668
 4482SOL    HW214343   2.295   2.986   2.510
 4483SOL     OW14344   3.133   3.659   2.453
 4483SOL    HW114345   3.177   3.723   2.389
 4483SOL    HW214346   3.083   3.711   2.523
 4484SOL     OW14347   2.894   2.411   1.878
 4484SOL    HW114348   2.853   2.493   1.839
 4484SOL    HW214349   2.958   2.437   1.951
 4485SOL     OW14350   1.940   2.418   3.248
 4485SOL    HW114351   2.032   2.417   3.207
 4485SOL    HW214352   1.934   2.492   3.315
 4486SOL     OW14353   2.728   2.316   2.504
 4486SOL    HW114354   2.696   2.388   2.442
 4486SOL    HW214355   2.752   2.235   2.451
 4487SOL     OW14356   2.879   1.901   2.615
 4487SOL    HW114357   2.807   1.906   2.546
 4487SOL    HW214358   2.855   1.832   2.684
 4488SOL     OW14359   3.291   3.035   2.729
 4488SOL    HW114360   3.236   2.951   2.722
 4488SOL    HW214361   3.317   3.064   2.637
 4489SOL     OW14362   3.328   2.452   2.854
 4489SOL    HW114363   3.298   2.357   2.861
 4489SOL    HW214364   3.401   2.468   2.920
 4490SOL     OW14365   3.719   2.695   2.239
 4490SOL    HW114366   3.761   2.631   2.303
 4490SOL    HW214367   3.681   2.644   2.161
 4491SOL     OW14368   2.350   3.247   2.036
 4491SOL    HW114369   2.263   3.232   2.083
 4491SOL    HW214370   2.333   3.273   1.941
 4492SOL     OW14371   3.526   3.142   2.519
 4492SOL    HW114372   3.625   3.150   2.533
 4492SOL    HW214373   3.481   3.226   2.550
 4493SOL     OW14374   3.252   2.437   1.940
 4493SOL    HW114375   3.198   2.416   2.021
 4493SOL    HW214376   3.343   2.396   1.949
 4494SOL     OW14377   3.616   3.085   3.450
 4494SOL    HW114378   3.707   3.046   3.437
 4494SOL    HW214379   3.624   3.181   3.474
 4495SOL     OW14380   2.926   3.209   3.202
 4495SOL    HW114381   2.846   3.186   3.257
 4495SOL    HW214382   3.009   3.183   3.251
 4496SOL     OW14383   3.454   3.491   3.487
 4496SOL    HW114384   3.481   3.525   3.397
 4496SOL    HW214385   3.533   3.453   3.533
 4497SOL     OW14386   2.973   3.057   2.962
 4497SOL    HW114387   2.933   3.101   3.043
 4497SOL    HW214388   2.932   3.094   2.879
 4498SOL     OW14389   3.500   2.961   2.941
 4498SOL    HW114390   3.505   3.042   3.000
 4498SOL    HW214391   3.414   2.963   2.890
 4499SOL     OW14392   2.777   1.951   3.264
 4499SOL    HW114393   2.802   1.931   3.169
 4499SOL    HW214394   2.849   2.007   3.306
 4500SOL     OW14395   2.842   2.978   3.581
 4500SOL    HW114396   2.743   2.984   3.591
 4500SOL    HW214397   2.865   2.898   3.525
 4501SOL     OW14398   2.567   2.912   2.230
 4501SOL    HW114399   2.553   2.919   2.329
 4501SOL    HW214400   2.651   2.861   2.212
 4502SOL     OW14401   2.272   2.675   3.113
 4502SOL    HW114402   2.358   2.687   3.163
 4502SOL    HW214403   2.230   2.588   3.140
 4503SOL     OW14404   3.136   2.248   3.124
 4503SOL    HW114405   3.157   2.322   3.188
 4503SOL    HW214406   3.047   2.265   3.081
 4504SOL     OW14407   1.926   3.426   3.193
 4504SOL    HW114408   1.880   3.508   3.159
 4504SOL    HW214409   2.024   3.445   3.202
 4505SOL     OW14410   2.229   2.962   2.363
 4505SOL    HW114411   2.222   3.045   2.307
 4505SOL    HW214412   2.233   2.882   2.303
 4506SOL     OW14413   3.114   3.210   2.250
 4506SOL    HW114414   3.164   3.287   2.290
 4506SOL    HW214415   3.019   3.212   2.282
 4507SOL     OW14416   3.134   3.307   3.004
 4507SOL    HW114417   3.181   3.320   3.091
 4507SOL    HW214418   3.068   3.233   3.013
 4508SOL     OW14419   3.444   2.501   2.334
 4508SOL    HW114420   3.413   2.562   2.407
 4508SOL    HW214421   3.494   2.553   2.265
 4509SOL     OW14422   2.216   3.372   3.191
 4509SOL    HW114423   2.195   3.328   3.104
 4509SOL    HW214424   2.313   3.398   3.194
 4510SOL     OW14425   2.264   2.613   3.460
 4510SOL    HW114426   2.332   2.668   3.413
 4510SOL    HW214427   2.304   2.525   3.487
 4511SOL     OW14428   3.449   2.641   3.532
 4511SOL    HW114429   3.357   2.679   3.527
 4511SOL    HW214430   3.509   2.688   3.467
 4512SOL     OW14431   2.875   1.967   3.632
 4512SOL    HW114432   2.881   2.052   3.580
 4512SOL    HW214433   2.907   1.891   3.575
 4513SOL     OW14434   2.366   1.912   3.602
 4513SOL    HW114435   2.324   1.855   3.532
 4513SOL    HW214436   2.300   1.981   3.634
 4514SOL     OW14437   2.435   2.732   2.891
 4514SOL    HW114438   2.479   2.821   2.882
 4514SOL    HW214439   2.372   2.732   2.968
 4515SOL     OW14440   3.222   2.724   2.907
 4515SOL    HW114441   3.147   2.724   2.841
 4515SOL    HW214442   3.259   2.632   2.916
 4516SOL     OW14443   3.071   2.387   2.137
 4516SOL    HW114444   3.084   2.303   2.191
 4516SOL    HW214445   3.042   2.461   2.197
 4517SOL     OW14446   1.899   3.172   3.144
 4517SOL    HW114447   1.952   3.123   3.212
 4517SOL    HW214448   1.921   3.270   3.149
 4518SOL     OW14449   2.594   2.496   2.926
 4518SOL    HW114450   2.653   2.470   2.850
 4518SOL    HW214451   2.566   2.592   2.915
 4519SOL     OW14452   3.590   2.797   3.716
 4519SOL    HW114453   3.544   2.790   3.627
 4519SOL    HW214454   3.528   2.841   3.782
 4520SOL     OW14455   3.484   2.229   2.236
 4520SOL    HW114456   3.486   2.153   2.300
 4520SOL    HW214457   3.436   2.306   2.276
 4521SOL     OW14458   2.885   2.628   2.828
 4521SOL    HW114459   2.900   2.649   2.924
 4521SOL    HW214460   2.855   2.533   2.819
 4522SOL     OW14461   2.842   3.435   3.562
 4522SOL    HW114462   2.822   3.479   3.474
 4522SOL    HW214463   2.881   3.344   3.546
 4523SOL     OW14464   3.721   3.380   3.467
 4523SOL    HW114465   3.735   3.407   3.372
 4523SOL    HW214466   3.804   3.402   3.520
 4524SOL     OW14467   2.212   2.760   3.666
 4524SOL    HW114468   2.288   2.804   3.714
 4524SOL    HW214469   2.247   2.713   3.584
 4525SOL     OW14470   3.402   2.136   1.987
 4525SOL    HW114471   3.341   2.061   2.010
 4525SOL    HW214472   3.424   2.188   2.070
 4526SOL     OW14473   3.165   2.700   1.904
 4526SOL    HW114474   3.199   2.607   1.919
 4526SOL    HW214475   3.183   2.727   1.809
 4527SOL     OW14476   2.930   3.195   2.711
 4527SOL    HW114477   2.937   3.111   2.656
 4527SOL    HW214478   2.992   3.264   2.675
 4528SOL     OW14479   2.181   2.672   2.811
 4528SOL    HW114480   2.274   2.708   2.816
 4528SOL    HW214481   2.175   2.587   2.863
 4529SOL     OW14482   3.000   2.242   3.540
 4529SOL    HW114483   2.955   2.305   3.604
 4529SOL    HW214484   3.093   2.273   3.523
 4530SOL     OW14485   3.022   2.069   3.339
 4530SOL    HW114486   3.022   2.133   3.416
 4530SOL    HW214487   3.050   2.117   3.256
 4531SOL     OW14488   1.870   3.188   2.062
 4531SOL    HW114489   1.777   3.209   2.031
 4531SOL    HW214490   1.880   3.089   2.075
 4532SOL     OW14491   1.950   3.663   2.789
 4532SOL    HW114492   1.908   3.577   2.762
 4532SOL    HW214493   2.044   3.666   2.755
 4533SOL     OW14494   2.366   3.430   2.772
 4533SOL    HW114495   2.432   3.504   2.781
 4533SOL    HW214496   2.410   3.351   2.730
 4534SOL     OW14497   2.864   2.658   3.100
 4534SOL    HW114498   2.905   2.626   3.186
 4534SOL    HW214499   2.768   2.631   3.097
 4535SOL     OW14500   1.902   2.406   2.976
 4535SOL    HW114501   1.987   2.373   2.935
 4535SOL    HW214502   1.915   2.421   3.074
 4536SOL     OW14503   3.231   2.812   3.522
 4536SOL    HW114504   3.270   2.901   3.542
 4536SOL    HW214505   3.241   2.792   3.425
 4537SOL     OW14506   2.677   2.434   2.187
 4537SOL    HW114507   2.684   2.345   2.141
 4537SOL    HW214508   2.583   2.468   2.179
 4538SOL     OW14509   3.519   2.466   3.068
 4538SOL    HW114510   3.481   2.397   3.130
 4538SOL    HW214511   3.601   2.430   3.024
 4539SOL     OW14512   2.114   3.426   3.606
 4539SOL    HW114513   2.084   3.483   3.682
 4539SOL    HW214514   2.107   3.329   3.632
 4540SOL     OW14515   2.792   3.540   3.327
 4540SOL    HW114516   2.768   3.522   3.232
 4540SOL    HW214517   2.822   3.634   3.337
 4541SOL     OW14518   2.021   2.999   3.328
 4541SOL    HW114519   2.043   2.938   3.404
 4541SOL    HW214520   2.031   2.950   3.242
 4542SOL     OW14521   3.209   2.921   3.096
 4542SOL    HW114522   3.233   2.858   3.022
 4542SOL    HW214523   3.119   2.961   3.078
 4543SOL     OW14524   3.164   2.717   2.171
 4543SOL    HW114525   3.078   2.686   2.213
 4543SOL    HW214526   3.160   2.703   2.072
 4544SOL     OW14527   3.621   3.609   3.016
 4544SOL    HW114528   3.682   3.639   2.943
 4544SOL    HW214529   3.583   3.520   2.994
 4545SOL     OW14530   3.114   3.593   2.990
 4545SOL    HW114531   3.198   3.598   2.936
 4545SOL    HW214532   3.091   3.497   3.008
 4546SOL     OW14533   1.945   3.120   2.884
 4546SOL    HW114534   1.940   3.119   2.984
 4546SOL    HW214535   1.862   3.079   2.846
 4547SOL     OW14536   2.550   3.524   3.578
 4547SOL    HW114537   2.494   3.605   3.587
 4547SOL    HW214538   2.602   3.528   3.492
 4548SOL     OW14539   3.588   1.997   2.385
 4548SOL    HW114540   3.661   1.980   2.318
 4548SOL    HW214541   3.557   1.910   2.423
 4549SOL     OW14542   3.250   3.435   2.339
 4549SOL    HW114543   3.317   3.447   2.265
 4549SOL    HW214544   3.210   3.524   2.362
 4550SOL     OW14545   1.992   3.656   3.713
 4550SOL    HW114546   1.951   3.582   3.766
 4550SOL    HW214547   2.056   3.707   3.771
 4551SOL     OW14548   3.142   2.789   2.534
 4551SOL    HW114549   3.202   2.708   2.536
 4551SOL    HW214550   3.182   2.858   2.474
 4552SOL     OW14551   2.692   3.135   3.284
 4552SOL    HW114552   2.687   3.168   3.379
 4552SOL    HW214553   2.606   3.154   3.238
 4553SOL     OW14554   2.534   3.478   2.016
 4553SOL    HW114555   2.543   3.488   1.917
 4553SOL    HW214556   2.494   3.389   2.037
 4554SOL     OW14557   3.512   3.582   3.256
 4554SOL    HW114558   3.565   3.592   3.172
 4554SOL    HW214559   3.485   3.672   3.290
 4555SOL     OW14560   3.703   2.037   2.825
 4555SOL    HW114561   3.742   1.952   2.789
 4555SOL    HW214562   3.605   2.039   2.806
 4556SOL     OW14563   3.056   3.474   1.893
 4556SOL    HW114564   3.062   3.381   1.930
 4556SOL    HW214565   2.997   3.474   1.813
 4557SOL     OW14566   2.684   2.864   3.234
 4557SOL    HW114567   2.724   2.863   3.142
 4557SOL    HW214568   2.694   2.956   3.274
 4558SOL     OW14569   2.778   2.772   2.153
 4558SOL    HW114570   2.841   2.810   2.085
 4558SOL    HW214571   2.818   2.689   2.192
 4559SOL     OW14572   3.366   3.469   1.906
 4559SOL    HW114573   3.274   3.506   1.913
 4559SOL    HW214574   3.404   3.489   1.816
 4560SOL     OW14575   2.234   3.150   3.352
 4560SOL    HW114576   2.221   3.243   3.318
 4560SOL    HW214577   2.150   3.098   3.339
 4561SOL     OW14578   3.476   3.154   3.151
 4561SOL    HW114579   3.536   3.157   3.231
 4561SOL    HW214580   3.401   3.218   3.164
 4562SOL     OW14581   2.901   2.960   2.558
 4562SOL    HW114582   2.831   2.913   2.612
 4562SOL    HW214583   2.960   2.892   2.515
 4563SOL     OW14584   2.876   2.098   2.833
 4563SOL    HW114585   2.868   2.062   2.740
 4563SOL    HW214586   2.874   2.022   2.898
 4564SOL     OW14587   2.452   3.349   2.353
 4564SOL    HW114588   2.494   3.291   2.283
 4564SOL    HW214589   2.408   3.428   2.309
 4565SOL     OW14590   3.571   2.247   3.243
 4565SOL    HW114591   3.644   2.316   3.247
 4565SOL    HW214592   3.599   2.172   3.184
 4566SOL     OW14593   2.117   3.210   2.152
 4566SOL    HW114594   2.021   3.211   2.125
 4566SOL    HW214595   2.129   3.263   2.236
 4567SOL     OW14596   1.967   2.875   3.588
 4567SOL    HW114597   1.890   2.842   3.642
 4567SOL    HW214598   2.052   2.845   3.630
 4568SOL     OW14599   2.534   2.065   3.351
 4568SOL    HW114600   2.624   2.049   3.311
 4568SOL    HW214601   2.542   2.070   3.450
 4569SOL     OW14602   3.302   2.718   3.260
 4569SOL    HW114603   3.245   2.770   3.197
 4569SOL    HW214604   3.398   2.730   3.236
 4570SOL     OW14605   1.934   2.028   2.180
 4570SOL    HW114606   1.917   2.111   2.126
 4570SOL    HW214607   2.024   1.991   2.158
 4571SOL     OW14608   3.045   3.197   1.981
 4571SOL    HW114609   2.946   3.186   1.983
 4571SOL    HW214610   3.079   3.212   2.074
 4572SOL     OW14611   2.475   2.704   3.293
 4572SOL    HW114612   2.531   2.785   3.276
 4572SOL    HW214613   2.534   2.624   3.296
 4573SOL     OW14614   3.355   3.629   2.821
 4573SOL    HW114615   3.388   3.693   2.752
 4573SOL    HW214616   3.421   3.623   2.896
 4574SOL     OW14617   3.312   3.082   3.495
 4574SOL    HW114618   3.303   3.072   3.594
 4574SOL    HW214619   3.408   3.075   3.469
 4575SOL     OW14620   2.252   3.603   3.422
 4575SOL    HW114621   2.161   3.644   3.420
 4575SOL    HW214622   2.245   3.509   3.454
 4576SOL     OW14623   3.536   2.745   3.116
 4576SOL    HW114624   3.509   2.656   3.079
 4576SOL    HW214625   3.537   2.813   3.043
 4577SOL     OW14626   3.087   2.187   2.311
 4577SOL    HW114627   3.152   2.113   2.300
 4577SOL    HW214628   3.107   2.237   2.395
 4578SOL     OW14629   2.456   2.607   2.514
 4578SOL    HW114630   2.506   2.692   2.495
 4578SOL    HW214631   2.368   2.609   2.466
 4579SOL     OW14632   3.639   2.204   3.504
 4579SOL    HW114633   3.622   2.235   3.410
 4579SOL    HW214634   3.555   2.167   3.542
 4580SOL     OW14635   3.592   2.796   3.379
 4580SOL    HW114636   3.630   2.887   3.394
 4580SOL    HW214637   3.584   2.779   3.280
 4581SOL     OW14638   2.721   3.236   1.878
 4581SOL    HW114639   2.675   3.251   1.966
 4581SOL    HW214640   2.765   3.321   1.848
 4582SOL     OW14641   2.523   3.652   2.815
 4582SOL    HW114642   2.477   3.740   2.802
 4582SOL    HW214643   2.622   3.664   2.808
 4583SOL     OW14644   2.721   2.818   2.723
 4583SOL    HW114645   2.775   2.749   2.771
 4583SOL    HW214646   2.689   2.887   2.789
 4584SOL     OW14647   2.945   2.846   1.949
 4584SOL    HW114648   2.922   2.899   1.867
 4584SOL    HW214649   3.026   2.790   1.930
 4585SOL     OW14650   3.723   3.431   2.713
 4585SOL    HW114651   3.652   3.419   2.643
 4585SOL    HW214652   3.724   3.352   2.773
 4586SOL     OW14653   2.083   3.176   3.706
 4586SOL    HW114654   2.018   3.103   3.685
 4586SOL    HW214655   2.087   3.190   3.804
 4587SOL     OW14656   1.941   3.102   2.515
 4587SOL    HW114657   1.940   3.055   2.603
 4587SOL    HW214658   2.023   3.074   2.464
 4588SOL     OW14659   2.534   3.253   3.486
 4588SOL    HW114660   2.456   3.203   3.524
 4588SOL    HW214661   2.531   3.348   3.517
 4589SOL     OW14662   3.686   2.054   3.089
 4589SOL    HW114663   3.682   1.964   3.133
 4589SOL    HW214664   3.689   2.043   2.990
 4590SOL     OW14665   3.567   3.349   2.966
 4590SOL    HW114666   3.474   3.324   2.939
 4590SOL    HW214667   3.593   3.299   3.048
 4591SOL     OW14668   2.674   3.448   2.549
 4591SOL    HW114669   2.706   3.458   2.455
 4591SOL    HW214670   2.595   3.386   2.551
 4592SOL     OW14671   3.286   2.076   2.974
 4592SOL    HW114672   3.338   2.011   3.029
 4592SOL    HW214673   3.237   2.139   3.035
 4593SOL     OW14674   2.863   1.896   3.016
 4593SOL    HW114675   2.800   1.824   2.985
 4593SOL    HW214676   2.956   1.860   3.016
 4594SOL     OW14677   2.632   3.192   2.163
 4594SOL    HW114678   2.586   3.105   2.180
 4594SOL    HW214679   2.723   3.189   2.204
 4595SOL     OW14680   2.480   3.429   3.146
 4595SOL    HW114681   2.475   3.511   3.203
 4595SOL    HW214682   2.569   3.426   3.101
 4596SOL     OW14683   3.214   1.914   2.030
 4596SOL    HW114684   3.249   1.873   1.946
 4596SOL    HW214685   3.124   1.876   2.050
 4597SOL     OW14686   3.162   2.315   2.553
 4597SOL    HW114687   3.103   2.395   2.557
 4597SOL    HW214688   3.177   2.280   2.646
 4598SOL     OW14689   3.455   2.083   2.744
 4598SOL    HW114690   3.371   2.082   2.798
 4598SOL    HW214691   3.457   2.166   2.688
 4599SOL     OW14692   1.901   2.939   2.162
 4599SOL    HW114693   2.000   2.928   2.153
 4599SOL    HW214694   1.861   2.853   2.194
 4600SOL     OW14695   2.737   3.508   2.199
 4600SOL    HW114696   2.660   3.473   2.145
 4600SOL    HW214697   2.705   3.579   2.261
 4601SOL     OW14698   2.092   2.490   3.837
 4601SOL    HW114699   1.999   2.488   3.874
 4601SOL    HW214700   2.093   2.451   3.745
 4602SOL     OW14701   1.881   2.230   4.371
 4602SOL    HW114702   1.799   2.273   4.410
 4602SOL    HW214703   1.853   2.157   4.308
 4603SOL     OW14704   2.431   3.137   4.889
 4603SOL    HW114705   2.338   3.130   4.852
 4603SOL    HW214706   2.442   3.226   4.933
 4604SOL     OW14707   3.417   3.373   4.427
 4604SOL    HW114708   3.360   3.357   4.508
 4604SOL    HW214709   3.358   3.383   4.347
 4605SOL     OW14710   2.997   2.565   4.441
 4605SOL    HW114711   3.054   2.643   4.416
 4605SOL    HW214712   2.937   2.591   4.517
 4606SOL     OW14713   3.617   2.469   3.955
 4606SOL    HW114714   3.605   2.456   3.856
 4606SOL    HW214715   3.587   2.388   4.004
 4607SOL     OW14716   2.712   2.660   5.547
 4607SOL    HW114717   2.708   2.736   5.612
 4607SOL    HW214718   2.734   2.696   5.456
 4608SOL     OW14719   2.547   2.874   4.389
 4608SOL    HW114720   2.616   2.858   4.459
 4608SOL    HW214721   2.474   2.931   4.427
 4609SOL     OW14722   2.548   3.023   5.527
 4609SOL    HW114723   2.608   3.102   5.541
 4609SOL    HW214724   2.462   3.054   5.486
 4610SOL     OW14725   2.197   3.297   4.785
 4610SOL    HW114726   2.119   3.266   4.732
 4610SOL    HW214727   2.255   3.355   4.728
 4611SOL     OW14728   3.322   3.367   5.063
 4611SOL    HW114729   3.346   3.461   5.089
 4611SOL    HW214730   3.306   3.313   5.145
 4612SOL     OW14731   3.465   2.309   4.461
 4612SOL    HW114732   3.391   2.355   4.411
 4612SOL    HW214733   3.516   2.377   4.514
 4613SOL     OW14734   2.093   3.575   4.207
 4613SOL    HW114735   2.127   3.652   4.261
 4613SOL    HW214736   2.137   3.575   4.117
 4614SOL     OW14737   2.989   3.203   5.414
 4614SOL    HW114738   3.036   3.203   5.502
 4614SOL    HW214739   2.941   3.116   5.403
 4615SOL     OW14740   2.092   3.296   4.262
 4615SOL    HW114741   2.066   3.392   4.262
 4615SOL    HW214742   2.021   3.242   4.307
 4616SOL     OW14743   2.102   2.953   4.610
 4616SOL    HW114744   2.116   2.869   4.662
 4616SOL    HW214745   2.047   3.017   4.665
 4617SOL     OW14746   2.482   3.648   5.163
 4617SOL    HW114747   2.390   3.631   5.198
 4617SOL    HW214748   2.510   3.740   5.189
 4618SOL     OW14749   2.468   2.826   3.847
 4618SOL    HW114750   2.475   2.910   3.793
 4618SOL    HW214751   2.514   2.839   3.935
 4619SOL     OW14752   3.456   1.976   5.204
 4619SOL    HW114753   3.438   2.043   5.132
 4619SOL    HW214754   3.453   2.022   5.293
 4620SOL     OW14755   1.984   2.505   4.287
 4620SOL    HW114756   1.939   2.417   4.304
 4620SOL    HW214757   1.983   2.559   4.371
 4621SOL     OW14758   3.704   3.629   4.083
 4621SOL    HW114759   3.758   3.600   4.163
 4621SOL    HW214760   3.734   3.719   4.054
 4622SOL     OW14761   1.889   3.458   3.841
 4622SOL    HW114762   1.870   3.362   3.862
 4622SOL    HW214763   1.856   3.516   3.916
 4623SOL     OW14764   3.551   2.784   4.336
 4623SOL    HW114765   3.646   2.755   4.344
 4623SOL    HW214766   3.543   2.849   4.261
 4624SOL     OW14767   3.503   2.970   4.156
 4624SOL    HW114768   3.589   2.972   4.104
 4624SOL    HW214769   3.517   3.017   4.244
 4625SOL     OW14770   2.475   3.227   4.450
 4625SOL    HW114771   2.426   3.140   4.459
 4625SOL    HW214772   2.452   3.270   4.363
 4626SOL     OW14773   3.155   3.090   5.147
 4626SOL    HW114774   3.192   3.017   5.089
 4626SOL    HW214775   3.207   3.095   5.232
 4627SOL     OW14776   2.671   1.866   4.226
 4627SOL    HW114777   2.711   1.957   4.217
 4627SOL    HW214778   2.571   1.874   4.232
 4628SOL     OW14779   3.387   2.861   3.914
 4628SOL    HW114780   3.324   2.785   3.927
 4628SOL    HW214781   3.435   2.879   4.000
 4629SOL     OW14782   3.049   3.654   5.340
 4629SOL    HW114783   3.073   3.714   5.264
 4629SOL    HW214784   3.056   3.559   5.310
 4630SOL     OW14785   3.328   3.279   4.677
 4630SOL    HW114786   3.269   3.285   4.757
 4630SOL    HW214787   3.313   3.191   4.631
 4631SOL     OW14788   3.529   3.576   4.296
 4631SOL    HW114789   3.488   3.553   4.208
 4631SOL    HW214790   3.511   3.502   4.361
 4632SOL     OW14791   2.460   2.591   3.994
 4632SOL    HW114792   2.484   2.660   3.926
 4632SOL    HW214793   2.382   2.624   4.048
 4633SOL     OW14794   3.438   3.524   4.031
 4633SOL    HW114795   3.527   3.570   4.034
 4633SOL    HW214796   3.417   3.500   3.936
 4634SOL     OW14797   2.669   2.467   5.189
 4634SOL    HW114798   2.622   2.464   5.278
 4634SOL    HW214799   2.618   2.412   5.123
 4635SOL     OW14800   3.256   2.331   5.398
 4635SOL    HW114801   3.236   2.374   5.486
 4635SOL    HW214802   3.334   2.269   5.407
 4636SOL     OW14803   2.903   2.563   4.153
 4636SOL    HW114804   2.929   2.559   4.249
 4636SOL    HW214805   2.818   2.512   4.139
 4637SOL     OW14806   1.992   3.683   5.295
 4637SOL    HW114807   1.982   3.668   5.394
 4637SOL    HW214808   1.906   3.719   5.259
 4638SOL     OW14809   2.727   2.210   3.919
 4638SOL    HW114810   2.786   2.273   3.870
 4638SOL    HW214811   2.746   2.116   3.890
 4639SOL     OW14812   3.581   2.447   5.555
 4639SOL    HW114813   3.555   2.536   5.519
 4639SOL    HW214814   3.579   2.379   5.482
 4640SOL     OW14815   3.224   3.006   4.269
 4640SOL    HW114816   3.307   2.977   4.221
 4640SOL    HW214817   3.175   3.073   4.213
 4641SOL     OW14818   2.870   3.318   4.201
 4641SOL    HW114819   2.824   3.390   4.149
 4641SOL    HW214820   2.866   3.338   4.299
 4642SOL     OW14821   2.213   3.663   4.577
 4642SOL    HW114822   2.263   3.577   4.583
 4642SOL    HW214823   2.278   3.740   4.574
 4643SOL     OW14824   3.657   2.928   4.597
 4643SOL    HW114825   3.595   2.913   4.521
 4643SOL    HW214826   3.605   2.939   4.682
 4644SOL     OW14827   3.089   3.412   5.230
 4644SOL    HW114828   3.095   3.335   5.294
 4644SOL    HW214829   3.037   3.386   5.150
 4645SOL     OW14830   2.183   2.805   3.966
 4645SOL    HW114831   2.265   2.844   3.924
 4645SOL    HW214832   2.156   2.723   3.917
 4646SOL     OW14833   3.320   2.597   4.452
 4646SOL    HW114834   3.315   2.532   4.527
 4646SOL    HW214835   3.400   2.656   4.465
 4647SOL     OW14836   2.973   3.638   3.961
 4647SOL    HW114837   2.913   3.576   4.011
 4647SOL    HW214838   3.004   3.594   3.876
 4648SOL     OW14839   3.494   3.239   3.805
 4648SOL    HW114840   3.462   3.333   3.795
 4648SOL    HW214841   3.418   3.176   3.793
 4649SOL     OW14842   2.326   3.605   4.047
 4649SOL    HW114843   2.359   3.644   4.133
 4649SOL    HW214844   2.402   3.598   3.982
 4650SOL     OW14845   3.262   1.969   4.150
 4650SOL    HW114846   3.238   1.932   4.060
 4650SOL    HW214847   3.361   1.985   4.154
 4651SOL     OW14848   2.111   3.647   4.965
 4651SOL    HW114849   2.168   3.582   5.015
 4651SOL    HW214850   2.095   3.614   4.872
 4652SOL     OW14851   2.802   3.560   4.628
 4652SOL    HW114852   2.882   3.503   4.649
 4652SOL    HW214853   2.753   3.520   4.551
 4653SOL     OW14854   2.244   2.562   4.204
 4653SOL    HW114855   2.289   2.472   4.201
 4653SOL    HW214856   2.150   2.551   4.237
 4654SOL     OW14857   3.409   2.084   5.453
 4654SOL    HW114858   3.404   2.121   5.545
 4654SOL    HW214859   3.337   2.015   5.441
 4655SOL     OW14860   2.476   1.984   3.841
 4655SOL    HW114861   2.574   1.962   3.848
 4655SOL    HW214862   2.445   1.967   3.748
 4656SOL     OW14863   2.643   2.126   5.473
 4656SOL    HW114864   2.710   2.065   5.516
 4656SOL    HW214865   2.570   2.145   5.538
 4657SOL     OW14866   2.750   3.376   4.919
 4657SOL    HW114867   2.727   3.351   4.825
 4657SOL    HW214868   2.811   3.307   4.958
 4658SOL     OW14869   2.665   3.264   4.648
 4658SOL    HW114870   2.755   3.278   4.606
 4658SOL    HW214871   2.594   3.266   4.577
 4659SOL     OW14872   2.401   1.926   4.236
 4659SOL    HW114873   2.320   1.927   4.294
 4659SOL    HW214874   2.404   2.009   4.181
 4660SOL     OW14875   3.296   3.050   3.765
 4660SOL    HW114876   3.328   2.974   3.822
 4660SOL    HW214877   3.204   3.077   3.795
 4661SOL     OW14878   2.797   2.098   4.204
 4661SOL    HW114879   2.749   2.139   4.126
 4661SOL    HW214880   2.896   2.096   4.185
 4662SOL     OW14881   3.089   3.432   4.517
 4662SOL    HW114882   3.110   3.506   4.452
 4662SOL    HW214883   3.157   3.432   4.590
 4663SOL     OW14884   2.321   3.014   4.465
 4663SOL    HW114885   2.250   2.987   4.530
 4663SOL    HW214886   2.295   2.986   4.372
 4664SOL     OW14887   3.133   3.659   4.315
 4664SOL    HW114888   3.177   3.723   4.251
 4664SOL    HW214889   3.083   3.711   4.385
 4665SOL     OW14890   2.894   2.411   3.740
 4665SOL    HW114891   2.853   2.493   3.701
 4665SOL    HW214892   2.958   2.437   3.813
 4666SOL     OW14893   1.940   2.418   5.110
 4666SOL    HW114894   2.032   2.417   5.069
 4666SOL    HW214895   1.934   2.492   5.177
 4667SOL     OW14896   2.423   2.084   4.871
 4667SOL    HW114897   2.461   2.000   4.908
 4667SOL    HW214898   2.335   2.103   4.915
 4668SOL     OW14899   3.291   3.035   4.591
 4668SOL    HW114900   3.236   2.951   4.584
 4668SOL    HW214901   3.317   3.064   4.499
 4669SOL     OW14902   3.328   2.452   4.716
 4669SOL    HW114903   3.298   2.357   4.723
 4669SOL    HW214904   3.401   2.468   4.782
 4670SOL     OW14905   3.719   2.695   4.101
 4670SOL    HW114906   3.761   2.631   4.165
 4670SOL    HW214907   3.681   2.644   4.023
 4671SOL     OW14908   2.350   3.247   3.898
 4671SOL    HW114909   2.263   3.232   3.945
 4671SOL    HW214910   2.333   3.273   3.803
 4672SOL     OW14911   3.526   3.142   4.381
 4672SOL    HW114912   3.625   3.150   4.395
 4672SOL    HW214913   3.481   3.226   4.412
 4673SOL     OW14914   3.252   2.437   3.802
 4673SOL    HW114915   3.198   2.416   3.883
 4673SOL    HW214916   3.343   2.396   3.811
 4674SOL     OW14917   3.616   3.085   5.312
 4674SOL    HW114918   3.707   3.046   5.299
 4674SOL    HW214919   3.624   3.181   5.336
 4675SOL     OW14920   2.926   3.209   5.064
 4675SOL    HW114921   2.846   3.186   5.119
 4675SOL    HW214922   3.009   3.183   5.113
 4676SOL     OW14923   3.454   3.491   5.349
 4676SOL    HW114924   3.481   3.525   5.259
 4676SOL    HW214925   3.533   3.453   5.395
 4677SOL     OW14926   3.500   2.961   4.803
 4677SOL    HW114927   3.505   3.042   4.862
 4677SOL    HW214928   3.414   2.963   4.752
 4678SOL     OW14929   2.842   2.978   5.443
 4678SOL    HW114930   2.743   2.984   5.453
 4678SOL    HW214931   2.865   2.898   5.387
 4679SOL     OW14932   2.567   2.912   4.092
 4679SOL    HW114933   2.553   2.919   4.191
 4679SOL    HW214934   2.651   2.861   4.074
 4680SOL     OW14935   1.926   3.426   5.055
 4680SOL    HW114936   1.880   3.508   5.021
 4680SOL    HW214937   2.024   3.445   5.064
 4681SOL     OW14938   2.229   2.962   4.225
 4681SOL    HW114939   2.222   3.045   4.169
 4681SOL    HW214940   2.233   2.882   4.165
 4682SOL     OW14941   3.114   3.210   4.112
 4682SOL    HW114942   3.164   3.287   4.152
 4682SOL    HW214943   3.019   3.212   4.144
 4683SOL     OW14944   3.134   3.307   4.866
 4683SOL    HW114945   3.181   3.320   4.953
 4683SOL    HW214946   3.068   3.233   4.875
 4684SOL     OW14947   3.444   2.501   4.196
 4684SOL    HW114948   3.413   2.562   4.269
 4684SOL    HW214949   3.494   2.553   4.127
 4685SOL     OW14950   2.216   3.372   5.053
 4685SOL    HW114951   2.195   3.328   4.966
 4685SOL    HW214952   2.313   3.398   5.056
 4686SOL     OW14953   3.449   2.641   5.394
 4686SOL    HW114954   3.357   2.679   5.389
 4686SOL    HW214955   3.509   2.688   5.329
 4687SOL     OW14956   3.222   2.724   4.769
 4687SOL    HW114957   3.147   2.724   4.703
 4687SOL    HW214958   3.259   2.632   4.778
 4688SOL     OW14959   3.071   2.387   3.999
 4688SOL    HW114960   3.084   2.303   4.053
 4688SOL    HW214961   3.042   2.461   4.059
 4689SOL     OW14962   1.899   3.172   5.006
 4689SOL    HW114963   1.952   3.123   5.074
 4689SOL    HW214964   1.921   3.270   5.011
 4690SOL     OW14965   3.590   2.797   5.578
 4690SOL    HW114966   3.544   2.790   5.489
 4690SOL    HW214967   3.528   2.841   5.644
 4691SOL     OW14968   3.484   2.229   4.098
 4691SOL    HW114969   3.486   2.153   4.162
 4691SOL    HW214970   3.436   2.306   4.138
 4692SOL     OW14971   2.842   3.435   5.424
 4692SOL    HW114972   2.822   3.479   5.336
 4692SOL    HW214973   2.881   3.344   5.408
 4693SOL     OW14974   3.721   3.380   5.329
 4693SOL    HW114975   3.735   3.407   5.234
 4693SOL    HW214976   3.804   3.402   5.382
 4694SOL     OW14977   3.402   2.136   3.849
 4694SOL    HW114978   3.341   2.061   3.872
 4694SOL    HW214979   3.424   2.188   3.932
 4695SOL     OW14980   3.165   2.700   3.766
 4695SOL    HW114981   3.199   2.607   3.781
 4695SOL    HW214982   3.183   2.727   3.671
 4696SOL     OW14983   2.930   3.195   4.573
 4696SOL    HW114984   2.937   3.111   4.518
 4696SOL    HW214985   2.992   3.264   4.537
 4697SOL     OW14986   1.870   3.188   3.924
 4697SOL    HW114987   1.777   3.209   3.893
 4697SOL    HW214988   1.880   3.089   3.937
 4698SOL     OW14989   1.950   3.663   4.651
 4698SOL    HW114990   1.908   3.577   4.624
 4698SOL    HW214991   2.044   3.666   4.617
 4699SOL     OW14992   2.366   3.430   4.634
 4699SOL    HW114993   2.432   3.504   4.643
 4699SOL    HW214994   2.410   3.351   4.592
 4700SOL     OW14995   3.231   2.812   5.384
 4700SOL    HW114996   3.270   2.901   5.404
 4700SOL    HW214997   3.241   2.792   5.287
 4701SOL     OW14998   3.519   2.466   4.930
 4701SOL    HW114999   3.481   2.397   4.992
 4701SOL    HW215000   3.601   2.430   4.886
 4702SOL     OW15001   2.114   3.426   5.468
 4702SOL    HW115002   2.084   3.483   5.544
 4702SOL    HW215003   2.107   3.329   5.494
 4703SOL     OW15004   2.792   3.540   5.189
 4703SOL    HW115005   2.768   3.522   5.094
 4703SOL    HW215006   2.822   3.634   5.199
 4704SOL     OW15007   3.209   2.921   4.958
 4704SOL    HW115008   3.233   2.858   4.884
 4704SOL    HW215009   3.119   2.961   4.940
 4705SOL     OW15010   3.164   2.717   4.033
 4705SOL    HW115011   3.078   2.686   4.075
 4705SOL    HW215012   3.160   2.703   3.934
 4706SOL     OW15013   3.621   3.609   4.878
 4706SOL    HW115014   3.682   3.639   4.805
 4706SOL    HW215015   3.583   3.520   4.856
 4707SOL     OW15016   3.114   3.593   4.852
 4707SOL    HW115017   3.198   3.598   4.798
 4707SOL    HW215018   3.091   3.497   4.870
 4708SOL     OW15019   2.550   3.524   5.440
 4708SOL    HW115020   2.494   3.605   5.449
 4708SOL    HW215021   2.602   3.528   5.354
 4709SOL     OW15022   3.588   1.997   4.247
 4709SOL    HW115023   3.661   1.980   4.180
 4709SOL    HW215024   3.557   1.910   4.285
 4710SOL     OW15025   3.250   3.435   4.201
 4710SOL    HW115026   3.317   3.447   4.127
 4710SOL    HW215027   3.210   3.524   4.224
 4711SOL     OW15028   1.992   3.656   5.575
 4711SOL    HW115029   1.951   3.582   5.628
 4711SOL    HW215030   2.056   3.707   5.633
 4712SOL     OW15031   3.142   2.789   4.396
 4712SOL    HW115032   3.202   2.708   4.398
 4712SOL    HW215033   3.182   2.858   4.336
 4713SOL     OW15034   2.534   3.478   3.878
 4713SOL    HW115035   2.543   3.488   3.779
 4713SOL    HW215036   2.494   3.389   3.899
 4714SOL     OW15037   3.512   3.582   5.118
 4714SOL    HW115038   3.565   3.592   5.034
 4714SOL    HW215039   3.485   3.672   5.152
 4715SOL     OW15040   3.703   2.037   4.687
 4715SOL    HW115041   3.742   1.952   4.651
 4715SOL    HW215042   3.605   2.039   4.668
 4716SOL     OW15043   3.056   3.474   3.755
 4716SOL    HW115044   3.062   3.381   3.792
 4716SOL    HW215045   2.997   3.474   3.675
 4717SOL     OW15046   2.778   2.772   4.015
 4717SOL    HW115047   2.841   2.810   3.947
 4717SOL    HW215048   2.818   2.689   4.054
 4718SOL     OW15049   3.366   3.469   3.768
 4718SOL    HW115050   3.274   3.506   3.775
 4718SOL    HW215051   3.404   3.489   3.678
 4719SOL     OW15052   2.234   3.150   5.214
 4719SOL    HW115053   2.221   3.243   5.180
 4719SOL    HW215054   2.150   3.098   5.201
 4720SOL     OW15055   3.476   3.154   5.013
 4720SOL    HW115056   3.536   3.157   5.093
 4720SOL    HW215057   3.401   3.218   5.026
 4721SOL     OW15058   2.901   2.960   4.420
 4721SOL    HW115059   2.831   2.913   4.474
 4721SOL    HW215060   2.960   2.892   4.377
 4722SOL     OW15061   2.452   3.349   4.215
 4722SOL    HW115062   2.494   3.291   4.145
 4722SOL    HW215063   2.408   3.428   4.171
 4723SOL     OW15064   3.571   2.247   5.105
 4723SOL    HW115065   3.644   2.316   5.109
 4723SOL    HW215066   3.599   2.172   5.046
 4724SOL     OW15067   2.117   3.210   4.014
 4724SOL    HW115068   2.021   3.211   3.987
 4724SOL    HW215069   2.129   3.263   4.098
 4725SOL     OW15070   1.937   2.207   3.757
 4725SOL    HW115071   1.845   2.179   3.728
 4725SOL    HW215072   1.968   2.284   3.701
 4726SOL     OW15073   3.302   2.718   5.122
 4726SOL    HW115074   3.245   2.770   5.059
 4726SOL    HW215075   3.398   2.730   5.098
 4727SOL     OW15076   3.045   3.197   3.843
 4727SOL    HW115077   2.946   3.186   3.845
 4727SOL    HW215078   3.079   3.212   3.936
 4728SOL     OW15079   3.355   3.629   4.683
 4728SOL    HW115080   3.388   3.693   4.614
 4728SOL    HW215081   3.421   3.623   4.758
 4729SOL     OW15082   3.312   3.082   5.357
 4729SOL    HW115083   3.303   3.072   5.456
 4729SOL    HW215084   3.408   3.075   5.331
 4730SOL     OW15085   2.252   3.603   5.284
 4730SOL    HW115086   2.161   3.644   5.282
 4730SOL    HW215087   2.245   3.509   5.316
 4731SOL     OW15088   3.536   2.745   4.978
 4731SOL    HW115089   3.509   2.656   4.941
 4731SOL    HW215090   3.537   2.813   4.905
 4732SOL     OW15091   3.087   2.187   4.173
 4732SOL    HW115092   3.152   2.113   4.162
 4732SOL    HW215093   3.107   2.237   4.257
 4733SOL     OW15094   2.456   2.607   4.376
 4733SOL    HW115095   2.506   2.692   4.357
 4733SOL    HW215096   2.368   2.609   4.328
 4734SOL     OW15097   3.639   2.204   5.366
 4734SOL    HW115098   3.622   2.235   5.272
 4734SOL    HW215099   3.555   2.167   5.404
 4735SOL     OW15100   3.592   2.796   5.241
 4735SOL    HW115101   3.630   2.887   5.256
 4735SOL    HW215102   3.584   2.779   5.142
 4736SOL     OW15103   2.721   3.236   3.740
 4736SOL    HW115104   2.675   3.251   3.828
 4736SOL    HW215105   2.765   3.321   3.710
 4737SOL     OW15106   2.523   3.652   4.677
 4737SOL    HW115107   2.477   3.740   4.664
 4737SOL    HW215108   2.622   3.664   4.670
 4738SOL     OW15109   2.945   2.846   3.811
 4738SOL    HW115110   2.922   2.899   3.729
 4738SOL    HW215111   3.026   2.790   3.792
 4739SOL     OW15112   3.723   3.431   4.575
 4739SOL    HW115113   3.652   3.419   4.505
 4739SOL    HW215114   3.724   3.352   4.635
 4740SOL     OW15115   2.083   3.176   5.568
 4740SOL    HW115116   2.018   3.103   5.547
 4740SOL    HW215117   2.087   3.190   5.666
 4741SOL     OW15118   1.941   3.102   4.377
 4741SOL    HW115119   1.940   3.055   4.465
 4741SOL    HW215120   2.023   3.074   4.326
 4742SOL     OW15121   2.534   3.253   5.348
 4742SOL    HW115122   2.456   3.203   5.386
 4742SOL    HW215123   2.531   3.348   5.379
 4743SOL     OW15124   3.686   2.054   4.951
 4743SOL    HW115125   3.682   1.964   4.995
 4743SOL    HW215126   3.689   2.043   4.852
 4744SOL     OW15127   3.567   3.349   4.828
 4744SOL    HW115128   3.474   3.324   4.801
 4744SOL    HW215129   3.593   3.299   4.910
 4745SOL     OW15130   2.674   3.448   4.411
 4745SOL    HW115131   2.706   3.458   4.317
 4745SOL    HW215132   2.595   3.386   4.413
 4746SOL     OW15133   3.286   2.076   4.836
 4746SOL    HW115134   3.338   2.011   4.891
 4746SOL    HW215135   3.237   2.139   4.897
 4747SOL     OW15136   2.632   3.192   4.025
 4747SOL    HW115137   2.586   3.105   4.042
 4747SOL    HW215138   2.723   3.189   4.066
 4748SOL     OW15139   2.480   3.429   5.008
 4748SOL    HW115140   2.475   3.511   5.065
 4748SOL    HW215141   2.569   3.426   4.963
 4749SOL     OW15142   3.214   1.914   3.892
 4749SOL    HW115143   3.249   1.873   3.808
 4749SOL    HW215144   3.124   1.876   3.912
 4750SOL     OW15145   3.162   2.315   4.415
 4750SOL    HW115146   3.103   2.395   4.419
 4750SOL    HW215147   3.177   2.280   4.508
 4751SOL     OW15148   3.455   2.083   4.606
 4751SOL    HW115149   3.371   2.082   4.660
 4751SOL    HW215150   3.457   2.166   4.550
 4752SOL     OW15151   1.901   2.939   4.024
 4752SOL    HW115152   2.000   2.928   4.015
 4752SOL    HW215153   1.861   2.853   4.056
 4753SOL     OW15154   2.737   3.508   4.061
 4753SOL    HW115155   2.660   3.473   4.007
 4753SOL    HW215156   2.705   3.579   4.123
 4754SOL     OW15157   2.092   2.490   5.699
 4754SOL    HW115158   1.999   2.488   5.736
 4754SOL    HW215159   2.093   2.451   5.607
 4755SOL     OW15160   2.431   3.137   6.751
 4755SOL    HW115161   2.338   3.130   6.714
 4755SOL    HW215162   2.442   3.226   6.795
 4756SOL     OW15163   3.417   3.373   6.289
 4756SOL    HW115164   3.360   3.357   6.370
 4756SOL    HW215165   3.358   3.383   6.209
 4757SOL     OW15166   3.617   2.469   5.817
 4757SOL    HW115167   3.605   2.456   5.718
 4757SOL    HW215168   3.587   2.388   5.866
 4758SOL     OW15169   2.630   3.006   6.609
 4758SOL    HW115170   2.552   3.023   6.669
 4758SOL    HW215171   2.664   3.093   6.573
 4759SOL     OW15172   2.712   2.660   7.409
 4759SOL    HW115173   2.708   2.736   7.474
 4759SOL    HW215174   2.734   2.696   7.318
 4760SOL     OW15175   2.548   3.023   7.389
 4760SOL    HW115176   2.608   3.102   7.403
 4760SOL    HW215177   2.462   3.054   7.348
 4761SOL     OW15178   2.197   3.297   6.647
 4761SOL    HW115179   2.119   3.266   6.594
 4761SOL    HW215180   2.255   3.355   6.590
 4762SOL     OW15181   3.322   3.367   6.925
 4762SOL    HW115182   3.346   3.461   6.951
 4762SOL    HW215183   3.306   3.313   7.007
 4763SOL     OW15184   3.465   2.309   6.323
 4763SOL    HW115185   3.391   2.355   6.273
 4763SOL    HW215186   3.516   2.377   6.376
 4764SOL     OW15187   2.093   3.575   6.069
 4764SOL    HW115188   2.127   3.652   6.123
 4764SOL    HW215189   2.137   3.575   5.979
 4765SOL     OW15190   2.989   3.203   7.276
 4765SOL    HW115191   3.036   3.203   7.364
 4765SOL    HW215192   2.941   3.116   7.265
 4766SOL     OW15193   2.092   3.296   6.124
 4766SOL    HW115194   2.066   3.392   6.124
 4766SOL    HW215195   2.021   3.242   6.169
 4767SOL     OW15196   2.102   2.953   6.472
 4767SOL    HW115197   2.116   2.869   6.524
 4767SOL    HW215198   2.047   3.017   6.527
 4768SOL     OW15199   2.482   3.648   7.025
 4768SOL    HW115200   2.390   3.631   7.060
 4768SOL    HW215201   2.510   3.740   7.051
 4769SOL     OW15202   3.456   1.976   7.066
 4769SOL    HW115203   3.438   2.043   6.994
 4769SOL    HW215204   3.453   2.022   7.155
 4770SOL     OW15205   3.704   3.629   5.945
 4770SOL    HW115206   3.758   3.600   6.025
 4770SOL    HW215207   3.734   3.719   5.916
 4771SOL     OW15208   1.889   3.458   5.703
 4771SOL    HW115209   1.870   3.362   5.724
 4771SOL    HW215210   1.856   3.516   5.778
 4772SOL     OW15211   3.551   2.784   6.198
 4772SOL    HW115212   3.646   2.755   6.206
 4772SOL    HW215213   3.543   2.849   6.123
 4773SOL     OW15214   3.503   2.970   6.018
 4773SOL    HW115215   3.589   2.972   5.966
 4773SOL    HW215216   3.517   3.017   6.106
 4774SOL     OW15217   1.975   2.599   7.183
 4774SOL    HW115218   2.063   2.586   7.228
 4774SOL    HW215219   1.962   2.696   7.161
 4775SOL     OW15220   2.475   3.227   6.312
 4775SOL    HW115221   2.426   3.140   6.321
 4775SOL    HW215222   2.452   3.270   6.225
 4776SOL     OW15223   3.155   3.090   7.009
 4776SOL    HW115224   3.192   3.017   6.951
 4776SOL    HW215225   3.207   3.095   7.094
 4777SOL     OW15226   2.059   2.838   6.850
 4777SOL    HW115227   2.148   2.793   6.836
 4777SOL    HW215228   1.986   2.773   6.831
 4778SOL     OW15229   3.387   2.861   5.776
 4778SOL    HW115230   3.324   2.785   5.789
 4778SOL    HW215231   3.435   2.879   5.862
 4779SOL     OW15232   3.049   3.654   7.202
 4779SOL    HW115233   3.073   3.714   7.126
 4779SOL    HW215234   3.056   3.559   7.172
 4780SOL     OW15235   3.328   3.279   6.539
 4780SOL    HW115236   3.269   3.285   6.619
 4780SOL    HW215237   3.313   3.191   6.493
 4781SOL     OW15238   3.529   3.576   6.158
 4781SOL    HW115239   3.488   3.553   6.070
 4781SOL    HW215240   3.511   3.502   6.223
 4782SOL     OW15241   3.143   2.207   6.530
 4782SOL    HW115242   3.057   2.157   6.517
 4782SOL    HW215243   3.205   2.153   6.586
 4783SOL     OW15244   3.438   3.524   5.893
 4783SOL    HW115245   3.527   3.570   5.896
 4783SOL    HW215246   3.417   3.500   5.798
 4784SOL     OW15247   3.256   2.331   7.260
 4784SOL    HW115248   3.236   2.374   7.348
 4784SOL    HW215249   3.334   2.269   7.269
 4785SOL     OW15250   2.835   2.752   7.158
 4785SOL    HW115251   2.881   2.668   7.129
 4785SOL    HW215252   2.779   2.786   7.083
 4786SOL     OW15253   2.853   2.272   6.828
 4786SOL    HW115254   2.776   2.306   6.882
 4786SOL    HW215255   2.819   2.221   6.749
 4787SOL     OW15256   1.992   3.683   7.157
 4787SOL    HW115257   1.982   3.668   7.256
 4787SOL    HW215258   1.906   3.719   7.121
 4788SOL     OW15259   3.581   2.447   7.417
 4788SOL    HW115260   3.555   2.536   7.381
 4788SOL    HW215261   3.579   2.379   7.344
 4789SOL     OW15262   3.224   3.006   6.131
 4789SOL    HW115263   3.307   2.977   6.083
 4789SOL    HW215264   3.175   3.073   6.075
 4790SOL     OW15265   2.870   3.318   6.063
 4790SOL    HW115266   2.824   3.390   6.011
 4790SOL    HW215267   2.866   3.338   6.161
 4791SOL     OW15268   2.213   3.663   6.439
 4791SOL    HW115269   2.263   3.577   6.445
 4791SOL    HW215270   2.278   3.740   6.436
 4792SOL     OW15271   3.657   2.928   6.459
 4792SOL    HW115272   3.595   2.913   6.383
 4792SOL    HW215273   3.605   2.939   6.544
 4793SOL     OW15274   3.089   3.412   7.092
 4793SOL    HW115275   3.095   3.335   7.156
 4793SOL    HW215276   3.037   3.386   7.012
 4794SOL     OW15277   3.320   2.597   6.314
 4794SOL    HW115278   3.315   2.532   6.389
 4794SOL    HW215279   3.400   2.656   6.327
 4795SOL     OW15280   2.323   3.128   7.313
 4795SOL    HW115281   2.273   3.129   7.227
 4795SOL    HW215282   2.260   3.110   7.389
 4796SOL     OW15283   2.973   3.638   5.823
 4796SOL    HW115284   2.913   3.576   5.873
 4796SOL    HW215285   3.004   3.594   5.738
 4797SOL     OW15286   3.494   3.239   5.667
 4797SOL    HW115287   3.462   3.333   5.657
 4797SOL    HW215288   3.418   3.176   5.655
 4798SOL     OW15289   2.326   3.605   5.909
 4798SOL    HW115290   2.359   3.644   5.995
 4798SOL    HW215291   2.402   3.598   5.844
 4799SOL     OW15292   3.262   1.969   6.012
 4799SOL    HW115293   3.238   1.932   5.922
 4799SOL    HW215294   3.361   1.985   6.016
 4800SOL     OW15295   2.111   3.647   6.827
 4800SOL    HW115296   2.168   3.582   6.877
 4800SOL    HW215297   2.095   3.614   6.734
 4801SOL     OW15298   2.802   3.560   6.490
 4801SOL    HW115299   2.882   3.503   6.511
 4801SOL    HW215300   2.753   3.520   6.413
 4802SOL     OW15301   3.409   2.084   7.315
 4802SOL    HW115302   3.404   2.121   7.407
 4802SOL    HW215303   3.337   2.015   7.303
 4803SOL     OW15304   2.476   1.984   5.703
 4803SOL    HW115305   2.574   1.962   5.710
 4803SOL    HW215306   2.445   1.967   5.610
 4804SOL     OW15307   2.643   2.126   7.335
 4804SOL    HW115308   2.710   2.065   7.378
 4804SOL    HW215309   2.570   2.145   7.400
 4805SOL     OW15310   2.750   3.376   6.781
 4805SOL    HW115311   2.727   3.351   6.687
 4805SOL    HW215312   2.811   3.307   6.820
 4806SOL     OW15313   3.213   2.452   7.019
 4806SOL    HW115314   3.241   2.409   7.104
 4806SOL    HW215315   3.238   2.548   7.020
 4807SOL     OW15316   2.665   3.264   6.510
 4807SOL    HW115317   2.755   3.278   6.468
 4807SOL    HW215318   2.594   3.266   6.439
 4808SOL     OW15319   3.296   3.050   5.627
 4808SOL    HW115320   3.328   2.974   5.684
 4808SOL    HW215321   3.204   3.077   5.657
 4809SOL     OW15322   2.938   2.545   7.050
 4809SOL    HW115323   2.858   2.484   7.053
 4809SOL    HW215324   3.019   2.492   7.026
 4810SOL     OW15325   3.089   3.432   6.379
 4810SOL    HW115326   3.110   3.506   6.314
 4810SOL    HW215327   3.157   3.432   6.452
 4811SOL     OW15328   3.133   3.659   6.177
 4811SOL    HW115329   3.177   3.723   6.113
 4811SOL    HW215330   3.083   3.711   6.247
 4812SOL     OW15331   1.940   2.418   6.972
 4812SOL    HW115332   2.032   2.417   6.931
 4812SOL    HW215333   1.934   2.492   7.039
 4813SOL     OW15334   3.291   3.035   6.453
 4813SOL    HW115335   3.236   2.951   6.446
 4813SOL    HW215336   3.317   3.064   6.361
 4814SOL     OW15337   3.328   2.452   6.578
 4814SOL    HW115338   3.298   2.357   6.585
 4814SOL    HW215339   3.401   2.468   6.644
 4815SOL     OW15340   3.719   2.695   5.963
 4815SOL    HW115341   3.761   2.631   6.027
 4815SOL    HW215342   3.681   2.644   5.885
 4816SOL     OW15343   2.350   3.247   5.760
 4816SOL    HW115344   2.263   3.232   5.807
 4816SOL    HW215345   2.333   3.273   5.665
 4817SOL     OW15346   3.526   3.142   6.243
 4817SOL    HW115347   3.625   3.150   6.257
 4817SOL    HW215348   3.481   3.226   6.274
 4818SOL     OW15349   3.252   2.437   5.664
 4818SOL    HW115350   3.198   2.416   5.745
 4818SOL    HW215351   3.343   2.396   5.673
 4819SOL     OW15352   3.616   3.085   7.174
 4819SOL    HW115353   3.707   3.046   7.161
 4819SOL    HW215354   3.624   3.181   7.198
 4820SOL     OW15355   2.926   3.209   6.926
 4820SOL    HW115356   2.846   3.186   6.981
 4820SOL    HW215357   3.009   3.183   6.975
 4821SOL     OW15358   3.454   3.491   7.211
 4821SOL    HW115359   3.481   3.525   7.121
 4821SOL    HW215360   3.533   3.453   7.257
 4822SOL     OW15361   2.973   3.057   6.686
 4822SOL    HW115362   2.933   3.101   6.767
 4822SOL    HW215363   2.932   3.094   6.603
 4823SOL     OW15364   3.500   2.961   6.665
 4823SOL    HW115365   3.505   3.042   6.724
 4823SOL    HW215366   3.414   2.963   6.614
 4824SOL     OW15367   2.777   1.951   6.988
 4824SOL    HW115368   2.802   1.931   6.893
 4824SOL    HW215369   2.849   2.007   7.030
 4825SOL     OW15370   2.842   2.978   7.305
 4825SOL    HW115371   2.743   2.984   7.315
 4825SOL    HW215372   2.865   2.898   7.249
 4826SOL     OW15373   2.272   2.675   6.837
 4826SOL    HW115374   2.358   2.687   6.887
 4826SOL    HW215375   2.230   2.588   6.864
 4827SOL     OW15376   3.136   2.248   6.848
 4827SOL    HW115377   3.157   2.322   6.912
 4827SOL    HW215378   3.047   2.265   6.805
 4828SOL     OW15379   1.926   3.426   6.917
 4828SOL    HW115380   1.880   3.508   6.883
 4828SOL    HW215381   2.024   3.445   6.926
 4829SOL     OW15382   3.114   3.210   5.974
 4829SOL    HW115383   3.164   3.287   6.014
 4829SOL    HW215384   3.019   3.212   6.006
 4830SOL     OW15385   3.134   3.307   6.728
 4830SOL    HW115386   3.181   3.320   6.815
 4830SOL    HW215387   3.068   3.233   6.737
 4831SOL     OW15388   3.444   2.501   6.058
 4831SOL    HW115389   3.413   2.562   6.131
 4831SOL    HW215390   3.494   2.553   5.989
 4832SOL     OW15391   2.216   3.372   6.915
 4832SOL    HW115392   2.195   3.328   6.828
 4832SOL    HW215393   2.313   3.398   6.918
 4833SOL     OW15394   3.449   2.641   7.256
 4833SOL    HW115395   3.357   2.679   7.251
 4833SOL    HW215396   3.509   2.688   7.191
 4834SOL     OW15397   2.875   1.967   7.356
 4834SOL    HW115398   2.881   2.052   7.304
 4834SOL    HW215399   2.907   1.891   7.299
 4835SOL     OW15400   2.366   1.912   7.326
 4835SOL    HW115401   2.324   1.855   7.256
 4835SOL    HW215402   2.300   1.981   7.358
 4836SOL     OW15403   3.222   2.724   6.631
 4836SOL    HW115404   3.147   2.724   6.565
 4836SOL    HW215405   3.259   2.632   6.640
 4837SOL     OW15406   1.899   3.172   6.868
 4837SOL    HW115407   1.952   3.123   6.936
 4837SOL    HW215408   1.921   3.270   6.873
 4838SOL     OW15409   2.594   2.496   6.650
 4838SOL    HW115410   2.653   2.470   6.574
 4838SOL    HW215411   2.566   2.592   6.639
 4839SOL     OW15412   3.590   2.797   7.440
 4839SOL    HW115413   3.544   2.790   7.351
 4839SOL    HW215414   3.528   2.841   7.506
 4840SOL     OW15415   3.484   2.229   5.960
 4840SOL    HW115416   3.486   2.153   6.024
 4840SOL    HW215417   3.436   2.306   6.000
 4841SOL     OW15418   2.842   3.435   7.286
 4841SOL    HW115419   2.822   3.479   7.198
 4841SOL    HW215420   2.881   3.344   7.270
 4842SOL     OW15421   3.721   3.380   7.191
 4842SOL    HW115422   3.735   3.407   7.096
 4842SOL    HW215423   3.804   3.402   7.244
 4843SOL     OW15424   2.212   2.760   7.390
 4843SOL    HW115425   2.288   2.804   7.438
 4843SOL    HW215426   2.247   2.713   7.308
 4844SOL     OW15427   3.402   2.136   5.711
 4844SOL    HW115428   3.341   2.061   5.734
 4844SOL    HW215429   3.424   2.188   5.794
 4845SOL     OW15430   3.165   2.700   5.628
 4845SOL    HW115431   3.199   2.607   5.643
 4845SOL    HW215432   3.183   2.727   5.533
 4846SOL     OW15433   2.930   3.195   6.435
 4846SOL    HW115434   2.937   3.111   6.380
 4846SOL    HW215435   2.992   3.264   6.399
 4847SOL     OW15436   3.000   2.242   7.264
 4847SOL    HW115437   2.955   2.305   7.328
 4847SOL    HW215438   3.093   2.273   7.247
 4848SOL     OW15439   3.022   2.069   7.063
 4848SOL    HW115440   3.022   2.133   7.140
 4848SOL    HW215441   3.050   2.117   6.980
 4849SOL     OW15442   1.950   3.663   6.513
 4849SOL    HW115443   1.908   3.577   6.486
 4849SOL    HW215444   2.044   3.666   6.479
 4850SOL     OW15445   2.366   3.430   6.496
 4850SOL    HW115446   2.432   3.504   6.505
 4850SOL    HW215447   2.410   3.351   6.454
 4851SOL     OW15448   2.864   2.658   6.824
 4851SOL    HW115449   2.905   2.626   6.910
 4851SOL    HW215450   2.768   2.631   6.821
 4852SOL     OW15451   3.231   2.812   7.246
 4852SOL    HW115452   3.270   2.901   7.266
 4852SOL    HW215453   3.241   2.792   7.149
 4853SOL     OW15454   3.519   2.466   6.792
 4853SOL    HW115455   3.481   2.397   6.854
 4853SOL    HW215456   3.601   2.430   6.748
 4854SOL     OW15457   2.114   3.426   7.330
 4854SOL    HW115458   2.084   3.483   7.406
 4854SOL    HW215459   2.107   3.329   7.356
 4855SOL     OW15460   2.792   3.540   7.051
 4855SOL    HW115461   2.768   3.522   6.956
 4855SOL    HW215462   2.822   3.634   7.061
 4856SOL     OW15463   2.021   2.999   7.052
 4856SOL    HW115464   2.043   2.938   7.128
 4856SOL    HW215465   2.031   2.950   6.966
 4857SOL     OW15466   3.209   2.921   6.820
 4857SOL    HW115467   3.233   2.858   6.746
 4857SOL    HW215468   3.119   2.961   6.802
 4858SOL     OW15469   3.164   2.717   5.895
 4858SOL    HW115470   3.078   2.686   5.937
 4858SOL    HW215471   3.160   2.703   5.796
 4859SOL     OW15472   3.621   3.609   6.740
 4859SOL    HW115473   3.682   3.639   6.667
 4859SOL    HW215474   3.583   3.520   6.718
 4860SOL     OW15475   3.114   3.593   6.714
 4860SOL    HW115476   3.198   3.598   6.660
 4860SOL    HW215477   3.091   3.497   6.732
 4861SOL     OW15478   1.945   3.120   6.608
 4861SOL    HW115479   1.940   3.119   6.708
 4861SOL    HW215480   1.862   3.079   6.570
 4862SOL     OW15481   2.550   3.524   7.302
 4862SOL    HW115482   2.494   3.605   7.311
 4862SOL    HW215483   2.602   3.528   7.216
 4863SOL     OW15484   3.588   1.997   6.109
 4863SOL    HW115485   3.661   1.980   6.042
 4863SOL    HW215486   3.557   1.910   6.147
 4864SOL     OW15487   3.250   3.435   6.063
 4864SOL    HW115488   3.317   3.447   5.989
 4864SOL    HW215489   3.210   3.524   6.086
 4865SOL     OW15490   1.992   3.656   7.437
 4865SOL    HW115491   1.951   3.582   7.490
 4865SOL    HW215492   2.056   3.707   7.495
 4866SOL     OW15493   3.142   2.789   6.258
 4866SOL    HW115494   3.202   2.708   6.260
 4866SOL    HW215495   3.182   2.858   6.198
 4867SOL     OW15496   2.692   3.135   7.008
 4867SOL    HW115497   2.687   3.168   7.103
 4867SOL    HW215498   2.606   3.154   6.962
 4868SOL     OW15499   2.534   3.478   5.740
 4868SOL    HW115500   2.543   3.488   5.641
 4868SOL    HW215501   2.494   3.389   5.761
 4869SOL     OW15502   3.512   3.582   6.980
 4869SOL    HW115503   3.565   3.592   6.896
 4869SOL    HW215504   3.485   3.672   7.014
 4870SOL     OW15505   3.703   2.037   6.549
 4870SOL    HW115506   3.742   1.952   6.513
 4870SOL    HW215507   3.605   2.039   6.530
 4871SOL     OW15508   3.056   3.474   5.617
 4871SOL    HW115509   3.062   3.381   5.654
 4871SOL    HW215510   2.997   3.474   5.537
 4872SOL     OW15511   2.684   2.864   6.958
 4872SOL    HW115512   2.724   2.863   6.866
 4872SOL    HW215513   2.694   2.956   6.998
 4873SOL     OW15514   3.366   3.469   5.630
 4873SOL    HW115515   3.274   3.506   5.637
 4873SOL    HW215516   3.404   3.489   5.540
 4874SOL     OW15517   2.234   3.150   7.076
 4874SOL    HW115518   2.221   3.243   7.042
 4874SOL    HW215519   2.150   3.098   7.063
 4875SOL     OW15520   3.476   3.154   6.875
 4875SOL    HW115521   3.536   3.157   6.955
 4875SOL    HW215522   3.401   3.218   6.888
 4876SOL     OW15523   2.452   3.349   6.077
 4876SOL    HW115524   2.494   3.291   6.007
 4876SOL    HW215525   2.408   3.428   6.033
 4877SOL     OW15526   3.571   2.247   6.967
 4877SOL    HW115527   3.644   2.316   6.971
 4877SOL    HW215528   3.599   2.172   6.908
 4878SOL     OW15529   2.117   3.210   5.876
 4878SOL    HW115530   2.021   3.211   5.849
 4878SOL    HW215531   2.129   3.263   5.960
 4879SOL     OW15532   1.967   2.875   7.312
 4879SOL    HW115533   1.890   2.842   7.366
 4879SOL    HW215534   2.052   2.845   7.354
 4880SOL     OW15535   2.534   2.065   7.075
 4880SOL    HW115536   2.624   2.049   7.035
 4880SOL    HW215537   2.542   2.070   7.174
 4881SOL     OW15538   3.302   2.718   6.984
 4881SOL    HW115539   3.245   2.770   6.921
 4881SOL    HW215540   3.398   2.730   6.960
 4882SOL     OW15541   1.934   2.028   5.904
 4882SOL    HW115542   1.917   2.111   5.850
 4882SOL    HW215543   2.024   1.991   5.882
 4883SOL     OW15544   3.045   3.197   5.705
 4883SOL    HW115545   2.946   3.186   5.707
 4883SOL    HW215546   3.079   3.212   5.798
 4884SOL     OW15547   2.475   2.704   7.017
 4884SOL    HW115548   2.531   2.785   7.000
 4884SOL    HW215549   2.534   2.624   7.020
 4885SOL     OW15550   3.355   3.629   6.545
 4885SOL    HW115551   3.388   3.693   6.476
 4885SOL    HW215552   3.421   3.623   6.620
 4886SOL     OW15553   3.312   3.082   7.219
 4886SOL    HW115554   3.303   3.072   7.318
 4886SOL    HW215555   3.408   3.075   7.193
 4887SOL     OW15556   2.252   3.603   7.146
 4887SOL    HW115557   2.161   3.644   7.144
 4887SOL    HW215558   2.245   3.509   7.178
 4888SOL     OW15559   3.536   2.745   6.840
 4888SOL    HW115560   3.509   2.656   6.803
 4888SOL    HW215561   3.537   2.813   6.767
 4889SOL     OW15562   3.639   2.204   7.228
 4889SOL    HW115563   3.622   2.235   7.134
 4889SOL    HW215564   3.555   2.167   7.266
 4890SOL     OW15565   3.592   2.796   7.103
 4890SOL    HW115566   3.630   2.887   7.118
 4890SOL    HW215567   3.584   2.779   7.004
 4891SOL     OW15568   2.721   3.236   5.602
 4891SOL    HW115569   2.675   3.251   5.690
 4891SOL    HW215570   2.765   3.321   5.572
 4892SOL     OW15571   2.523   3.652   6.539
 4892SOL    HW115572   2.477   3.740   6.526
 4892SOL    HW215573   2.622   3.664   6.532
 4893SOL     OW15574   2.721   2.818   6.447
 4893SOL    HW115575   2.775   2.749   6.495
 4893SOL    HW215576   2.689   2.887   6.513
 4894SOL     OW15577   3.723   3.431   6.437
 4894SOL    HW115578   3.652   3.419   6.367
 4894SOL    HW215579   3.724   3.352   6.497
 4895SOL     OW15580   2.083   3.176   7.430
 4895SOL    HW115581   2.018   3.103   7.409
 4895SOL    HW215582   2.087   3.190   7.528
 4896SOL     OW15583   1.941   3.102   6.239
 4896SOL    HW115584   1.940   3.055   6.327
 4896SOL    HW215585   2.023   3.074   6.188
 4897SOL     OW15586   2.534   3.253   7.210
 4897SOL    HW115587   2.456   3.203   7.248
 4897SOL    HW215588   2.531   3.348   7.241
 4898SOL     OW15589   3.686   2.054   6.813
 4898SOL    HW115590   3.682   1.964   6.857
 4898SOL    HW215591   3.689   2.043   6.714
 4899SOL     OW15592   3.567   3.349   6.690
 4899SOL    HW115593   3.474   3.324   6.663
 4899SOL    HW215594   3.593   3.299   6.772
 4900SOL     OW15595   2.674   3.448   6.273
 4900SOL    HW115596   2.706   3.458   6.179
 4900SOL    HW215597   2.595   3.386   6.275
 4901SOL     OW15598   3.286   2.076   6.698
 4901SOL    HW115599   3.338   2.011   6.753
 4901SOL    HW215600   3.237   2.139   6.759
 4902SOL     OW15601   2.632   3.192   5.887
 4902SOL    HW115602   2.586   3.105   5.904
 4902SOL    HW215603   2.723   3.189   5.928
 4903SOL     OW15604   2.480   3.429   6.870
 4903SOL    HW115605   2.475   3.511   6.927
 4903SOL    HW215606   2.569   3.426   6.825
 4904SOL     OW15607   3.214   1.914   5.754
 4904SOL    HW115608   3.249   1.873   5.670
 4904SOL    HW215609   3.124   1.876   5.774
 4905SOL     OW15610   3.162   2.315   6.277
 4905SOL    HW115611   3.103   2.395   6.281
 4905SOL    HW215612   3.177   2.280   6.370
 4906SOL     OW15613   3.455   2.083   6.468
 4906SOL    HW115614   3.371   2.082   6.522
 4906SOL    HW215615   3.457   2.166   6.412
 4907SOL     OW15616   2.737   3.508   5.923
 4907SOL    HW115617   2.660   3.473   5.869
 4907SOL    HW215618   2.705   3.579   5.985
 4908SOL     OW15619   2.092   2.490   7.561
 4908SOL    HW115620   1.999   2.488   7.598
 4908SOL    HW215621   2.093   2.451   7.469
 4909SOL     OW15622   1.881   2.230   8.095
 4909SOL    HW115623   1.799   2.273   8.134
 4909SOL    HW215624   1.853   2.157   8.032
 4910SOL     OW15625   2.431   3.137   8.613
 4910SOL    HW115626   2.338   3.130   8.576
 4910SOL    HW215627   2.442   3.226   8.657
 4911SOL     OW15628   3.417   3.373   8.151
 4911SOL    HW115629   3.360   3.357   8.232
 4911SOL    HW215630   3.358   3.383   8.071
 4912SOL     OW15631   2.997   2.565   8.165
 4912SOL    HW115632   3.054   2.643   8.140
 4912SOL    HW215633   2.937   2.591   8.241
 4913SOL     OW15634   3.617   2.469   7.679
 4913SOL    HW115635   3.605   2.456   7.580
 4913SOL    HW215636   3.587   2.388   7.728
 4914SOL     OW15637   2.630   3.006   8.471
 4914SOL    HW115638   2.552   3.023   8.531
 4914SOL    HW215639   2.664   3.093   8.435
 4915SOL     OW15640   2.712   2.660   9.271
 4915SOL    HW115641   2.708   2.736   9.336
 4915SOL    HW215642   2.734   2.696   9.180
 4916SOL     OW15643   2.547   2.874   8.113
 4916SOL    HW115644   2.616   2.858   8.183
 4916SOL    HW215645   2.474   2.931   8.151
 4917SOL     OW15646   2.548   3.023   9.251
 4917SOL    HW115647   2.608   3.102   9.265
 4917SOL    HW215648   2.462   3.054   9.210
 4918SOL     OW15649   2.197   3.297   8.509
 4918SOL    HW115650   2.119   3.266   8.456
 4918SOL    HW215651   2.255   3.355   8.452
 4919SOL     OW15652   3.322   3.367   8.787
 4919SOL    HW115653   3.346   3.461   8.813
 4919SOL    HW215654   3.306   3.313   8.869
 4920SOL     OW15655   3.465   2.309   8.185
 4920SOL    HW115656   3.391   2.355   8.135
 4920SOL    HW215657   3.516   2.377   8.238
 4921SOL     OW15658   2.093   3.575   7.931
 4921SOL    HW115659   2.127   3.652   7.985
 4921SOL    HW215660   2.137   3.575   7.841
 4922SOL     OW15661   2.989   3.203   9.138
 4922SOL    HW115662   3.036   3.203   9.226
 4922SOL    HW215663   2.941   3.116   9.127
 4923SOL     OW15664   2.092   3.296   7.986
 4923SOL    HW115665   2.066   3.392   7.986
 4923SOL    HW215666   2.021   3.242   8.031
 4924SOL     OW15667   2.102   2.953   8.334
 4924SOL    HW115668   2.116   2.869   8.386
 4924SOL    HW215669   2.047   3.017   8.389
 4925SOL     OW15670   2.482   3.648   8.887
 4925SOL    HW115671   2.390   3.631   8.922
 4925SOL    HW215672   2.510   3.740   8.913
 4926SOL     OW15673   2.468   2.826   7.571
 4926SOL    HW115674   2.475   2.910   7.517
 4926SOL    HW215675   2.514   2.839   7.659
 4927SOL     OW15676   3.456   1.976   8.928
 4927SOL    HW115677   3.438   2.043   8.856
 4927SOL    HW215678   3.453   2.022   9.017
 4928SOL     OW15679   1.984   2.505   8.011
 4928SOL    HW115680   1.939   2.417   8.028
 4928SOL    HW215681   1.983   2.559   8.095
 4929SOL     OW15682   3.704   3.629   7.807
 4929SOL    HW115683   3.758   3.600   7.887
 4929SOL    HW215684   3.734   3.719   7.778
 4930SOL     OW15685   1.889   3.458   7.565
 4930SOL    HW115686   1.870   3.362   7.586
 4930SOL    HW215687   1.856   3.516   7.640
 4931SOL     OW15688   3.551   2.784   8.060
 4931SOL    HW115689   3.646   2.755   8.068
 4931SOL    HW215690   3.543   2.849   7.985
 4932SOL     OW15691   3.503   2.970   7.880
 4932SOL    HW115692   3.589   2.972   7.828
 4932SOL    HW215693   3.517   3.017   7.968
 4933SOL     OW15694   1.975   2.599   9.045
 4933SOL    HW115695   2.063   2.586   9.090
 4933SOL    HW215696   1.962   2.696   9.023
 4934SOL     OW15697   2.475   3.227   8.174
 4934SOL    HW115698   2.426   3.140   8.183
 4934SOL    HW215699   2.452   3.270   8.087
 4935SOL     OW15700   3.155   3.090   8.871
 4935SOL    HW115701   3.192   3.017   8.813
 4935SOL    HW215702   3.207   3.095   8.956
 4936SOL     OW15703   2.671   1.866   7.950
 4936SOL    HW115704   2.711   1.957   7.941
 4936SOL    HW215705   2.571   1.874   7.956
 4937SOL     OW15706   2.059   2.838   8.712
 4937SOL    HW115707   2.148   2.793   8.698
 4937SOL    HW215708   1.986   2.773   8.693
 4938SOL     OW15709   3.387   2.861   7.638
 4938SOL    HW115710   3.324   2.785   7.651
 4938SOL    HW215711   3.435   2.879   7.724
 4939SOL     OW15712   3.049   3.654   9.064
 4939SOL    HW115713   3.073   3.714   8.988
 4939SOL    HW215714   3.056   3.559   9.034
 4940SOL     OW15715   3.328   3.279   8.401
 4940SOL    HW115716   3.269   3.285   8.481
 4940SOL    HW215717   3.313   3.191   8.355
 4941SOL     OW15718   3.529   3.576   8.020
 4941SOL    HW115719   3.488   3.553   7.932
 4941SOL    HW215720   3.511   3.502   8.085
 4942SOL     OW15721   2.460   2.591   7.718
 4942SOL    HW115722   2.484   2.660   7.650
 4942SOL    HW215723   2.382   2.624   7.772
 4943SOL     OW15724   3.143   2.207   8.392
 4943SOL    HW115725   3.057   2.157   8.379
 4943SOL    HW215726   3.205   2.153   8.448
 4944SOL     OW15727   3.438   3.524   7.755
 4944SOL    HW115728   3.527   3.570   7.758
 4944SOL    HW215729   3.417   3.500   7.660
 4945SOL     OW15730   2.669   2.467   8.913
 4945SOL    HW115731   2.622   2.464   9.002
 4945SOL    HW215732   2.618   2.412   8.847
 4946SOL     OW15733   3.256   2.331   9.122
 4946SOL    HW115734   3.236   2.374   9.210
 4946SOL    HW215735   3.334   2.269   9.131
 4947SOL     OW15736   2.835   2.752   9.020
 4947SOL    HW115737   2.881   2.668   8.991
 4947SOL    HW215738   2.779   2.786   8.945
 4948SOL     OW15739   2.853   2.272   8.690
 4948SOL    HW115740   2.776   2.306   8.744
 4948SOL    HW215741   2.819   2.221   8.611
 4949SOL     OW15742   2.903   2.563   7.877
 4949SOL    HW115743   2.929   2.559   7.973
 4949SOL    HW215744   2.818   2.512   7.863
 4950SOL     OW15745   1.938   2.673   8.237
 4950SOL    HW115746   2.037   2.661   8.246
 4950SOL    HW215747   1.914   2.768   8.258
 4951SOL     OW15748   1.992   3.683   9.019
 4951SOL    HW115749   1.982   3.668   9.118
 4951SOL    HW215750   1.906   3.719   8.983
 4952SOL     OW15751   2.727   2.210   7.643
 4952SOL    HW115752   2.786   2.273   7.594
 4952SOL    HW215753   2.746   2.116   7.614
 4953SOL     OW15754   3.581   2.447   9.279
 4953SOL    HW115755   3.555   2.536   9.243
 4953SOL    HW215756   3.579   2.379   9.206
 4954SOL     OW15757   3.224   3.006   7.993
 4954SOL    HW115758   3.307   2.977   7.945
 4954SOL    HW215759   3.175   3.073   7.937
 4955SOL     OW15760   2.870   3.318   7.925
 4955SOL    HW115761   2.824   3.390   7.873
 4955SOL    HW215762   2.866   3.338   8.023
 4956SOL     OW15763   2.213   3.663   8.301
 4956SOL    HW115764   2.263   3.577   8.307
 4956SOL    HW215765   2.278   3.740   8.298
 4957SOL     OW15766   3.657   2.928   8.321
 4957SOL    HW115767   3.595   2.913   8.245
 4957SOL    HW215768   3.605   2.939   8.406
 4958SOL     OW15769   3.089   3.412   8.954
 4958SOL    HW115770   3.095   3.335   9.018
 4958SOL    HW215771   3.037   3.386   8.874
 4959SOL     OW15772   2.183   2.805   7.690
 4959SOL    HW115773   2.265   2.844   7.648
 4959SOL    HW215774   2.156   2.723   7.641
 4960SOL     OW15775   3.320   2.597   8.176
 4960SOL    HW115776   3.315   2.532   8.251
 4960SOL    HW215777   3.400   2.656   8.189
 4961SOL     OW15778   2.323   3.128   9.175
 4961SOL    HW115779   2.273   3.129   9.089
 4961SOL    HW215780   2.260   3.110   9.251
 4962SOL     OW15781   2.973   3.638   7.685
 4962SOL    HW115782   2.913   3.576   7.735
 4962SOL    HW215783   3.004   3.594   7.600
 4963SOL     OW15784   3.494   3.239   7.529
 4963SOL    HW115785   3.462   3.333   7.519
 4963SOL    HW215786   3.418   3.176   7.517
 4964SOL     OW15787   2.326   3.605   7.771
 4964SOL    HW115788   2.359   3.644   7.857
 4964SOL    HW215789   2.402   3.598   7.706
 4965SOL     OW15790   3.262   1.969   7.874
 4965SOL    HW115791   3.238   1.932   7.784
 4965SOL    HW215792   3.361   1.985   7.878
 4966SOL     OW15793   2.111   3.647   8.689
 4966SOL    HW115794   2.168   3.582   8.739
 4966SOL    HW215795   2.095   3.614   8.596
 4967SOL     OW15796   2.802   3.560   8.352
 4967SOL    HW115797   2.882   3.503   8.373
 4967SOL    HW215798   2.753   3.520   8.275
 4968SOL     OW15799   3.409   2.084   9.177
 4968SOL    HW115800   3.404   2.121   9.269
 4968SOL    HW215801   3.337   2.015   9.165
 4969SOL     OW15802   2.476   1.984   7.565
 4969SOL    HW115803   2.574   1.962   7.572
 4969SOL    HW215804   2.445   1.967   7.472
 4970SOL     OW15805   2.643   2.126   9.197
 4970SOL    HW115806   2.710   2.065   9.240
 4970SOL    HW215807   2.570   2.145   9.262
 4971SOL     OW15808   2.750   3.376   8.643
 4971SOL    HW115809   2.727   3.351   8.549
 4971SOL    HW215810   2.811   3.307   8.682
 4972SOL     OW15811   3.213   2.452   8.881
 4972SOL    HW115812   3.241   2.409   8.966
 4972SOL    HW215813   3.238   2.548   8.882
 4973SOL     OW15814   2.665   3.264   8.372
 4973SOL    HW115815   2.755   3.278   8.330
 4973SOL    HW215816   2.594   3.266   8.301
 4974SOL     OW15817   2.784   2.365   8.347
 4974SOL    HW115818   2.759   2.356   8.251
 4974SOL    HW215819   2.832   2.283   8.378
 4975SOL     OW15820   2.401   1.926   7.960
 4975SOL    HW115821   2.320   1.927   8.018
 4975SOL    HW215822   2.404   2.009   7.905
 4976SOL     OW15823   3.296   3.050   7.489
 4976SOL    HW115824   3.328   2.974   7.546
 4976SOL    HW215825   3.204   3.077   7.519
 4977SOL     OW15826   2.797   2.098   7.928
 4977SOL    HW115827   2.749   2.139   7.850
 4977SOL    HW215828   2.896   2.096   7.909
 4978SOL     OW15829   2.938   2.545   8.912
 4978SOL    HW115830   2.858   2.484   8.915
 4978SOL    HW215831   3.019   2.492   8.888
 4979SOL     OW15832   3.089   3.432   8.241
 4979SOL    HW115833   3.110   3.506   8.176
 4979SOL    HW215834   3.157   3.432   8.314
 4980SOL     OW15835   2.321   3.014   8.189
 4980SOL    HW115836   2.250   2.987   8.254
 4980SOL    HW215837   2.295   2.986   8.096
 4981SOL     OW15838   3.133   3.659   8.039
 4981SOL    HW115839   3.177   3.723   7.975
 4981SOL    HW215840   3.083   3.711   8.109
 4982SOL     OW15841   2.894   2.411   7.464
 4982SOL    HW115842   2.853   2.493   7.425
 4982SOL    HW215843   2.958   2.437   7.537
 4983SOL     OW15844   1.940   2.418   8.834
 4983SOL    HW115845   2.032   2.417   8.793
 4983SOL    HW215846   1.934   2.492   8.901
 4984SOL     OW15847   2.728   2.316   8.090
 4984SOL    HW115848   2.696   2.388   8.028
 4984SOL    HW215849   2.752   2.235   8.037
 4985SOL     OW15850   2.879   1.901   8.201
 4985SOL    HW115851   2.807   1.906   8.132
 4985SOL    HW215852   2.855   1.832   8.270
 4986SOL     OW15853   3.291   3.035   8.315
 4986SOL    HW115854   3.236   2.951   8.308
 4986SOL    HW215855   3.317   3.064   8.223
 4987SOL     OW15856   3.328   2.452   8.440
 4987SOL    HW115857   3.298   2.357   8.447
 4987SOL    HW215858   3.401   2.468   8.506
 4988SOL     OW15859   3.719   2.695   7.825
 4988SOL    HW115860   3.761   2.631   7.889
 4988SOL    HW215861   3.681   2.644   7.747
 4989SOL     OW15862   2.350   3.247   7.622
 4989SOL    HW115863   2.263   3.232   7.669
 4989SOL    HW215864   2.333   3.273   7.527
 4990SOL     OW15865   3.526   3.142   8.105
 4990SOL    HW115866   3.625   3.150   8.119
 4990SOL    HW215867   3.481   3.226   8.136
 4991SOL     OW15868   3.252   2.437   7.526
 4991SOL    HW115869   3.198   2.416   7.607
 4991SOL    HW215870   3.343   2.396   7.535
 4992SOL     OW15871   3.616   3.085   9.036
 4992SOL    HW115872   3.707   3.046   9.023
 4992SOL    HW215873   3.624   3.181   9.060
 4993SOL     OW15874   2.926   3.209   8.788
 4993SOL    HW115875   2.846   3.186   8.843
 4993SOL    HW215876   3.009   3.183   8.837
 4994SOL     OW15877   3.454   3.491   9.073
 4994SOL    HW115878   3.481   3.525   8.983
 4994SOL    HW215879   3.533   3.453   9.119
 4995SOL     OW15880   2.973   3.057   8.548
 4995SOL    HW115881   2.933   3.101   8.629
 4995SOL    HW215882   2.932   3.094   8.465
 4996SOL     OW15883   3.500   2.961   8.527
 4996SOL    HW115884   3.505   3.042   8.586
 4996SOL    HW215885   3.414   2.963   8.476
 4997SOL     OW15886   2.777   1.951   8.850
 4997SOL    HW115887   2.802   1.931   8.755
 4997SOL    HW215888   2.849   2.007   8.892
 4998SOL     OW15889   2.842   2.978   9.167
 4998SOL    HW115890   2.743   2.984   9.177
 4998SOL    HW215891   2.865   2.898   9.111
 4999SOL     OW15892   2.567   2.912   7.816
 4999SOL    HW115893   2.553   2.919   7.915
 4999SOL    HW215894   2.651   2.861   7.798
 5000SOL     OW15895   2.272   2.675   8.699
 5000SOL    HW115896   2.358   2.687   8.749
 5000SOL    HW215897   2.230   2.588   8.726
 5001SOL     OW15898   3.136   2.248   8.710
 5001SOL    HW115899   3.157   2.322   8.774
 5001SOL    HW215900   3.047   2.265   8.667
 5002SOL     OW15901   1.926   3.426   8.779
 5002SOL    HW115902   1.880   3.508   8.745
 5002SOL    HW215903   2.024   3.445   8.788
 5003SOL     OW15904   2.229   2.962   7.949
 5003SOL    HW115905   2.222   3.045   7.893
 5003SOL    HW215906   2.233   2.882   7.889
 5004SOL     OW15907   3.114   3.210   7.836
 5004SOL    HW115908   3.164   3.287   7.876
 5004SOL    HW215909   3.019   3.212   7.868
 5005SOL     OW15910   3.134   3.307   8.590
 5005SOL    HW115911   3.181   3.320   8.677
 5005SOL    HW215912   3.068   3.233   8.599
 5006SOL     OW15913   3.444   2.501   7.920
 5006SOL    HW115914   3.413   2.562   7.993
 5006SOL    HW215915   3.494   2.553   7.851
 5007SOL     OW15916   2.216   3.372   8.777
 5007SOL    HW115917   2.195   3.328   8.690
 5007SOL    HW215918   2.313   3.398   8.780
 5008SOL     OW15919   3.449   2.641   9.118
 5008SOL    HW115920   3.357   2.679   9.113
 5008SOL    HW215921   3.509   2.688   9.053
 5009SOL     OW15922   2.875   1.967   9.218
 5009SOL    HW115923   2.881   2.052   9.166
 5009SOL    HW215924   2.907   1.891   9.161
 5010SOL     OW15925   2.366   1.912   9.188
 5010SOL    HW115926   2.324   1.855   9.118
 5010SOL    HW215927   2.300   1.981   9.220
 5011SOL     OW15928   2.435   2.732   8.477
 5011SOL    HW115929   2.479   2.821   8.468
 5011SOL    HW215930   2.372   2.732   8.554
 5012SOL     OW15931   3.222   2.724   8.493
 5012SOL    HW115932   3.147   2.724   8.427
 5012SOL    HW215933   3.259   2.632   8.502
 5013SOL     OW15934   3.071   2.387   7.723
 5013SOL    HW115935   3.084   2.303   7.777
 5013SOL    HW215936   3.042   2.461   7.783
 5014SOL     OW15937   1.899   3.172   8.730
 5014SOL    HW115938   1.952   3.123   8.798
 5014SOL    HW215939   1.921   3.270   8.735
 5015SOL     OW15940   2.594   2.496   8.512
 5015SOL    HW115941   2.653   2.470   8.436
 5015SOL    HW215942   2.566   2.592   8.501
 5016SOL     OW15943   3.590   2.797   9.302
 5016SOL    HW115944   3.544   2.790   9.213
 5016SOL    HW215945   3.528   2.841   9.368
 5017SOL     OW15946   3.484   2.229   7.822
 5017SOL    HW115947   3.486   2.153   7.886
 5017SOL    HW215948   3.436   2.306   7.862
 5018SOL     OW15949   2.885   2.628   8.414
 5018SOL    HW115950   2.900   2.649   8.510
 5018SOL    HW215951   2.855   2.533   8.405
 5019SOL     OW15952   2.842   3.435   9.148
 5019SOL    HW115953   2.822   3.479   9.060
 5019SOL    HW215954   2.881   3.344   9.132
 5020SOL     OW15955   3.721   3.380   9.053
 5020SOL    HW115956   3.735   3.407   8.958
 5020SOL    HW215957   3.804   3.402   9.106
 5021SOL     OW15958   2.212   2.760   9.252
 5021SOL    HW115959   2.288   2.804   9.300
 5021SOL    HW215960   2.247   2.713   9.170
 5022SOL     OW15961   3.402   2.136   7.573
 5022SOL    HW115962   3.341   2.061   7.596
 5022SOL    HW215963   3.424   2.188   7.656
 5023SOL     OW15964   3.165   2.700   7.490
 5023SOL    HW115965   3.199   2.607   7.505
 5023SOL    HW215966   3.183   2.727   7.395
 5024SOL     OW15967   2.930   3.195   8.297
 5024SOL    HW115968   2.937   3.111   8.242
 5024SOL    HW215969   2.992   3.264   8.261
 5025SOL     OW15970   2.181   2.672   8.397
 5025SOL    HW115971   2.274   2.708   8.402
 5025SOL    HW215972   2.175   2.587   8.449
 5026SOL     OW15973   3.000   2.242   9.126
 5026SOL    HW115974   2.955   2.305   9.190
 5026SOL    HW215975   3.093   2.273   9.109
 5027SOL     OW15976   3.022   2.069   8.925
 5027SOL    HW115977   3.022   2.133   9.002
 5027SOL    HW215978   3.050   2.117   8.842
 5028SOL     OW15979   1.870   3.188   7.648
 5028SOL    HW115980   1.777   3.209   7.617
 5028SOL    HW215981   1.880   3.089   7.661
 5029SOL     OW15982   1.950   3.663   8.375
 5029SOL    HW115983   1.908   3.577   8.348
 5029SOL    HW215984   2.044   3.666   8.341
 5030SOL     OW15985   2.366   3.430   8.358
 5030SOL    HW115986   2.432   3.504   8.367
 5030SOL    HW215987   2.410   3.351   8.316
 5031SOL     OW15988   2.864   2.658   8.686
 5031SOL    HW115989   2.905   2.626   8.772
 5031SOL    HW215990   2.768   2.631   8.683
 5032SOL     OW15991   1.902   2.406   8.562
 5032SOL    HW115992   1.987   2.373   8.521
 5032SOL    HW215993   1.915   2.421   8.660
 5033SOL     OW15994   3.231   2.812   9.108
 5033SOL    HW115995   3.270   2.901   9.128
 5033SOL    HW215996   3.241   2.792   9.011
 5034SOL     OW15997   2.677   2.434   7.773
 5034SOL    HW115998   2.684   2.345   7.727
 5034SOL    HW215999   2.583   2.468   7.765
 5035SOL     OW16000   3.519   2.466   8.654
 5035SOL    HW116001   3.481   2.397   8.716
 5035SOL    HW216002   3.601   2.430   8.610
 5036SOL     OW16003   2.114   3.426   9.192
 5036SOL    HW116004   2.084   3.483   9.268
 5036SOL    HW216005   2.107   3.329   9.218
 5037SOL     OW16006   2.792   3.540   8.913
 5037SOL    HW116007   2.768   3.522   8.818
 5037SOL    HW216008   2.822   3.634   8.923
 5038SOL     OW16009   2.021   2.999   8.914
 5038SOL    HW116010   2.043   2.938   8.990
 5038SOL    HW216011   2.031   2.950   8.828
 5039SOL     OW16012   3.209   2.921   8.682
 5039SOL    HW116013   3.233   2.858   8.608
 5039SOL    HW216014   3.119   2.961   8.664
 5040SOL     OW16015   3.164   2.717   7.757
 5040SOL    HW116016   3.078   2.686   7.799
 5040SOL    HW216017   3.160   2.703   7.658
 5041SOL     OW16018   3.621   3.609   8.602
 5041SOL    HW116019   3.682   3.639   8.529
 5041SOL    HW216020   3.583   3.520   8.580
 5042SOL     OW16021   3.114   3.593   8.576
 5042SOL    HW116022   3.198   3.598   8.522
 5042SOL    HW216023   3.091   3.497   8.594
 5043SOL     OW16024   1.945   3.120   8.470
 5043SOL    HW116025   1.940   3.119   8.570
 5043SOL    HW216026   1.862   3.079   8.432
 5044SOL     OW16027   2.550   3.524   9.164
 5044SOL    HW116028   2.494   3.605   9.173
 5044SOL    HW216029   2.602   3.528   9.078
 5045SOL     OW16030   3.588   1.997   7.971
 5045SOL    HW116031   3.661   1.980   7.904
 5045SOL    HW216032   3.557   1.910   8.009
 5046SOL     OW16033   3.250   3.435   7.925
 5046SOL    HW116034   3.317   3.447   7.851
 5046SOL    HW216035   3.210   3.524   7.948
 5047SOL     OW16036   1.992   3.656   9.299
 5047SOL    HW116037   1.951   3.582   9.352
 5047SOL    HW216038   2.056   3.707   9.357
 5048SOL     OW16039   3.142   2.789   8.120
 5048SOL    HW116040   3.202   2.708   8.122
 5048SOL    HW216041   3.182   2.858   8.060
 5049SOL     OW16042   2.692   3.135   8.870
 5049SOL    HW116043   2.687   3.168   8.965
 5049SOL    HW216044   2.606   3.154   8.824
 5050SOL     OW16045   2.534   3.478   7.602
 5050SOL    HW116046   2.543   3.488   7.503
 5050SOL    HW216047   2.494   3.389   7.623
 5051SOL     OW16048   3.512   3.582   8.842
 5051SOL    HW116049   3.565   3.592   8.758
 5051SOL    HW216050   3.485   3.672   8.876
 5052SOL     OW16051   3.703   2.037   8.411
 5052SOL    HW116052   3.742   1.952   8.375
 5052SOL    HW216053   3.605   2.039   8.392
 5053SOL     OW16054   3.056   3.474   7.479
 5053SOL    HW116055   3.062   3.381   7.516
 5053SOL    HW216056   2.997   3.474   7.399
 5054SOL     OW16057   2.684   2.864   8.820
 5054SOL    HW116058   2.724   2.863   8.728
 5054SOL    HW216059   2.694   2.956   8.860
 5055SOL     OW16060   2.778   2.772   7.739
 5055SOL    HW116061   2.841   2.810   7.671
 5055SOL    HW216062   2.818   2.689   7.778
 5056SOL     OW16063   3.366   3.469   7.492
 5056SOL    HW116064   3.274   3.506   7.499
 5056SOL    HW216065   3.404   3.489   7.402
 5057SOL     OW16066   2.234   3.150   8.938
 5057SOL    HW116067   2.221   3.243   8.904
 5057SOL    HW216068   2.150   3.098   8.925
 5058SOL     OW16069   3.476   3.154   8.737
 5058SOL    HW116070   3.536   3.157   8.817
 5058SOL    HW216071   3.401   3.218   8.750
 5059SOL     OW16072   2.901   2.960   8.144
 5059SOL    HW116073   2.831   2.913   8.198
 5059SOL    HW216074   2.960   2.892   8.101
 5060SOL     OW16075   2.876   2.098   8.419
 5060SOL    HW116076   2.868   2.062   8.326
 5060SOL    HW216077   2.874   2.022   8.484
 5061SOL     OW16078   2.452   3.349   7.939
 5061SOL    HW116079   2.494   3.291   7.869
 5061SOL    HW216080   2.408   3.428   7.895
 5062SOL     OW16081   3.571   2.247   8.829
 5062SOL    HW116082   3.644   2.316   8.833
 5062SOL    HW216083   3.599   2.172   8.770
 5063SOL     OW16084   2.117   3.210   7.738
 5063SOL    HW116085   2.021   3.211   7.711
 5063SOL    HW216086   2.129   3.263   7.822
 5064SOL     OW16087   1.967   2.875   9.174
 5064SOL    HW116088   1.890   2.842   9.228
 5064SOL    HW216089   2.052   2.845   9.216
 5065SOL     OW16090   2.534   2.065   8.937
 5065SOL    HW116091   2.624   2.049   8.897
 5065SOL    HW216092   2.542   2.070   9.036
 5066SOL     OW16093   1.937   2.207   7.481
 5066SOL    HW116094   1.845   2.179   7.452
 5066SOL    HW216095   1.968   2.284   7.425
 5067SOL     OW16096   3.302   2.718   8.846
 5067SOL    HW116097   3.245   2.770   8.783
 5067SOL    HW216098   3.398   2.730   8.822
 5068SOL     OW16099   3.045   3.197   7.567
 5068SOL    HW116100   2.946   3.186   7.569
 5068SOL    HW216101   3.079   3.212   7.660
 5069SOL     OW16102   2.475   2.704   8.879
 5069SOL    HW116103   2.531   2.785   8.862
 5069SOL    HW216104   2.534   2.624   8.882
 5070SOL     OW16105   3.355   3.629   8.407
 5070SOL    HW116106   3.388   3.693   8.338
 5070SOL    HW216107   3.421   3.623   8.482
 5071SOL     OW16108   3.312   3.082   9.081
 5071SOL    HW116109   3.303   3.072   9.180
 5071SOL    HW216110   3.408   3.075   9.055
 5072SOL     OW16111   2.252   3.603   9.008
 5072SOL    HW116112   2.161   3.644   9.006
 5072SOL    HW216113   2.245   3.509   9.040
 5073SOL     OW16114   3.536   2.745   8.702
 5073SOL    HW116115   3.509   2.656   8.665
 5073SOL    HW216116   3.537   2.813   8.629
 5074SOL     OW16117   3.087   2.187   7.897
 5074SOL    HW116118   3.152   2.113   7.886
 5074SOL    HW216119   3.107   2.237   7.981
 5075SOL     OW16120   2.456   2.607   8.100
 5075SOL    HW116121   2.506   2.692   8.081
 5075SOL    HW216122   2.368   2.609   8.052
 5076SOL     OW16123   3.639   2.204   9.090
 5076SOL    HW116124   3.622   2.235   8.996
 5076SOL    HW216125   3.555   2.167   9.128
 5077SOL     OW16126   3.592   2.796   8.965
 5077SOL    HW116127   3.630   2.887   8.980
 5077SOL    HW216128   3.584   2.779   8.866
 5078SOL     OW16129   2.721   3.236   7.464
 5078SOL    HW116130   2.675   3.251   7.552
 5078SOL    HW216131   2.765   3.321   7.434
 5079SOL     OW16132   2.523   3.652   8.401
 5079SOL    HW116133   2.477   3.740   8.388
 5079SOL    HW216134   2.622   3.664   8.394
 5080SOL     OW16135   2.721   2.818   8.309
 5080SOL    HW116136   2.775   2.749   8.357
 5080SOL    HW216137   2.689   2.887   8.375
 5081SOL     OW16138   2.945   2.846   7.535
 5081SOL    HW116139   2.922   2.899   7.453
 5081SOL    HW216140   3.026   2.790   7.516
 5082SOL     OW16141   3.723   3.431   8.299
 5082SOL    HW116142   3.652   3.419   8.229
 5082SOL    HW216143   3.724   3.352   8.359
 5083SOL     OW16144   2.083   3.176   9.292
 5083SOL    HW116145   2.018   3.103   9.271
 5083SOL    HW216146   2.087   3.190   9.390
 5084SOL     OW16147   1.941   3.102   8.101
 5084SOL    HW116148   1.940   3.055   8.189
 5084SOL    HW216149   2.023   3.074   8.050
 5085SOL     OW16150   2.534   3.253   9.072
 5085SOL    HW116151   2.456   3.203   9.110
 5085SOL    HW216152   2.531   3.348   9.103
 5086SOL     OW16153   3.686   2.054   8.675
 5086SOL    HW116154   3.682   1.964   8.719
 5086SOL    HW216155   3.689   2.043   8.576
 5087SOL     OW16156   3.567   3.349   8.552
 5087SOL    HW116157   3.474   3.324   8.525
 5087SOL    HW216158   3.593   3.299   8.634
 5088SOL     OW16159   2.674   3.448   8.135
 5088SOL    HW116160   2.706   3.458   8.041
 5088SOL    HW216161   2.595   3.386   8.137
 5089SOL     OW16162   3.286   2.076   8.560
 5089SOL    HW116163   3.338   2.011   8.615
 5089SOL    HW216164   3.237   2.139   8.621
 5090SOL     OW16165   2.863   1.896   8.602
 5090SOL    HW116166   2.800   1.824   8.571
 5090SOL    HW216167   2.956   1.860   8.602
 5091SOL     OW16168   2.632   3.192   7.749
 5091SOL    HW116169   2.586   3.105   7.766
 5091SOL    HW216170   2.723   3.189   7.790
 5092SOL     OW16171   2.480   3.429   8.732
 5092SOL    HW116172   2.475   3.511   8.789
 5092SOL    HW216173   2.569   3.426   8.687
 5093SOL     OW16174   3.214   1.914   7.616
 5093SOL    HW116175   3.249   1.873   7.532
 5093SOL    HW216176   3.124   1.876   7.636
 5094SOL     OW16177   3.162   2.315   8.139
 5094SOL    HW116178   3.103   2.395   8.143
 5094SOL    HW216179   3.177   2.280   8.232
 5095SOL     OW16180   3.455   2.083   8.330
 5095SOL    HW116181   3.371   2.082   8.384
 5095SOL    HW216182   3.457   2.166   8.274
 5096SOL     OW16183   1.901   2.939   7.748
 5096SOL    HW116184   2.000   2.928   7.739
 5096SOL    HW216185   1.861   2.853   7.780
 5097SOL     OW16186   2.737   3.508   7.785
 5097SOL    HW116187   2.660   3.473   7.731
 5097SOL    HW216188   2.705   3.579   7.847
 5098SOL     OW16189   2.092   2.490   9.423
 5098SOL    HW116190   1.999   2.488   9.460
 5098SOL    HW216191   2.093   2.451   9.331
 5099SOL     OW16192   1.881   2.230   9.957
 5099SOL    HW116193   1.799   2.273   9.996
 5099SOL    HW216194   1.853   2.157   9.894
 5100SOL     OW16195   2.431   3.137  10.475
 5100SOL    HW116196   2.338   3.130  10.438
 5100SOL    HW216197   2.442   3.226  10.519
 5101SOL     OW16198   3.417   3.373  10.013
 5101SOL    HW116199   3.360   3.357  10.094
 5101SOL    HW216200   3.358   3.383   9.933
 5102SOL     OW16201   2.997   2.565  10.027
 5102SOL    HW116202   3.054   2.643  10.002
 5102SOL    HW216203   2.937   2.591  10.103
 5103SOL     OW16204   3.617   2.469   9.541
 5103SOL    HW116205   3.605   2.456   9.442
 5103SOL    HW216206   3.587   2.388   9.590
 5104SOL     OW16207   2.630   3.006  10.333
 5104SOL    HW116208   2.552   3.023  10.393
 5104SOL    HW216209   2.664   3.093  10.297
 5105SOL     OW16210   2.712   2.660  11.133
 5105SOL    HW116211   2.708   2.736  11.198
 5105SOL    HW216212   2.734   2.696  11.042
 5106SOL     OW16213   2.547   2.874   9.975
 5106SOL    HW116214   2.616   2.858  10.045
 5106SOL    HW216215   2.474   2.931  10.013
 5107SOL     OW16216   2.197   3.297  10.371
 5107SOL    HW116217   2.119   3.266  10.318
 5107SOL    HW216218   2.255   3.355  10.314
 5108SOL     OW16219   3.322   3.367  10.649
 5108SOL    HW116220   3.346   3.461  10.675
 5108SOL    HW216221   3.306   3.313  10.731
 5109SOL     OW16222   3.465   2.309  10.047
 5109SOL    HW116223   3.391   2.355   9.997
 5109SOL    HW216224   3.516   2.377  10.100
 5110SOL     OW16225   2.093   3.575   9.793
 5110SOL    HW116226   2.127   3.652   9.847
 5110SOL    HW216227   2.137   3.575   9.703
 5111SOL     OW16228   2.092   3.296   9.848
 5111SOL    HW116229   2.066   3.392   9.848
 5111SOL    HW216230   2.021   3.242   9.893
 5112SOL     OW16231   2.102   2.953  10.196
 5112SOL    HW116232   2.116   2.869  10.248
 5112SOL    HW216233   2.047   3.017  10.251
 5113SOL     OW16234   2.482   3.648  10.749
 5113SOL    HW116235   2.390   3.631  10.784
 5113SOL    HW216236   2.510   3.740  10.775
 5114SOL     OW16237   2.468   2.826   9.433
 5114SOL    HW116238   2.475   2.910   9.379
 5114SOL    HW216239   2.514   2.839   9.521
 5115SOL     OW16240   3.456   1.976  10.790
 5115SOL    HW116241   3.438   2.043  10.718
 5115SOL    HW216242   3.453   2.022  10.879
 5116SOL     OW16243   1.984   2.505   9.873
 5116SOL    HW116244   1.939   2.417   9.890
 5116SOL    HW216245   1.983   2.559   9.957
 5117SOL     OW16246   3.704   3.629   9.669
 5117SOL    HW116247   3.758   3.600   9.749
 5117SOL    HW216248   3.734   3.719   9.640
 5118SOL     OW16249   1.889   3.458   9.427
 5118SOL    HW116250   1.870   3.362   9.448
 5118SOL    HW216251   1.856   3.516   9.502
 5119SOL     OW16252   3.551   2.784   9.922
 5119SOL    HW116253   3.646   2.755   9.930
 5119SOL    HW216254   3.543   2.849   9.847
 5120SOL     OW16255   3.503   2.970   9.742
 5120SOL    HW116256   3.589   2.972   9.690
 5120SOL    HW216257   3.517   3.017   9.830
 5121SOL     OW16258   1.975   2.599  10.907
 5121SOL    HW116259   2.063   2.586  10.952
 5121SOL    HW216260   1.962   2.696  10.885
 5122SOL     OW16261   2.475   3.227  10.036
 5122SOL    HW116262   2.426   3.140  10.045
 5122SOL    HW216263   2.452   3.270   9.949
 5123SOL     OW16264   3.155   3.090  10.733
 5123SOL    HW116265   3.192   3.017  10.675
 5123SOL    HW216266   3.207   3.095  10.818
 5124SOL     OW16267   2.671   1.866   9.812
 5124SOL    HW116268   2.711   1.957   9.803
 5124SOL    HW216269   2.571   1.874   9.818
 5125SOL     OW16270   2.059   2.838  10.574
 5125SOL    HW116271   2.148   2.793  10.560
 5125SOL    HW216272   1.986   2.773  10.555
 5126SOL     OW16273   3.387   2.861   9.500
 5126SOL    HW116274   3.324   2.785   9.513
 5126SOL    HW216275   3.435   2.879   9.586
 5127SOL     OW16276   3.049   3.654  10.926
 5127SOL    HW116277   3.073   3.714  10.850
 5127SOL    HW216278   3.056   3.559  10.896
 5128SOL     OW16279   3.328   3.279  10.263
 5128SOL    HW116280   3.269   3.285  10.343
 5128SOL    HW216281   3.313   3.191  10.217
 5129SOL     OW16282   3.529   3.576   9.882
 5129SOL    HW116283   3.488   3.553   9.794
 5129SOL    HW216284   3.511   3.502   9.947
 5130SOL     OW16285   2.460   2.591   9.580
 5130SOL    HW116286   2.484   2.660   9.512
 5130SOL    HW216287   2.382   2.624   9.634
 5131SOL     OW16288   3.143   2.207  10.254
 5131SOL    HW116289   3.057   2.157  10.241
 5131SOL    HW216290   3.205   2.153  10.310
 5132SOL     OW16291   3.438   3.524   9.617
 5132SOL    HW116292   3.527   3.570   9.620
 5132SOL    HW216293   3.417   3.500   9.522
 5133SOL     OW16294   2.835   2.752  10.882
 5133SOL    HW116295   2.881   2.668  10.853
 5133SOL    HW216296   2.779   2.786  10.807
 5134SOL     OW16297   2.853   2.272  10.552
 5134SOL    HW116298   2.776   2.306  10.606
 5134SOL    HW216299   2.819   2.221  10.473
 5135SOL     OW16300   2.903   2.563   9.739
 5135SOL    HW116301   2.929   2.559   9.835
 5135SOL    HW216302   2.818   2.512   9.725
 5136SOL     OW16303   1.938   2.673  10.099
 5136SOL    HW116304   2.037   2.661  10.108
 5136SOL    HW216305   1.914   2.768  10.120
 5137SOL     OW16306   1.992   3.683  10.881
 5137SOL    HW116307   1.982   3.668  10.980
 5137SOL    HW216308   1.906   3.719  10.845
 5138SOL     OW16309   2.727   2.210   9.505
 5138SOL    HW116310   2.786   2.273   9.456
 5138SOL    HW216311   2.746   2.116   9.476
 5139SOL     OW16312   3.224   3.006   9.855
 5139SOL    HW116313   3.307   2.977   9.807
 5139SOL    HW216314   3.175   3.073   9.799
 5140SOL     OW16315   2.870   3.318   9.787
 5140SOL    HW116316   2.824   3.390   9.735
 5140SOL    HW216317   2.866   3.338   9.885
 5141SOL     OW16318   2.213   3.663  10.163
 5141SOL    HW116319   2.263   3.577  10.169
 5141SOL    HW216320   2.278   3.740  10.160
 5142SOL     OW16321   3.657   2.928  10.183
 5142SOL    HW116322   3.595   2.913  10.107
 5142SOL    HW216323   3.605   2.939  10.268
 5143SOL     OW16324   3.089   3.412  10.816
 5143SOL    HW116325   3.095   3.335  10.880
 5143SOL    HW216326   3.037   3.386  10.736
 5144SOL     OW16327   2.183   2.805   9.552
 5144SOL    HW116328   2.265   2.844   9.510
 5144SOL    HW216329   2.156   2.723   9.503
 5145SOL     OW16330   3.320   2.597  10.038
 5145SOL    HW116331   3.315   2.532  10.113
 5145SOL    HW216332   3.400   2.656  10.051
 5146SOL     OW16333   2.323   3.128  11.037
 5146SOL    HW116334   2.273   3.129  10.951
 5146SOL    HW216335   2.260   3.110  11.113
 5147SOL     OW16336   2.973   3.638   9.547
 5147SOL    HW116337   2.913   3.576   9.597
 5147SOL    HW216338   3.004   3.594   9.462
 5148SOL     OW16339   3.494   3.239   9.391
 5148SOL    HW116340   3.462   3.333   9.381
 5148SOL    HW216341   3.418   3.176   9.379
 5149SOL     OW16342   2.326   3.605   9.633
 5149SOL    HW116343   2.359   3.644   9.719
 5149SOL    HW216344   2.402   3.598   9.568
 5150SOL     OW16345   3.262   1.969   9.736
 5150SOL    HW116346   3.238   1.932   9.646
 5150SOL    HW216347   3.361   1.985   9.740
 5151SOL     OW16348   2.111   3.647  10.551
 5151SOL    HW116349   2.168   3.582  10.601
 5151SOL    HW216350   2.095   3.614  10.458
 5152SOL     OW16351   2.802   3.560  10.214
 5152SOL    HW116352   2.882   3.503  10.235
 5152SOL    HW216353   2.753   3.520  10.137
 5153SOL     OW16354   2.476   1.984   9.427
 5153SOL    HW116355   2.574   1.962   9.434
 5153SOL    HW216356   2.445   1.967   9.334
 5154SOL     OW16357   2.643   2.126  11.059
 5154SOL    HW116358   2.710   2.065  11.102
 5154SOL    HW216359   2.570   2.145  11.124
 5155SOL     OW16360   2.750   3.376  10.505
 5155SOL    HW116361   2.727   3.351  10.411
 5155SOL    HW216362   2.811   3.307  10.544
 5156SOL     OW16363   3.213   2.452  10.743
 5156SOL    HW116364   3.241   2.409  10.828
 5156SOL    HW216365   3.238   2.548  10.744
 5157SOL     OW16366   2.665   3.264  10.234
 5157SOL    HW116367   2.755   3.278  10.192
 5157SOL    HW216368   2.594   3.266  10.163
 5158SOL     OW16369   2.784   2.365  10.209
 5158SOL    HW116370   2.759   2.356  10.113
 5158SOL    HW216371   2.832   2.283  10.240
 5159SOL     OW16372   2.401   1.926   9.822
 5159SOL    HW116373   2.320   1.927   9.880
 5159SOL    HW216374   2.404   2.009   9.767
 5160SOL     OW16375   3.296   3.050   9.351
 5160SOL    HW116376   3.328   2.974   9.408
 5160SOL    HW216377   3.204   3.077   9.381
 5161SOL     OW16378   2.797   2.098   9.790
 5161SOL    HW116379   2.749   2.139   9.712
 5161SOL    HW216380   2.896   2.096   9.771
 5162SOL     OW16381   2.938   2.545  10.774
 5162SOL    HW116382   2.858   2.484  10.777
 5162SOL    HW216383   3.019   2.492  10.750
 5163SOL     OW16384   3.089   3.432  10.103
 5163SOL    HW116385   3.110   3.506  10.038
 5163SOL    HW216386   3.157   3.432  10.176
 5164SOL     OW16387   2.321   3.014  10.051
 5164SOL    HW116388   2.250   2.987  10.116
 5164SOL    HW216389   2.295   2.986   9.958
 5165SOL     OW16390   3.133   3.659   9.901
 5165SOL    HW116391   3.177   3.723   9.837
 5165SOL    HW216392   3.083   3.711   9.971
 5166SOL     OW16393   2.894   2.411   9.326
 5166SOL    HW116394   2.853   2.493   9.287
 5166SOL    HW216395   2.958   2.437   9.399
 5167SOL     OW16396   1.940   2.418  10.696
 5167SOL    HW116397   2.032   2.417  10.655
 5167SOL    HW216398   1.934   2.492  10.763
 5168SOL     OW16399   2.728   2.316   9.952
 5168SOL    HW116400   2.696   2.388   9.890
 5168SOL    HW216401   2.752   2.235   9.899
 5169SOL     OW16402   2.879   1.901  10.063
 5169SOL    HW116403   2.807   1.906   9.994
 5169SOL    HW216404   2.855   1.832  10.132
 5170SOL     OW16405   3.291   3.035  10.177
 5170SOL    HW116406   3.236   2.951  10.170
 5170SOL    HW216407   3.317   3.064  10.085
 5171SOL     OW16408   3.328   2.452  10.302
 5171SOL    HW116409   3.298   2.357  10.309
 5171SOL    HW216410   3.401   2.468  10.368
 5172SOL     OW16411   3.719   2.695   9.687
 5172SOL    HW116412   3.761   2.631   9.751
 5172SOL    HW216413   3.681   2.644   9.609
 5173SOL     OW16414   2.350   3.247   9.484
 5173SOL    HW116415   2.263   3.232   9.531
 5173SOL    HW216416   2.333   3.273   9.389
 5174SOL     OW16417   3.526   3.142   9.967
 5174SOL    HW116418   3.625   3.150   9.981
 5174SOL    HW216419   3.481   3.226   9.998
 5175SOL     OW16420   3.252   2.437   9.388
 5175SOL    HW116421   3.198   2.416   9.469
 5175SOL    HW216422   3.343   2.396   9.397
 5176SOL     OW16423   3.616   3.085  10.898
 5176SOL    HW116424   3.707   3.046  10.885
 5176SOL    HW216425   3.624   3.181  10.922
 5177SOL     OW16426   2.926   3.209  10.650
 5177SOL    HW116427   2.846   3.186  10.705
 5177SOL    HW216428   3.009   3.183  10.699
 5178SOL     OW16429   2.973   3.057  10.410
 5178SOL    HW116430   2.933   3.101  10.491
 5178SOL    HW216431   2.932   3.094  10.327
 5179SOL     OW16432   3.500   2.961  10.389
 5179SOL    HW116433   3.505   3.042  10.448
 5179SOL    HW216434   3.414   2.963  10.338
 5180SOL     OW16435   2.777   1.951  10.712
 5180SOL    HW116436   2.802   1.931  10.617
 5180SOL    HW216437   2.849   2.007  10.754
 5181SOL     OW16438   2.567   2.912   9.678
 5181SOL    HW116439   2.553   2.919   9.777
 5181SOL    HW216440   2.651   2.861   9.660
 5182SOL     OW16441   2.272   2.675  10.561
 5182SOL    HW116442   2.358   2.687  10.611
 5182SOL    HW216443   2.230   2.588  10.588
 5183SOL     OW16444   3.136   2.248  10.572
 5183SOL    HW116445   3.157   2.322  10.636
 5183SOL    HW216446   3.047   2.265  10.529
 5184SOL     OW16447   1.926   3.426  10.641
 5184SOL    HW116448   1.880   3.508  10.607
 5184SOL    HW216449   2.024   3.445  10.650
 5185SOL     OW16450   2.229   2.962   9.811
 5185SOL    HW116451   2.222   3.045   9.755
 5185SOL    HW216452   2.233   2.882   9.751
 5186SOL     OW16453   3.114   3.210   9.698
 5186SOL    HW116454   3.164   3.287   9.738
 5186SOL    HW216455   3.019   3.212   9.730
 5187SOL     OW16456   3.134   3.307  10.452
 5187SOL    HW116457   3.181   3.320  10.539
 5187SOL    HW216458   3.068   3.233  10.461
 5188SOL     OW16459   3.444   2.501   9.782
 5188SOL    HW116460   3.413   2.562   9.855
 5188SOL    HW216461   3.494   2.553   9.713
 5189SOL     OW16462   2.216   3.372  10.639
 5189SOL    HW116463   2.195   3.328  10.552
 5189SOL    HW216464   2.313   3.398  10.642
 5190SOL     OW16465   3.449   2.641  10.980
 5190SOL    HW116466   3.357   2.679  10.975
 5190SOL    HW216467   3.509   2.688  10.915
 5191SOL     OW16468   2.435   2.732  10.339
 5191SOL    HW116469   2.479   2.821  10.330
 5191SOL    HW216470   2.372   2.732  10.416
 5192SOL     OW16471   3.222   2.724  10.355
 5192SOL    HW116472   3.147   2.724  10.289
 5192SOL    HW216473   3.259   2.632  10.364
 5193SOL     OW16474   3.071   2.387   9.585
 5193SOL    HW116475   3.084   2.303   9.639
 5193SOL    HW216476   3.042   2.461   9.645
 5194SOL     OW16477   1.899   3.172  10.592
 5194SOL    HW116478   1.952   3.123  10.660
 5194SOL    HW216479   1.921   3.270  10.597
 5195SOL     OW16480   2.594   2.496  10.374
 5195SOL    HW116481   2.653   2.470  10.298
 5195SOL    HW216482   2.566   2.592  10.363
 5196SOL     OW16483   3.484   2.229   9.684
 5196SOL    HW116484   3.486   2.153   9.748
 5196SOL    HW216485   3.436   2.306   9.724
 5197SOL     OW16486   2.885   2.628  10.276
 5197SOL    HW116487   2.900   2.649  10.372
 5197SOL    HW216488   2.855   2.533  10.267
 5198SOL     OW16489   2.842   3.435  11.010
 5198SOL    HW116490   2.822   3.479  10.922
 5198SOL    HW216491   2.881   3.344  10.994
 5199SOL     OW16492   3.721   3.380  10.915
 5199SOL    HW116493   3.735   3.407  10.820
 5199SOL    HW216494   3.804   3.402  10.968
 5200SOL     OW16495   2.212   2.760  11.114
 5200SOL    HW116496   2.288   2.804  11.162
 5200SOL    HW216497   2.247   2.713  11.032
 5201SOL     OW16498   3.402   2.136   9.435
 5201SOL    HW116499   3.341   2.061   9.458
 5201SOL    HW216500   3.424   2.188   9.518
 5202SOL     OW16501   3.165   2.700   9.352
 5202SOL    HW116502   3.199   2.607   9.367
 5202SOL    HW216503   3.183   2.727   9.257
 5203SOL     OW16504   2.930   3.195  10.159
 5203SOL    HW116505   2.937   3.111  10.104
 5203SOL    HW216506   2.992   3.264  10.123
 5204SOL     OW16507   2.181   2.672  10.259
 5204SOL    HW116508   2.274   2.708  10.264
 5204SOL    HW216509   2.175   2.587  10.311
 5205SOL     OW16510   3.022   2.069  10.787
 5205SOL    HW116511   3.022   2.133  10.864
 5205SOL    HW216512   3.050   2.117  10.704
 5206SOL     OW16513   1.870   3.188   9.510
 5206SOL    HW116514   1.777   3.209   9.479
 5206SOL    HW216515   1.880   3.089   9.523
 5207SOL     OW16516   1.950   3.663  10.237
 5207SOL    HW116517   1.908   3.577  10.210
 5207SOL    HW216518   2.044   3.666  10.203
 5208SOL     OW16519   2.366   3.430  10.220
 5208SOL    HW116520   2.432   3.504  10.229
 5208SOL    HW216521   2.410   3.351  10.178
 5209SOL     OW16522   2.864   2.658  10.548
 5209SOL    HW116523   2.905   2.626  10.634
 5209SOL    HW216524   2.768   2.631  10.545
 5210SOL     OW16525   1.902   2.406  10.424
 5210SOL    HW116526   1.987   2.373  10.383
 5210SOL    HW216527   1.915   2.421  10.522
 5211SOL     OW16528   2.677   2.434   9.635
 5211SOL    HW116529   2.684   2.345   9.589
 5211SOL    HW216530   2.583   2.468   9.627
 5212SOL     OW16531   3.519   2.466  10.516
 5212SOL    HW116532   3.481   2.397  10.578
 5212SOL    HW216533   3.601   2.430  10.472
 5213SOL     OW16534   2.114   3.426  11.054
 5213SOL    HW116535   2.084   3.483  11.130
 5213SOL    HW216536   2.107   3.329  11.080
 5214SOL     OW16537   2.792   3.540  10.775
 5214SOL    HW116538   2.768   3.522  10.680
 5214SOL    HW216539   2.822   3.634  10.785
 5215SOL     OW16540   2.021   2.999  10.776
 5215SOL    HW116541   2.043   2.938  10.852
 5215SOL    HW216542   2.031   2.950  10.690
 5216SOL     OW16543   3.209   2.921  10.544
 5216SOL    HW116544   3.233   2.858  10.470
 5216SOL    HW216545   3.119   2.961  10.526
 5217SOL     OW16546   3.164   2.717   9.619
 5217SOL    HW116547   3.078   2.686   9.661
 5217SOL    HW216548   3.160   2.703   9.520
 5218SOL     OW16549   3.621   3.609  10.464
 5218SOL    HW116550   3.682   3.639  10.391
 5218SOL    HW216551   3.583   3.520  10.442
 5219SOL     OW16552   3.114   3.593  10.438
 5219SOL    HW116553   3.198   3.598  10.384
 5219SOL    HW216554   3.091   3.497  10.456
 5220SOL     OW16555   1.945   3.120  10.332
 5220SOL    HW116556   1.940   3.119  10.432
 5220SOL    HW216557   1.862   3.079  10.294
 5221SOL     OW16558   3.588   1.997   9.833
 5221SOL    HW116559   3.661   1.980   9.766
 5221SOL    HW216560   3.557   1.910   9.871
 5222SOL     OW16561   3.250   3.435   9.787
 5222SOL    HW116562   3.317   3.447   9.713
 5222SOL    HW216563   3.210   3.524   9.810
 5223SOL     OW16564   3.142   2.789   9.982
 5223SOL    HW116565   3.202   2.708   9.984
 5223SOL    HW216566   3.182   2.858   9.922
 5224SOL     OW16567   2.692   3.135  10.732
 5224SOL    HW116568   2.687   3.168  10.827
 5224SOL    HW216569   2.606   3.154  10.686
 5225SOL     OW16570   2.534   3.478   9.464
 5225SOL    HW116571   2.543   3.488   9.365
 5225SOL    HW216572   2.494   3.389   9.485
 5226SOL     OW16573   3.512   3.582  10.704
 5226SOL    HW116574   3.565   3.592  10.620
 5226SOL    HW216575   3.485   3.672  10.738
 5227SOL     OW16576   3.703   2.037  10.273
 5227SOL    HW116577   3.742   1.952  10.237
 5227SOL    HW216578   3.605   2.039  10.254
 5228SOL     OW16579   3.056   3.474   9.341
 5228SOL    HW116580   3.062   3.381   9.378
 5228SOL    HW216581   2.997   3.474   9.261
 5229SOL     OW16582   2.684   2.864  10.682
 5229SOL    HW116583   2.724   2.863  10.590
 5229SOL    HW216584   2.694   2.956  10.722
 5230SOL     OW16585   2.778   2.772   9.601
 5230SOL    HW116586   2.841   2.810   9.533
 5230SOL    HW216587   2.818   2.689   9.640
 5231SOL     OW16588   3.366   3.469   9.354
 5231SOL    HW116589   3.274   3.506   9.361
 5231SOL    HW216590   3.404   3.489   9.264
 5232SOL     OW16591   2.234   3.150  10.800
 5232SOL    HW116592   2.221   3.243  10.766
 5232SOL    HW216593   2.150   3.098  10.787
 5233SOL     OW16594   3.476   3.154  10.599
 5233SOL    HW116595   3.536   3.157  10.679
 5233SOL    HW216596   3.401   3.218  10.612
 5234SOL     OW16597   2.901   2.960  10.006
 5234SOL    HW116598   2.831   2.913  10.060
 5234SOL    HW216599   2.960   2.892   9.963
 5235SOL     OW16600   2.876   2.098  10.281
 5235SOL    HW116601   2.868   2.062  10.188
 5235SOL    HW216602   2.874   2.022  10.346
 5236SOL     OW16603   2.452   3.349   9.801
 5236SOL    HW116604   2.494   3.291   9.731
 5236SOL    HW216605   2.408   3.428   9.757
 5237SOL     OW16606   3.571   2.247  10.691
 5237SOL    HW116607   3.644   2.316  10.695
 5237SOL    HW216608   3.599   2.172  10.632
 5238SOL     OW16609   2.117   3.210   9.600
 5238SOL    HW116610   2.021   3.211   9.573
 5238SOL    HW216611   2.129   3.263   9.684
 5239SOL     OW16612   1.967   2.875  11.036
 5239SOL    HW116613   1.890   2.842  11.090
 5239SOL    HW216614   2.052   2.845  11.078
 5240SOL     OW16615   2.534   2.065  10.799
 5240SOL    HW116616   2.624   2.049  10.759
 5240SOL    HW216617   2.542   2.070  10.898
 5241SOL     OW16618   3.302   2.718  10.708
 5241SOL    HW116619   3.245   2.770  10.645
 5241SOL    HW216620   3.398   2.730  10.684
 5242SOL     OW16621   1.934   2.028   9.628
 5242SOL    HW116622   1.917   2.111   9.574
 5242SOL    HW216623   2.024   1.991   9.606
 5243SOL     OW16624   3.045   3.197   9.429
 5243SOL    HW116625   2.946   3.186   9.431
 5243SOL    HW216626   3.079   3.212   9.522
 5244SOL     OW16627   2.475   2.704  10.741
 5244SOL    HW116628   2.531   2.785  10.724
 5244SOL    HW216629   2.534   2.624  10.744
 5245SOL     OW16630   3.355   3.629  10.269
 5245SOL    HW116631   3.388   3.693  10.200
 5245SOL    HW216632   3.421   3.623  10.344
 5246SOL     OW16633   2.578   2.427  11.018
 5246SOL    HW116634   2.597   2.492  11.092
 5246SOL    HW216635   2.638   2.347  11.027
 5247SOL     OW16636   2.252   3.603  10.870
 5247SOL    HW116637   2.161   3.644  10.868
 5247SOL    HW216638   2.245   3.509  10.902
 5248SOL     OW16639   3.536   2.745  10.564
 5248SOL    HW116640   3.509   2.656  10.527
 5248SOL    HW216641   3.537   2.813  10.491
 5249SOL     OW16642   3.087   2.187   9.759
 5249SOL    HW116643   3.152   2.113   9.748
 5249SOL    HW216644   3.107   2.237   9.843
 5250SOL     OW16645   2.456   2.607   9.962
 5250SOL    HW116646   2.506   2.692   9.943
 5250SOL    HW216647   2.368   2.609   9.914
 5251SOL     OW16648   3.639   2.204  10.952
 5251SOL    HW116649   3.622   2.235  10.858
 5251SOL    HW216650   3.555   2.167  10.990
 5252SOL     OW16651   3.592   2.796  10.827
 5252SOL    HW116652   3.630   2.887  10.842
 5252SOL    HW216653   3.584   2.779  10.728
 5253SOL     OW16654   2.721   3.236   9.326
 5253SOL    HW116655   2.675   3.251   9.414
 5253SOL    HW216656   2.765   3.321   9.296
 5254SOL     OW16657   2.523   3.652  10.263
 5254SOL    HW116658   2.477   3.740  10.250
 5254SOL    HW216659   2.622   3.664  10.256
 5255SOL     OW16660   2.721   2.818  10.171
 5255SOL    HW116661   2.775   2.749  10.219
 5255SOL    HW216662   2.689   2.887  10.237
 5256SOL     OW16663   2.945   2.846   9.397
 5256SOL    HW116664   2.922   2.899   9.315
 5256SOL    HW216665   3.026   2.790   9.378
 5257SOL     OW16666   3.723   3.431  10.161
 5257SOL    HW116667   3.652   3.419  10.091
 5257SOL    HW216668   3.724   3.352  10.221
 5258SOL     OW16669   1.941   3.102   9.963
 5258SOL    HW116670   1.940   3.055  10.051
 5258SOL    HW216671   2.023   3.074   9.912
 5259SOL     OW16672   2.534   3.253  10.934
 5259SOL    HW116673   2.456   3.203  10.972
 5259SOL    HW216674   2.531   3.348  10.965
 5260SOL     OW16675   3.686   2.054  10.537
 5260SOL    HW116676   3.682   1.964  10.581
 5260SOL    HW216677   3.689   2.043  10.438
 5261SOL     OW16678   3.567   3.349  10.414
 5261SOL    HW116679   3.474   3.324  10.387
 5261SOL    HW216680   3.593   3.299  10.496
 5262SOL     OW16681   2.674   3.448   9.997
 5262SOL    HW116682   2.706   3.458   9.903
 5262SOL    HW216683   2.595   3.386   9.999
 5263SOL     OW16684   3.286   2.076  10.422
 5263SOL    HW116685   3.338   2.011  10.477
 5263SOL    HW216686   3.237   2.139  10.483
 5264SOL     OW16687   2.863   1.896  10.464
 5264SOL    HW116688   2.800   1.824  10.433
 5264SOL    HW216689   2.956   1.860  10.464
 5265SOL     OW16690   2.632   3.192   9.611
 5265SOL    HW116691   2.586   3.105   9.628
 5265SOL    HW216692   2.723   3.189   9.652
 5266SOL     OW16693   2.480   3.429  10.594
 5266SOL    HW116694   2.475   3.511  10.651
 5266SOL    HW216695   2.569   3.426  10.549
 5267SOL     OW16696   3.214   1.914   9.478
 5267SOL    HW116697   3.249   1.873   9.394
 5267SOL    HW216698   3.124   1.876   9.498
 5268SOL     OW16699   3.162   2.315  10.001
 5268SOL    HW116700   3.103   2.395  10.005
 5268SOL    HW216701   3.177   2.280  10.094
 5269SOL     OW16702   3.455   2.083  10.192
 5269SOL    HW116703   3.371   2.082  10.246
 5269SOL    HW216704   3.457   2.166  10.136
 5270SOL     OW16705   1.901   2.939   9.610
 5270SOL    HW116706   2.000   2.928   9.601
 5270SOL    HW216707   1.861   2.853   9.642
 5271SOL     OW16708   2.737   3.508   9.647
 5271SOL    HW116709   2.660   3.473   9.593
 5271SOL    HW216710   2.705   3.579   9.709
 5272SOL     OW16711   2.092   4.352   0.113
 5272SOL    HW116712   1.999   4.350   0.150
 5272SOL    HW216713   2.093   4.313   0.021
 5273SOL     OW16714   2.087   3.999   0.996
 5273SOL    HW116715   2.122   3.982   1.088
 5273SOL    HW216716   1.999   3.954   0.984
 5274SOL     OW16717   1.881   4.092   0.647
 5274SOL    HW116718   1.799   4.135   0.686
 5274SOL    HW216719   1.853   4.019   0.584
 5275SOL     OW16720   3.617   4.331   0.231
 5275SOL    HW116721   3.605   4.318   0.132
 5275SOL    HW216722   3.587   4.250   0.280
 5276SOL     OW16723   2.547   4.736   0.665
 5276SOL    HW116724   2.616   4.720   0.735
 5276SOL    HW216725   2.474   4.793   0.703
 5277SOL     OW16726   2.300   4.116   1.499
 5277SOL    HW116727   2.382   4.060   1.508
 5277SOL    HW216728   2.219   4.058   1.503
 5278SOL     OW16729   3.465   4.171   0.737
 5278SOL    HW116730   3.391   4.217   0.687
 5278SOL    HW216731   3.516   4.239   0.790
 5279SOL     OW16732   3.456   3.838   1.480
 5279SOL    HW116733   3.438   3.905   1.408
 5279SOL    HW216734   3.453   3.884   1.569
 5280SOL     OW16735   1.984   4.367   0.563
 5280SOL    HW116736   1.939   4.279   0.580
 5280SOL    HW216737   1.983   4.421   0.647
 5281SOL     OW16738   1.975   4.461   1.597
 5281SOL    HW116739   2.063   4.448   1.642
 5281SOL    HW216740   1.962   4.558   1.575
 5282SOL     OW16741   2.671   3.728   0.502
 5282SOL    HW116742   2.711   3.819   0.493
 5282SOL    HW216743   2.571   3.736   0.508
 5283SOL     OW16744   2.179   3.975   1.801
 5283SOL    HW116745   2.250   4.046   1.807
 5283SOL    HW216746   2.091   4.014   1.829
 5284SOL     OW16747   3.143   4.069   0.944
 5284SOL    HW116748   3.057   4.019   0.931
 5284SOL    HW216749   3.205   4.015   1.000
 5285SOL     OW16750   2.669   4.329   1.465
 5285SOL    HW116751   2.622   4.326   1.554
 5285SOL    HW216752   2.618   4.274   1.399
 5286SOL     OW16753   3.256   4.193   1.674
 5286SOL    HW116754   3.236   4.236   1.762
 5286SOL    HW216755   3.334   4.131   1.683
 5287SOL     OW16756   2.853   4.134   1.242
 5287SOL    HW116757   2.776   4.168   1.296
 5287SOL    HW216758   2.819   4.083   1.163
 5288SOL     OW16759   2.903   4.425   0.429
 5288SOL    HW116760   2.929   4.421   0.525
 5288SOL    HW216761   2.818   4.374   0.415
 5289SOL     OW16762   2.727   4.072   0.195
 5289SOL    HW116763   2.786   4.135   0.146
 5289SOL    HW216764   2.746   3.978   0.166
 5290SOL     OW16765   3.581   4.309   1.831
 5290SOL    HW116766   3.555   4.398   1.795
 5290SOL    HW216767   3.579   4.241   1.758
 5291SOL     OW16768   2.412   3.920   0.885
 5291SOL    HW116769   2.407   3.915   0.985
 5291SOL    HW216770   2.414   4.016   0.856
 5292SOL     OW16771   3.320   4.459   0.728
 5292SOL    HW116772   3.315   4.394   0.803
 5292SOL    HW216773   3.400   4.518   0.741
 5293SOL     OW16774   2.064   4.009   1.498
 5293SOL    HW116775   1.984   4.069   1.485
 5293SOL    HW216776   2.054   3.960   1.584
 5294SOL     OW16777   3.262   3.831   0.426
 5294SOL    HW116778   3.238   3.794   0.336
 5294SOL    HW216779   3.361   3.847   0.430
 5295SOL     OW16780   2.244   4.424   0.480
 5295SOL    HW116781   2.289   4.334   0.477
 5295SOL    HW216782   2.150   4.413   0.513
 5296SOL     OW16783   3.409   3.946   1.729
 5296SOL    HW116784   3.404   3.983   1.821
 5296SOL    HW216785   3.337   3.877   1.717
 5297SOL     OW16786   2.476   3.846   0.117
 5297SOL    HW116787   2.574   3.824   0.124
 5297SOL    HW216788   2.445   3.829   0.024
 5298SOL     OW16789   2.643   3.988   1.749
 5298SOL    HW116790   2.710   3.927   1.792
 5298SOL    HW216791   2.570   4.007   1.814
 5299SOL     OW16792   3.213   4.314   1.433
 5299SOL    HW116793   3.241   4.271   1.518
 5299SOL    HW216794   3.238   4.410   1.434
 5300SOL     OW16795   2.784   4.227   0.899
 5300SOL    HW116796   2.759   4.218   0.803
 5300SOL    HW216797   2.832   4.145   0.930
 5301SOL     OW16798   2.401   3.788   0.512
 5301SOL    HW116799   2.320   3.789   0.570
 5301SOL    HW216800   2.404   3.871   0.457
 5302SOL     OW16801   2.159   3.759   0.171
 5302SOL    HW116802   2.208   3.843   0.150
 5302SOL    HW216803   2.221   3.694   0.216
 5303SOL     OW16804   2.797   3.960   0.480
 5303SOL    HW116805   2.749   4.001   0.402
 5303SOL    HW216806   2.896   3.958   0.461
 5304SOL     OW16807   2.938   4.407   1.464
 5304SOL    HW116808   2.858   4.346   1.467
 5304SOL    HW216809   3.019   4.354   1.440
 5305SOL     OW16810   2.894   4.273   0.016
 5305SOL    HW116811   2.853   4.355  -0.023
 5305SOL    HW216812   2.958   4.299   0.089
 5306SOL     OW16813   1.940   4.280   1.386
 5306SOL    HW116814   2.032   4.279   1.345
 5306SOL    HW216815   1.934   4.354   1.453
 5307SOL     OW16816   2.423   3.946   1.147
 5307SOL    HW116817   2.461   3.862   1.184
 5307SOL    HW216818   2.335   3.965   1.191
 5308SOL     OW16819   2.728   4.178   0.642
 5308SOL    HW116820   2.696   4.250   0.580
 5308SOL    HW216821   2.752   4.097   0.589
 5309SOL     OW16822   2.879   3.763   0.753
 5309SOL    HW116823   2.807   3.768   0.684
 5309SOL    HW216824   2.855   3.694   0.822
 5310SOL     OW16825   3.328   4.314   0.992
 5310SOL    HW116826   3.298   4.219   0.999
 5310SOL    HW216827   3.401   4.330   1.058
 5311SOL     OW16828   3.252   4.299   0.078
 5311SOL    HW116829   3.198   4.278   0.159
 5311SOL    HW216830   3.343   4.258   0.087
 5312SOL     OW16831   2.389   3.980   0.328
 5312SOL    HW116832   2.416   3.921   0.253
 5312SOL    HW216833   2.389   4.075   0.297
 5313SOL     OW16834   2.777   3.813   1.402
 5313SOL    HW116835   2.802   3.793   1.307
 5313SOL    HW216836   2.849   3.869   1.444
 5314SOL     OW16837   2.272   4.537   1.251
 5314SOL    HW116838   2.358   4.549   1.301
 5314SOL    HW216839   2.230   4.450   1.278
 5315SOL     OW16840   3.136   4.110   1.262
 5315SOL    HW116841   3.157   4.184   1.326
 5315SOL    HW216842   3.047   4.127   1.219
 5316SOL     OW16843   2.428   4.261   0.865
 5316SOL    HW116844   2.440   4.327   0.791
 5316SOL    HW216845   2.474   4.295   0.948
 5317SOL     OW16846   3.444   4.363   0.472
 5317SOL    HW116847   3.413   4.424   0.545
 5317SOL    HW216848   3.494   4.415   0.403
 5318SOL     OW16849   2.875   3.829   1.770
 5318SOL    HW116850   2.881   3.914   1.718
 5318SOL    HW216851   2.907   3.753   1.713
 5319SOL     OW16852   2.366   3.774   1.740
 5319SOL    HW116853   2.324   3.717   1.670
 5319SOL    HW216854   2.300   3.843   1.772
 5320SOL     OW16855   3.071   4.249   0.275
 5320SOL    HW116856   3.084   4.165   0.329
 5320SOL    HW216857   3.042   4.323   0.335
 5321SOL     OW16858   2.169   3.937   1.231
 5321SOL    HW116859   2.146   3.974   1.321
 5321SOL    HW216860   2.139   3.842   1.225
 5322SOL     OW16861   2.594   4.358   1.064
 5322SOL    HW116862   2.653   4.332   0.988
 5322SOL    HW216863   2.566   4.454   1.053
 5323SOL     OW16864   3.590   4.659   1.854
 5323SOL    HW116865   3.544   4.652   1.765
 5323SOL    HW216866   3.528   4.703   1.920
 5324SOL     OW16867   2.169   3.787   0.618
 5324SOL    HW116868   2.158   3.881   0.651
 5324SOL    HW216869   2.164   3.724   0.695
 5325SOL     OW16870   3.484   4.091   0.374
 5325SOL    HW116871   3.486   4.015   0.438
 5325SOL    HW216872   3.436   4.168   0.414
 5326SOL     OW16873   3.402   3.998   0.125
 5326SOL    HW116874   3.341   3.923   0.148
 5326SOL    HW216875   3.424   4.050   0.208
 5327SOL     OW16876   2.181   4.534   0.949
 5327SOL    HW116877   2.274   4.570   0.954
 5327SOL    HW216878   2.175   4.449   1.001
 5328SOL     OW16879   2.201   4.233   1.006
 5328SOL    HW116880   2.149   4.150   0.989
 5328SOL    HW216881   2.278   4.238   0.942
 5329SOL     OW16882   3.000   4.104   1.678
 5329SOL    HW116883   2.955   4.167   1.742
 5329SOL    HW216884   3.093   4.135   1.661
 5330SOL     OW16885   3.022   3.931   1.477
 5330SOL    HW116886   3.022   3.995   1.554
 5330SOL    HW216887   3.050   3.979   1.394
 5331SOL     OW16888   1.902   4.268   1.114
 5331SOL    HW116889   1.987   4.235   1.073
 5331SOL    HW216890   1.915   4.283   1.212
 5332SOL     OW16891   2.051   4.244   1.722
 5332SOL    HW116892   2.110   4.204   1.652
 5332SOL    HW216893   1.993   4.315   1.681
 5333SOL     OW16894   2.677   4.296   0.325
 5333SOL    HW116895   2.684   4.207   0.279
 5333SOL    HW216896   2.583   4.330   0.317
 5334SOL     OW16897   3.519   4.328   1.206
 5334SOL    HW116898   3.481   4.259   1.268
 5334SOL    HW216899   3.601   4.292   1.162
 5335SOL     OW16900   2.533   4.188   1.269
 5335SOL    HW116901   2.499   4.099   1.239
 5335SOL    HW216902   2.559   4.242   1.189
 5336SOL     OW16903   2.335   4.224   0.191
 5336SOL    HW116904   2.396   4.304   0.195
 5336SOL    HW216905   2.240   4.255   0.198
 5337SOL     OW16906   2.765   3.810   0.133
 5337SOL    HW116907   2.816   3.811   0.047
 5337SOL    HW216908   2.821   3.768   0.204
 5338SOL     OW16909   3.588   3.859   0.523
 5338SOL    HW116910   3.661   3.842   0.456
 5338SOL    HW216911   3.557   3.772   0.561
 5339SOL     OW16912   3.142   4.651   0.672
 5339SOL    HW116913   3.202   4.570   0.674
 5339SOL    HW216914   3.182   4.720   0.612
 5340SOL     OW16915   3.703   3.899   0.963
 5340SOL    HW116916   3.742   3.814   0.927
 5340SOL    HW216917   3.605   3.901   0.944
 5341SOL     OW16918   2.125   4.050   0.720
 5341SOL    HW116919   2.046   4.101   0.686
 5341SOL    HW216920   2.116   4.035   0.818
 5342SOL     OW16921   2.901   4.822   0.696
 5342SOL    HW116922   2.831   4.775   0.750
 5342SOL    HW216923   2.960   4.754   0.653
 5343SOL     OW16924   2.876   3.960   0.971
 5343SOL    HW116925   2.868   3.924   0.878
 5343SOL    HW216926   2.874   3.884   1.036
 5344SOL     OW16927   3.571   4.109   1.381
 5344SOL    HW116928   3.644   4.178   1.385
 5344SOL    HW216929   3.599   4.034   1.322
 5345SOL     OW16930   2.534   3.927   1.489
 5345SOL    HW116931   2.624   3.911   1.449
 5345SOL    HW216932   2.542   3.932   1.588
 5346SOL     OW16933   1.937   4.069   0.033
 5346SOL    HW116934   1.845   4.041   0.004
 5346SOL    HW216935   1.968   4.146  -0.023
 5347SOL     OW16936   1.934   3.890   0.318
 5347SOL    HW116937   1.917   3.973   0.264
 5347SOL    HW216938   2.024   3.853   0.296
 5348SOL     OW16939   2.578   4.289   1.708
 5348SOL    HW116940   2.597   4.354   1.782
 5348SOL    HW216941   2.638   4.209   1.717
 5349SOL     OW16942   3.087   4.049   0.449
 5349SOL    HW116943   3.152   3.975   0.438
 5349SOL    HW216944   3.107   4.099   0.533
 5350SOL     OW16945   3.639   4.066   1.642
 5350SOL    HW116946   3.622   4.097   1.548
 5350SOL    HW216947   3.555   4.029   1.680
 5351SOL     OW16948   2.945   4.708   0.087
 5351SOL    HW116949   2.922   4.761   0.005
 5351SOL    HW216950   3.026   4.652   0.068
 5352SOL     OW16951   3.686   3.916   1.227
 5352SOL    HW116952   3.682   3.826   1.271
 5352SOL    HW216953   3.689   3.905   1.128
 5353SOL     OW16954   2.290   4.148   0.520
 5353SOL    HW116955   2.320   4.076   0.458
 5353SOL    HW216956   2.251   4.108   0.603
 5354SOL     OW16957   2.179   4.271   1.280
 5354SOL    HW116958   2.217   4.212   1.352
 5354SOL    HW216959   2.219   4.245   1.192
 5355SOL     OW16960   3.286   3.938   1.112
 5355SOL    HW116961   3.338   3.873   1.167
 5355SOL    HW216962   3.237   4.001   1.173
 5356SOL     OW16963   2.863   3.758   1.154
 5356SOL    HW116964   2.800   3.686   1.123
 5356SOL    HW216965   2.956   3.722   1.154
 5357SOL     OW16966   3.214   3.776   0.168
 5357SOL    HW116967   3.249   3.735   0.084
 5357SOL    HW216968   3.124   3.738   0.188
 5358SOL     OW16969   3.162   4.177   0.691
 5358SOL    HW116970   3.103   4.257   0.695
 5358SOL    HW216971   3.177   4.142   0.784
 5359SOL     OW16972   3.455   3.945   0.882
 5359SOL    HW116973   3.371   3.944   0.936
 5359SOL    HW216974   3.457   4.028   0.826
 5360SOL     OW16975   2.092   4.352   1.975
 5360SOL    HW116976   1.999   4.350   2.012
 5360SOL    HW216977   2.093   4.313   1.883
 5361SOL     OW16978   2.087   3.999   2.858
 5361SOL    HW116979   2.122   3.982   2.950
 5361SOL    HW216980   1.999   3.954   2.846
 5362SOL     OW16981   1.881   4.092   2.509
 5362SOL    HW116982   1.799   4.135   2.548
 5362SOL    HW216983   1.853   4.019   2.446
 5363SOL     OW16984   3.617   4.331   2.093
 5363SOL    HW116985   3.605   4.318   1.994
 5363SOL    HW216986   3.587   4.250   2.142
 5364SOL     OW16987   2.547   4.736   2.527
 5364SOL    HW116988   2.616   4.720   2.597
 5364SOL    HW216989   2.474   4.793   2.565
 5365SOL     OW16990   2.300   4.116   3.361
 5365SOL    HW116991   2.382   4.060   3.370
 5365SOL    HW216992   2.219   4.058   3.365
 5366SOL     OW16993   3.465   4.171   2.599
 5366SOL    HW116994   3.391   4.217   2.549
 5366SOL    HW216995   3.516   4.239   2.652
 5367SOL     OW16996   3.456   3.838   3.342
 5367SOL    HW116997   3.438   3.905   3.270
 5367SOL    HW216998   3.453   3.884   3.431
 5368SOL     OW16999   1.984   4.367   2.425
 5368SOL    HW117000   1.939   4.279   2.442
 5368SOL    HW217001   1.983   4.421   2.509
 5369SOL     OW17002   1.975   4.461   3.459
 5369SOL    HW117003   2.063   4.448   3.504
 5369SOL    HW217004   1.962   4.558   3.437
 5370SOL     OW17005   2.671   3.728   2.364
 5370SOL    HW117006   2.711   3.819   2.355
 5370SOL    HW217007   2.571   3.736   2.370
 5371SOL     OW17008   2.179   3.975   3.663
 5371SOL    HW117009   2.250   4.046   3.669
 5371SOL    HW217010   2.091   4.014   3.691
 5372SOL     OW17011   3.143   4.069   2.806
 5372SOL    HW117012   3.057   4.019   2.793
 5372SOL    HW217013   3.205   4.015   2.862
 5373SOL     OW17014   2.669   4.329   3.327
 5373SOL    HW117015   2.622   4.326   3.416
 5373SOL    HW217016   2.618   4.274   3.261
 5374SOL     OW17017   3.256   4.193   3.536
 5374SOL    HW117018   3.236   4.236   3.624
 5374SOL    HW217019   3.334   4.131   3.545
 5375SOL     OW17020   2.853   4.134   3.104
 5375SOL    HW117021   2.776   4.168   3.158
 5375SOL    HW217022   2.819   4.083   3.025
 5376SOL     OW17023   2.903   4.425   2.291
 5376SOL    HW117024   2.929   4.421   2.387
 5376SOL    HW217025   2.818   4.374   2.277
 5377SOL     OW17026   2.727   4.072   2.057
 5377SOL    HW117027   2.786   4.135   2.008
 5377SOL    HW217028   2.746   3.978   2.028
 5378SOL     OW17029   3.581   4.309   3.693
 5378SOL    HW117030   3.555   4.398   3.657
 5378SOL    HW217031   3.579   4.241   3.620
 5379SOL     OW17032   2.412   3.920   2.747
 5379SOL    HW117033   2.407   3.915   2.847
 5379SOL    HW217034   2.414   4.016   2.718
 5380SOL     OW17035   3.320   4.459   2.590
 5380SOL    HW117036   3.315   4.394   2.665
 5380SOL    HW217037   3.400   4.518   2.603
 5381SOL     OW17038   2.064   4.009   3.360
 5381SOL    HW117039   1.984   4.069   3.347
 5381SOL    HW217040   2.054   3.960   3.446
 5382SOL     OW17041   3.262   3.831   2.288
 5382SOL    HW117042   3.238   3.794   2.198
 5382SOL    HW217043   3.361   3.847   2.292
 5383SOL     OW17044   2.244   4.424   2.342
 5383SOL    HW117045   2.289   4.334   2.339
 5383SOL    HW217046   2.150   4.413   2.375
 5384SOL     OW17047   3.409   3.946   3.591
 5384SOL    HW117048   3.404   3.983   3.683
 5384SOL    HW217049   3.337   3.877   3.579
 5385SOL     OW17050   2.476   3.846   1.979
 5385SOL    HW117051   2.574   3.824   1.986
 5385SOL    HW217052   2.445   3.829   1.886
 5386SOL     OW17053   2.643   3.988   3.611
 5386SOL    HW117054   2.710   3.927   3.654
 5386SOL    HW217055   2.570   4.007   3.676
 5387SOL     OW17056   3.213   4.314   3.295
 5387SOL    HW117057   3.241   4.271   3.380
 5387SOL    HW217058   3.238   4.410   3.296
 5388SOL     OW17059   2.784   4.227   2.761
 5388SOL    HW117060   2.759   4.218   2.665
 5388SOL    HW217061   2.832   4.145   2.792
 5389SOL     OW17062   2.401   3.788   2.374
 5389SOL    HW117063   2.320   3.789   2.432
 5389SOL    HW217064   2.404   3.871   2.319
 5390SOL     OW17065   2.159   3.759   2.033
 5390SOL    HW117066   2.208   3.843   2.012
 5390SOL    HW217067   2.221   3.694   2.078
 5391SOL     OW17068   2.797   3.960   2.342
 5391SOL    HW117069   2.749   4.001   2.264
 5391SOL    HW217070   2.896   3.958   2.323
 5392SOL     OW17071   2.938   4.407   3.326
 5392SOL    HW117072   2.858   4.346   3.329
 5392SOL    HW217073   3.019   4.354   3.302
 5393SOL     OW17074   2.894   4.273   1.878
 5393SOL    HW117075   2.853   4.355   1.839
 5393SOL    HW217076   2.958   4.299   1.951
 5394SOL     OW17077   1.940   4.280   3.248
 5394SOL    HW117078   2.032   4.279   3.207
 5394SOL    HW217079   1.934   4.354   3.315
 5395SOL     OW17080   2.423   3.946   3.009
 5395SOL    HW117081   2.461   3.862   3.046
 5395SOL    HW217082   2.335   3.965   3.053
 5396SOL     OW17083   2.728   4.178   2.504
 5396SOL    HW117084   2.696   4.250   2.442
 5396SOL    HW217085   2.752   4.097   2.451
 5397SOL     OW17086   2.879   3.763   2.615
 5397SOL    HW117087   2.807   3.768   2.546
 5397SOL    HW217088   2.855   3.694   2.684
 5398SOL     OW17089   3.328   4.314   2.854
 5398SOL    HW117090   3.298   4.219   2.861
 5398SOL    HW217091   3.401   4.330   2.920
 5399SOL     OW17092   3.252   4.299   1.940
 5399SOL    HW117093   3.198   4.278   2.021
 5399SOL    HW217094   3.343   4.258   1.949
 5400SOL     OW17095   2.389   3.980   2.190
 5400SOL    HW117096   2.416   3.921   2.115
 5400SOL    HW217097   2.389   4.075   2.159
 5401SOL     OW17098   2.777   3.813   3.264
 5401SOL    HW117099   2.802   3.793   3.169
 5401SOL    HW217100   2.849   3.869   3.306
 5402SOL     OW17101   2.272   4.537   3.113
 5402SOL    HW117102   2.358   4.549   3.163
 5402SOL    HW217103   2.230   4.450   3.140
 5403SOL     OW17104   3.136   4.110   3.124
 5403SOL    HW117105   3.157   4.184   3.188
 5403SOL    HW217106   3.047   4.127   3.081
 5404SOL     OW17107   2.428   4.261   2.727
 5404SOL    HW117108   2.440   4.327   2.653
 5404SOL    HW217109   2.474   4.295   2.810
 5405SOL     OW17110   3.444   4.363   2.334
 5405SOL    HW117111   3.413   4.424   2.407
 5405SOL    HW217112   3.494   4.415   2.265
 5406SOL     OW17113   2.875   3.829   3.632
 5406SOL    HW117114   2.881   3.914   3.580
 5406SOL    HW217115   2.907   3.753   3.575
 5407SOL     OW17116   2.366   3.774   3.602
 5407SOL    HW117117   2.324   3.717   3.532
 5407SOL    HW217118   2.300   3.843   3.634
 5408SOL     OW17119   3.071   4.249   2.137
 5408SOL    HW117120   3.084   4.165   2.191
 5408SOL    HW217121   3.042   4.323   2.197
 5409SOL     OW17122   2.169   3.937   3.093
 5409SOL    HW117123   2.146   3.974   3.183
 5409SOL    HW217124   2.139   3.842   3.087
 5410SOL     OW17125   2.594   4.358   2.926
 5410SOL    HW117126   2.653   4.332   2.850
 5410SOL    HW217127   2.566   4.454   2.915
 5411SOL     OW17128   3.590   4.659   3.716
 5411SOL    HW117129   3.544   4.652   3.627
 5411SOL    HW217130   3.528   4.703   3.782
 5412SOL     OW17131   2.169   3.787   2.480
 5412SOL    HW117132   2.158   3.881   2.513
 5412SOL    HW217133   2.164   3.724   2.557
 5413SOL     OW17134   3.484   4.091   2.236
 5413SOL    HW117135   3.486   4.015   2.300
 5413SOL    HW217136   3.436   4.168   2.276
 5414SOL     OW17137   3.402   3.998   1.987
 5414SOL    HW117138   3.341   3.923   2.010
 5414SOL    HW217139   3.424   4.050   2.070
 5415SOL     OW17140   2.181   4.534   2.811
 5415SOL    HW117141   2.274   4.570   2.816
 5415SOL    HW217142   2.175   4.449   2.863
 5416SOL     OW17143   2.201   4.233   2.868
 5416SOL    HW117144   2.149   4.150   2.851
 5416SOL    HW217145   2.278   4.238   2.804
 5417SOL     OW17146   3.000   4.104   3.540
 5417SOL    HW117147   2.955   4.167   3.604
 5417SOL    HW217148   3.093   4.135   3.523
 5418SOL     OW17149   3.022   3.931   3.339
 5418SOL    HW117150   3.022   3.995   3.416
 5418SOL    HW217151   3.050   3.979   3.256
 5419SOL     OW17152   1.902   4.268   2.976
 5419SOL    HW117153   1.987   4.235   2.935
 5419SOL    HW217154   1.915   4.283   3.074
 5420SOL     OW17155   2.051   4.244   3.584
 5420SOL    HW117156   2.110   4.204   3.514
 5420SOL    HW217157   1.993   4.315   3.543
 5421SOL     OW17158   2.677   4.296   2.187
 5421SOL    HW117159   2.684   4.207   2.141
 5421SOL    HW217160   2.583   4.330   2.179
 5422SOL     OW17161   3.519   4.328   3.068
 5422SOL    HW117162   3.481   4.259   3.130
 5422SOL    HW217163   3.601   4.292   3.024
 5423SOL     OW17164   2.533   4.188   3.131
 5423SOL    HW117165   2.499   4.099   3.101
 5423SOL    HW217166   2.559   4.242   3.051
 5424SOL     OW17167   2.335   4.224   2.053
 5424SOL    HW117168   2.396   4.304   2.057
 5424SOL    HW217169   2.240   4.255   2.060
 5425SOL     OW17170   3.588   3.859   2.385
 5425SOL    HW117171   3.661   3.842   2.318
 5425SOL    HW217172   3.557   3.772   2.423
 5426SOL     OW17173   3.142   4.651   2.534
 5426SOL    HW117174   3.202   4.570   2.536
 5426SOL    HW217175   3.182   4.720   2.474
 5427SOL     OW17176   3.703   3.899   2.825
 5427SOL    HW117177   3.742   3.814   2.789
 5427SOL    HW217178   3.605   3.901   2.806
 5428SOL     OW17179   2.125   4.050   2.582
 5428SOL    HW117180   2.046   4.101   2.548
 5428SOL    HW217181   2.116   4.035   2.680
 5429SOL     OW17182   2.778   4.634   2.153
 5429SOL    HW117183   2.841   4.672   2.085
 5429SOL    HW217184   2.818   4.551   2.192
 5430SOL     OW17185   2.901   4.822   2.558
 5430SOL    HW117186   2.831   4.775   2.612
 5430SOL    HW217187   2.960   4.754   2.515
 5431SOL     OW17188   2.876   3.960   2.833
 5431SOL    HW117189   2.868   3.924   2.740
 5431SOL    HW217190   2.874   3.884   2.898
 5432SOL     OW17191   3.571   4.109   3.243
 5432SOL    HW117192   3.644   4.178   3.247
 5432SOL    HW217193   3.599   4.034   3.184
 5433SOL     OW17194   2.534   3.927   3.351
 5433SOL    HW117195   2.624   3.911   3.311
 5433SOL    HW217196   2.542   3.932   3.450
 5434SOL     OW17197   1.937   4.069   1.895
 5434SOL    HW117198   1.845   4.041   1.866
 5434SOL    HW217199   1.968   4.146   1.839
 5435SOL     OW17200   1.934   3.890   2.180
 5435SOL    HW117201   1.917   3.973   2.126
 5435SOL    HW217202   2.024   3.853   2.158
 5436SOL     OW17203   2.578   4.289   3.570
 5436SOL    HW117204   2.597   4.354   3.644
 5436SOL    HW217205   2.638   4.209   3.579
 5437SOL     OW17206   3.087   4.049   2.311
 5437SOL    HW117207   3.152   3.975   2.300
 5437SOL    HW217208   3.107   4.099   2.395
 5438SOL     OW17209   3.639   4.066   3.504
 5438SOL    HW117210   3.622   4.097   3.410
 5438SOL    HW217211   3.555   4.029   3.542
 5439SOL     OW17212   2.945   4.708   1.949
 5439SOL    HW117213   2.922   4.761   1.867
 5439SOL    HW217214   3.026   4.652   1.930
 5440SOL     OW17215   3.686   3.916   3.089
 5440SOL    HW117216   3.682   3.826   3.133
 5440SOL    HW217217   3.689   3.905   2.990
 5441SOL     OW17218   2.290   4.148   2.382
 5441SOL    HW117219   2.320   4.076   2.320
 5441SOL    HW217220   2.251   4.108   2.465
 5442SOL     OW17221   2.179   4.271   3.142
 5442SOL    HW117222   2.217   4.212   3.214
 5442SOL    HW217223   2.219   4.245   3.054
 5443SOL     OW17224   3.286   3.938   2.974
 5443SOL    HW117225   3.338   3.873   3.029
 5443SOL    HW217226   3.237   4.001   3.035
 5444SOL     OW17227   2.863   3.758   3.016
 5444SOL    HW117228   2.800   3.686   2.985
 5444SOL    HW217229   2.956   3.722   3.016
 5445SOL     OW17230   3.214   3.776   2.030
 5445SOL    HW117231   3.249   3.735   1.946
 5445SOL    HW217232   3.124   3.738   2.050
 5446SOL     OW17233   3.162   4.177   2.553
 5446SOL    HW117234   3.103   4.257   2.557
 5446SOL    HW217235   3.177   4.142   2.646
 5447SOL     OW17236   3.455   3.945   2.744
 5447SOL    HW117237   3.371   3.944   2.798
 5447SOL    HW217238   3.457   4.028   2.688
 5448SOL     OW17239   2.092   4.352   3.837
 5448SOL    HW117240   1.999   4.350   3.874
 5448SOL    HW217241   2.093   4.313   3.745
 5449SOL     OW17242   2.087   3.999   4.720
 5449SOL    HW117243   2.122   3.982   4.812
 5449SOL    HW217244   1.999   3.954   4.708
 5450SOL     OW17245   1.881   4.092   4.371
 5450SOL    HW117246   1.799   4.135   4.410
 5450SOL    HW217247   1.853   4.019   4.308
 5451SOL     OW17248   3.617   4.331   3.955
 5451SOL    HW117249   3.605   4.318   3.856
 5451SOL    HW217250   3.587   4.250   4.004
 5452SOL     OW17251   2.547   4.736   4.389
 5452SOL    HW117252   2.616   4.720   4.459
 5452SOL    HW217253   2.474   4.793   4.427
 5453SOL     OW17254   2.300   4.116   5.223
 5453SOL    HW117255   2.382   4.060   5.232
 5453SOL    HW217256   2.219   4.058   5.227
 5454SOL     OW17257   3.465   4.171   4.461
 5454SOL    HW117258   3.391   4.217   4.411
 5454SOL    HW217259   3.516   4.239   4.514
 5455SOL     OW17260   3.456   3.838   5.204
 5455SOL    HW117261   3.438   3.905   5.132
 5455SOL    HW217262   3.453   3.884   5.293
 5456SOL     OW17263   1.984   4.367   4.287
 5456SOL    HW117264   1.939   4.279   4.304
 5456SOL    HW217265   1.983   4.421   4.371
 5457SOL     OW17266   1.975   4.461   5.321
 5457SOL    HW117267   2.063   4.448   5.366
 5457SOL    HW217268   1.962   4.558   5.299
 5458SOL     OW17269   2.671   3.728   4.226
 5458SOL    HW117270   2.711   3.819   4.217
 5458SOL    HW217271   2.571   3.736   4.232
 5459SOL     OW17272   2.179   3.975   5.525
 5459SOL    HW117273   2.250   4.046   5.531
 5459SOL    HW217274   2.091   4.014   5.553
 5460SOL     OW17275   3.143   4.069   4.668
 5460SOL    HW117276   3.057   4.019   4.655
 5460SOL    HW217277   3.205   4.015   4.724
 5461SOL     OW17278   2.669   4.329   5.189
 5461SOL    HW117279   2.622   4.326   5.278
 5461SOL    HW217280   2.618   4.274   5.123
 5462SOL     OW17281   3.256   4.193   5.398
 5462SOL    HW117282   3.236   4.236   5.486
 5462SOL    HW217283   3.334   4.131   5.407
 5463SOL     OW17284   2.853   4.134   4.966
 5463SOL    HW117285   2.776   4.168   5.020
 5463SOL    HW217286   2.819   4.083   4.887
 5464SOL     OW17287   2.903   4.425   4.153
 5464SOL    HW117288   2.929   4.421   4.249
 5464SOL    HW217289   2.818   4.374   4.139
 5465SOL     OW17290   2.727   4.072   3.919
 5465SOL    HW117291   2.786   4.135   3.870
 5465SOL    HW217292   2.746   3.978   3.890
 5466SOL     OW17293   3.581   4.309   5.555
 5466SOL    HW117294   3.555   4.398   5.519
 5466SOL    HW217295   3.579   4.241   5.482
 5467SOL     OW17296   2.412   3.920   4.609
 5467SOL    HW117297   2.407   3.915   4.709
 5467SOL    HW217298   2.414   4.016   4.580
 5468SOL     OW17299   3.320   4.459   4.452
 5468SOL    HW117300   3.315   4.394   4.527
 5468SOL    HW217301   3.400   4.518   4.465
 5469SOL     OW17302   2.064   4.009   5.222
 5469SOL    HW117303   1.984   4.069   5.209
 5469SOL    HW217304   2.054   3.960   5.308
 5470SOL     OW17305   3.262   3.831   4.150
 5470SOL    HW117306   3.238   3.794   4.060
 5470SOL    HW217307   3.361   3.847   4.154
 5471SOL     OW17308   2.244   4.424   4.204
 5471SOL    HW117309   2.289   4.334   4.201
 5471SOL    HW217310   2.150   4.413   4.237
 5472SOL     OW17311   3.409   3.946   5.453
 5472SOL    HW117312   3.404   3.983   5.545
 5472SOL    HW217313   3.337   3.877   5.441
 5473SOL     OW17314   2.476   3.846   3.841
 5473SOL    HW117315   2.574   3.824   3.848
 5473SOL    HW217316   2.445   3.829   3.748
 5474SOL     OW17317   2.643   3.988   5.473
 5474SOL    HW117318   2.710   3.927   5.516
 5474SOL    HW217319   2.570   4.007   5.538
 5475SOL     OW17320   3.213   4.314   5.157
 5475SOL    HW117321   3.241   4.271   5.242
 5475SOL    HW217322   3.238   4.410   5.158
 5476SOL     OW17323   2.784   4.227   4.623
 5476SOL    HW117324   2.759   4.218   4.527
 5476SOL    HW217325   2.832   4.145   4.654
 5477SOL     OW17326   2.401   3.788   4.236
 5477SOL    HW117327   2.320   3.789   4.294
 5477SOL    HW217328   2.404   3.871   4.181
 5478SOL     OW17329   2.159   3.759   3.895
 5478SOL    HW117330   2.208   3.843   3.874
 5478SOL    HW217331   2.221   3.694   3.940
 5479SOL     OW17332   2.797   3.960   4.204
 5479SOL    HW117333   2.749   4.001   4.126
 5479SOL    HW217334   2.896   3.958   4.185
 5480SOL     OW17335   2.938   4.407   5.188
 5480SOL    HW117336   2.858   4.346   5.191
 5480SOL    HW217337   3.019   4.354   5.164
 5481SOL     OW17338   2.894   4.273   3.740
 5481SOL    HW117339   2.853   4.355   3.701
 5481SOL    HW217340   2.958   4.299   3.813
 5482SOL     OW17341   1.940   4.280   5.110
 5482SOL    HW117342   2.032   4.279   5.069
 5482SOL    HW217343   1.934   4.354   5.177
 5483SOL     OW17344   2.423   3.946   4.871
 5483SOL    HW117345   2.461   3.862   4.908
 5483SOL    HW217346   2.335   3.965   4.915
 5484SOL     OW17347   2.728   4.178   4.366
 5484SOL    HW117348   2.696   4.250   4.304
 5484SOL    HW217349   2.752   4.097   4.313
 5485SOL     OW17350   2.879   3.763   4.477
 5485SOL    HW117351   2.807   3.768   4.408
 5485SOL    HW217352   2.855   3.694   4.546
 5486SOL     OW17353   3.328   4.314   4.716
 5486SOL    HW117354   3.298   4.219   4.723
 5486SOL    HW217355   3.401   4.330   4.782
 5487SOL     OW17356   3.252   4.299   3.802
 5487SOL    HW117357   3.198   4.278   3.883
 5487SOL    HW217358   3.343   4.258   3.811
 5488SOL     OW17359   2.389   3.980   4.052
 5488SOL    HW117360   2.416   3.921   3.977
 5488SOL    HW217361   2.389   4.075   4.021
 5489SOL     OW17362   2.777   3.813   5.126
 5489SOL    HW117363   2.802   3.793   5.031
 5489SOL    HW217364   2.849   3.869   5.168
 5490SOL     OW17365   2.272   4.537   4.975
 5490SOL    HW117366   2.358   4.549   5.025
 5490SOL    HW217367   2.230   4.450   5.002
 5491SOL     OW17368   3.136   4.110   4.986
 5491SOL    HW117369   3.157   4.184   5.050
 5491SOL    HW217370   3.047   4.127   4.943
 5492SOL     OW17371   2.428   4.261   4.589
 5492SOL    HW117372   2.440   4.327   4.515
 5492SOL    HW217373   2.474   4.295   4.672
 5493SOL     OW17374   3.444   4.363   4.196
 5493SOL    HW117375   3.413   4.424   4.269
 5493SOL    HW217376   3.494   4.415   4.127
 5494SOL     OW17377   2.875   3.829   5.494
 5494SOL    HW117378   2.881   3.914   5.442
 5494SOL    HW217379   2.907   3.753   5.437
 5495SOL     OW17380   2.366   3.774   5.464
 5495SOL    HW117381   2.324   3.717   5.394
 5495SOL    HW217382   2.300   3.843   5.496
 5496SOL     OW17383   3.071   4.249   3.999
 5496SOL    HW117384   3.084   4.165   4.053
 5496SOL    HW217385   3.042   4.323   4.059
 5497SOL     OW17386   2.169   3.937   4.955
 5497SOL    HW117387   2.146   3.974   5.045
 5497SOL    HW217388   2.139   3.842   4.949
 5498SOL     OW17389   2.594   4.358   4.788
 5498SOL    HW117390   2.653   4.332   4.712
 5498SOL    HW217391   2.566   4.454   4.777
 5499SOL     OW17392   3.590   4.659   5.578
 5499SOL    HW117393   3.544   4.652   5.489
 5499SOL    HW217394   3.528   4.703   5.644
 5500SOL     OW17395   2.169   3.787   4.342
 5500SOL    HW117396   2.158   3.881   4.375
 5500SOL    HW217397   2.164   3.724   4.419
 5501SOL     OW17398   3.484   4.091   4.098
 5501SOL    HW117399   3.486   4.015   4.162
 5501SOL    HW217400   3.436   4.168   4.138
 5502SOL     OW17401   3.402   3.998   3.849
 5502SOL    HW117402   3.341   3.923   3.872
 5502SOL    HW217403   3.424   4.050   3.932
 5503SOL     OW17404   2.181   4.534   4.673
 5503SOL    HW117405   2.274   4.570   4.678
 5503SOL    HW217406   2.175   4.449   4.725
 5504SOL     OW17407   2.201   4.233   4.730
 5504SOL    HW117408   2.149   4.150   4.713
 5504SOL    HW217409   2.278   4.238   4.666
 5505SOL     OW17410   3.000   4.104   5.402
 5505SOL    HW117411   2.955   4.167   5.466
 5505SOL    HW217412   3.093   4.135   5.385
 5506SOL     OW17413   3.022   3.931   5.201
 5506SOL    HW117414   3.022   3.995   5.278
 5506SOL    HW217415   3.050   3.979   5.118
 5507SOL     OW17416   1.902   4.268   4.838
 5507SOL    HW117417   1.987   4.235   4.797
 5507SOL    HW217418   1.915   4.283   4.936
 5508SOL     OW17419   2.051   4.244   5.446
 5508SOL    HW117420   2.110   4.204   5.376
 5508SOL    HW217421   1.993   4.315   5.405
 5509SOL     OW17422   2.677   4.296   4.049
 5509SOL    HW117423   2.684   4.207   4.003
 5509SOL    HW217424   2.583   4.330   4.041
 5510SOL     OW17425   3.519   4.328   4.930
 5510SOL    HW117426   3.481   4.259   4.992
 5510SOL    HW217427   3.601   4.292   4.886
 5511SOL     OW17428   2.533   4.188   4.993
 5511SOL    HW117429   2.499   4.099   4.963
 5511SOL    HW217430   2.559   4.242   4.913
 5512SOL     OW17431   2.335   4.224   3.915
 5512SOL    HW117432   2.396   4.304   3.919
 5512SOL    HW217433   2.240   4.255   3.922
 5513SOL     OW17434   3.588   3.859   4.247
 5513SOL    HW117435   3.661   3.842   4.180
 5513SOL    HW217436   3.557   3.772   4.285
 5514SOL     OW17437   3.142   4.651   4.396
 5514SOL    HW117438   3.202   4.570   4.398
 5514SOL    HW217439   3.182   4.720   4.336
 5515SOL     OW17440   3.703   3.899   4.687
 5515SOL    HW117441   3.742   3.814   4.651
 5515SOL    HW217442   3.605   3.901   4.668
 5516SOL     OW17443   2.125   4.050   4.444
 5516SOL    HW117444   2.046   4.101   4.410
 5516SOL    HW217445   2.116   4.035   4.542
 5517SOL     OW17446   2.778   4.634   4.015
 5517SOL    HW117447   2.841   4.672   3.947
 5517SOL    HW217448   2.818   4.551   4.054
 5518SOL     OW17449   2.901   4.822   4.420
 5518SOL    HW117450   2.831   4.775   4.474
 5518SOL    HW217451   2.960   4.754   4.377
 5519SOL     OW17452   2.876   3.960   4.695
 5519SOL    HW117453   2.868   3.924   4.602
 5519SOL    HW217454   2.874   3.884   4.760
 5520SOL     OW17455   3.571   4.109   5.105
 5520SOL    HW117456   3.644   4.178   5.109
 5520SOL    HW217457   3.599   4.034   5.046
 5521SOL     OW17458   2.534   3.927   5.213
 5521SOL    HW117459   2.624   3.911   5.173
 5521SOL    HW217460   2.542   3.932   5.312
 5522SOL     OW17461   1.937   4.069   3.757
 5522SOL    HW117462   1.845   4.041   3.728
 5522SOL    HW217463   1.968   4.146   3.701
 5523SOL     OW17464   1.934   3.890   4.042
 5523SOL    HW117465   1.917   3.973   3.988
 5523SOL    HW217466   2.024   3.853   4.020
 5524SOL     OW17467   2.578   4.289   5.432
 5524SOL    HW117468   2.597   4.354   5.506
 5524SOL    HW217469   2.638   4.209   5.441
 5525SOL     OW17470   3.087   4.049   4.173
 5525SOL    HW117471   3.152   3.975   4.162
 5525SOL    HW217472   3.107   4.099   4.257
 5526SOL     OW17473   3.639   4.066   5.366
 5526SOL    HW117474   3.622   4.097   5.272
 5526SOL    HW217475   3.555   4.029   5.404
 5527SOL     OW17476   2.945   4.708   3.811
 5527SOL    HW117477   2.922   4.761   3.729
 5527SOL    HW217478   3.026   4.652   3.792
 5528SOL     OW17479   3.686   3.916   4.951
 5528SOL    HW117480   3.682   3.826   4.995
 5528SOL    HW217481   3.689   3.905   4.852
 5529SOL     OW17482   2.290   4.148   4.244
 5529SOL    HW117483   2.320   4.076   4.182
 5529SOL    HW217484   2.251   4.108   4.327
 5530SOL     OW17485   2.179   4.271   5.004
 5530SOL    HW117486   2.217   4.212   5.076
 5530SOL    HW217487   2.219   4.245   4.916
 5531SOL     OW17488   3.286   3.938   4.836
 5531SOL    HW117489   3.338   3.873   4.891
 5531SOL    HW217490   3.237   4.001   4.897
 5532SOL     OW17491   2.863   3.758   4.878
 5532SOL    HW117492   2.800   3.686   4.847
 5532SOL    HW217493   2.956   3.722   4.878
 5533SOL     OW17494   3.214   3.776   3.892
 5533SOL    HW117495   3.249   3.735   3.808
 5533SOL    HW217496   3.124   3.738   3.912
 5534SOL     OW17497   3.162   4.177   4.415
 5534SOL    HW117498   3.103   4.257   4.419
 5534SOL    HW217499   3.177   4.142   4.508
 5535SOL     OW17500   3.455   3.945   4.606
 5535SOL    HW117501   3.371   3.944   4.660
 5535SOL    HW217502   3.457   4.028   4.550
 5536SOL     OW17503   2.092   4.352   5.699
 5536SOL    HW117504   1.999   4.350   5.736
 5536SOL    HW217505   2.093   4.313   5.607
 5537SOL     OW17506   2.087   3.999   6.582
 5537SOL    HW117507   2.122   3.982   6.674
 5537SOL    HW217508   1.999   3.954   6.570
 5538SOL     OW17509   1.881   4.092   6.233
 5538SOL    HW117510   1.799   4.135   6.272
 5538SOL    HW217511   1.853   4.019   6.170
 5539SOL     OW17512   3.617   4.331   5.817
 5539SOL    HW117513   3.605   4.318   5.718
 5539SOL    HW217514   3.587   4.250   5.866
 5540SOL     OW17515   2.547   4.736   6.251
 5540SOL    HW117516   2.616   4.720   6.321
 5540SOL    HW217517   2.474   4.793   6.289
 5541SOL     OW17518   2.300   4.116   7.085
 5541SOL    HW117519   2.382   4.060   7.094
 5541SOL    HW217520   2.219   4.058   7.089
 5542SOL     OW17521   3.465   4.171   6.323
 5542SOL    HW117522   3.391   4.217   6.273
 5542SOL    HW217523   3.516   4.239   6.376
 5543SOL     OW17524   3.456   3.838   7.066
 5543SOL    HW117525   3.438   3.905   6.994
 5543SOL    HW217526   3.453   3.884   7.155
 5544SOL     OW17527   1.984   4.367   6.149
 5544SOL    HW117528   1.939   4.279   6.166
 5544SOL    HW217529   1.983   4.421   6.233
 5545SOL     OW17530   1.975   4.461   7.183
 5545SOL    HW117531   2.063   4.448   7.228
 5545SOL    HW217532   1.962   4.558   7.161
 5546SOL     OW17533   2.671   3.728   6.088
 5546SOL    HW117534   2.711   3.819   6.079
 5546SOL    HW217535   2.571   3.736   6.094
 5547SOL     OW17536   2.179   3.975   7.387
 5547SOL    HW117537   2.250   4.046   7.393
 5547SOL    HW217538   2.091   4.014   7.415
 5548SOL     OW17539   3.143   4.069   6.530
 5548SOL    HW117540   3.057   4.019   6.517
 5548SOL    HW217541   3.205   4.015   6.586
 5549SOL     OW17542   2.669   4.329   7.051
 5549SOL    HW117543   2.622   4.326   7.140
 5549SOL    HW217544   2.618   4.274   6.985
 5550SOL     OW17545   3.256   4.193   7.260
 5550SOL    HW117546   3.236   4.236   7.348
 5550SOL    HW217547   3.334   4.131   7.269
 5551SOL     OW17548   2.853   4.134   6.828
 5551SOL    HW117549   2.776   4.168   6.882
 5551SOL    HW217550   2.819   4.083   6.749
 5552SOL     OW17551   2.903   4.425   6.015
 5552SOL    HW117552   2.929   4.421   6.111
 5552SOL    HW217553   2.818   4.374   6.001
 5553SOL     OW17554   2.727   4.072   5.781
 5553SOL    HW117555   2.786   4.135   5.732
 5553SOL    HW217556   2.746   3.978   5.752
 5554SOL     OW17557   3.581   4.309   7.417
 5554SOL    HW117558   3.555   4.398   7.381
 5554SOL    HW217559   3.579   4.241   7.344
 5555SOL     OW17560   2.412   3.920   6.471
 5555SOL    HW117561   2.407   3.915   6.571
 5555SOL    HW217562   2.414   4.016   6.442
 5556SOL     OW17563   3.320   4.459   6.314
 5556SOL    HW117564   3.315   4.394   6.389
 5556SOL    HW217565   3.400   4.518   6.327
 5557SOL     OW17566   2.064   4.009   7.084
 5557SOL    HW117567   1.984   4.069   7.071
 5557SOL    HW217568   2.054   3.960   7.170
 5558SOL     OW17569   3.262   3.831   6.012
 5558SOL    HW117570   3.238   3.794   5.922
 5558SOL    HW217571   3.361   3.847   6.016
 5559SOL     OW17572   2.244   4.424   6.066
 5559SOL    HW117573   2.289   4.334   6.063
 5559SOL    HW217574   2.150   4.413   6.099
 5560SOL     OW17575   3.409   3.946   7.315
 5560SOL    HW117576   3.404   3.983   7.407
 5560SOL    HW217577   3.337   3.877   7.303
 5561SOL     OW17578   2.476   3.846   5.703
 5561SOL    HW117579   2.574   3.824   5.710
 5561SOL    HW217580   2.445   3.829   5.610
 5562SOL     OW17581   2.643   3.988   7.335
 5562SOL    HW117582   2.710   3.927   7.378
 5562SOL    HW217583   2.570   4.007   7.400
 5563SOL     OW17584   3.213   4.314   7.019
 5563SOL    HW117585   3.241   4.271   7.104
 5563SOL    HW217586   3.238   4.410   7.020
 5564SOL     OW17587   2.784   4.227   6.485
 5564SOL    HW117588   2.759   4.218   6.389
 5564SOL    HW217589   2.832   4.145   6.516
 5565SOL     OW17590   2.401   3.788   6.098
 5565SOL    HW117591   2.320   3.789   6.156
 5565SOL    HW217592   2.404   3.871   6.043
 5566SOL     OW17593   2.159   3.759   5.757
 5566SOL    HW117594   2.208   3.843   5.736
 5566SOL    HW217595   2.221   3.694   5.802
 5567SOL     OW17596   2.797   3.960   6.066
 5567SOL    HW117597   2.749   4.001   5.988
 5567SOL    HW217598   2.896   3.958   6.047
 5568SOL     OW17599   2.938   4.407   7.050
 5568SOL    HW117600   2.858   4.346   7.053
 5568SOL    HW217601   3.019   4.354   7.026
 5569SOL     OW17602   2.894   4.273   5.602
 5569SOL    HW117603   2.853   4.355   5.563
 5569SOL    HW217604   2.958   4.299   5.675
 5570SOL     OW17605   1.940   4.280   6.972
 5570SOL    HW117606   2.032   4.279   6.931
 5570SOL    HW217607   1.934   4.354   7.039
 5571SOL     OW17608   2.423   3.946   6.733
 5571SOL    HW117609   2.461   3.862   6.770
 5571SOL    HW217610   2.335   3.965   6.777
 5572SOL     OW17611   2.728   4.178   6.228
 5572SOL    HW117612   2.696   4.250   6.166
 5572SOL    HW217613   2.752   4.097   6.175
 5573SOL     OW17614   2.879   3.763   6.339
 5573SOL    HW117615   2.807   3.768   6.270
 5573SOL    HW217616   2.855   3.694   6.408
 5574SOL     OW17617   3.328   4.314   6.578
 5574SOL    HW117618   3.298   4.219   6.585
 5574SOL    HW217619   3.401   4.330   6.644
 5575SOL     OW17620   3.252   4.299   5.664
 5575SOL    HW117621   3.198   4.278   5.745
 5575SOL    HW217622   3.343   4.258   5.673
 5576SOL     OW17623   2.389   3.980   5.914
 5576SOL    HW117624   2.416   3.921   5.839
 5576SOL    HW217625   2.389   4.075   5.883
 5577SOL     OW17626   2.777   3.813   6.988
 5577SOL    HW117627   2.802   3.793   6.893
 5577SOL    HW217628   2.849   3.869   7.030
 5578SOL     OW17629   2.272   4.537   6.837
 5578SOL    HW117630   2.358   4.549   6.887
 5578SOL    HW217631   2.230   4.450   6.864
 5579SOL     OW17632   3.136   4.110   6.848
 5579SOL    HW117633   3.157   4.184   6.912
 5579SOL    HW217634   3.047   4.127   6.805
 5580SOL     OW17635   2.428   4.261   6.451
 5580SOL    HW117636   2.440   4.327   6.377
 5580SOL    HW217637   2.474   4.295   6.534
 5581SOL     OW17638   3.444   4.363   6.058
 5581SOL    HW117639   3.413   4.424   6.131
 5581SOL    HW217640   3.494   4.415   5.989
 5582SOL     OW17641   2.875   3.829   7.356
 5582SOL    HW117642   2.881   3.914   7.304
 5582SOL    HW217643   2.907   3.753   7.299
 5583SOL     OW17644   2.366   3.774   7.326
 5583SOL    HW117645   2.324   3.717   7.256
 5583SOL    HW217646   2.300   3.843   7.358
 5584SOL     OW17647   3.071   4.249   5.861
 5584SOL    HW117648   3.084   4.165   5.915
 5584SOL    HW217649   3.042   4.323   5.921
 5585SOL     OW17650   2.169   3.937   6.817
 5585SOL    HW117651   2.146   3.974   6.907
 5585SOL    HW217652   2.139   3.842   6.811
 5586SOL     OW17653   2.594   4.358   6.650
 5586SOL    HW117654   2.653   4.332   6.574
 5586SOL    HW217655   2.566   4.454   6.639
 5587SOL     OW17656   3.590   4.659   7.440
 5587SOL    HW117657   3.544   4.652   7.351
 5587SOL    HW217658   3.528   4.703   7.506
 5588SOL     OW17659   2.169   3.787   6.204
 5588SOL    HW117660   2.158   3.881   6.237
 5588SOL    HW217661   2.164   3.724   6.281
 5589SOL     OW17662   3.484   4.091   5.960
 5589SOL    HW117663   3.486   4.015   6.024
 5589SOL    HW217664   3.436   4.168   6.000
 5590SOL     OW17665   3.402   3.998   5.711
 5590SOL    HW117666   3.341   3.923   5.734
 5590SOL    HW217667   3.424   4.050   5.794
 5591SOL     OW17668   2.181   4.534   6.535
 5591SOL    HW117669   2.274   4.570   6.540
 5591SOL    HW217670   2.175   4.449   6.587
 5592SOL     OW17671   2.201   4.233   6.592
 5592SOL    HW117672   2.149   4.150   6.575
 5592SOL    HW217673   2.278   4.238   6.528
 5593SOL     OW17674   3.000   4.104   7.264
 5593SOL    HW117675   2.955   4.167   7.328
 5593SOL    HW217676   3.093   4.135   7.247
 5594SOL     OW17677   3.022   3.931   7.063
 5594SOL    HW117678   3.022   3.995   7.140
 5594SOL    HW217679   3.050   3.979   6.980
 5595SOL     OW17680   1.902   4.268   6.700
 5595SOL    HW117681   1.987   4.235   6.659
 5595SOL    HW217682   1.915   4.283   6.798
 5596SOL     OW17683   2.051   4.244   7.308
 5596SOL    HW117684   2.110   4.204   7.238
 5596SOL    HW217685   1.993   4.315   7.267
 5597SOL     OW17686   2.677   4.296   5.911
 5597SOL    HW117687   2.684   4.207   5.865
 5597SOL    HW217688   2.583   4.330   5.903
 5598SOL     OW17689   3.519   4.328   6.792
 5598SOL    HW117690   3.481   4.259   6.854
 5598SOL    HW217691   3.601   4.292   6.748
 5599SOL     OW17692   2.533   4.188   6.855
 5599SOL    HW117693   2.499   4.099   6.825
 5599SOL    HW217694   2.559   4.242   6.775
 5600SOL     OW17695   2.335   4.224   5.777
 5600SOL    HW117696   2.396   4.304   5.781
 5600SOL    HW217697   2.240   4.255   5.784
 5601SOL     OW17698   3.588   3.859   6.109
 5601SOL    HW117699   3.661   3.842   6.042
 5601SOL    HW217700   3.557   3.772   6.147
 5602SOL     OW17701   3.142   4.651   6.258
 5602SOL    HW117702   3.202   4.570   6.260
 5602SOL    HW217703   3.182   4.720   6.198
 5603SOL     OW17704   3.703   3.899   6.549
 5603SOL    HW117705   3.742   3.814   6.513
 5603SOL    HW217706   3.605   3.901   6.530
 5604SOL     OW17707   2.125   4.050   6.306
 5604SOL    HW117708   2.046   4.101   6.272
 5604SOL    HW217709   2.116   4.035   6.404
 5605SOL     OW17710   2.778   4.634   5.877
 5605SOL    HW117711   2.841   4.672   5.809
 5605SOL    HW217712   2.818   4.551   5.916
 5606SOL     OW17713   2.901   4.822   6.282
 5606SOL    HW117714   2.831   4.775   6.336
 5606SOL    HW217715   2.960   4.754   6.239
 5607SOL     OW17716   2.876   3.960   6.557
 5607SOL    HW117717   2.868   3.924   6.464
 5607SOL    HW217718   2.874   3.884   6.622
 5608SOL     OW17719   3.571   4.109   6.967
 5608SOL    HW117720   3.644   4.178   6.971
 5608SOL    HW217721   3.599   4.034   6.908
 5609SOL     OW17722   2.534   3.927   7.075
 5609SOL    HW117723   2.624   3.911   7.035
 5609SOL    HW217724   2.542   3.932   7.174
 5610SOL     OW17725   1.937   4.069   5.619
 5610SOL    HW117726   1.845   4.041   5.590
 5610SOL    HW217727   1.968   4.146   5.563
 5611SOL     OW17728   1.934   3.890   5.904
 5611SOL    HW117729   1.917   3.973   5.850
 5611SOL    HW217730   2.024   3.853   5.882
 5612SOL     OW17731   2.578   4.289   7.294
 5612SOL    HW117732   2.597   4.354   7.368
 5612SOL    HW217733   2.638   4.209   7.303
 5613SOL     OW17734   3.087   4.049   6.035
 5613SOL    HW117735   3.152   3.975   6.024
 5613SOL    HW217736   3.107   4.099   6.119
 5614SOL     OW17737   3.639   4.066   7.228
 5614SOL    HW117738   3.622   4.097   7.134
 5614SOL    HW217739   3.555   4.029   7.266
 5615SOL     OW17740   2.945   4.708   5.673
 5615SOL    HW117741   2.922   4.761   5.591
 5615SOL    HW217742   3.026   4.652   5.654
 5616SOL     OW17743   3.686   3.916   6.813
 5616SOL    HW117744   3.682   3.826   6.857
 5616SOL    HW217745   3.689   3.905   6.714
 5617SOL     OW17746   2.290   4.148   6.106
 5617SOL    HW117747   2.320   4.076   6.044
 5617SOL    HW217748   2.251   4.108   6.189
 5618SOL     OW17749   2.179   4.271   6.866
 5618SOL    HW117750   2.217   4.212   6.938
 5618SOL    HW217751   2.219   4.245   6.778
 5619SOL     OW17752   3.286   3.938   6.698
 5619SOL    HW117753   3.338   3.873   6.753
 5619SOL    HW217754   3.237   4.001   6.759
 5620SOL     OW17755   2.863   3.758   6.740
 5620SOL    HW117756   2.800   3.686   6.709
 5620SOL    HW217757   2.956   3.722   6.740
 5621SOL     OW17758   3.214   3.776   5.754
 5621SOL    HW117759   3.249   3.735   5.670
 5621SOL    HW217760   3.124   3.738   5.774
 5622SOL     OW17761   3.162   4.177   6.277
 5622SOL    HW117762   3.103   4.257   6.281
 5622SOL    HW217763   3.177   4.142   6.370
 5623SOL     OW17764   3.455   3.945   6.468
 5623SOL    HW117765   3.371   3.944   6.522
 5623SOL    HW217766   3.457   4.028   6.412
 5624SOL     OW17767   2.092   4.352   7.561
 5624SOL    HW117768   1.999   4.350   7.598
 5624SOL    HW217769   2.093   4.313   7.469
 5625SOL     OW17770   2.087   3.999   8.444
 5625SOL    HW117771   2.122   3.982   8.536
 5625SOL    HW217772   1.999   3.954   8.432
 5626SOL     OW17773   1.881   4.092   8.095
 5626SOL    HW117774   1.799   4.135   8.134
 5626SOL    HW217775   1.853   4.019   8.032
 5627SOL     OW17776   3.617   4.331   7.679
 5627SOL    HW117777   3.605   4.318   7.580
 5627SOL    HW217778   3.587   4.250   7.728
 5628SOL     OW17779   2.547   4.736   8.113
 5628SOL    HW117780   2.616   4.720   8.183
 5628SOL    HW217781   2.474   4.793   8.151
 5629SOL     OW17782   2.300   4.116   8.947
 5629SOL    HW117783   2.382   4.060   8.956
 5629SOL    HW217784   2.219   4.058   8.951
 5630SOL     OW17785   3.465   4.171   8.185
 5630SOL    HW117786   3.391   4.217   8.135
 5630SOL    HW217787   3.516   4.239   8.238
 5631SOL     OW17788   3.456   3.838   8.928
 5631SOL    HW117789   3.438   3.905   8.856
 5631SOL    HW217790   3.453   3.884   9.017
 5632SOL     OW17791   1.984   4.367   8.011
 5632SOL    HW117792   1.939   4.279   8.028
 5632SOL    HW217793   1.983   4.421   8.095
 5633SOL     OW17794   1.975   4.461   9.045
 5633SOL    HW117795   2.063   4.448   9.090
 5633SOL    HW217796   1.962   4.558   9.023
 5634SOL     OW17797   2.671   3.728   7.950
 5634SOL    HW117798   2.711   3.819   7.941
 5634SOL    HW217799   2.571   3.736   7.956
 5635SOL     OW17800   2.179   3.975   9.249
 5635SOL    HW117801   2.250   4.046   9.255
 5635SOL    HW217802   2.091   4.014   9.277
 5636SOL     OW17803   3.143   4.069   8.392
 5636SOL    HW117804   3.057   4.019   8.379
 5636SOL    HW217805   3.205   4.015   8.448
 5637SOL     OW17806   2.669   4.329   8.913
 5637SOL    HW117807   2.622   4.326   9.002
 5637SOL    HW217808   2.618   4.274   8.847
 5638SOL     OW17809   3.256   4.193   9.122
 5638SOL    HW117810   3.236   4.236   9.210
 5638SOL    HW217811   3.334   4.131   9.131
 5639SOL     OW17812   2.853   4.134   8.690
 5639SOL    HW117813   2.776   4.168   8.744
 5639SOL    HW217814   2.819   4.083   8.611
 5640SOL     OW17815   2.903   4.425   7.877
 5640SOL    HW117816   2.929   4.421   7.973
 5640SOL    HW217817   2.818   4.374   7.863
 5641SOL     OW17818   2.727   4.072   7.643
 5641SOL    HW117819   2.786   4.135   7.594
 5641SOL    HW217820   2.746   3.978   7.614
 5642SOL     OW17821   3.581   4.309   9.279
 5642SOL    HW117822   3.555   4.398   9.243
 5642SOL    HW217823   3.579   4.241   9.206
 5643SOL     OW17824   2.412   3.920   8.333
 5643SOL    HW117825   2.407   3.915   8.433
 5643SOL    HW217826   2.414   4.016   8.304
 5644SOL     OW17827   3.320   4.459   8.176
 5644SOL    HW117828   3.315   4.394   8.251
 5644SOL    HW217829   3.400   4.518   8.189
 5645SOL     OW17830   2.064   4.009   8.946
 5645SOL    HW117831   1.984   4.069   8.933
 5645SOL    HW217832   2.054   3.960   9.032
 5646SOL     OW17833   3.262   3.831   7.874
 5646SOL    HW117834   3.238   3.794   7.784
 5646SOL    HW217835   3.361   3.847   7.878
 5647SOL     OW17836   2.244   4.424   7.928
 5647SOL    HW117837   2.289   4.334   7.925
 5647SOL    HW217838   2.150   4.413   7.961
 5648SOL     OW17839   3.409   3.946   9.177
 5648SOL    HW117840   3.404   3.983   9.269
 5648SOL    HW217841   3.337   3.877   9.165
 5649SOL     OW17842   2.476   3.846   7.565
 5649SOL    HW117843   2.574   3.824   7.572
 5649SOL    HW217844   2.445   3.829   7.472
 5650SOL     OW17845   2.643   3.988   9.197
 5650SOL    HW117846   2.710   3.927   9.240
 5650SOL    HW217847   2.570   4.007   9.262
 5651SOL     OW17848   3.213   4.314   8.881
 5651SOL    HW117849   3.241   4.271   8.966
 5651SOL    HW217850   3.238   4.410   8.882
 5652SOL     OW17851   2.784   4.227   8.347
 5652SOL    HW117852   2.759   4.218   8.251
 5652SOL    HW217853   2.832   4.145   8.378
 5653SOL     OW17854   2.401   3.788   7.960
 5653SOL    HW117855   2.320   3.789   8.018
 5653SOL    HW217856   2.404   3.871   7.905
 5654SOL     OW17857   2.159   3.759   7.619
 5654SOL    HW117858   2.208   3.843   7.598
 5654SOL    HW217859   2.221   3.694   7.664
 5655SOL     OW17860   2.797   3.960   7.928
 5655SOL    HW117861   2.749   4.001   7.850
 5655SOL    HW217862   2.896   3.958   7.909
 5656SOL     OW17863   2.938   4.407   8.912
 5656SOL    HW117864   2.858   4.346   8.915
 5656SOL    HW217865   3.019   4.354   8.888
 5657SOL     OW17866   2.894   4.273   7.464
 5657SOL    HW117867   2.853   4.355   7.425
 5657SOL    HW217868   2.958   4.299   7.537
 5658SOL     OW17869   1.940   4.280   8.834
 5658SOL    HW117870   2.032   4.279   8.793
 5658SOL    HW217871   1.934   4.354   8.901
 5659SOL     OW17872   2.423   3.946   8.595
 5659SOL    HW117873   2.461   3.862   8.632
 5659SOL    HW217874   2.335   3.965   8.639
 5660SOL     OW17875   2.728   4.178   8.090
 5660SOL    HW117876   2.696   4.250   8.028
 5660SOL    HW217877   2.752   4.097   8.037
 5661SOL     OW17878   2.879   3.763   8.201
 5661SOL    HW117879   2.807   3.768   8.132
 5661SOL    HW217880   2.855   3.694   8.270
 5662SOL     OW17881   3.328   4.314   8.440
 5662SOL    HW117882   3.298   4.219   8.447
 5662SOL    HW217883   3.401   4.330   8.506
 5663SOL     OW17884   3.252   4.299   7.526
 5663SOL    HW117885   3.198   4.278   7.607
 5663SOL    HW217886   3.343   4.258   7.535
 5664SOL     OW17887   2.389   3.980   7.776
 5664SOL    HW117888   2.416   3.921   7.701
 5664SOL    HW217889   2.389   4.075   7.745
 5665SOL     OW17890   2.777   3.813   8.850
 5665SOL    HW117891   2.802   3.793   8.755
 5665SOL    HW217892   2.849   3.869   8.892
 5666SOL     OW17893   2.272   4.537   8.699
 5666SOL    HW117894   2.358   4.549   8.749
 5666SOL    HW217895   2.230   4.450   8.726
 5667SOL     OW17896   3.136   4.110   8.710
 5667SOL    HW117897   3.157   4.184   8.774
 5667SOL    HW217898   3.047   4.127   8.667
 5668SOL     OW17899   2.428   4.261   8.313
 5668SOL    HW117900   2.440   4.327   8.239
 5668SOL    HW217901   2.474   4.295   8.396
 5669SOL     OW17902   3.444   4.363   7.920
 5669SOL    HW117903   3.413   4.424   7.993
 5669SOL    HW217904   3.494   4.415   7.851
 5670SOL     OW17905   2.875   3.829   9.218
 5670SOL    HW117906   2.881   3.914   9.166
 5670SOL    HW217907   2.907   3.753   9.161
 5671SOL     OW17908   2.366   3.774   9.188
 5671SOL    HW117909   2.324   3.717   9.118
 5671SOL    HW217910   2.300   3.843   9.220
 5672SOL     OW17911   3.071   4.249   7.723
 5672SOL    HW117912   3.084   4.165   7.777
 5672SOL    HW217913   3.042   4.323   7.783
 5673SOL     OW17914   2.169   3.937   8.679
 5673SOL    HW117915   2.146   3.974   8.769
 5673SOL    HW217916   2.139   3.842   8.673
 5674SOL     OW17917   2.594   4.358   8.512
 5674SOL    HW117918   2.653   4.332   8.436
 5674SOL    HW217919   2.566   4.454   8.501
 5675SOL     OW17920   3.590   4.659   9.302
 5675SOL    HW117921   3.544   4.652   9.213
 5675SOL    HW217922   3.528   4.703   9.368
 5676SOL     OW17923   2.169   3.787   8.066
 5676SOL    HW117924   2.158   3.881   8.099
 5676SOL    HW217925   2.164   3.724   8.143
 5677SOL     OW17926   3.484   4.091   7.822
 5677SOL    HW117927   3.486   4.015   7.886
 5677SOL    HW217928   3.436   4.168   7.862
 5678SOL     OW17929   3.402   3.998   7.573
 5678SOL    HW117930   3.341   3.923   7.596
 5678SOL    HW217931   3.424   4.050   7.656
 5679SOL     OW17932   2.181   4.534   8.397
 5679SOL    HW117933   2.274   4.570   8.402
 5679SOL    HW217934   2.175   4.449   8.449
 5680SOL     OW17935   2.201   4.233   8.454
 5680SOL    HW117936   2.149   4.150   8.437
 5680SOL    HW217937   2.278   4.238   8.390
 5681SOL     OW17938   3.000   4.104   9.126
 5681SOL    HW117939   2.955   4.167   9.190
 5681SOL    HW217940   3.093   4.135   9.109
 5682SOL     OW17941   3.022   3.931   8.925
 5682SOL    HW117942   3.022   3.995   9.002
 5682SOL    HW217943   3.050   3.979   8.842
 5683SOL     OW17944   1.902   4.268   8.562
 5683SOL    HW117945   1.987   4.235   8.521
 5683SOL    HW217946   1.915   4.283   8.660
 5684SOL     OW17947   2.051   4.244   9.170
 5684SOL    HW117948   2.110   4.204   9.100
 5684SOL    HW217949   1.993   4.315   9.129
 5685SOL     OW17950   2.677   4.296   7.773
 5685SOL    HW117951   2.684   4.207   7.727
 5685SOL    HW217952   2.583   4.330   7.765
 5686SOL     OW17953   3.519   4.328   8.654
 5686SOL    HW117954   3.481   4.259   8.716
 5686SOL    HW217955   3.601   4.292   8.610
 5687SOL     OW17956   2.533   4.188   8.717
 5687SOL    HW117957   2.499   4.099   8.687
 5687SOL    HW217958   2.559   4.242   8.637
 5688SOL     OW17959   2.335   4.224   7.639
 5688SOL    HW117960   2.396   4.304   7.643
 5688SOL    HW217961   2.240   4.255   7.646
 5689SOL     OW17962   3.588   3.859   7.971
 5689SOL    HW117963   3.661   3.842   7.904
 5689SOL    HW217964   3.557   3.772   8.009
 5690SOL     OW17965   3.142   4.651   8.120
 5690SOL    HW117966   3.202   4.570   8.122
 5690SOL    HW217967   3.182   4.720   8.060
 5691SOL     OW17968   3.703   3.899   8.411
 5691SOL    HW117969   3.742   3.814   8.375
 5691SOL    HW217970   3.605   3.901   8.392
 5692SOL     OW17971   2.125   4.050   8.168
 5692SOL    HW117972   2.046   4.101   8.134
 5692SOL    HW217973   2.116   4.035   8.266
 5693SOL     OW17974   2.778   4.634   7.739
 5693SOL    HW117975   2.841   4.672   7.671
 5693SOL    HW217976   2.818   4.551   7.778
 5694SOL     OW17977   2.901   4.822   8.144
 5694SOL    HW117978   2.831   4.775   8.198
 5694SOL    HW217979   2.960   4.754   8.101
 5695SOL     OW17980   2.876   3.960   8.419
 5695SOL    HW117981   2.868   3.924   8.326
 5695SOL    HW217982   2.874   3.884   8.484
 5696SOL     OW17983   3.571   4.109   8.829
 5696SOL    HW117984   3.644   4.178   8.833
 5696SOL    HW217985   3.599   4.034   8.770
 5697SOL     OW17986   2.534   3.927   8.937
 5697SOL    HW117987   2.624   3.911   8.897
 5697SOL    HW217988   2.542   3.932   9.036
 5698SOL     OW17989   1.937   4.069   7.481
 5698SOL    HW117990   1.845   4.041   7.452
 5698SOL    HW217991   1.968   4.146   7.425
 5699SOL     OW17992   1.934   3.890   7.766
 5699SOL    HW117993   1.917   3.973   7.712
 5699SOL    HW217994   2.024   3.853   7.744
 5700SOL     OW17995   2.578   4.289   9.156
 5700SOL    HW117996   2.597   4.354   9.230
 5700SOL    HW217997   2.638   4.209   9.165
 5701SOL     OW17998   3.087   4.049   7.897
 5701SOL    HW117999   3.152   3.975   7.886
 5701SOL    HW218000   3.107   4.099   7.981
 5702SOL     OW18001   3.639   4.066   9.090
 5702SOL    HW118002   3.622   4.097   8.996
 5702SOL    HW218003   3.555   4.029   9.128
 5703SOL     OW18004   2.945   4.708   7.535
 5703SOL    HW118005   2.922   4.761   7.453
 5703SOL    HW218006   3.026   4.652   7.516
 5704SOL     OW18007   3.686   3.916   8.675
 5704SOL    HW118008   3.682   3.826   8.719
 5704SOL    HW218009   3.689   3.905   8.576
 5705SOL     OW18010   2.290   4.148   7.968
 5705SOL    HW118011   2.320   4.076   7.906
 5705SOL    HW218012   2.251   4.108   8.051
 5706SOL     OW18013   2.179   4.271   8.728
 5706SOL    HW118014   2.217   4.212   8.800
 5706SOL    HW218015   2.219   4.245   8.640
 5707SOL     OW18016   3.286   3.938   8.560
 5707SOL    HW118017   3.338   3.873   8.615
 5707SOL    HW218018   3.237   4.001   8.621
 5708SOL     OW18019   2.863   3.758   8.602
 5708SOL    HW118020   2.800   3.686   8.571
 5708SOL    HW218021   2.956   3.722   8.602
 5709SOL     OW18022   3.214   3.776   7.616
 5709SOL    HW118023   3.249   3.735   7.532
 5709SOL    HW218024   3.124   3.738   7.636
 5710SOL     OW18025   3.162   4.177   8.139
 5710SOL    HW118026   3.103   4.257   8.143
 5710SOL    HW218027   3.177   4.142   8.232
 5711SOL     OW18028   3.455   3.945   8.330
 5711SOL    HW118029   3.371   3.944   8.384
 5711SOL    HW218030   3.457   4.028   8.274
 5712SOL     OW18031   2.092   4.352   9.423
 5712SOL    HW118032   1.999   4.350   9.460
 5712SOL    HW218033   2.093   4.313   9.331
 5713SOL     OW18034   2.087   3.999  10.306
 5713SOL    HW118035   2.122   3.982  10.398
 5713SOL    HW218036   1.999   3.954  10.294
 5714SOL     OW18037   1.881   4.092   9.957
 5714SOL    HW118038   1.799   4.135   9.996
 5714SOL    HW218039   1.853   4.019   9.894
 5715SOL     OW18040   3.617   4.331   9.541
 5715SOL    HW118041   3.605   4.318   9.442
 5715SOL    HW218042   3.587   4.250   9.590
 5716SOL     OW18043   2.547   4.736   9.975
 5716SOL    HW118044   2.616   4.720  10.045
 5716SOL    HW218045   2.474   4.793  10.013
 5717SOL     OW18046   2.300   4.116  10.809
 5717SOL    HW118047   2.382   4.060  10.818
 5717SOL    HW218048   2.219   4.058  10.813
 5718SOL     OW18049   3.465   4.171  10.047
 5718SOL    HW118050   3.391   4.217   9.997
 5718SOL    HW218051   3.516   4.239  10.100
 5719SOL     OW18052   3.456   3.838  10.790
 5719SOL    HW118053   3.438   3.905  10.718
 5719SOL    HW218054   3.453   3.884  10.879
 5720SOL     OW18055   1.984   4.367   9.873
 5720SOL    HW118056   1.939   4.279   9.890
 5720SOL    HW218057   1.983   4.421   9.957
 5721SOL     OW18058   1.975   4.461  10.907
 5721SOL    HW118059   2.063   4.448  10.952
 5721SOL    HW218060   1.962   4.558  10.885
 5722SOL     OW18061   2.671   3.728   9.812
 5722SOL    HW118062   2.711   3.819   9.803
 5722SOL    HW218063   2.571   3.736   9.818
 5723SOL     OW18064   2.179   3.975  11.111
 5723SOL    HW118065   2.250   4.046  11.117
 5723SOL    HW218066   2.091   4.014  11.139
 5724SOL     OW18067   3.143   4.069  10.254
 5724SOL    HW118068   3.057   4.019  10.241
 5724SOL    HW218069   3.205   4.015  10.310
 5725SOL     OW18070   2.669   4.329  10.775
 5725SOL    HW118071   2.622   4.326  10.864
 5725SOL    HW218072   2.618   4.274  10.709
 5726SOL     OW18073   2.853   4.134  10.552
 5726SOL    HW118074   2.776   4.168  10.606
 5726SOL    HW218075   2.819   4.083  10.473
 5727SOL     OW18076   2.903   4.425   9.739
 5727SOL    HW118077   2.929   4.421   9.835
 5727SOL    HW218078   2.818   4.374   9.725
 5728SOL     OW18079   2.727   4.072   9.505
 5728SOL    HW118080   2.786   4.135   9.456
 5728SOL    HW218081   2.746   3.978   9.476
 5729SOL     OW18082   2.412   3.920  10.195
 5729SOL    HW118083   2.407   3.915  10.295
 5729SOL    HW218084   2.414   4.016  10.166
 5730SOL     OW18085   3.320   4.459  10.038
 5730SOL    HW118086   3.315   4.394  10.113
 5730SOL    HW218087   3.400   4.518  10.051
 5731SOL     OW18088   2.064   4.009  10.808
 5731SOL    HW118089   1.984   4.069  10.795
 5731SOL    HW218090   2.054   3.960  10.894
 5732SOL     OW18091   3.262   3.831   9.736
 5732SOL    HW118092   3.238   3.794   9.646
 5732SOL    HW218093   3.361   3.847   9.740
 5733SOL     OW18094   2.244   4.424   9.790
 5733SOL    HW118095   2.289   4.334   9.787
 5733SOL    HW218096   2.150   4.413   9.823
 5734SOL     OW18097   2.476   3.846   9.427
 5734SOL    HW118098   2.574   3.824   9.434
 5734SOL    HW218099   2.445   3.829   9.334
 5735SOL     OW18100   2.643   3.988  11.059
 5735SOL    HW118101   2.710   3.927  11.102
 5735SOL    HW218102   2.570   4.007  11.124
 5736SOL     OW18103   3.213   4.314  10.743
 5736SOL    HW118104   3.241   4.271  10.828
 5736SOL    HW218105   3.238   4.410  10.744
 5737SOL     OW18106   2.784   4.227  10.209
 5737SOL    HW118107   2.759   4.218  10.113
 5737SOL    HW218108   2.832   4.145  10.240
 5738SOL     OW18109   2.401   3.788   9.822
 5738SOL    HW118110   2.320   3.789   9.880
 5738SOL    HW218111   2.404   3.871   9.767
 5739SOL     OW18112   2.159   3.759   9.481
 5739SOL    HW118113   2.208   3.843   9.460
 5739SOL    HW218114   2.221   3.694   9.526
 5740SOL     OW18115   2.797   3.960   9.790
 5740SOL    HW118116   2.749   4.001   9.712
 5740SOL    HW218117   2.896   3.958   9.771
 5741SOL     OW18118   2.938   4.407  10.774
 5741SOL    HW118119   2.858   4.346  10.777
 5741SOL    HW218120   3.019   4.354  10.750
 5742SOL     OW18121   2.894   4.273   9.326
 5742SOL    HW118122   2.853   4.355   9.287
 5742SOL    HW218123   2.958   4.299   9.399
 5743SOL     OW18124   1.940   4.280  10.696
 5743SOL    HW118125   2.032   4.279  10.655
 5743SOL    HW218126   1.934   4.354  10.763
 5744SOL     OW18127   2.423   3.946  10.457
 5744SOL    HW118128   2.461   3.862  10.494
 5744SOL    HW218129   2.335   3.965  10.501
 5745SOL     OW18130   2.728   4.178   9.952
 5745SOL    HW118131   2.696   4.250   9.890
 5745SOL    HW218132   2.752   4.097   9.899
 5746SOL     OW18133   2.879   3.763  10.063
 5746SOL    HW118134   2.807   3.768   9.994
 5746SOL    HW218135   2.855   3.694  10.132
 5747SOL     OW18136   3.328   4.314  10.302
 5747SOL    HW118137   3.298   4.219  10.309
 5747SOL    HW218138   3.401   4.330  10.368
 5748SOL     OW18139   3.252   4.299   9.388
 5748SOL    HW118140   3.198   4.278   9.469
 5748SOL    HW218141   3.343   4.258   9.397
 5749SOL     OW18142   2.389   3.980   9.638
 5749SOL    HW118143   2.416   3.921   9.563
 5749SOL    HW218144   2.389   4.075   9.607
 5750SOL     OW18145   2.777   3.813  10.712
 5750SOL    HW118146   2.802   3.793  10.617
 5750SOL    HW218147   2.849   3.869  10.754
 5751SOL     OW18148   2.272   4.537  10.561
 5751SOL    HW118149   2.358   4.549  10.611
 5751SOL    HW218150   2.230   4.450  10.588
 5752SOL     OW18151   3.136   4.110  10.572
 5752SOL    HW118152   3.157   4.184  10.636
 5752SOL    HW218153   3.047   4.127  10.529
 5753SOL     OW18154   2.428   4.261  10.175
 5753SOL    HW118155   2.440   4.327  10.101
 5753SOL    HW218156   2.474   4.295  10.258
 5754SOL     OW18157   3.444   4.363   9.782
 5754SOL    HW118158   3.413   4.424   9.855
 5754SOL    HW218159   3.494   4.415   9.713
 5755SOL     OW18160   2.264   4.475  10.908
 5755SOL    HW118161   2.332   4.530  10.861
 5755SOL    HW218162   2.304   4.387  10.935
 5756SOL     OW18163   3.071   4.249   9.585
 5756SOL    HW118164   3.084   4.165   9.639
 5756SOL    HW218165   3.042   4.323   9.645
 5757SOL     OW18166   2.169   3.937  10.541
 5757SOL    HW118167   2.146   3.974  10.631
 5757SOL    HW218168   2.139   3.842  10.535
 5758SOL     OW18169   2.594   4.358  10.374
 5758SOL    HW118170   2.653   4.332  10.298
 5758SOL    HW218171   2.566   4.454  10.363
 5759SOL     OW18172   2.169   3.787   9.928
 5759SOL    HW118173   2.158   3.881   9.961
 5759SOL    HW218174   2.164   3.724  10.005
 5760SOL     OW18175   3.484   4.091   9.684
 5760SOL    HW118176   3.486   4.015   9.748
 5760SOL    HW218177   3.436   4.168   9.724
 5761SOL     OW18178   3.402   3.998   9.435
 5761SOL    HW118179   3.341   3.923   9.458
 5761SOL    HW218180   3.424   4.050   9.518
 5762SOL     OW18181   2.181   4.534  10.259
 5762SOL    HW118182   2.274   4.570  10.264
 5762SOL    HW218183   2.175   4.449  10.311
 5763SOL     OW18184   2.201   4.233  10.316
 5763SOL    HW118185   2.149   4.150  10.299
 5763SOL    HW218186   2.278   4.238  10.252
 5764SOL     OW18187   3.022   3.931  10.787
 5764SOL    HW118188   3.022   3.995  10.864
 5764SOL    HW218189   3.050   3.979  10.704
 5765SOL     OW18190   1.902   4.268  10.424
 5765SOL    HW118191   1.987   4.235  10.383
 5765SOL    HW218192   1.915   4.283  10.522
 5766SOL     OW18193   3.231   4.674  10.970
 5766SOL    HW118194   3.270   4.763  10.990
 5766SOL    HW218195   3.241   4.654  10.873
 5767SOL     OW18196   2.677   4.296   9.635
 5767SOL    HW118197   2.684   4.207   9.589
 5767SOL    HW218198   2.583   4.330   9.627
 5768SOL     OW18199   3.519   4.328  10.516
 5768SOL    HW118200   3.481   4.259  10.578
 5768SOL    HW218201   3.601   4.292  10.472
 5769SOL     OW18202   2.533   4.188  10.579
 5769SOL    HW118203   2.499   4.099  10.549
 5769SOL    HW218204   2.559   4.242  10.499
 5770SOL     OW18205   2.335   4.224   9.501
 5770SOL    HW118206   2.396   4.304   9.505
 5770SOL    HW218207   2.240   4.255   9.508
 5771SOL     OW18208   3.588   3.859   9.833
 5771SOL    HW118209   3.661   3.842   9.766
 5771SOL    HW218210   3.557   3.772   9.871
 5772SOL     OW18211   3.142   4.651   9.982
 5772SOL    HW118212   3.202   4.570   9.984
 5772SOL    HW218213   3.182   4.720   9.922
 5773SOL     OW18214   3.703   3.899  10.273
 5773SOL    HW118215   3.742   3.814  10.237
 5773SOL    HW218216   3.605   3.901  10.254
 5774SOL     OW18217   2.125   4.050  10.030
 5774SOL    HW118218   2.046   4.101   9.996
 5774SOL    HW218219   2.116   4.035  10.128
 5775SOL     OW18220   2.778   4.634   9.601
 5775SOL    HW118221   2.841   4.672   9.533
 5775SOL    HW218222   2.818   4.551   9.640
 5776SOL     OW18223   2.901   4.822  10.006
 5776SOL    HW118224   2.831   4.775  10.060
 5776SOL    HW218225   2.960   4.754   9.963
 5777SOL     OW18226   2.876   3.960  10.281
 5777SOL    HW118227   2.868   3.924  10.188
 5777SOL    HW218228   2.874   3.884  10.346
 5778SOL     OW18229   3.571   4.109  10.691
 5778SOL    HW118230   3.644   4.178  10.695
 5778SOL    HW218231   3.599   4.034  10.632
 5779SOL     OW18232   2.534   3.927  10.799
 5779SOL    HW118233   2.624   3.911  10.759
 5779SOL    HW218234   2.542   3.932  10.898
 5780SOL     OW18235   1.937   4.069   9.343
 5780SOL    HW118236   1.845   4.041   9.314
 5780SOL    HW218237   1.968   4.146   9.287
 5781SOL     OW18238   1.934   3.890   9.628
 5781SOL    HW118239   1.917   3.973   9.574
 5781SOL    HW218240   2.024   3.853   9.606
 5782SOL     OW18241   2.578   4.289  11.018
 5782SOL    HW118242   2.597   4.354  11.092
 5782SOL    HW218243   2.638   4.209  11.027
 5783SOL     OW18244   3.087   4.049   9.759
 5783SOL    HW118245   3.152   3.975   9.748
 5783SOL    HW218246   3.107   4.099   9.843
 5784SOL     OW18247   3.639   4.066  10.952
 5784SOL    HW118248   3.622   4.097  10.858
 5784SOL    HW218249   3.555   4.029  10.990
 5785SOL     OW18250   2.945   4.708   9.397
 5785SOL    HW118251   2.922   4.761   9.315
 5785SOL    HW218252   3.026   4.652   9.378
 5786SOL     OW18253   3.686   3.916  10.537
 5786SOL    HW118254   3.682   3.826  10.581
 5786SOL    HW218255   3.689   3.905  10.438
 5787SOL     OW18256   2.290   4.148   9.830
 5787SOL    HW118257   2.320   4.076   9.768
 5787SOL    HW218258   2.251   4.108   9.913
 5788SOL     OW18259   2.179   4.271  10.590
 5788SOL    HW118260   2.217   4.212  10.662
 5788SOL    HW218261   2.219   4.245  10.502
 5789SOL     OW18262   3.286   3.938  10.422
 5789SOL    HW118263   3.338   3.873  10.477
 5789SOL    HW218264   3.237   4.001  10.483
 5790SOL     OW18265   2.863   3.758  10.464
 5790SOL    HW118266   2.800   3.686  10.433
 5790SOL    HW218267   2.956   3.722  10.464
 5791SOL     OW18268   3.214   3.776   9.478
 5791SOL    HW118269   3.249   3.735   9.394
 5791SOL    HW218270   3.124   3.738   9.498
 5792SOL     OW18271   3.162   4.177  10.001
 5792SOL    HW118272   3.103   4.257  10.005
 5792SOL    HW218273   3.177   4.142  10.094
 5793SOL     OW18274   3.455   3.945  10.192
 5793SOL    HW118275   3.371   3.944  10.246
 5793SOL    HW218276   3.457   4.028  10.136
 5794SOL     OW18277   3.954   0.628   0.113
 5794SOL    HW118278   3.861   0.626   0.150
 5794SOL    HW218279   3.955   0.589   0.021
 5795SOL     OW18280   3.949   0.275   0.996
 5795SOL    HW118281   3.984   0.258   1.088
 5795SOL    HW218282   3.861   0.230   0.984
 5796SOL     OW18283   3.743   0.368   0.647
 5796SOL    HW118284   3.661   0.411   0.686
 5796SOL    HW218285   3.715   0.295   0.584
 5797SOL     OW18286   4.293   1.275   1.165
 5797SOL    HW118287   4.200   1.268   1.128
 5797SOL    HW218288   4.304   1.364   1.209
 5798SOL     OW18289   4.574   0.798   1.823
 5798SOL    HW118290   4.570   0.874   1.888
 5798SOL    HW218291   4.596   0.834   1.732
 5799SOL     OW18292   4.409   1.012   0.665
 5799SOL    HW118293   4.478   0.996   0.735
 5799SOL    HW218294   4.336   1.069   0.703
 5800SOL     OW18295   4.410   1.161   1.803
 5800SOL    HW118296   4.470   1.240   1.817
 5800SOL    HW218297   4.324   1.192   1.762
 5801SOL     OW18298   4.059   1.435   1.061
 5801SOL    HW118299   3.981   1.404   1.008
 5801SOL    HW218300   4.117   1.493   1.004
 5802SOL     OW18301   4.162   0.392   1.499
 5802SOL    HW118302   4.244   0.336   1.508
 5802SOL    HW218303   4.081   0.334   1.503
 5803SOL     OW18304   3.955   1.713   0.483
 5803SOL    HW118305   3.989   1.790   0.537
 5803SOL    HW218306   3.999   1.713   0.393
 5804SOL     OW18307   3.954   1.434   0.538
 5804SOL    HW118308   3.928   1.530   0.538
 5804SOL    HW218309   3.883   1.380   0.583
 5805SOL     OW18310   3.964   1.091   0.886
 5805SOL    HW118311   3.978   1.007   0.938
 5805SOL    HW218312   3.909   1.155   0.941
 5806SOL     OW18313   4.344   1.786   1.439
 5806SOL    HW118314   4.252   1.769   1.474
 5806SOL    HW218315   4.372   1.878   1.465
 5807SOL     OW18316   4.330   0.964   0.123
 5807SOL    HW118317   4.337   1.048   0.069
 5807SOL    HW218318   4.376   0.977   0.211
 5808SOL     OW18319   3.846   0.643   0.563
 5808SOL    HW118320   3.801   0.555   0.580
 5808SOL    HW218321   3.845   0.697   0.647
 5809SOL     OW18322   3.751   1.596   0.117
 5809SOL    HW118323   3.732   1.500   0.138
 5809SOL    HW218324   3.718   1.654   0.192
 5810SOL     OW18325   3.837   0.737   1.597
 5810SOL    HW118326   3.925   0.724   1.642
 5810SOL    HW218327   3.824   0.834   1.575
 5811SOL     OW18328   4.337   1.365   0.726
 5811SOL    HW118329   4.288   1.278   0.735
 5811SOL    HW218330   4.314   1.408   0.639
 5812SOL     OW18331   4.533   0.004   0.502
 5812SOL    HW118332   4.573   0.095   0.493
 5812SOL    HW218333   4.433   0.012   0.508
 5813SOL     OW18334   3.921   0.976   1.264
 5813SOL    HW118335   4.010   0.931   1.250
 5813SOL    HW218336   3.848   0.911   1.245
 5814SOL     OW18337   4.041   0.251   1.801
 5814SOL    HW118338   4.112   0.322   1.807
 5814SOL    HW218339   3.953   0.290   1.829
 5815SOL     OW18340   4.322   0.729   0.270
 5815SOL    HW118341   4.346   0.798   0.202
 5815SOL    HW218342   4.244   0.762   0.324
 5816SOL     OW18343   3.800   0.811   0.789
 5816SOL    HW118344   3.899   0.799   0.798
 5816SOL    HW218345   3.776   0.906   0.810
 5817SOL     OW18346   3.854   1.821   1.571
 5817SOL    HW118347   3.844   1.806   1.670
 5817SOL    HW218348   3.768   1.857   1.535
 5818SOL     OW18349   4.274   0.196   0.885
 5818SOL    HW118350   4.269   0.191   0.985
 5818SOL    HW218351   4.276   0.292   0.856
 5819SOL     OW18352   4.075   1.801   0.853
 5819SOL    HW118353   4.125   1.715   0.859
 5819SOL    HW218354   4.140   1.878   0.850
 5820SOL     OW18355   4.045   0.943   0.242
 5820SOL    HW118356   4.127   0.982   0.200
 5820SOL    HW218357   4.018   0.861   0.193
 5821SOL     OW18358   4.185   1.266   1.727
 5821SOL    HW118359   4.135   1.267   1.641
 5821SOL    HW218360   4.122   1.248   1.803
 5822SOL     OW18361   3.926   0.285   1.498
 5822SOL    HW118362   3.846   0.345   1.485
 5822SOL    HW218363   3.916   0.236   1.584
 5823SOL     OW18364   4.188   1.743   0.323
 5823SOL    HW118365   4.221   1.782   0.409
 5823SOL    HW218366   4.264   1.736   0.258
 5824SOL     OW18367   3.973   1.785   1.241
 5824SOL    HW118368   4.030   1.720   1.291
 5824SOL    HW218369   3.957   1.752   1.148
 5825SOL     OW18370   4.106   0.700   0.480
 5825SOL    HW118371   4.151   0.610   0.477
 5825SOL    HW218372   4.012   0.689   0.513
 5826SOL     OW18373   4.338   0.122   0.117
 5826SOL    HW118374   4.436   0.100   0.124
 5826SOL    HW218375   4.307   0.105   0.024
 5827SOL     OW18376   4.527   1.402   0.924
 5827SOL    HW118377   4.617   1.416   0.882
 5827SOL    HW218378   4.456   1.404   0.853
 5828SOL     OW18379   4.263   0.064   0.512
 5828SOL    HW118380   4.182   0.065   0.570
 5828SOL    HW218381   4.266   0.147   0.457
 5829SOL     OW18382   4.021   0.035   0.171
 5829SOL    HW118383   4.070   0.119   0.150
 5829SOL    HW218384   4.083  -0.030   0.216
 5830SOL     OW18385   4.800   0.683   1.464
 5830SOL    HW118386   4.720   0.622   1.467
 5830SOL    HW218387   4.881   0.630   1.440
 5831SOL     OW18388   4.183   1.152   0.741
 5831SOL    HW118389   4.112   1.125   0.806
 5831SOL    HW218390   4.157   1.124   0.648
 5832SOL     OW18391   3.802   0.556   1.386
 5832SOL    HW118392   3.894   0.555   1.345
 5832SOL    HW218393   3.796   0.630   1.453
 5833SOL     OW18394   4.285   0.222   1.147
 5833SOL    HW118395   4.323   0.138   1.184
 5833SOL    HW218396   4.197   0.241   1.191
 5834SOL     OW18397   4.212   1.385   0.174
 5834SOL    HW118398   4.125   1.370   0.221
 5834SOL    HW218399   4.195   1.411   0.079
 5835SOL     OW18400   4.251   0.256   0.328
 5835SOL    HW118401   4.278   0.197   0.253
 5835SOL    HW218402   4.251   0.351   0.297
 5836SOL     OW18403   4.134   0.813   1.251
 5836SOL    HW118404   4.220   0.825   1.301
 5836SOL    HW218405   4.092   0.726   1.278
 5837SOL     OW18406   3.788   1.564   1.331
 5837SOL    HW118407   3.742   1.646   1.297
 5837SOL    HW218408   3.886   1.583   1.340
 5838SOL     OW18409   4.091   1.100   0.501
 5838SOL    HW118410   4.084   1.183   0.445
 5838SOL    HW218411   4.095   1.020   0.441
 5839SOL     OW18412   4.290   0.537   0.865
 5839SOL    HW118413   4.302   0.603   0.791
 5839SOL    HW218414   4.336   0.571   0.948
 5840SOL     OW18415   4.078   1.510   1.329
 5840SOL    HW118416   4.057   1.466   1.242
 5840SOL    HW218417   4.175   1.536   1.332
 5841SOL     OW18418   4.126   0.751   1.598
 5841SOL    HW118419   4.194   0.806   1.551
 5841SOL    HW218420   4.166   0.663   1.625
 5842SOL     OW18421   4.228   0.050   1.740
 5842SOL    HW118422   4.186  -0.007   1.670
 5842SOL    HW218423   4.162   0.119   1.772
 5843SOL     OW18424   4.297   0.870   1.029
 5843SOL    HW118425   4.341   0.959   1.020
 5843SOL    HW218426   4.234   0.870   1.106
 5844SOL     OW18427   4.031   0.213   1.231
 5844SOL    HW118428   4.008   0.250   1.321
 5844SOL    HW218429   4.001   0.118   1.225
 5845SOL     OW18430   3.761   1.310   1.282
 5845SOL    HW118431   3.814   1.261   1.350
 5845SOL    HW218432   3.783   1.408   1.287
 5846SOL     OW18433   4.031   0.063   0.618
 5846SOL    HW118434   4.020   0.157   0.651
 5846SOL    HW218435   4.026   0.000   0.695
 5847SOL     OW18436   4.074   0.898   1.804
 5847SOL    HW118437   4.150   0.942   1.852
 5847SOL    HW218438   4.109   0.851   1.722
 5848SOL     OW18439   4.043   0.810   0.949
 5848SOL    HW118440   4.136   0.846   0.954
 5848SOL    HW218441   4.037   0.725   1.001
 5849SOL     OW18442   4.063   0.509   1.006
 5849SOL    HW118443   4.011   0.426   0.989
 5849SOL    HW218444   4.140   0.514   0.942
 5850SOL     OW18445   3.732   1.326   0.200
 5850SOL    HW118446   3.639   1.347   0.169
 5850SOL    HW218447   3.742   1.227   0.213
 5851SOL     OW18448   3.812   1.801   0.927
 5851SOL    HW118449   3.770   1.715   0.900
 5851SOL    HW218450   3.906   1.804   0.893
 5852SOL     OW18451   4.228   1.568   0.910
 5852SOL    HW118452   4.294   1.642   0.919
 5852SOL    HW218453   4.272   1.489   0.868
 5853SOL     OW18454   3.764   0.544   1.114
 5853SOL    HW118455   3.849   0.511   1.073
 5853SOL    HW218456   3.777   0.559   1.212
 5854SOL     OW18457   3.913   0.520   1.722
 5854SOL    HW118458   3.972   0.480   1.652
 5854SOL    HW218459   3.855   0.591   1.681
 5855SOL     OW18460   4.539   0.572   0.325
 5855SOL    HW118461   4.546   0.483   0.279
 5855SOL    HW218462   4.445   0.606   0.317
 5856SOL     OW18463   3.976   1.564   1.744
 5856SOL    HW118464   3.946   1.621   1.820
 5856SOL    HW218465   3.969   1.467   1.770
 5857SOL     OW18466   4.197   0.500   0.191
 5857SOL    HW118467   4.258   0.580   0.195
 5857SOL    HW218468   4.102   0.531   0.198
 5858SOL     OW18469   3.883   1.137   1.466
 5858SOL    HW118470   3.905   1.076   1.542
 5858SOL    HW218471   3.893   1.088   1.380
 5859SOL     OW18472   3.807   1.258   1.022
 5859SOL    HW118473   3.802   1.257   1.122
 5859SOL    HW218474   3.724   1.217   0.984
 5860SOL     OW18475   4.412   1.662   1.716
 5860SOL    HW118476   4.356   1.743   1.725
 5860SOL    HW218477   4.464   1.666   1.630
 5861SOL     OW18478   3.854   1.794   1.851
 5861SOL    HW118479   3.813   1.720   1.904
 5861SOL    HW218480   3.918   1.845   1.909
 5862SOL     OW18481   3.987   0.326   0.720
 5862SOL    HW118482   3.908   0.377   0.686
 5862SOL    HW218483   3.978   0.311   0.818
 5863SOL     OW18484   4.096   1.288   1.490
 5863SOL    HW118485   4.083   1.381   1.456
 5863SOL    HW218486   4.012   1.236   1.477
 5864SOL     OW18487   4.314   1.487   0.491
 5864SOL    HW118488   4.356   1.429   0.421
 5864SOL    HW218489   4.270   1.566   0.447
 5865SOL     OW18490   3.979   1.348   0.290
 5865SOL    HW118491   3.883   1.349   0.263
 5865SOL    HW218492   3.991   1.401   0.374
 5866SOL     OW18493   3.829   1.013   1.726
 5866SOL    HW118494   3.752   0.980   1.780
 5866SOL    HW218495   3.914   0.983   1.768
 5867SOL     OW18496   4.396   0.203   1.489
 5867SOL    HW118497   4.486   0.187   1.449
 5867SOL    HW218498   4.404   0.208   1.588
 5868SOL     OW18499   3.799   0.345   0.033
 5868SOL    HW118500   3.707   0.317   0.004
 5868SOL    HW218501   3.830   0.422  -0.023
 5869SOL     OW18502   3.796   0.166   0.318
 5869SOL    HW118503   3.779   0.249   0.264
 5869SOL    HW218504   3.886   0.129   0.296
 5870SOL     OW18505   4.337   0.842   1.431
 5870SOL    HW118506   4.393   0.923   1.414
 5870SOL    HW218507   4.396   0.762   1.434
 5871SOL     OW18508   4.440   0.565   1.708
 5871SOL    HW118509   4.459   0.630   1.782
 5871SOL    HW218510   4.500   0.485   1.717
 5872SOL     OW18511   4.114   1.741   1.560
 5872SOL    HW118512   4.023   1.782   1.558
 5872SOL    HW218513   4.107   1.647   1.592
 5873SOL     OW18514   4.318   0.745   0.652
 5873SOL    HW118515   4.368   0.830   0.633
 5873SOL    HW218516   4.230   0.747   0.604
 5874SOL     OW18517   3.945   1.314   1.844
 5874SOL    HW118518   3.880   1.241   1.823
 5874SOL    HW218519   3.949   1.328   1.942
 5875SOL     OW18520   3.803   1.240   0.653
 5875SOL    HW118521   3.802   1.193   0.741
 5875SOL    HW218522   3.885   1.212   0.602
 5876SOL     OW18523   4.396   1.391   1.624
 5876SOL    HW118524   4.318   1.341   1.662
 5876SOL    HW218525   4.393   1.486   1.655
 5877SOL     OW18526   4.152   0.424   0.520
 5877SOL    HW118527   4.182   0.352   0.458
 5877SOL    HW218528   4.113   0.384   0.603
 5878SOL     OW18529   4.041   0.547   1.280
 5878SOL    HW118530   4.079   0.488   1.352
 5878SOL    HW218531   4.081   0.521   1.192
 5879SOL     OW18532   4.536   1.586   0.687
 5879SOL    HW118533   4.568   1.596   0.593
 5879SOL    HW218534   4.457   1.524   0.689
 5880SOL     OW18535   3.763   1.077   0.300
 5880SOL    HW118536   3.862   1.066   0.291
 5880SOL    HW218537   3.723   0.991   0.332
 5881SOL     OW18538   3.954   0.628   1.975
 5881SOL    HW118539   3.861   0.626   2.012
 5881SOL    HW218540   3.955   0.589   1.883
 5882SOL     OW18541   3.949   0.275   2.858
 5882SOL    HW118542   3.984   0.258   2.950
 5882SOL    HW218543   3.861   0.230   2.846
 5883SOL     OW18544   3.743   0.368   2.509
 5883SOL    HW118545   3.661   0.411   2.548
 5883SOL    HW218546   3.715   0.295   2.446
 5884SOL     OW18547   4.293   1.275   3.027
 5884SOL    HW118548   4.200   1.268   2.990
 5884SOL    HW218549   4.304   1.364   3.071
 5885SOL     OW18550   4.574   0.798   3.685
 5885SOL    HW118551   4.570   0.874   3.750
 5885SOL    HW218552   4.596   0.834   3.594
 5886SOL     OW18553   4.409   1.012   2.527
 5886SOL    HW118554   4.478   0.996   2.597
 5886SOL    HW218555   4.336   1.069   2.565
 5887SOL     OW18556   4.410   1.161   3.665
 5887SOL    HW118557   4.470   1.240   3.679
 5887SOL    HW218558   4.324   1.192   3.624
 5888SOL     OW18559   4.059   1.435   2.923
 5888SOL    HW118560   3.981   1.404   2.870
 5888SOL    HW218561   4.117   1.493   2.866
 5889SOL     OW18562   4.162   0.392   3.361
 5889SOL    HW118563   4.244   0.336   3.370
 5889SOL    HW218564   4.081   0.334   3.365
 5890SOL     OW18565   3.955   1.713   2.345
 5890SOL    HW118566   3.989   1.790   2.399
 5890SOL    HW218567   3.999   1.713   2.255
 5891SOL     OW18568   3.954   1.434   2.400
 5891SOL    HW118569   3.928   1.530   2.400
 5891SOL    HW218570   3.883   1.380   2.445
 5892SOL     OW18571   3.964   1.091   2.748
 5892SOL    HW118572   3.978   1.007   2.800
 5892SOL    HW218573   3.909   1.155   2.803
 5893SOL     OW18574   4.344   1.786   3.301
 5893SOL    HW118575   4.252   1.769   3.336
 5893SOL    HW218576   4.372   1.878   3.327
 5894SOL     OW18577   4.330   0.964   1.985
 5894SOL    HW118578   4.337   1.048   1.931
 5894SOL    HW218579   4.376   0.977   2.073
 5895SOL     OW18580   3.846   0.643   2.425
 5895SOL    HW118581   3.801   0.555   2.442
 5895SOL    HW218582   3.845   0.697   2.509
 5896SOL     OW18583   3.751   1.596   1.979
 5896SOL    HW118584   3.732   1.500   2.000
 5896SOL    HW218585   3.718   1.654   2.054
 5897SOL     OW18586   3.837   0.737   3.459
 5897SOL    HW118587   3.925   0.724   3.504
 5897SOL    HW218588   3.824   0.834   3.437
 5898SOL     OW18589   4.337   1.365   2.588
 5898SOL    HW118590   4.288   1.278   2.597
 5898SOL    HW218591   4.314   1.408   2.501
 5899SOL     OW18592   4.533   0.004   2.364
 5899SOL    HW118593   4.573   0.095   2.355
 5899SOL    HW218594   4.433   0.012   2.370
 5900SOL     OW18595   3.921   0.976   3.126
 5900SOL    HW118596   4.010   0.931   3.112
 5900SOL    HW218597   3.848   0.911   3.107
 5901SOL     OW18598   4.041   0.251   3.663
 5901SOL    HW118599   4.112   0.322   3.669
 5901SOL    HW218600   3.953   0.290   3.691
 5902SOL     OW18601   4.322   0.729   2.132
 5902SOL    HW118602   4.346   0.798   2.064
 5902SOL    HW218603   4.244   0.762   2.186
 5903SOL     OW18604   3.800   0.811   2.651
 5903SOL    HW118605   3.899   0.799   2.660
 5903SOL    HW218606   3.776   0.906   2.672
 5904SOL     OW18607   3.854   1.821   3.433
 5904SOL    HW118608   3.844   1.806   3.532
 5904SOL    HW218609   3.768   1.857   3.397
 5905SOL     OW18610   4.274   0.196   2.747
 5905SOL    HW118611   4.269   0.191   2.847
 5905SOL    HW218612   4.276   0.292   2.718
 5906SOL     OW18613   4.075   1.801   2.715
 5906SOL    HW118614   4.125   1.715   2.721
 5906SOL    HW218615   4.140   1.878   2.712
 5907SOL     OW18616   4.045   0.943   2.104
 5907SOL    HW118617   4.127   0.982   2.062
 5907SOL    HW218618   4.018   0.861   2.055
 5908SOL     OW18619   4.185   1.266   3.589
 5908SOL    HW118620   4.135   1.267   3.503
 5908SOL    HW218621   4.122   1.248   3.665
 5909SOL     OW18622   3.926   0.285   3.360
 5909SOL    HW118623   3.846   0.345   3.347
 5909SOL    HW218624   3.916   0.236   3.446
 5910SOL     OW18625   4.188   1.743   2.185
 5910SOL    HW118626   4.221   1.782   2.271
 5910SOL    HW218627   4.264   1.736   2.120
 5911SOL     OW18628   3.973   1.785   3.103
 5911SOL    HW118629   4.030   1.720   3.153
 5911SOL    HW218630   3.957   1.752   3.010
 5912SOL     OW18631   4.106   0.700   2.342
 5912SOL    HW118632   4.151   0.610   2.339
 5912SOL    HW218633   4.012   0.689   2.375
 5913SOL     OW18634   4.338   0.122   1.979
 5913SOL    HW118635   4.436   0.100   1.986
 5913SOL    HW218636   4.307   0.105   1.886
 5914SOL     OW18637   4.527   1.402   2.786
 5914SOL    HW118638   4.617   1.416   2.744
 5914SOL    HW218639   4.456   1.404   2.715
 5915SOL     OW18640   4.263   0.064   2.374
 5915SOL    HW118641   4.182   0.065   2.432
 5915SOL    HW218642   4.266   0.147   2.319
 5916SOL     OW18643   4.021   0.035   2.033
 5916SOL    HW118644   4.070   0.119   2.012
 5916SOL    HW218645   4.083  -0.030   2.078
 5917SOL     OW18646   4.800   0.683   3.326
 5917SOL    HW118647   4.720   0.622   3.329
 5917SOL    HW218648   4.881   0.630   3.302
 5918SOL     OW18649   4.183   1.152   2.603
 5918SOL    HW118650   4.112   1.125   2.668
 5918SOL    HW218651   4.157   1.124   2.510
 5919SOL     OW18652   3.802   0.556   3.248
 5919SOL    HW118653   3.894   0.555   3.207
 5919SOL    HW218654   3.796   0.630   3.315
 5920SOL     OW18655   4.285   0.222   3.009
 5920SOL    HW118656   4.323   0.138   3.046
 5920SOL    HW218657   4.197   0.241   3.053
 5921SOL     OW18658   4.212   1.385   2.036
 5921SOL    HW118659   4.125   1.370   2.083
 5921SOL    HW218660   4.195   1.411   1.941
 5922SOL     OW18661   4.251   0.256   2.190
 5922SOL    HW118662   4.278   0.197   2.115
 5922SOL    HW218663   4.251   0.351   2.159
 5923SOL     OW18664   4.134   0.813   3.113
 5923SOL    HW118665   4.220   0.825   3.163
 5923SOL    HW218666   4.092   0.726   3.140
 5924SOL     OW18667   3.788   1.564   3.193
 5924SOL    HW118668   3.742   1.646   3.159
 5924SOL    HW218669   3.886   1.583   3.202
 5925SOL     OW18670   4.091   1.100   2.363
 5925SOL    HW118671   4.084   1.183   2.307
 5925SOL    HW218672   4.095   1.020   2.303
 5926SOL     OW18673   4.290   0.537   2.727
 5926SOL    HW118674   4.302   0.603   2.653
 5926SOL    HW218675   4.336   0.571   2.810
 5927SOL     OW18676   4.078   1.510   3.191
 5927SOL    HW118677   4.057   1.466   3.104
 5927SOL    HW218678   4.175   1.536   3.194
 5928SOL     OW18679   4.126   0.751   3.460
 5928SOL    HW118680   4.194   0.806   3.413
 5928SOL    HW218681   4.166   0.663   3.487
 5929SOL     OW18682   4.228   0.050   3.602
 5929SOL    HW118683   4.186  -0.007   3.532
 5929SOL    HW218684   4.162   0.119   3.634
 5930SOL     OW18685   4.297   0.870   2.891
 5930SOL    HW118686   4.341   0.959   2.882
 5930SOL    HW218687   4.234   0.870   2.968
 5931SOL     OW18688   4.031   0.213   3.093
 5931SOL    HW118689   4.008   0.250   3.183
 5931SOL    HW218690   4.001   0.118   3.087
 5932SOL     OW18691   3.761   1.310   3.144
 5932SOL    HW118692   3.814   1.261   3.212
 5932SOL    HW218693   3.783   1.408   3.149
 5933SOL     OW18694   4.031   0.063   2.480
 5933SOL    HW118695   4.020   0.157   2.513
 5933SOL    HW218696   4.026   0.000   2.557
 5934SOL     OW18697   4.074   0.898   3.666
 5934SOL    HW118698   4.150   0.942   3.714
 5934SOL    HW218699   4.109   0.851   3.584
 5935SOL     OW18700   4.043   0.810   2.811
 5935SOL    HW118701   4.136   0.846   2.816
 5935SOL    HW218702   4.037   0.725   2.863
 5936SOL     OW18703   4.063   0.509   2.868
 5936SOL    HW118704   4.011   0.426   2.851
 5936SOL    HW218705   4.140   0.514   2.804
 5937SOL     OW18706   3.732   1.326   2.062
 5937SOL    HW118707   3.639   1.347   2.031
 5937SOL    HW218708   3.742   1.227   2.075
 5938SOL     OW18709   3.812   1.801   2.789
 5938SOL    HW118710   3.770   1.715   2.762
 5938SOL    HW218711   3.906   1.804   2.755
 5939SOL     OW18712   4.228   1.568   2.772
 5939SOL    HW118713   4.294   1.642   2.781
 5939SOL    HW218714   4.272   1.489   2.730
 5940SOL     OW18715   3.764   0.544   2.976
 5940SOL    HW118716   3.849   0.511   2.935
 5940SOL    HW218717   3.777   0.559   3.074
 5941SOL     OW18718   3.913   0.520   3.584
 5941SOL    HW118719   3.972   0.480   3.514
 5941SOL    HW218720   3.855   0.591   3.543
 5942SOL     OW18721   4.539   0.572   2.187
 5942SOL    HW118722   4.546   0.483   2.141
 5942SOL    HW218723   4.445   0.606   2.179
 5943SOL     OW18724   3.976   1.564   3.606
 5943SOL    HW118725   3.946   1.621   3.682
 5943SOL    HW218726   3.969   1.467   3.632
 5944SOL     OW18727   4.197   0.500   2.053
 5944SOL    HW118728   4.258   0.580   2.057
 5944SOL    HW218729   4.102   0.531   2.060
 5945SOL     OW18730   3.883   1.137   3.328
 5945SOL    HW118731   3.905   1.076   3.404
 5945SOL    HW218732   3.893   1.088   3.242
 5946SOL     OW18733   3.807   1.258   2.884
 5946SOL    HW118734   3.802   1.257   2.984
 5946SOL    HW218735   3.724   1.217   2.846
 5947SOL     OW18736   4.412   1.662   3.578
 5947SOL    HW118737   4.356   1.743   3.587
 5947SOL    HW218738   4.464   1.666   3.492
 5948SOL     OW18739   3.854   1.794   3.713
 5948SOL    HW118740   3.813   1.720   3.766
 5948SOL    HW218741   3.918   1.845   3.771
 5949SOL     OW18742   3.987   0.326   2.582
 5949SOL    HW118743   3.908   0.377   2.548
 5949SOL    HW218744   3.978   0.311   2.680
 5950SOL     OW18745   4.096   1.288   3.352
 5950SOL    HW118746   4.083   1.381   3.318
 5950SOL    HW218747   4.012   1.236   3.339
 5951SOL     OW18748   4.314   1.487   2.353
 5951SOL    HW118749   4.356   1.429   2.283
 5951SOL    HW218750   4.270   1.566   2.309
 5952SOL     OW18751   3.979   1.348   2.152
 5952SOL    HW118752   3.883   1.349   2.125
 5952SOL    HW218753   3.991   1.401   2.236
 5953SOL     OW18754   3.829   1.013   3.588
 5953SOL    HW118755   3.752   0.980   3.642
 5953SOL    HW218756   3.914   0.983   3.630
 5954SOL     OW18757   4.396   0.203   3.351
 5954SOL    HW118758   4.486   0.187   3.311
 5954SOL    HW218759   4.404   0.208   3.450
 5955SOL     OW18760   3.799   0.345   1.895
 5955SOL    HW118761   3.707   0.317   1.866
 5955SOL    HW218762   3.830   0.422   1.839
 5956SOL     OW18763   3.796   0.166   2.180
 5956SOL    HW118764   3.779   0.249   2.126
 5956SOL    HW218765   3.886   0.129   2.158
 5957SOL     OW18766   4.337   0.842   3.293
 5957SOL    HW118767   4.393   0.923   3.276
 5957SOL    HW218768   4.396   0.762   3.296
 5958SOL     OW18769   4.440   0.565   3.570
 5958SOL    HW118770   4.459   0.630   3.644
 5958SOL    HW218771   4.500   0.485   3.579
 5959SOL     OW18772   4.114   1.741   3.422
 5959SOL    HW118773   4.023   1.782   3.420
 5959SOL    HW218774   4.107   1.647   3.454
 5960SOL     OW18775   4.318   0.745   2.514
 5960SOL    HW118776   4.368   0.830   2.495
 5960SOL    HW218777   4.230   0.747   2.466
 5961SOL     OW18778   3.945   1.314   3.706
 5961SOL    HW118779   3.880   1.241   3.685
 5961SOL    HW218780   3.949   1.328   3.804
 5962SOL     OW18781   3.803   1.240   2.515
 5962SOL    HW118782   3.802   1.193   2.603
 5962SOL    HW218783   3.885   1.212   2.464
 5963SOL     OW18784   4.396   1.391   3.486
 5963SOL    HW118785   4.318   1.341   3.524
 5963SOL    HW218786   4.393   1.486   3.517
 5964SOL     OW18787   4.152   0.424   2.382
 5964SOL    HW118788   4.182   0.352   2.320
 5964SOL    HW218789   4.113   0.384   2.465
 5965SOL     OW18790   4.041   0.547   3.142
 5965SOL    HW118791   4.079   0.488   3.214
 5965SOL    HW218792   4.081   0.521   3.054
 5966SOL     OW18793   4.536   1.586   2.549
 5966SOL    HW118794   4.568   1.596   2.455
 5966SOL    HW218795   4.457   1.524   2.551
 5967SOL     OW18796   3.763   1.077   2.162
 5967SOL    HW118797   3.862   1.066   2.153
 5967SOL    HW218798   3.723   0.991   2.194
 5968SOL     OW18799   3.954   0.628   3.837
 5968SOL    HW118800   3.861   0.626   3.874
 5968SOL    HW218801   3.955   0.589   3.745
 5969SOL     OW18802   3.949   0.275   4.720
 5969SOL    HW118803   3.984   0.258   4.812
 5969SOL    HW218804   3.861   0.230   4.708
 5970SOL     OW18805   3.743   0.368   4.371
 5970SOL    HW118806   3.661   0.411   4.410
 5970SOL    HW218807   3.715   0.295   4.308
 5971SOL     OW18808   4.293   1.275   4.889
 5971SOL    HW118809   4.200   1.268   4.852
 5971SOL    HW218810   4.304   1.364   4.933
 5972SOL     OW18811   4.574   0.798   5.547
 5972SOL    HW118812   4.570   0.874   5.612
 5972SOL    HW218813   4.596   0.834   5.456
 5973SOL     OW18814   4.409   1.012   4.389
 5973SOL    HW118815   4.478   0.996   4.459
 5973SOL    HW218816   4.336   1.069   4.427
 5974SOL     OW18817   4.410   1.161   5.527
 5974SOL    HW118818   4.470   1.240   5.541
 5974SOL    HW218819   4.324   1.192   5.486
 5975SOL     OW18820   4.059   1.435   4.785
 5975SOL    HW118821   3.981   1.404   4.732
 5975SOL    HW218822   4.117   1.493   4.728
 5976SOL     OW18823   4.162   0.392   5.223
 5976SOL    HW118824   4.244   0.336   5.232
 5976SOL    HW218825   4.081   0.334   5.227
 5977SOL     OW18826   3.955   1.713   4.207
 5977SOL    HW118827   3.989   1.790   4.261
 5977SOL    HW218828   3.999   1.713   4.117
 5978SOL     OW18829   3.954   1.434   4.262
 5978SOL    HW118830   3.928   1.530   4.262
 5978SOL    HW218831   3.883   1.380   4.307
 5979SOL     OW18832   3.964   1.091   4.610
 5979SOL    HW118833   3.978   1.007   4.662
 5979SOL    HW218834   3.909   1.155   4.665
 5980SOL     OW18835   4.344   1.786   5.163
 5980SOL    HW118836   4.252   1.769   5.198
 5980SOL    HW218837   4.372   1.878   5.189
 5981SOL     OW18838   4.330   0.964   3.847
 5981SOL    HW118839   4.337   1.048   3.793
 5981SOL    HW218840   4.376   0.977   3.935
 5982SOL     OW18841   3.846   0.643   4.287
 5982SOL    HW118842   3.801   0.555   4.304
 5982SOL    HW218843   3.845   0.697   4.371
 5983SOL     OW18844   3.751   1.596   3.841
 5983SOL    HW118845   3.732   1.500   3.862
 5983SOL    HW218846   3.718   1.654   3.916
 5984SOL     OW18847   3.837   0.737   5.321
 5984SOL    HW118848   3.925   0.724   5.366
 5984SOL    HW218849   3.824   0.834   5.299
 5985SOL     OW18850   4.337   1.365   4.450
 5985SOL    HW118851   4.288   1.278   4.459
 5985SOL    HW218852   4.314   1.408   4.363
 5986SOL     OW18853   4.533   0.004   4.226
 5986SOL    HW118854   4.573   0.095   4.217
 5986SOL    HW218855   4.433   0.012   4.232
 5987SOL     OW18856   3.921   0.976   4.988
 5987SOL    HW118857   4.010   0.931   4.974
 5987SOL    HW218858   3.848   0.911   4.969
 5988SOL     OW18859   4.041   0.251   5.525
 5988SOL    HW118860   4.112   0.322   5.531
 5988SOL    HW218861   3.953   0.290   5.553
 5989SOL     OW18862   4.322   0.729   3.994
 5989SOL    HW118863   4.346   0.798   3.926
 5989SOL    HW218864   4.244   0.762   4.048
 5990SOL     OW18865   3.800   0.811   4.513
 5990SOL    HW118866   3.899   0.799   4.522
 5990SOL    HW218867   3.776   0.906   4.534
 5991SOL     OW18868   3.854   1.821   5.295
 5991SOL    HW118869   3.844   1.806   5.394
 5991SOL    HW218870   3.768   1.857   5.259
 5992SOL     OW18871   4.274   0.196   4.609
 5992SOL    HW118872   4.269   0.191   4.709
 5992SOL    HW218873   4.276   0.292   4.580
 5993SOL     OW18874   4.075   1.801   4.577
 5993SOL    HW118875   4.125   1.715   4.583
 5993SOL    HW218876   4.140   1.878   4.574
 5994SOL     OW18877   4.045   0.943   3.966
 5994SOL    HW118878   4.127   0.982   3.924
 5994SOL    HW218879   4.018   0.861   3.917
 5995SOL     OW18880   4.185   1.266   5.451
 5995SOL    HW118881   4.135   1.267   5.365
 5995SOL    HW218882   4.122   1.248   5.527
 5996SOL     OW18883   3.926   0.285   5.222
 5996SOL    HW118884   3.846   0.345   5.209
 5996SOL    HW218885   3.916   0.236   5.308
 5997SOL     OW18886   4.188   1.743   4.047
 5997SOL    HW118887   4.221   1.782   4.133
 5997SOL    HW218888   4.264   1.736   3.982
 5998SOL     OW18889   3.973   1.785   4.965
 5998SOL    HW118890   4.030   1.720   5.015
 5998SOL    HW218891   3.957   1.752   4.872
 5999SOL     OW18892   4.106   0.700   4.204
 5999SOL    HW118893   4.151   0.610   4.201
 5999SOL    HW218894   4.012   0.689   4.237
 6000SOL     OW18895   4.338   0.122   3.841
 6000SOL    HW118896   4.436   0.100   3.848
 6000SOL    HW218897   4.307   0.105   3.748
 6001SOL     OW18898   4.527   1.402   4.648
 6001SOL    HW118899   4.617   1.416   4.606
 6001SOL    HW218900   4.456   1.404   4.577
 6002SOL     OW18901   4.263   0.064   4.236
 6002SOL    HW118902   4.182   0.065   4.294
 6002SOL    HW218903   4.266   0.147   4.181
 6003SOL     OW18904   4.021   0.035   3.895
 6003SOL    HW118905   4.070   0.119   3.874
 6003SOL    HW218906   4.083  -0.030   3.940
 6004SOL     OW18907   4.800   0.683   5.188
 6004SOL    HW118908   4.720   0.622   5.191
 6004SOL    HW218909   4.881   0.630   5.164
 6005SOL     OW18910   4.183   1.152   4.465
 6005SOL    HW118911   4.112   1.125   4.530
 6005SOL    HW218912   4.157   1.124   4.372
 6006SOL     OW18913   3.802   0.556   5.110
 6006SOL    HW118914   3.894   0.555   5.069
 6006SOL    HW218915   3.796   0.630   5.177
 6007SOL     OW18916   4.285   0.222   4.871
 6007SOL    HW118917   4.323   0.138   4.908
 6007SOL    HW218918   4.197   0.241   4.915
 6008SOL     OW18919   4.212   1.385   3.898
 6008SOL    HW118920   4.125   1.370   3.945
 6008SOL    HW218921   4.195   1.411   3.803
 6009SOL     OW18922   4.251   0.256   4.052
 6009SOL    HW118923   4.278   0.197   3.977
 6009SOL    HW218924   4.251   0.351   4.021
 6010SOL     OW18925   4.134   0.813   4.975
 6010SOL    HW118926   4.220   0.825   5.025
 6010SOL    HW218927   4.092   0.726   5.002
 6011SOL     OW18928   3.788   1.564   5.055
 6011SOL    HW118929   3.742   1.646   5.021
 6011SOL    HW218930   3.886   1.583   5.064
 6012SOL     OW18931   4.091   1.100   4.225
 6012SOL    HW118932   4.084   1.183   4.169
 6012SOL    HW218933   4.095   1.020   4.165
 6013SOL     OW18934   4.290   0.537   4.589
 6013SOL    HW118935   4.302   0.603   4.515
 6013SOL    HW218936   4.336   0.571   4.672
 6014SOL     OW18937   4.078   1.510   5.053
 6014SOL    HW118938   4.057   1.466   4.966
 6014SOL    HW218939   4.175   1.536   5.056
 6015SOL     OW18940   4.126   0.751   5.322
 6015SOL    HW118941   4.194   0.806   5.275
 6015SOL    HW218942   4.166   0.663   5.349
 6016SOL     OW18943   4.228   0.050   5.464
 6016SOL    HW118944   4.186  -0.007   5.394
 6016SOL    HW218945   4.162   0.119   5.496
 6017SOL     OW18946   4.297   0.870   4.753
 6017SOL    HW118947   4.341   0.959   4.744
 6017SOL    HW218948   4.234   0.870   4.830
 6018SOL     OW18949   4.031   0.213   4.955
 6018SOL    HW118950   4.008   0.250   5.045
 6018SOL    HW218951   4.001   0.118   4.949
 6019SOL     OW18952   3.761   1.310   5.006
 6019SOL    HW118953   3.814   1.261   5.074
 6019SOL    HW218954   3.783   1.408   5.011
 6020SOL     OW18955   4.031   0.063   4.342
 6020SOL    HW118956   4.020   0.157   4.375
 6020SOL    HW218957   4.026   0.000   4.419
 6021SOL     OW18958   4.074   0.898   5.528
 6021SOL    HW118959   4.150   0.942   5.576
 6021SOL    HW218960   4.109   0.851   5.446
 6022SOL     OW18961   4.043   0.810   4.673
 6022SOL    HW118962   4.136   0.846   4.678
 6022SOL    HW218963   4.037   0.725   4.725
 6023SOL     OW18964   4.063   0.509   4.730
 6023SOL    HW118965   4.011   0.426   4.713
 6023SOL    HW218966   4.140   0.514   4.666
 6024SOL     OW18967   3.732   1.326   3.924
 6024SOL    HW118968   3.639   1.347   3.893
 6024SOL    HW218969   3.742   1.227   3.937
 6025SOL     OW18970   3.812   1.801   4.651
 6025SOL    HW118971   3.770   1.715   4.624
 6025SOL    HW218972   3.906   1.804   4.617
 6026SOL     OW18973   4.228   1.568   4.634
 6026SOL    HW118974   4.294   1.642   4.643
 6026SOL    HW218975   4.272   1.489   4.592
 6027SOL     OW18976   3.764   0.544   4.838
 6027SOL    HW118977   3.849   0.511   4.797
 6027SOL    HW218978   3.777   0.559   4.936
 6028SOL     OW18979   3.913   0.520   5.446
 6028SOL    HW118980   3.972   0.480   5.376
 6028SOL    HW218981   3.855   0.591   5.405
 6029SOL     OW18982   4.539   0.572   4.049
 6029SOL    HW118983   4.546   0.483   4.003
 6029SOL    HW218984   4.445   0.606   4.041
 6030SOL     OW18985   3.976   1.564   5.468
 6030SOL    HW118986   3.946   1.621   5.544
 6030SOL    HW218987   3.969   1.467   5.494
 6031SOL     OW18988   4.197   0.500   3.915
 6031SOL    HW118989   4.258   0.580   3.919
 6031SOL    HW218990   4.102   0.531   3.922
 6032SOL     OW18991   3.883   1.137   5.190
 6032SOL    HW118992   3.905   1.076   5.266
 6032SOL    HW218993   3.893   1.088   5.104
 6033SOL     OW18994   3.807   1.258   4.746
 6033SOL    HW118995   3.802   1.257   4.846
 6033SOL    HW218996   3.724   1.217   4.708
 6034SOL     OW18997   4.412   1.662   5.440
 6034SOL    HW118998   4.356   1.743   5.449
 6034SOL    HW218999   4.464   1.666   5.354
 6035SOL     OW19000   3.854   1.794   5.575
 6035SOL    HW119001   3.813   1.720   5.628
 6035SOL    HW219002   3.918   1.845   5.633
 6036SOL     OW19003   3.987   0.326   4.444
 6036SOL    HW119004   3.908   0.377   4.410
 6036SOL    HW219005   3.978   0.311   4.542
 6037SOL     OW19006   4.096   1.288   5.214
 6037SOL    HW119007   4.083   1.381   5.180
 6037SOL    HW219008   4.012   1.236   5.201
 6038SOL     OW19009   4.314   1.487   4.215
 6038SOL    HW119010   4.356   1.429   4.145
 6038SOL    HW219011   4.270   1.566   4.171
 6039SOL     OW19012   3.979   1.348   4.014
 6039SOL    HW119013   3.883   1.349   3.987
 6039SOL    HW219014   3.991   1.401   4.098
 6040SOL     OW19015   3.829   1.013   5.450
 6040SOL    HW119016   3.752   0.980   5.504
 6040SOL    HW219017   3.914   0.983   5.492
 6041SOL     OW19018   4.396   0.203   5.213
 6041SOL    HW119019   4.486   0.187   5.173
 6041SOL    HW219020   4.404   0.208   5.312
 6042SOL     OW19021   3.799   0.345   3.757
 6042SOL    HW119022   3.707   0.317   3.728
 6042SOL    HW219023   3.830   0.422   3.701
 6043SOL     OW19024   3.796   0.166   4.042
 6043SOL    HW119025   3.779   0.249   3.988
 6043SOL    HW219026   3.886   0.129   4.020
 6044SOL     OW19027   4.337   0.842   5.155
 6044SOL    HW119028   4.393   0.923   5.138
 6044SOL    HW219029   4.396   0.762   5.158
 6045SOL     OW19030   4.440   0.565   5.432
 6045SOL    HW119031   4.459   0.630   5.506
 6045SOL    HW219032   4.500   0.485   5.441
 6046SOL     OW19033   4.114   1.741   5.284
 6046SOL    HW119034   4.023   1.782   5.282
 6046SOL    HW219035   4.107   1.647   5.316
 6047SOL     OW19036   4.318   0.745   4.376
 6047SOL    HW119037   4.368   0.830   4.357
 6047SOL    HW219038   4.230   0.747   4.328
 6048SOL     OW19039   3.945   1.314   5.568
 6048SOL    HW119040   3.880   1.241   5.547
 6048SOL    HW219041   3.949   1.328   5.666
 6049SOL     OW19042   3.803   1.240   4.377
 6049SOL    HW119043   3.802   1.193   4.465
 6049SOL    HW219044   3.885   1.212   4.326
 6050SOL     OW19045   4.396   1.391   5.348
 6050SOL    HW119046   4.318   1.341   5.386
 6050SOL    HW219047   4.393   1.486   5.379
 6051SOL     OW19048   4.152   0.424   4.244
 6051SOL    HW119049   4.182   0.352   4.182
 6051SOL    HW219050   4.113   0.384   4.327
 6052SOL     OW19051   4.041   0.547   5.004
 6052SOL    HW119052   4.079   0.488   5.076
 6052SOL    HW219053   4.081   0.521   4.916
 6053SOL     OW19054   4.536   1.586   4.411
 6053SOL    HW119055   4.568   1.596   4.317
 6053SOL    HW219056   4.457   1.524   4.413
 6054SOL     OW19057   3.763   1.077   4.024
 6054SOL    HW119058   3.862   1.066   4.015
 6054SOL    HW219059   3.723   0.991   4.056
 6055SOL     OW19060   3.954   0.628   5.699
 6055SOL    HW119061   3.861   0.626   5.736
 6055SOL    HW219062   3.955   0.589   5.607
 6056SOL     OW19063   3.949   0.275   6.582
 6056SOL    HW119064   3.984   0.258   6.674
 6056SOL    HW219065   3.861   0.230   6.570
 6057SOL     OW19066   3.743   0.368   6.233
 6057SOL    HW119067   3.661   0.411   6.272
 6057SOL    HW219068   3.715   0.295   6.170
 6058SOL     OW19069   4.293   1.275   6.751
 6058SOL    HW119070   4.200   1.268   6.714
 6058SOL    HW219071   4.304   1.364   6.795
 6059SOL     OW19072   4.574   0.798   7.409
 6059SOL    HW119073   4.570   0.874   7.474
 6059SOL    HW219074   4.596   0.834   7.318
 6060SOL     OW19075   4.409   1.012   6.251
 6060SOL    HW119076   4.478   0.996   6.321
 6060SOL    HW219077   4.336   1.069   6.289
 6061SOL     OW19078   4.410   1.161   7.389
 6061SOL    HW119079   4.470   1.240   7.403
 6061SOL    HW219080   4.324   1.192   7.348
 6062SOL     OW19081   4.059   1.435   6.647
 6062SOL    HW119082   3.981   1.404   6.594
 6062SOL    HW219083   4.117   1.493   6.590
 6063SOL     OW19084   4.162   0.392   7.085
 6063SOL    HW119085   4.244   0.336   7.094
 6063SOL    HW219086   4.081   0.334   7.089
 6064SOL     OW19087   3.955   1.713   6.069
 6064SOL    HW119088   3.989   1.790   6.123
 6064SOL    HW219089   3.999   1.713   5.979
 6065SOL     OW19090   3.954   1.434   6.124
 6065SOL    HW119091   3.928   1.530   6.124
 6065SOL    HW219092   3.883   1.380   6.169
 6066SOL     OW19093   3.964   1.091   6.472
 6066SOL    HW119094   3.978   1.007   6.524
 6066SOL    HW219095   3.909   1.155   6.527
 6067SOL     OW19096   4.344   1.786   7.025
 6067SOL    HW119097   4.252   1.769   7.060
 6067SOL    HW219098   4.372   1.878   7.051
 6068SOL     OW19099   4.330   0.964   5.709
 6068SOL    HW119100   4.337   1.048   5.655
 6068SOL    HW219101   4.376   0.977   5.797
 6069SOL     OW19102   3.846   0.643   6.149
 6069SOL    HW119103   3.801   0.555   6.166
 6069SOL    HW219104   3.845   0.697   6.233
 6070SOL     OW19105   3.751   1.596   5.703
 6070SOL    HW119106   3.732   1.500   5.724
 6070SOL    HW219107   3.718   1.654   5.778
 6071SOL     OW19108   3.837   0.737   7.183
 6071SOL    HW119109   3.925   0.724   7.228
 6071SOL    HW219110   3.824   0.834   7.161
 6072SOL     OW19111   4.337   1.365   6.312
 6072SOL    HW119112   4.288   1.278   6.321
 6072SOL    HW219113   4.314   1.408   6.225
 6073SOL     OW19114   4.533   0.004   6.088
 6073SOL    HW119115   4.573   0.095   6.079
 6073SOL    HW219116   4.433   0.012   6.094
 6074SOL     OW19117   3.921   0.976   6.850
 6074SOL    HW119118   4.010   0.931   6.836
 6074SOL    HW219119   3.848   0.911   6.831
 6075SOL     OW19120   4.041   0.251   7.387
 6075SOL    HW119121   4.112   0.322   7.393
 6075SOL    HW219122   3.953   0.290   7.415
 6076SOL     OW19123   4.322   0.729   5.856
 6076SOL    HW119124   4.346   0.798   5.788
 6076SOL    HW219125   4.244   0.762   5.910
 6077SOL     OW19126   3.800   0.811   6.375
 6077SOL    HW119127   3.899   0.799   6.384
 6077SOL    HW219128   3.776   0.906   6.396
 6078SOL     OW19129   3.854   1.821   7.157
 6078SOL    HW119130   3.844   1.806   7.256
 6078SOL    HW219131   3.768   1.857   7.121
 6079SOL     OW19132   4.274   0.196   6.471
 6079SOL    HW119133   4.269   0.191   6.571
 6079SOL    HW219134   4.276   0.292   6.442
 6080SOL     OW19135   4.075   1.801   6.439
 6080SOL    HW119136   4.125   1.715   6.445
 6080SOL    HW219137   4.140   1.878   6.436
 6081SOL     OW19138   4.045   0.943   5.828
 6081SOL    HW119139   4.127   0.982   5.786
 6081SOL    HW219140   4.018   0.861   5.779
 6082SOL     OW19141   4.185   1.266   7.313
 6082SOL    HW119142   4.135   1.267   7.227
 6082SOL    HW219143   4.122   1.248   7.389
 6083SOL     OW19144   3.926   0.285   7.084
 6083SOL    HW119145   3.846   0.345   7.071
 6083SOL    HW219146   3.916   0.236   7.170
 6084SOL     OW19147   4.188   1.743   5.909
 6084SOL    HW119148   4.221   1.782   5.995
 6084SOL    HW219149   4.264   1.736   5.844
 6085SOL     OW19150   3.973   1.785   6.827
 6085SOL    HW119151   4.030   1.720   6.877
 6085SOL    HW219152   3.957   1.752   6.734
 6086SOL     OW19153   4.106   0.700   6.066
 6086SOL    HW119154   4.151   0.610   6.063
 6086SOL    HW219155   4.012   0.689   6.099
 6087SOL     OW19156   4.338   0.122   5.703
 6087SOL    HW119157   4.436   0.100   5.710
 6087SOL    HW219158   4.307   0.105   5.610
 6088SOL     OW19159   4.527   1.402   6.510
 6088SOL    HW119160   4.617   1.416   6.468
 6088SOL    HW219161   4.456   1.404   6.439
 6089SOL     OW19162   4.263   0.064   6.098
 6089SOL    HW119163   4.182   0.065   6.156
 6089SOL    HW219164   4.266   0.147   6.043
 6090SOL     OW19165   4.021   0.035   5.757
 6090SOL    HW119166   4.070   0.119   5.736
 6090SOL    HW219167   4.083  -0.030   5.802
 6091SOL     OW19168   4.800   0.683   7.050
 6091SOL    HW119169   4.720   0.622   7.053
 6091SOL    HW219170   4.881   0.630   7.026
 6092SOL     OW19171   4.183   1.152   6.327
 6092SOL    HW119172   4.112   1.125   6.392
 6092SOL    HW219173   4.157   1.124   6.234
 6093SOL     OW19174   3.802   0.556   6.972
 6093SOL    HW119175   3.894   0.555   6.931
 6093SOL    HW219176   3.796   0.630   7.039
 6094SOL     OW19177   4.285   0.222   6.733
 6094SOL    HW119178   4.323   0.138   6.770
 6094SOL    HW219179   4.197   0.241   6.777
 6095SOL     OW19180   4.212   1.385   5.760
 6095SOL    HW119181   4.125   1.370   5.807
 6095SOL    HW219182   4.195   1.411   5.665
 6096SOL     OW19183   4.251   0.256   5.914
 6096SOL    HW119184   4.278   0.197   5.839
 6096SOL    HW219185   4.251   0.351   5.883
 6097SOL     OW19186   4.134   0.813   6.837
 6097SOL    HW119187   4.220   0.825   6.887
 6097SOL    HW219188   4.092   0.726   6.864
 6098SOL     OW19189   3.788   1.564   6.917
 6098SOL    HW119190   3.742   1.646   6.883
 6098SOL    HW219191   3.886   1.583   6.926
 6099SOL     OW19192   4.091   1.100   6.087
 6099SOL    HW119193   4.084   1.183   6.031
 6099SOL    HW219194   4.095   1.020   6.027
 6100SOL     OW19195   4.290   0.537   6.451
 6100SOL    HW119196   4.302   0.603   6.377
 6100SOL    HW219197   4.336   0.571   6.534
 6101SOL     OW19198   4.078   1.510   6.915
 6101SOL    HW119199   4.057   1.466   6.828
 6101SOL    HW219200   4.175   1.536   6.918
 6102SOL     OW19201   4.126   0.751   7.184
 6102SOL    HW119202   4.194   0.806   7.137
 6102SOL    HW219203   4.166   0.663   7.211
 6103SOL     OW19204   4.228   0.050   7.326
 6103SOL    HW119205   4.186  -0.007   7.256
 6103SOL    HW219206   4.162   0.119   7.358
 6104SOL     OW19207   4.297   0.870   6.615
 6104SOL    HW119208   4.341   0.959   6.606
 6104SOL    HW219209   4.234   0.870   6.692
 6105SOL     OW19210   4.031   0.213   6.817
 6105SOL    HW119211   4.008   0.250   6.907
 6105SOL    HW219212   4.001   0.118   6.811
 6106SOL     OW19213   3.761   1.310   6.868
 6106SOL    HW119214   3.814   1.261   6.936
 6106SOL    HW219215   3.783   1.408   6.873
 6107SOL     OW19216   4.031   0.063   6.204
 6107SOL    HW119217   4.020   0.157   6.237
 6107SOL    HW219218   4.026   0.000   6.281
 6108SOL     OW19219   4.074   0.898   7.390
 6108SOL    HW119220   4.150   0.942   7.438
 6108SOL    HW219221   4.109   0.851   7.308
 6109SOL     OW19222   4.043   0.810   6.535
 6109SOL    HW119223   4.136   0.846   6.540
 6109SOL    HW219224   4.037   0.725   6.587
 6110SOL     OW19225   4.063   0.509   6.592
 6110SOL    HW119226   4.011   0.426   6.575
 6110SOL    HW219227   4.140   0.514   6.528
 6111SOL     OW19228   3.732   1.326   5.786
 6111SOL    HW119229   3.639   1.347   5.755
 6111SOL    HW219230   3.742   1.227   5.799
 6112SOL     OW19231   3.812   1.801   6.513
 6112SOL    HW119232   3.770   1.715   6.486
 6112SOL    HW219233   3.906   1.804   6.479
 6113SOL     OW19234   4.228   1.568   6.496
 6113SOL    HW119235   4.294   1.642   6.505
 6113SOL    HW219236   4.272   1.489   6.454
 6114SOL     OW19237   3.764   0.544   6.700
 6114SOL    HW119238   3.849   0.511   6.659
 6114SOL    HW219239   3.777   0.559   6.798
 6115SOL     OW19240   3.913   0.520   7.308
 6115SOL    HW119241   3.972   0.480   7.238
 6115SOL    HW219242   3.855   0.591   7.267
 6116SOL     OW19243   4.539   0.572   5.911
 6116SOL    HW119244   4.546   0.483   5.865
 6116SOL    HW219245   4.445   0.606   5.903
 6117SOL     OW19246   3.976   1.564   7.330
 6117SOL    HW119247   3.946   1.621   7.406
 6117SOL    HW219248   3.969   1.467   7.356
 6118SOL     OW19249   4.197   0.500   5.777
 6118SOL    HW119250   4.258   0.580   5.781
 6118SOL    HW219251   4.102   0.531   5.784
 6119SOL     OW19252   3.883   1.137   7.052
 6119SOL    HW119253   3.905   1.076   7.128
 6119SOL    HW219254   3.893   1.088   6.966
 6120SOL     OW19255   3.807   1.258   6.608
 6120SOL    HW119256   3.802   1.257   6.708
 6120SOL    HW219257   3.724   1.217   6.570
 6121SOL     OW19258   4.412   1.662   7.302
 6121SOL    HW119259   4.356   1.743   7.311
 6121SOL    HW219260   4.464   1.666   7.216
 6122SOL     OW19261   3.854   1.794   7.437
 6122SOL    HW119262   3.813   1.720   7.490
 6122SOL    HW219263   3.918   1.845   7.495
 6123SOL     OW19264   3.987   0.326   6.306
 6123SOL    HW119265   3.908   0.377   6.272
 6123SOL    HW219266   3.978   0.311   6.404
 6124SOL     OW19267   4.096   1.288   7.076
 6124SOL    HW119268   4.083   1.381   7.042
 6124SOL    HW219269   4.012   1.236   7.063
 6125SOL     OW19270   4.314   1.487   6.077
 6125SOL    HW119271   4.356   1.429   6.007
 6125SOL    HW219272   4.270   1.566   6.033
 6126SOL     OW19273   3.979   1.348   5.876
 6126SOL    HW119274   3.883   1.349   5.849
 6126SOL    HW219275   3.991   1.401   5.960
 6127SOL     OW19276   3.829   1.013   7.312
 6127SOL    HW119277   3.752   0.980   7.366
 6127SOL    HW219278   3.914   0.983   7.354
 6128SOL     OW19279   4.396   0.203   7.075
 6128SOL    HW119280   4.486   0.187   7.035
 6128SOL    HW219281   4.404   0.208   7.174
 6129SOL     OW19282   3.799   0.345   5.619
 6129SOL    HW119283   3.707   0.317   5.590
 6129SOL    HW219284   3.830   0.422   5.563
 6130SOL     OW19285   3.796   0.166   5.904
 6130SOL    HW119286   3.779   0.249   5.850
 6130SOL    HW219287   3.886   0.129   5.882
 6131SOL     OW19288   4.337   0.842   7.017
 6131SOL    HW119289   4.393   0.923   7.000
 6131SOL    HW219290   4.396   0.762   7.020
 6132SOL     OW19291   4.440   0.565   7.294
 6132SOL    HW119292   4.459   0.630   7.368
 6132SOL    HW219293   4.500   0.485   7.303
 6133SOL     OW19294   4.114   1.741   7.146
 6133SOL    HW119295   4.023   1.782   7.144
 6133SOL    HW219296   4.107   1.647   7.178
 6134SOL     OW19297   4.318   0.745   6.238
 6134SOL    HW119298   4.368   0.830   6.219
 6134SOL    HW219299   4.230   0.747   6.190
 6135SOL     OW19300   3.945   1.314   7.430
 6135SOL    HW119301   3.880   1.241   7.409
 6135SOL    HW219302   3.949   1.328   7.528
 6136SOL     OW19303   3.803   1.240   6.239
 6136SOL    HW119304   3.802   1.193   6.327
 6136SOL    HW219305   3.885   1.212   6.188
 6137SOL     OW19306   4.396   1.391   7.210
 6137SOL    HW119307   4.318   1.341   7.248
 6137SOL    HW219308   4.393   1.486   7.241
 6138SOL     OW19309   4.152   0.424   6.106
 6138SOL    HW119310   4.182   0.352   6.044
 6138SOL    HW219311   4.113   0.384   6.189
 6139SOL     OW19312   4.041   0.547   6.866
 6139SOL    HW119313   4.079   0.488   6.938
 6139SOL    HW219314   4.081   0.521   6.778
 6140SOL     OW19315   4.536   1.586   6.273
 6140SOL    HW119316   4.568   1.596   6.179
 6140SOL    HW219317   4.457   1.524   6.275
 6141SOL     OW19318   3.763   1.077   5.886
 6141SOL    HW119319   3.862   1.066   5.877
 6141SOL    HW219320   3.723   0.991   5.918
 6142SOL     OW19321   3.954   0.628   7.561
 6142SOL    HW119322   3.861   0.626   7.598
 6142SOL    HW219323   3.955   0.589   7.469
 6143SOL     OW19324   3.949   0.275   8.444
 6143SOL    HW119325   3.984   0.258   8.536
 6143SOL    HW219326   3.861   0.230   8.432
 6144SOL     OW19327   3.743   0.368   8.095
 6144SOL    HW119328   3.661   0.411   8.134
 6144SOL    HW219329   3.715   0.295   8.032
 6145SOL     OW19330   4.293   1.275   8.613
 6145SOL    HW119331   4.200   1.268   8.576
 6145SOL    HW219332   4.304   1.364   8.657
 6146SOL     OW19333   4.574   0.798   9.271
 6146SOL    HW119334   4.570   0.874   9.336
 6146SOL    HW219335   4.596   0.834   9.180
 6147SOL     OW19336   4.409   1.012   8.113
 6147SOL    HW119337   4.478   0.996   8.183
 6147SOL    HW219338   4.336   1.069   8.151
 6148SOL     OW19339   4.410   1.161   9.251
 6148SOL    HW119340   4.470   1.240   9.265
 6148SOL    HW219341   4.324   1.192   9.210
 6149SOL     OW19342   4.059   1.435   8.509
 6149SOL    HW119343   3.981   1.404   8.456
 6149SOL    HW219344   4.117   1.493   8.452
 6150SOL     OW19345   4.162   0.392   8.947
 6150SOL    HW119346   4.244   0.336   8.956
 6150SOL    HW219347   4.081   0.334   8.951
 6151SOL     OW19348   3.955   1.713   7.931
 6151SOL    HW119349   3.989   1.790   7.985
 6151SOL    HW219350   3.999   1.713   7.841
 6152SOL     OW19351   3.954   1.434   7.986
 6152SOL    HW119352   3.928   1.530   7.986
 6152SOL    HW219353   3.883   1.380   8.031
 6153SOL     OW19354   3.964   1.091   8.334
 6153SOL    HW119355   3.978   1.007   8.386
 6153SOL    HW219356   3.909   1.155   8.389
 6154SOL     OW19357   4.344   1.786   8.887
 6154SOL    HW119358   4.252   1.769   8.922
 6154SOL    HW219359   4.372   1.878   8.913
 6155SOL     OW19360   4.330   0.964   7.571
 6155SOL    HW119361   4.337   1.048   7.517
 6155SOL    HW219362   4.376   0.977   7.659
 6156SOL     OW19363   3.846   0.643   8.011
 6156SOL    HW119364   3.801   0.555   8.028
 6156SOL    HW219365   3.845   0.697   8.095
 6157SOL     OW19366   3.751   1.596   7.565
 6157SOL    HW119367   3.732   1.500   7.586
 6157SOL    HW219368   3.718   1.654   7.640
 6158SOL     OW19369   3.837   0.737   9.045
 6158SOL    HW119370   3.925   0.724   9.090
 6158SOL    HW219371   3.824   0.834   9.023
 6159SOL     OW19372   4.337   1.365   8.174
 6159SOL    HW119373   4.288   1.278   8.183
 6159SOL    HW219374   4.314   1.408   8.087
 6160SOL     OW19375   4.533   0.004   7.950
 6160SOL    HW119376   4.573   0.095   7.941
 6160SOL    HW219377   4.433   0.012   7.956
 6161SOL     OW19378   3.921   0.976   8.712
 6161SOL    HW119379   4.010   0.931   8.698
 6161SOL    HW219380   3.848   0.911   8.693
 6162SOL     OW19381   4.041   0.251   9.249
 6162SOL    HW119382   4.112   0.322   9.255
 6162SOL    HW219383   3.953   0.290   9.277
 6163SOL     OW19384   4.322   0.729   7.718
 6163SOL    HW119385   4.346   0.798   7.650
 6163SOL    HW219386   4.244   0.762   7.772
 6164SOL     OW19387   3.800   0.811   8.237
 6164SOL    HW119388   3.899   0.799   8.246
 6164SOL    HW219389   3.776   0.906   8.258
 6165SOL     OW19390   3.854   1.821   9.019
 6165SOL    HW119391   3.844   1.806   9.118
 6165SOL    HW219392   3.768   1.857   8.983
 6166SOL     OW19393   4.274   0.196   8.333
 6166SOL    HW119394   4.269   0.191   8.433
 6166SOL    HW219395   4.276   0.292   8.304
 6167SOL     OW19396   4.075   1.801   8.301
 6167SOL    HW119397   4.125   1.715   8.307
 6167SOL    HW219398   4.140   1.878   8.298
 6168SOL     OW19399   4.045   0.943   7.690
 6168SOL    HW119400   4.127   0.982   7.648
 6168SOL    HW219401   4.018   0.861   7.641
 6169SOL     OW19402   4.185   1.266   9.175
 6169SOL    HW119403   4.135   1.267   9.089
 6169SOL    HW219404   4.122   1.248   9.251
 6170SOL     OW19405   3.926   0.285   8.946
 6170SOL    HW119406   3.846   0.345   8.933
 6170SOL    HW219407   3.916   0.236   9.032
 6171SOL     OW19408   4.188   1.743   7.771
 6171SOL    HW119409   4.221   1.782   7.857
 6171SOL    HW219410   4.264   1.736   7.706
 6172SOL     OW19411   3.973   1.785   8.689
 6172SOL    HW119412   4.030   1.720   8.739
 6172SOL    HW219413   3.957   1.752   8.596
 6173SOL     OW19414   4.106   0.700   7.928
 6173SOL    HW119415   4.151   0.610   7.925
 6173SOL    HW219416   4.012   0.689   7.961
 6174SOL     OW19417   4.338   0.122   7.565
 6174SOL    HW119418   4.436   0.100   7.572
 6174SOL    HW219419   4.307   0.105   7.472
 6175SOL     OW19420   4.527   1.402   8.372
 6175SOL    HW119421   4.617   1.416   8.330
 6175SOL    HW219422   4.456   1.404   8.301
 6176SOL     OW19423   4.263   0.064   7.960
 6176SOL    HW119424   4.182   0.065   8.018
 6176SOL    HW219425   4.266   0.147   7.905
 6177SOL     OW19426   4.021   0.035   7.619
 6177SOL    HW119427   4.070   0.119   7.598
 6177SOL    HW219428   4.083  -0.030   7.664
 6178SOL     OW19429   4.800   0.683   8.912
 6178SOL    HW119430   4.720   0.622   8.915
 6178SOL    HW219431   4.881   0.630   8.888
 6179SOL     OW19432   4.183   1.152   8.189
 6179SOL    HW119433   4.112   1.125   8.254
 6179SOL    HW219434   4.157   1.124   8.096
 6180SOL     OW19435   3.802   0.556   8.834
 6180SOL    HW119436   3.894   0.555   8.793
 6180SOL    HW219437   3.796   0.630   8.901
 6181SOL     OW19438   4.285   0.222   8.595
 6181SOL    HW119439   4.323   0.138   8.632
 6181SOL    HW219440   4.197   0.241   8.639
 6182SOL     OW19441   4.212   1.385   7.622
 6182SOL    HW119442   4.125   1.370   7.669
 6182SOL    HW219443   4.195   1.411   7.527
 6183SOL     OW19444   4.251   0.256   7.776
 6183SOL    HW119445   4.278   0.197   7.701
 6183SOL    HW219446   4.251   0.351   7.745
 6184SOL     OW19447   4.134   0.813   8.699
 6184SOL    HW119448   4.220   0.825   8.749
 6184SOL    HW219449   4.092   0.726   8.726
 6185SOL     OW19450   3.788   1.564   8.779
 6185SOL    HW119451   3.742   1.646   8.745
 6185SOL    HW219452   3.886   1.583   8.788
 6186SOL     OW19453   4.091   1.100   7.949
 6186SOL    HW119454   4.084   1.183   7.893
 6186SOL    HW219455   4.095   1.020   7.889
 6187SOL     OW19456   4.290   0.537   8.313
 6187SOL    HW119457   4.302   0.603   8.239
 6187SOL    HW219458   4.336   0.571   8.396
 6188SOL     OW19459   4.078   1.510   8.777
 6188SOL    HW119460   4.057   1.466   8.690
 6188SOL    HW219461   4.175   1.536   8.780
 6189SOL     OW19462   4.126   0.751   9.046
 6189SOL    HW119463   4.194   0.806   8.999
 6189SOL    HW219464   4.166   0.663   9.073
 6190SOL     OW19465   4.228   0.050   9.188
 6190SOL    HW119466   4.186  -0.007   9.118
 6190SOL    HW219467   4.162   0.119   9.220
 6191SOL     OW19468   4.297   0.870   8.477
 6191SOL    HW119469   4.341   0.959   8.468
 6191SOL    HW219470   4.234   0.870   8.554
 6192SOL     OW19471   4.031   0.213   8.679
 6192SOL    HW119472   4.008   0.250   8.769
 6192SOL    HW219473   4.001   0.118   8.673
 6193SOL     OW19474   3.761   1.310   8.730
 6193SOL    HW119475   3.814   1.261   8.798
 6193SOL    HW219476   3.783   1.408   8.735
 6194SOL     OW19477   4.031   0.063   8.066
 6194SOL    HW119478   4.020   0.157   8.099
 6194SOL    HW219479   4.026   0.000   8.143
 6195SOL     OW19480   4.074   0.898   9.252
 6195SOL    HW119481   4.150   0.942   9.300
 6195SOL    HW219482   4.109   0.851   9.170
 6196SOL     OW19483   4.043   0.810   8.397
 6196SOL    HW119484   4.136   0.846   8.402
 6196SOL    HW219485   4.037   0.725   8.449
 6197SOL     OW19486   4.063   0.509   8.454
 6197SOL    HW119487   4.011   0.426   8.437
 6197SOL    HW219488   4.140   0.514   8.390
 6198SOL     OW19489   3.732   1.326   7.648
 6198SOL    HW119490   3.639   1.347   7.617
 6198SOL    HW219491   3.742   1.227   7.661
 6199SOL     OW19492   3.812   1.801   8.375
 6199SOL    HW119493   3.770   1.715   8.348
 6199SOL    HW219494   3.906   1.804   8.341
 6200SOL     OW19495   4.228   1.568   8.358
 6200SOL    HW119496   4.294   1.642   8.367
 6200SOL    HW219497   4.272   1.489   8.316
 6201SOL     OW19498   3.764   0.544   8.562
 6201SOL    HW119499   3.849   0.511   8.521
 6201SOL    HW219500   3.777   0.559   8.660
 6202SOL     OW19501   3.913   0.520   9.170
 6202SOL    HW119502   3.972   0.480   9.100
 6202SOL    HW219503   3.855   0.591   9.129
 6203SOL     OW19504   4.539   0.572   7.773
 6203SOL    HW119505   4.546   0.483   7.727
 6203SOL    HW219506   4.445   0.606   7.765
 6204SOL     OW19507   3.976   1.564   9.192
 6204SOL    HW119508   3.946   1.621   9.268
 6204SOL    HW219509   3.969   1.467   9.218
 6205SOL     OW19510   4.197   0.500   7.639
 6205SOL    HW119511   4.258   0.580   7.643
 6205SOL    HW219512   4.102   0.531   7.646
 6206SOL     OW19513   3.883   1.137   8.914
 6206SOL    HW119514   3.905   1.076   8.990
 6206SOL    HW219515   3.893   1.088   8.828
 6207SOL     OW19516   3.807   1.258   8.470
 6207SOL    HW119517   3.802   1.257   8.570
 6207SOL    HW219518   3.724   1.217   8.432
 6208SOL     OW19519   4.412   1.662   9.164
 6208SOL    HW119520   4.356   1.743   9.173
 6208SOL    HW219521   4.464   1.666   9.078
 6209SOL     OW19522   3.854   1.794   9.299
 6209SOL    HW119523   3.813   1.720   9.352
 6209SOL    HW219524   3.918   1.845   9.357
 6210SOL     OW19525   3.987   0.326   8.168
 6210SOL    HW119526   3.908   0.377   8.134
 6210SOL    HW219527   3.978   0.311   8.266
 6211SOL     OW19528   4.096   1.288   8.938
 6211SOL    HW119529   4.083   1.381   8.904
 6211SOL    HW219530   4.012   1.236   8.925
 6212SOL     OW19531   4.314   1.487   7.939
 6212SOL    HW119532   4.356   1.429   7.869
 6212SOL    HW219533   4.270   1.566   7.895
 6213SOL     OW19534   3.979   1.348   7.738
 6213SOL    HW119535   3.883   1.349   7.711
 6213SOL    HW219536   3.991   1.401   7.822
 6214SOL     OW19537   3.829   1.013   9.174
 6214SOL    HW119538   3.752   0.980   9.228
 6214SOL    HW219539   3.914   0.983   9.216
 6215SOL     OW19540   4.396   0.203   8.937
 6215SOL    HW119541   4.486   0.187   8.897
 6215SOL    HW219542   4.404   0.208   9.036
 6216SOL     OW19543   3.799   0.345   7.481
 6216SOL    HW119544   3.707   0.317   7.452
 6216SOL    HW219545   3.830   0.422   7.425
 6217SOL     OW19546   3.796   0.166   7.766
 6217SOL    HW119547   3.779   0.249   7.712
 6217SOL    HW219548   3.886   0.129   7.744
 6218SOL     OW19549   4.337   0.842   8.879
 6218SOL    HW119550   4.393   0.923   8.862
 6218SOL    HW219551   4.396   0.762   8.882
 6219SOL     OW19552   4.440   0.565   9.156
 6219SOL    HW119553   4.459   0.630   9.230
 6219SOL    HW219554   4.500   0.485   9.165
 6220SOL     OW19555   4.114   1.741   9.008
 6220SOL    HW119556   4.023   1.782   9.006
 6220SOL    HW219557   4.107   1.647   9.040
 6221SOL     OW19558   4.318   0.745   8.100
 6221SOL    HW119559   4.368   0.830   8.081
 6221SOL    HW219560   4.230   0.747   8.052
 6222SOL     OW19561   3.945   1.314   9.292
 6222SOL    HW119562   3.880   1.241   9.271
 6222SOL    HW219563   3.949   1.328   9.390
 6223SOL     OW19564   3.803   1.240   8.101
 6223SOL    HW119565   3.802   1.193   8.189
 6223SOL    HW219566   3.885   1.212   8.050
 6224SOL     OW19567   4.396   1.391   9.072
 6224SOL    HW119568   4.318   1.341   9.110
 6224SOL    HW219569   4.393   1.486   9.103
 6225SOL     OW19570   4.152   0.424   7.968
 6225SOL    HW119571   4.182   0.352   7.906
 6225SOL    HW219572   4.113   0.384   8.051
 6226SOL     OW19573   4.041   0.547   8.728
 6226SOL    HW119574   4.079   0.488   8.800
 6226SOL    HW219575   4.081   0.521   8.640
 6227SOL     OW19576   4.536   1.586   8.135
 6227SOL    HW119577   4.568   1.596   8.041
 6227SOL    HW219578   4.457   1.524   8.137
 6228SOL     OW19579   3.763   1.077   7.748
 6228SOL    HW119580   3.862   1.066   7.739
 6228SOL    HW219581   3.723   0.991   7.780
 6229SOL     OW19582   3.954   0.628   9.423
 6229SOL    HW119583   3.861   0.626   9.460
 6229SOL    HW219584   3.955   0.589   9.331
 6230SOL     OW19585   3.949   0.275  10.306
 6230SOL    HW119586   3.984   0.258  10.398
 6230SOL    HW219587   3.861   0.230  10.294
 6231SOL     OW19588   3.743   0.368   9.957
 6231SOL    HW119589   3.661   0.411   9.996
 6231SOL    HW219590   3.715   0.295   9.894
 6232SOL     OW19591   4.293   1.275  10.475
 6232SOL    HW119592   4.200   1.268  10.438
 6232SOL    HW219593   4.304   1.364  10.519
 6233SOL     OW19594   4.574   0.798  11.133
 6233SOL    HW119595   4.570   0.874  11.198
 6233SOL    HW219596   4.596   0.834  11.042
 6234SOL     OW19597   4.409   1.012   9.975
 6234SOL    HW119598   4.478   0.996  10.045
 6234SOL    HW219599   4.336   1.069  10.013
 6235SOL     OW19600   4.059   1.435  10.371
 6235SOL    HW119601   3.981   1.404  10.318
 6235SOL    HW219602   4.117   1.493  10.314
 6236SOL     OW19603   4.162   0.392  10.809
 6236SOL    HW119604   4.244   0.336  10.818
 6236SOL    HW219605   4.081   0.334  10.813
 6237SOL     OW19606   3.955   1.713   9.793
 6237SOL    HW119607   3.989   1.790   9.847
 6237SOL    HW219608   3.999   1.713   9.703
 6238SOL     OW19609   3.954   1.434   9.848
 6238SOL    HW119610   3.928   1.530   9.848
 6238SOL    HW219611   3.883   1.380   9.893
 6239SOL     OW19612   3.964   1.091  10.196
 6239SOL    HW119613   3.978   1.007  10.248
 6239SOL    HW219614   3.909   1.155  10.251
 6240SOL     OW19615   4.344   1.786  10.749
 6240SOL    HW119616   4.252   1.769  10.784
 6240SOL    HW219617   4.372   1.878  10.775
 6241SOL     OW19618   4.330   0.964   9.433
 6241SOL    HW119619   4.337   1.048   9.379
 6241SOL    HW219620   4.376   0.977   9.521
 6242SOL     OW19621   3.846   0.643   9.873
 6242SOL    HW119622   3.801   0.555   9.890
 6242SOL    HW219623   3.845   0.697   9.957
 6243SOL     OW19624   3.751   1.596   9.427
 6243SOL    HW119625   3.732   1.500   9.448
 6243SOL    HW219626   3.718   1.654   9.502
 6244SOL     OW19627   3.837   0.737  10.907
 6244SOL    HW119628   3.925   0.724  10.952
 6244SOL    HW219629   3.824   0.834  10.885
 6245SOL     OW19630   4.337   1.365  10.036
 6245SOL    HW119631   4.288   1.278  10.045
 6245SOL    HW219632   4.314   1.408   9.949
 6246SOL     OW19633   4.533   0.004   9.812
 6246SOL    HW119634   4.573   0.095   9.803
 6246SOL    HW219635   4.433   0.012   9.818
 6247SOL     OW19636   3.921   0.976  10.574
 6247SOL    HW119637   4.010   0.931  10.560
 6247SOL    HW219638   3.848   0.911  10.555
 6248SOL     OW19639   4.041   0.251  11.111
 6248SOL    HW119640   4.112   0.322  11.117
 6248SOL    HW219641   3.953   0.290  11.139
 6249SOL     OW19642   4.322   0.729   9.580
 6249SOL    HW119643   4.346   0.798   9.512
 6249SOL    HW219644   4.244   0.762   9.634
 6250SOL     OW19645   3.800   0.811  10.099
 6250SOL    HW119646   3.899   0.799  10.108
 6250SOL    HW219647   3.776   0.906  10.120
 6251SOL     OW19648   3.854   1.821  10.881
 6251SOL    HW119649   3.844   1.806  10.980
 6251SOL    HW219650   3.768   1.857  10.845
 6252SOL     OW19651   4.274   0.196  10.195
 6252SOL    HW119652   4.269   0.191  10.295
 6252SOL    HW219653   4.276   0.292  10.166
 6253SOL     OW19654   4.075   1.801  10.163
 6253SOL    HW119655   4.125   1.715  10.169
 6253SOL    HW219656   4.140   1.878  10.160
 6254SOL     OW19657   4.045   0.943   9.552
 6254SOL    HW119658   4.127   0.982   9.510
 6254SOL    HW219659   4.018   0.861   9.503
 6255SOL     OW19660   4.185   1.266  11.037
 6255SOL    HW119661   4.135   1.267  10.951
 6255SOL    HW219662   4.122   1.248  11.113
 6256SOL     OW19663   3.926   0.285  10.808
 6256SOL    HW119664   3.846   0.345  10.795
 6256SOL    HW219665   3.916   0.236  10.894
 6257SOL     OW19666   4.188   1.743   9.633
 6257SOL    HW119667   4.221   1.782   9.719
 6257SOL    HW219668   4.264   1.736   9.568
 6258SOL     OW19669   3.973   1.785  10.551
 6258SOL    HW119670   4.030   1.720  10.601
 6258SOL    HW219671   3.957   1.752  10.458
 6259SOL     OW19672   4.106   0.700   9.790
 6259SOL    HW119673   4.151   0.610   9.787
 6259SOL    HW219674   4.012   0.689   9.823
 6260SOL     OW19675   4.338   0.122   9.427
 6260SOL    HW119676   4.436   0.100   9.434
 6260SOL    HW219677   4.307   0.105   9.334
 6261SOL     OW19678   4.527   1.402  10.234
 6261SOL    HW119679   4.617   1.416  10.192
 6261SOL    HW219680   4.456   1.404  10.163
 6262SOL     OW19681   4.263   0.064   9.822
 6262SOL    HW119682   4.182   0.065   9.880
 6262SOL    HW219683   4.266   0.147   9.767
 6263SOL     OW19684   4.021   0.035   9.481
 6263SOL    HW119685   4.070   0.119   9.460
 6263SOL    HW219686   4.083  -0.030   9.526
 6264SOL     OW19687   4.800   0.683  10.774
 6264SOL    HW119688   4.720   0.622  10.777
 6264SOL    HW219689   4.881   0.630  10.750
 6265SOL     OW19690   4.183   1.152  10.051
 6265SOL    HW119691   4.112   1.125  10.116
 6265SOL    HW219692   4.157   1.124   9.958
 6266SOL     OW19693   3.802   0.556  10.696
 6266SOL    HW119694   3.894   0.555  10.655
 6266SOL    HW219695   3.796   0.630  10.763
 6267SOL     OW19696   4.285   0.222  10.457
 6267SOL    HW119697   4.323   0.138  10.494
 6267SOL    HW219698   4.197   0.241  10.501
 6268SOL     OW19699   4.212   1.385   9.484
 6268SOL    HW119700   4.125   1.370   9.531
 6268SOL    HW219701   4.195   1.411   9.389
 6269SOL     OW19702   4.251   0.256   9.638
 6269SOL    HW119703   4.278   0.197   9.563
 6269SOL    HW219704   4.251   0.351   9.607
 6270SOL     OW19705   4.134   0.813  10.561
 6270SOL    HW119706   4.220   0.825  10.611
 6270SOL    HW219707   4.092   0.726  10.588
 6271SOL     OW19708   3.788   1.564  10.641
 6271SOL    HW119709   3.742   1.646  10.607
 6271SOL    HW219710   3.886   1.583  10.650
 6272SOL     OW19711   4.091   1.100   9.811
 6272SOL    HW119712   4.084   1.183   9.755
 6272SOL    HW219713   4.095   1.020   9.751
 6273SOL     OW19714   4.290   0.537  10.175
 6273SOL    HW119715   4.302   0.603  10.101
 6273SOL    HW219716   4.336   0.571  10.258
 6274SOL     OW19717   4.078   1.510  10.639
 6274SOL    HW119718   4.057   1.466  10.552
 6274SOL    HW219719   4.175   1.536  10.642
 6275SOL     OW19720   4.126   0.751  10.908
 6275SOL    HW119721   4.194   0.806  10.861
 6275SOL    HW219722   4.166   0.663  10.935
 6276SOL     OW19723   4.297   0.870  10.339
 6276SOL    HW119724   4.341   0.959  10.330
 6276SOL    HW219725   4.234   0.870  10.416
 6277SOL     OW19726   4.031   0.213  10.541
 6277SOL    HW119727   4.008   0.250  10.631
 6277SOL    HW219728   4.001   0.118  10.535
 6278SOL     OW19729   3.761   1.310  10.592
 6278SOL    HW119730   3.814   1.261  10.660
 6278SOL    HW219731   3.783   1.408  10.597
 6279SOL     OW19732   4.031   0.063   9.928
 6279SOL    HW119733   4.020   0.157   9.961
 6279SOL    HW219734   4.026   0.000  10.005
 6280SOL     OW19735   4.074   0.898  11.114
 6280SOL    HW119736   4.150   0.942  11.162
 6280SOL    HW219737   4.109   0.851  11.032
 6281SOL     OW19738   4.043   0.810  10.259
 6281SOL    HW119739   4.136   0.846  10.264
 6281SOL    HW219740   4.037   0.725  10.311
 6282SOL     OW19741   4.063   0.509  10.316
 6282SOL    HW119742   4.011   0.426  10.299
 6282SOL    HW219743   4.140   0.514  10.252
 6283SOL     OW19744   3.732   1.326   9.510
 6283SOL    HW119745   3.639   1.347   9.479
 6283SOL    HW219746   3.742   1.227   9.523
 6284SOL     OW19747   3.812   1.801  10.237
 6284SOL    HW119748   3.770   1.715  10.210
 6284SOL    HW219749   3.906   1.804  10.203
 6285SOL     OW19750   4.228   1.568  10.220
 6285SOL    HW119751   4.294   1.642  10.229
 6285SOL    HW219752   4.272   1.489  10.178
 6286SOL     OW19753   3.764   0.544  10.424
 6286SOL    HW119754   3.849   0.511  10.383
 6286SOL    HW219755   3.777   0.559  10.522
 6287SOL     OW19756   4.539   0.572   9.635
 6287SOL    HW119757   4.546   0.483   9.589
 6287SOL    HW219758   4.445   0.606   9.627
 6288SOL     OW19759   3.976   1.564  11.054
 6288SOL    HW119760   3.946   1.621  11.130
 6288SOL    HW219761   3.969   1.467  11.080
 6289SOL     OW19762   4.197   0.500   9.501
 6289SOL    HW119763   4.258   0.580   9.505
 6289SOL    HW219764   4.102   0.531   9.508
 6290SOL     OW19765   3.883   1.137  10.776
 6290SOL    HW119766   3.905   1.076  10.852
 6290SOL    HW219767   3.893   1.088  10.690
 6291SOL     OW19768   3.807   1.258  10.332
 6291SOL    HW119769   3.802   1.257  10.432
 6291SOL    HW219770   3.724   1.217  10.294
 6292SOL     OW19771   4.412   1.662  11.026
 6292SOL    HW119772   4.356   1.743  11.035
 6292SOL    HW219773   4.464   1.666  10.940
 6293SOL     OW19774   3.987   0.326  10.030
 6293SOL    HW119775   3.908   0.377   9.996
 6293SOL    HW219776   3.978   0.311  10.128
 6294SOL     OW19777   4.096   1.288  10.800
 6294SOL    HW119778   4.083   1.381  10.766
 6294SOL    HW219779   4.012   1.236  10.787
 6295SOL     OW19780   4.314   1.487   9.801
 6295SOL    HW119781   4.356   1.429   9.731
 6295SOL    HW219782   4.270   1.566   9.757
 6296SOL     OW19783   3.979   1.348   9.600
 6296SOL    HW119784   3.883   1.349   9.573
 6296SOL    HW219785   3.991   1.401   9.684
 6297SOL     OW19786   3.829   1.013  11.036
 6297SOL    HW119787   3.752   0.980  11.090
 6297SOL    HW219788   3.914   0.983  11.078
 6298SOL     OW19789   4.396   0.203  10.799
 6298SOL    HW119790   4.486   0.187  10.759
 6298SOL    HW219791   4.404   0.208  10.898
 6299SOL     OW19792   3.799   0.345   9.343
 6299SOL    HW119793   3.707   0.317   9.314
 6299SOL    HW219794   3.830   0.422   9.287
 6300SOL     OW19795   3.796   0.166   9.628
 6300SOL    HW119796   3.779   0.249   9.574
 6300SOL    HW219797   3.886   0.129   9.606
 6301SOL     OW19798   4.337   0.842  10.741
 6301SOL    HW119799   4.393   0.923  10.724
 6301SOL    HW219800   4.396   0.762  10.744
 6302SOL     OW19801   4.114   1.741  10.870
 6302SOL    HW119802   4.023   1.782  10.868
 6302SOL    HW219803   4.107   1.647  10.902
 6303SOL     OW19804   4.318   0.745   9.962
 6303SOL    HW119805   4.368   0.830   9.943
 6303SOL    HW219806   4.230   0.747   9.914
 6304SOL     OW19807   3.803   1.240   9.963
 6304SOL    HW119808   3.802   1.193  10.051
 6304SOL    HW219809   3.885   1.212   9.912
 6305SOL     OW19810   4.396   1.391  10.934
 6305SOL    HW119811   4.318   1.341  10.972
 6305SOL    HW219812   4.393   1.486  10.965
 6306SOL     OW19813   4.152   0.424   9.830
 6306SOL    HW119814   4.182   0.352   9.768
 6306SOL    HW219815   4.113   0.384   9.913
 6307SOL     OW19816   4.041   0.547  10.590
 6307SOL    HW119817   4.079   0.488  10.662
 6307SOL    HW219818   4.081   0.521  10.502
 6308SOL     OW19819   4.536   1.586   9.997
 6308SOL    HW119820   4.568   1.596   9.903
 6308SOL    HW219821   4.457   1.524   9.999
 6309SOL     OW19822   3.763   1.077   9.610
 6309SOL    HW119823   3.862   1.066   9.601
 6309SOL    HW219824   3.723   0.991   9.642
 6310SOL     OW19825   3.954   2.490   0.113
 6310SOL    HW119826   3.861   2.488   0.150
 6310SOL    HW219827   3.955   2.451   0.021
 6311SOL     OW19828   3.949   2.137   0.996
 6311SOL    HW119829   3.984   2.120   1.088
 6311SOL    HW219830   3.861   2.092   0.984
 6312SOL     OW19831   3.743   2.230   0.647
 6312SOL    HW119832   3.661   2.273   0.686
 6312SOL    HW219833   3.715   2.157   0.584
 6313SOL     OW19834   4.293   3.137   1.165
 6313SOL    HW119835   4.200   3.130   1.128
 6313SOL    HW219836   4.304   3.226   1.209
 6314SOL     OW19837   4.574   2.660   1.823
 6314SOL    HW119838   4.570   2.736   1.888
 6314SOL    HW219839   4.596   2.696   1.732
 6315SOL     OW19840   4.409   2.874   0.665
 6315SOL    HW119841   4.478   2.858   0.735
 6315SOL    HW219842   4.336   2.931   0.703
 6316SOL     OW19843   4.410   3.023   1.803
 6316SOL    HW119844   4.470   3.102   1.817
 6316SOL    HW219845   4.324   3.054   1.762
 6317SOL     OW19846   4.059   3.297   1.061
 6317SOL    HW119847   3.981   3.266   1.008
 6317SOL    HW219848   4.117   3.355   1.004
 6318SOL     OW19849   4.162   2.254   1.499
 6318SOL    HW119850   4.244   2.198   1.508
 6318SOL    HW219851   4.081   2.196   1.503
 6319SOL     OW19852   3.955   3.575   0.483
 6319SOL    HW119853   3.989   3.652   0.537
 6319SOL    HW219854   3.999   3.575   0.393
 6320SOL     OW19855   3.954   3.296   0.538
 6320SOL    HW119856   3.928   3.392   0.538
 6320SOL    HW219857   3.883   3.242   0.583
 6321SOL     OW19858   3.964   2.953   0.886
 6321SOL    HW119859   3.978   2.869   0.938
 6321SOL    HW219860   3.909   3.017   0.941
 6322SOL     OW19861   4.344   3.648   1.439
 6322SOL    HW119862   4.252   3.631   1.474
 6322SOL    HW219863   4.372   3.740   1.465
 6323SOL     OW19864   4.330   2.826   0.123
 6323SOL    HW119865   4.337   2.910   0.069
 6323SOL    HW219866   4.376   2.839   0.211
 6324SOL     OW19867   3.846   2.505   0.563
 6324SOL    HW119868   3.801   2.417   0.580
 6324SOL    HW219869   3.845   2.559   0.647
 6325SOL     OW19870   3.751   3.458   0.117
 6325SOL    HW119871   3.732   3.362   0.138
 6325SOL    HW219872   3.718   3.516   0.192
 6326SOL     OW19873   3.837   2.599   1.597
 6326SOL    HW119874   3.925   2.586   1.642
 6326SOL    HW219875   3.824   2.696   1.575
 6327SOL     OW19876   4.337   3.227   0.726
 6327SOL    HW119877   4.288   3.140   0.735
 6327SOL    HW219878   4.314   3.270   0.639
 6328SOL     OW19879   4.533   1.866   0.502
 6328SOL    HW119880   4.573   1.957   0.493
 6328SOL    HW219881   4.433   1.874   0.508
 6329SOL     OW19882   3.921   2.838   1.264
 6329SOL    HW119883   4.010   2.793   1.250
 6329SOL    HW219884   3.848   2.773   1.245
 6330SOL     OW19885   4.041   2.113   1.801
 6330SOL    HW119886   4.112   2.184   1.807
 6330SOL    HW219887   3.953   2.152   1.829
 6331SOL     OW19888   4.322   2.591   0.270
 6331SOL    HW119889   4.346   2.660   0.202
 6331SOL    HW219890   4.244   2.624   0.324
 6332SOL     OW19891   3.800   2.673   0.789
 6332SOL    HW119892   3.899   2.661   0.798
 6332SOL    HW219893   3.776   2.768   0.810
 6333SOL     OW19894   3.854   3.683   1.571
 6333SOL    HW119895   3.844   3.668   1.670
 6333SOL    HW219896   3.768   3.719   1.535
 6334SOL     OW19897   4.274   2.058   0.885
 6334SOL    HW119898   4.269   2.053   0.985
 6334SOL    HW219899   4.276   2.154   0.856
 6335SOL     OW19900   4.075   3.663   0.853
 6335SOL    HW119901   4.125   3.577   0.859
 6335SOL    HW219902   4.140   3.740   0.850
 6336SOL     OW19903   4.045   2.805   0.242
 6336SOL    HW119904   4.127   2.844   0.200
 6336SOL    HW219905   4.018   2.723   0.193
 6337SOL     OW19906   4.185   3.128   1.727
 6337SOL    HW119907   4.135   3.129   1.641
 6337SOL    HW219908   4.122   3.110   1.803
 6338SOL     OW19909   3.926   2.147   1.498
 6338SOL    HW119910   3.846   2.207   1.485
 6338SOL    HW219911   3.916   2.098   1.584
 6339SOL     OW19912   4.188   3.605   0.323
 6339SOL    HW119913   4.221   3.644   0.409
 6339SOL    HW219914   4.264   3.598   0.258
 6340SOL     OW19915   3.973   3.647   1.241
 6340SOL    HW119916   4.030   3.582   1.291
 6340SOL    HW219917   3.957   3.614   1.148
 6341SOL     OW19918   4.106   2.562   0.480
 6341SOL    HW119919   4.151   2.472   0.477
 6341SOL    HW219920   4.012   2.551   0.513
 6342SOL     OW19921   4.338   1.984   0.117
 6342SOL    HW119922   4.436   1.962   0.124
 6342SOL    HW219923   4.307   1.967   0.024
 6343SOL     OW19924   4.527   3.264   0.924
 6343SOL    HW119925   4.617   3.278   0.882
 6343SOL    HW219926   4.456   3.266   0.853
 6344SOL     OW19927   4.263   1.926   0.512
 6344SOL    HW119928   4.182   1.927   0.570
 6344SOL    HW219929   4.266   2.009   0.457
 6345SOL     OW19930   4.021   1.897   0.171
 6345SOL    HW119931   4.070   1.981   0.150
 6345SOL    HW219932   4.083   1.832   0.216
 6346SOL     OW19933   4.800   2.545   1.464
 6346SOL    HW119934   4.720   2.484   1.467
 6346SOL    HW219935   4.881   2.492   1.440
 6347SOL     OW19936   4.183   3.014   0.741
 6347SOL    HW119937   4.112   2.987   0.806
 6347SOL    HW219938   4.157   2.986   0.648
 6348SOL     OW19939   3.802   2.418   1.386
 6348SOL    HW119940   3.894   2.417   1.345
 6348SOL    HW219941   3.796   2.492   1.453
 6349SOL     OW19942   4.285   2.084   1.147
 6349SOL    HW119943   4.323   2.000   1.184
 6349SOL    HW219944   4.197   2.103   1.191
 6350SOL     OW19945   4.212   3.247   0.174
 6350SOL    HW119946   4.125   3.232   0.221
 6350SOL    HW219947   4.195   3.273   0.079
 6351SOL     OW19948   4.251   2.118   0.328
 6351SOL    HW119949   4.278   2.059   0.253
 6351SOL    HW219950   4.251   2.213   0.297
 6352SOL     OW19951   4.134   2.675   1.251
 6352SOL    HW119952   4.220   2.687   1.301
 6352SOL    HW219953   4.092   2.588   1.278
 6353SOL     OW19954   3.788   3.426   1.331
 6353SOL    HW119955   3.742   3.508   1.297
 6353SOL    HW219956   3.886   3.445   1.340
 6354SOL     OW19957   4.091   2.962   0.501
 6354SOL    HW119958   4.084   3.045   0.445
 6354SOL    HW219959   4.095   2.882   0.441
 6355SOL     OW19960   4.290   2.399   0.865
 6355SOL    HW119961   4.302   2.465   0.791
 6355SOL    HW219962   4.336   2.433   0.948
 6356SOL     OW19963   4.078   3.372   1.329
 6356SOL    HW119964   4.057   3.328   1.242
 6356SOL    HW219965   4.175   3.398   1.332
 6357SOL     OW19966   4.126   2.613   1.598
 6357SOL    HW119967   4.194   2.668   1.551
 6357SOL    HW219968   4.166   2.525   1.625
 6358SOL     OW19969   4.228   1.912   1.740
 6358SOL    HW119970   4.186   1.855   1.670
 6358SOL    HW219971   4.162   1.981   1.772
 6359SOL     OW19972   4.297   2.732   1.029
 6359SOL    HW119973   4.341   2.821   1.020
 6359SOL    HW219974   4.234   2.732   1.106
 6360SOL     OW19975   4.031   2.075   1.231
 6360SOL    HW119976   4.008   2.112   1.321
 6360SOL    HW219977   4.001   1.980   1.225
 6361SOL     OW19978   3.761   3.172   1.282
 6361SOL    HW119979   3.814   3.123   1.350
 6361SOL    HW219980   3.783   3.270   1.287
 6362SOL     OW19981   4.031   1.925   0.618
 6362SOL    HW119982   4.020   2.019   0.651
 6362SOL    HW219983   4.026   1.862   0.695
 6363SOL     OW19984   4.074   2.760   1.804
 6363SOL    HW119985   4.150   2.804   1.852
 6363SOL    HW219986   4.109   2.713   1.722
 6364SOL     OW19987   4.043   2.672   0.949
 6364SOL    HW119988   4.136   2.708   0.954
 6364SOL    HW219989   4.037   2.587   1.001
 6365SOL     OW19990   4.063   2.371   1.006
 6365SOL    HW119991   4.011   2.288   0.989
 6365SOL    HW219992   4.140   2.376   0.942
 6366SOL     OW19993   3.732   3.188   0.200
 6366SOL    HW119994   3.639   3.209   0.169
 6366SOL    HW219995   3.742   3.089   0.213
 6367SOL     OW19996   3.812   3.663   0.927
 6367SOL    HW119997   3.770   3.577   0.900
 6367SOL    HW219998   3.906   3.666   0.893
 6368SOL     OW19999   4.228   3.430   0.910
 6368SOL    HW120000   4.294   3.504   0.919
 6368SOL    HW220001   4.272   3.351   0.868
 6369SOL     OW20002   3.764   2.406   1.114
 6369SOL    HW120003   3.849   2.373   1.073
 6369SOL    HW220004   3.777   2.421   1.212
 6370SOL     OW20005   3.913   2.382   1.722
 6370SOL    HW120006   3.972   2.342   1.652
 6370SOL    HW220007   3.855   2.453   1.681
 6371SOL     OW20008   4.539   2.434   0.325
 6371SOL    HW120009   4.546   2.345   0.279
 6371SOL    HW220010   4.445   2.468   0.317
 6372SOL     OW20011   3.976   3.426   1.744
 6372SOL    HW120012   3.946   3.483   1.820
 6372SOL    HW220013   3.969   3.329   1.770
 6373SOL     OW20014   4.197   2.362   0.191
 6373SOL    HW120015   4.258   2.442   0.195
 6373SOL    HW220016   4.102   2.393   0.198
 6374SOL     OW20017   3.883   2.999   1.466
 6374SOL    HW120018   3.905   2.938   1.542
 6374SOL    HW220019   3.893   2.950   1.380
 6375SOL     OW20020   3.807   3.120   1.022
 6375SOL    HW120021   3.802   3.119   1.122
 6375SOL    HW220022   3.724   3.079   0.984
 6376SOL     OW20023   4.412   3.524   1.716
 6376SOL    HW120024   4.356   3.605   1.725
 6376SOL    HW220025   4.464   3.528   1.630
 6377SOL     OW20026   3.854   3.656   1.851
 6377SOL    HW120027   3.813   3.582   1.904
 6377SOL    HW220028   3.918   3.707   1.909
 6378SOL     OW20029   3.987   2.188   0.720
 6378SOL    HW120030   3.908   2.239   0.686
 6378SOL    HW220031   3.978   2.173   0.818
 6379SOL     OW20032   4.096   3.150   1.490
 6379SOL    HW120033   4.083   3.243   1.456
 6379SOL    HW220034   4.012   3.098   1.477
 6380SOL     OW20035   4.314   3.349   0.491
 6380SOL    HW120036   4.356   3.291   0.421
 6380SOL    HW220037   4.270   3.428   0.447
 6381SOL     OW20038   3.979   3.210   0.290
 6381SOL    HW120039   3.883   3.211   0.263
 6381SOL    HW220040   3.991   3.263   0.374
 6382SOL     OW20041   3.829   2.875   1.726
 6382SOL    HW120042   3.752   2.842   1.780
 6382SOL    HW220043   3.914   2.845   1.768
 6383SOL     OW20044   4.396   2.065   1.489
 6383SOL    HW120045   4.486   2.049   1.449
 6383SOL    HW220046   4.404   2.070   1.588
 6384SOL     OW20047   3.799   2.207   0.033
 6384SOL    HW120048   3.707   2.179   0.004
 6384SOL    HW220049   3.830   2.284  -0.023
 6385SOL     OW20050   3.796   2.028   0.318
 6385SOL    HW120051   3.779   2.111   0.264
 6385SOL    HW220052   3.886   1.991   0.296
 6386SOL     OW20053   4.337   2.704   1.431
 6386SOL    HW120054   4.393   2.785   1.414
 6386SOL    HW220055   4.396   2.624   1.434
 6387SOL     OW20056   4.440   2.427   1.708
 6387SOL    HW120057   4.459   2.492   1.782
 6387SOL    HW220058   4.500   2.347   1.717
 6388SOL     OW20059   4.114   3.603   1.560
 6388SOL    HW120060   4.023   3.644   1.558
 6388SOL    HW220061   4.107   3.509   1.592
 6389SOL     OW20062   4.318   2.607   0.652
 6389SOL    HW120063   4.368   2.692   0.633
 6389SOL    HW220064   4.230   2.609   0.604
 6390SOL     OW20065   3.945   3.176   1.844
 6390SOL    HW120066   3.880   3.103   1.823
 6390SOL    HW220067   3.949   3.190   1.942
 6391SOL     OW20068   3.803   3.102   0.653
 6391SOL    HW120069   3.802   3.055   0.741
 6391SOL    HW220070   3.885   3.074   0.602
 6392SOL     OW20071   4.396   3.253   1.624
 6392SOL    HW120072   4.318   3.203   1.662
 6392SOL    HW220073   4.393   3.348   1.655
 6393SOL     OW20074   4.152   2.286   0.520
 6393SOL    HW120075   4.182   2.214   0.458
 6393SOL    HW220076   4.113   2.246   0.603
 6394SOL     OW20077   4.041   2.409   1.280
 6394SOL    HW120078   4.079   2.350   1.352
 6394SOL    HW220079   4.081   2.383   1.192
 6395SOL     OW20080   4.536   3.448   0.687
 6395SOL    HW120081   4.568   3.458   0.593
 6395SOL    HW220082   4.457   3.386   0.689
 6396SOL     OW20083   3.763   2.939   0.300
 6396SOL    HW120084   3.862   2.928   0.291
 6396SOL    HW220085   3.723   2.853   0.332
 6397SOL     OW20086   3.954   2.490   1.975
 6397SOL    HW120087   3.861   2.488   2.012
 6397SOL    HW220088   3.955   2.451   1.883
 6398SOL     OW20089   3.949   2.137   2.858
 6398SOL    HW120090   3.984   2.120   2.950
 6398SOL    HW220091   3.861   2.092   2.846
 6399SOL     OW20092   3.743   2.230   2.509
 6399SOL    HW120093   3.661   2.273   2.548
 6399SOL    HW220094   3.715   2.157   2.446
 6400SOL     OW20095   4.293   3.137   3.027
 6400SOL    HW120096   4.200   3.130   2.990
 6400SOL    HW220097   4.304   3.226   3.071
 6401SOL     OW20098   4.574   2.660   3.685
 6401SOL    HW120099   4.570   2.736   3.750
 6401SOL    HW220100   4.596   2.696   3.594
 6402SOL     OW20101   4.409   2.874   2.527
 6402SOL    HW120102   4.478   2.858   2.597
 6402SOL    HW220103   4.336   2.931   2.565
 6403SOL     OW20104   4.410   3.023   3.665
 6403SOL    HW120105   4.470   3.102   3.679
 6403SOL    HW220106   4.324   3.054   3.624
 6404SOL     OW20107   4.059   3.297   2.923
 6404SOL    HW120108   3.981   3.266   2.870
 6404SOL    HW220109   4.117   3.355   2.866
 6405SOL     OW20110   4.162   2.254   3.361
 6405SOL    HW120111   4.244   2.198   3.370
 6405SOL    HW220112   4.081   2.196   3.365
 6406SOL     OW20113   3.955   3.575   2.345
 6406SOL    HW120114   3.989   3.652   2.399
 6406SOL    HW220115   3.999   3.575   2.255
 6407SOL     OW20116   3.954   3.296   2.400
 6407SOL    HW120117   3.928   3.392   2.400
 6407SOL    HW220118   3.883   3.242   2.445
 6408SOL     OW20119   3.964   2.953   2.748
 6408SOL    HW120120   3.978   2.869   2.800
 6408SOL    HW220121   3.909   3.017   2.803
 6409SOL     OW20122   4.344   3.648   3.301
 6409SOL    HW120123   4.252   3.631   3.336
 6409SOL    HW220124   4.372   3.740   3.327
 6410SOL     OW20125   4.330   2.826   1.985
 6410SOL    HW120126   4.337   2.910   1.931
 6410SOL    HW220127   4.376   2.839   2.073
 6411SOL     OW20128   3.846   2.505   2.425
 6411SOL    HW120129   3.801   2.417   2.442
 6411SOL    HW220130   3.845   2.559   2.509
 6412SOL     OW20131   3.751   3.458   1.979
 6412SOL    HW120132   3.732   3.362   2.000
 6412SOL    HW220133   3.718   3.516   2.054
 6413SOL     OW20134   3.837   2.599   3.459
 6413SOL    HW120135   3.925   2.586   3.504
 6413SOL    HW220136   3.824   2.696   3.437
 6414SOL     OW20137   4.337   3.227   2.588
 6414SOL    HW120138   4.288   3.140   2.597
 6414SOL    HW220139   4.314   3.270   2.501
 6415SOL     OW20140   4.533   1.866   2.364
 6415SOL    HW120141   4.573   1.957   2.355
 6415SOL    HW220142   4.433   1.874   2.370
 6416SOL     OW20143   3.921   2.838   3.126
 6416SOL    HW120144   4.010   2.793   3.112
 6416SOL    HW220145   3.848   2.773   3.107
 6417SOL     OW20146   4.041   2.113   3.663
 6417SOL    HW120147   4.112   2.184   3.669
 6417SOL    HW220148   3.953   2.152   3.691
 6418SOL     OW20149   4.322   2.591   2.132
 6418SOL    HW120150   4.346   2.660   2.064
 6418SOL    HW220151   4.244   2.624   2.186
 6419SOL     OW20152   3.800   2.673   2.651
 6419SOL    HW120153   3.899   2.661   2.660
 6419SOL    HW220154   3.776   2.768   2.672
 6420SOL     OW20155   3.854   3.683   3.433
 6420SOL    HW120156   3.844   3.668   3.532
 6420SOL    HW220157   3.768   3.719   3.397
 6421SOL     OW20158   4.274   2.058   2.747
 6421SOL    HW120159   4.269   2.053   2.847
 6421SOL    HW220160   4.276   2.154   2.718
 6422SOL     OW20161   4.075   3.663   2.715
 6422SOL    HW120162   4.125   3.577   2.721
 6422SOL    HW220163   4.140   3.740   2.712
 6423SOL     OW20164   4.045   2.805   2.104
 6423SOL    HW120165   4.127   2.844   2.062
 6423SOL    HW220166   4.018   2.723   2.055
 6424SOL     OW20167   4.185   3.128   3.589
 6424SOL    HW120168   4.135   3.129   3.503
 6424SOL    HW220169   4.122   3.110   3.665
 6425SOL     OW20170   3.926   2.147   3.360
 6425SOL    HW120171   3.846   2.207   3.347
 6425SOL    HW220172   3.916   2.098   3.446
 6426SOL     OW20173   4.188   3.605   2.185
 6426SOL    HW120174   4.221   3.644   2.271
 6426SOL    HW220175   4.264   3.598   2.120
 6427SOL     OW20176   3.973   3.647   3.103
 6427SOL    HW120177   4.030   3.582   3.153
 6427SOL    HW220178   3.957   3.614   3.010
 6428SOL     OW20179   4.106   2.562   2.342
 6428SOL    HW120180   4.151   2.472   2.339
 6428SOL    HW220181   4.012   2.551   2.375
 6429SOL     OW20182   4.338   1.984   1.979
 6429SOL    HW120183   4.436   1.962   1.986
 6429SOL    HW220184   4.307   1.967   1.886
 6430SOL     OW20185   4.527   3.264   2.786
 6430SOL    HW120186   4.617   3.278   2.744
 6430SOL    HW220187   4.456   3.266   2.715
 6431SOL     OW20188   4.263   1.926   2.374
 6431SOL    HW120189   4.182   1.927   2.432
 6431SOL    HW220190   4.266   2.009   2.319
 6432SOL     OW20191   4.021   1.897   2.033
 6432SOL    HW120192   4.070   1.981   2.012
 6432SOL    HW220193   4.083   1.832   2.078
 6433SOL     OW20194   4.800   2.545   3.326
 6433SOL    HW120195   4.720   2.484   3.329
 6433SOL    HW220196   4.881   2.492   3.302
 6434SOL     OW20197   4.183   3.014   2.603
 6434SOL    HW120198   4.112   2.987   2.668
 6434SOL    HW220199   4.157   2.986   2.510
 6435SOL     OW20200   3.802   2.418   3.248
 6435SOL    HW120201   3.894   2.417   3.207
 6435SOL    HW220202   3.796   2.492   3.315
 6436SOL     OW20203   4.285   2.084   3.009
 6436SOL    HW120204   4.323   2.000   3.046
 6436SOL    HW220205   4.197   2.103   3.053
 6437SOL     OW20206   4.212   3.247   2.036
 6437SOL    HW120207   4.125   3.232   2.083
 6437SOL    HW220208   4.195   3.273   1.941
 6438SOL     OW20209   4.251   2.118   2.190
 6438SOL    HW120210   4.278   2.059   2.115
 6438SOL    HW220211   4.251   2.213   2.159
 6439SOL     OW20212   4.134   2.675   3.113
 6439SOL    HW120213   4.220   2.687   3.163
 6439SOL    HW220214   4.092   2.588   3.140
 6440SOL     OW20215   3.788   3.426   3.193
 6440SOL    HW120216   3.742   3.508   3.159
 6440SOL    HW220217   3.886   3.445   3.202
 6441SOL     OW20218   4.091   2.962   2.363
 6441SOL    HW120219   4.084   3.045   2.307
 6441SOL    HW220220   4.095   2.882   2.303
 6442SOL     OW20221   4.290   2.399   2.727
 6442SOL    HW120222   4.302   2.465   2.653
 6442SOL    HW220223   4.336   2.433   2.810
 6443SOL     OW20224   4.078   3.372   3.191
 6443SOL    HW120225   4.057   3.328   3.104
 6443SOL    HW220226   4.175   3.398   3.194
 6444SOL     OW20227   4.126   2.613   3.460
 6444SOL    HW120228   4.194   2.668   3.413
 6444SOL    HW220229   4.166   2.525   3.487
 6445SOL     OW20230   4.228   1.912   3.602
 6445SOL    HW120231   4.186   1.855   3.532
 6445SOL    HW220232   4.162   1.981   3.634
 6446SOL     OW20233   4.297   2.732   2.891
 6446SOL    HW120234   4.341   2.821   2.882
 6446SOL    HW220235   4.234   2.732   2.968
 6447SOL     OW20236   4.031   2.075   3.093
 6447SOL    HW120237   4.008   2.112   3.183
 6447SOL    HW220238   4.001   1.980   3.087
 6448SOL     OW20239   3.761   3.172   3.144
 6448SOL    HW120240   3.814   3.123   3.212
 6448SOL    HW220241   3.783   3.270   3.149
 6449SOL     OW20242   4.031   1.925   2.480
 6449SOL    HW120243   4.020   2.019   2.513
 6449SOL    HW220244   4.026   1.862   2.557
 6450SOL     OW20245   4.074   2.760   3.666
 6450SOL    HW120246   4.150   2.804   3.714
 6450SOL    HW220247   4.109   2.713   3.584
 6451SOL     OW20248   4.043   2.672   2.811
 6451SOL    HW120249   4.136   2.708   2.816
 6451SOL    HW220250   4.037   2.587   2.863
 6452SOL     OW20251   4.063   2.371   2.868
 6452SOL    HW120252   4.011   2.288   2.851
 6452SOL    HW220253   4.140   2.376   2.804
 6453SOL     OW20254   3.732   3.188   2.062
 6453SOL    HW120255   3.639   3.209   2.031
 6453SOL    HW220256   3.742   3.089   2.075
 6454SOL     OW20257   3.812   3.663   2.789
 6454SOL    HW120258   3.770   3.577   2.762
 6454SOL    HW220259   3.906   3.666   2.755
 6455SOL     OW20260   4.228   3.430   2.772
 6455SOL    HW120261   4.294   3.504   2.781
 6455SOL    HW220262   4.272   3.351   2.730
 6456SOL     OW20263   3.764   2.406   2.976
 6456SOL    HW120264   3.849   2.373   2.935
 6456SOL    HW220265   3.777   2.421   3.074
 6457SOL     OW20266   3.913   2.382   3.584
 6457SOL    HW120267   3.972   2.342   3.514
 6457SOL    HW220268   3.855   2.453   3.543
 6458SOL     OW20269   4.539   2.434   2.187
 6458SOL    HW120270   4.546   2.345   2.141
 6458SOL    HW220271   4.445   2.468   2.179
 6459SOL     OW20272   3.976   3.426   3.606
 6459SOL    HW120273   3.946   3.483   3.682
 6459SOL    HW220274   3.969   3.329   3.632
 6460SOL     OW20275   4.197   2.362   2.053
 6460SOL    HW120276   4.258   2.442   2.057
 6460SOL    HW220277   4.102   2.393   2.060
 6461SOL     OW20278   3.883   2.999   3.328
 6461SOL    HW120279   3.905   2.938   3.404
 6461SOL    HW220280   3.893   2.950   3.242
 6462SOL     OW20281   3.807   3.120   2.884
 6462SOL    HW120282   3.802   3.119   2.984
 6462SOL    HW220283   3.724   3.079   2.846
 6463SOL     OW20284   4.412   3.524   3.578
 6463SOL    HW120285   4.356   3.605   3.587
 6463SOL    HW220286   4.464   3.528   3.492
 6464SOL     OW20287   3.854   3.656   3.713
 6464SOL    HW120288   3.813   3.582   3.766
 6464SOL    HW220289   3.918   3.707   3.771
 6465SOL     OW20290   3.987   2.188   2.582
 6465SOL    HW120291   3.908   2.239   2.548
 6465SOL    HW220292   3.978   2.173   2.680
 6466SOL     OW20293   4.096   3.150   3.352
 6466SOL    HW120294   4.083   3.243   3.318
 6466SOL    HW220295   4.012   3.098   3.339
 6467SOL     OW20296   4.314   3.349   2.353
 6467SOL    HW120297   4.356   3.291   2.283
 6467SOL    HW220298   4.270   3.428   2.309
 6468SOL     OW20299   3.979   3.210   2.152
 6468SOL    HW120300   3.883   3.211   2.125
 6468SOL    HW220301   3.991   3.263   2.236
 6469SOL     OW20302   3.829   2.875   3.588
 6469SOL    HW120303   3.752   2.842   3.642
 6469SOL    HW220304   3.914   2.845   3.630
 6470SOL     OW20305   4.396   2.065   3.351
 6470SOL    HW120306   4.486   2.049   3.311
 6470SOL    HW220307   4.404   2.070   3.450
 6471SOL     OW20308   3.799   2.207   1.895
 6471SOL    HW120309   3.707   2.179   1.866
 6471SOL    HW220310   3.830   2.284   1.839
 6472SOL     OW20311   3.796   2.028   2.180
 6472SOL    HW120312   3.779   2.111   2.126
 6472SOL    HW220313   3.886   1.991   2.158
 6473SOL     OW20314   4.337   2.704   3.293
 6473SOL    HW120315   4.393   2.785   3.276
 6473SOL    HW220316   4.396   2.624   3.296
 6474SOL     OW20317   4.440   2.427   3.570
 6474SOL    HW120318   4.459   2.492   3.644
 6474SOL    HW220319   4.500   2.347   3.579
 6475SOL     OW20320   4.114   3.603   3.422
 6475SOL    HW120321   4.023   3.644   3.420
 6475SOL    HW220322   4.107   3.509   3.454
 6476SOL     OW20323   4.318   2.607   2.514
 6476SOL    HW120324   4.368   2.692   2.495
 6476SOL    HW220325   4.230   2.609   2.466
 6477SOL     OW20326   3.945   3.176   3.706
 6477SOL    HW120327   3.880   3.103   3.685
 6477SOL    HW220328   3.949   3.190   3.804
 6478SOL     OW20329   3.803   3.102   2.515
 6478SOL    HW120330   3.802   3.055   2.603
 6478SOL    HW220331   3.885   3.074   2.464
 6479SOL     OW20332   4.396   3.253   3.486
 6479SOL    HW120333   4.318   3.203   3.524
 6479SOL    HW220334   4.393   3.348   3.517
 6480SOL     OW20335   4.152   2.286   2.382
 6480SOL    HW120336   4.182   2.214   2.320
 6480SOL    HW220337   4.113   2.246   2.465
 6481SOL     OW20338   4.041   2.409   3.142
 6481SOL    HW120339   4.079   2.350   3.214
 6481SOL    HW220340   4.081   2.383   3.054
 6482SOL     OW20341   4.536   3.448   2.549
 6482SOL    HW120342   4.568   3.458   2.455
 6482SOL    HW220343   4.457   3.386   2.551
 6483SOL     OW20344   3.763   2.939   2.162
 6483SOL    HW120345   3.862   2.928   2.153
 6483SOL    HW220346   3.723   2.853   2.194
 6484SOL     OW20347   3.954   2.490   3.837
 6484SOL    HW120348   3.861   2.488   3.874
 6484SOL    HW220349   3.955   2.451   3.745
 6485SOL     OW20350   3.949   2.137   4.720
 6485SOL    HW120351   3.984   2.120   4.812
 6485SOL    HW220352   3.861   2.092   4.708
 6486SOL     OW20353   3.743   2.230   4.371
 6486SOL    HW120354   3.661   2.273   4.410
 6486SOL    HW220355   3.715   2.157   4.308
 6487SOL     OW20356   4.293   3.137   4.889
 6487SOL    HW120357   4.200   3.130   4.852
 6487SOL    HW220358   4.304   3.226   4.933
 6488SOL     OW20359   4.574   2.660   5.547
 6488SOL    HW120360   4.570   2.736   5.612
 6488SOL    HW220361   4.596   2.696   5.456
 6489SOL     OW20362   4.409   2.874   4.389
 6489SOL    HW120363   4.478   2.858   4.459
 6489SOL    HW220364   4.336   2.931   4.427
 6490SOL     OW20365   4.410   3.023   5.527
 6490SOL    HW120366   4.470   3.102   5.541
 6490SOL    HW220367   4.324   3.054   5.486
 6491SOL     OW20368   4.059   3.297   4.785
 6491SOL    HW120369   3.981   3.266   4.732
 6491SOL    HW220370   4.117   3.355   4.728
 6492SOL     OW20371   4.162   2.254   5.223
 6492SOL    HW120372   4.244   2.198   5.232
 6492SOL    HW220373   4.081   2.196   5.227
 6493SOL     OW20374   3.955   3.575   4.207
 6493SOL    HW120375   3.989   3.652   4.261
 6493SOL    HW220376   3.999   3.575   4.117
 6494SOL     OW20377   3.954   3.296   4.262
 6494SOL    HW120378   3.928   3.392   4.262
 6494SOL    HW220379   3.883   3.242   4.307
 6495SOL     OW20380   3.964   2.953   4.610
 6495SOL    HW120381   3.978   2.869   4.662
 6495SOL    HW220382   3.909   3.017   4.665
 6496SOL     OW20383   4.344   3.648   5.163
 6496SOL    HW120384   4.252   3.631   5.198
 6496SOL    HW220385   4.372   3.740   5.189
 6497SOL     OW20386   4.330   2.826   3.847
 6497SOL    HW120387   4.337   2.910   3.793
 6497SOL    HW220388   4.376   2.839   3.935
 6498SOL     OW20389   3.846   2.505   4.287
 6498SOL    HW120390   3.801   2.417   4.304
 6498SOL    HW220391   3.845   2.559   4.371
 6499SOL     OW20392   3.751   3.458   3.841
 6499SOL    HW120393   3.732   3.362   3.862
 6499SOL    HW220394   3.718   3.516   3.916
 6500SOL     OW20395   3.837   2.599   5.321
 6500SOL    HW120396   3.925   2.586   5.366
 6500SOL    HW220397   3.824   2.696   5.299
 6501SOL     OW20398   4.337   3.227   4.450
 6501SOL    HW120399   4.288   3.140   4.459
 6501SOL    HW220400   4.314   3.270   4.363
 6502SOL     OW20401   4.533   1.866   4.226
 6502SOL    HW120402   4.573   1.957   4.217
 6502SOL    HW220403   4.433   1.874   4.232
 6503SOL     OW20404   3.921   2.838   4.988
 6503SOL    HW120405   4.010   2.793   4.974
 6503SOL    HW220406   3.848   2.773   4.969
 6504SOL     OW20407   4.041   2.113   5.525
 6504SOL    HW120408   4.112   2.184   5.531
 6504SOL    HW220409   3.953   2.152   5.553
 6505SOL     OW20410   4.322   2.591   3.994
 6505SOL    HW120411   4.346   2.660   3.926
 6505SOL    HW220412   4.244   2.624   4.048
 6506SOL     OW20413   3.800   2.673   4.513
 6506SOL    HW120414   3.899   2.661   4.522
 6506SOL    HW220415   3.776   2.768   4.534
 6507SOL     OW20416   3.854   3.683   5.295
 6507SOL    HW120417   3.844   3.668   5.394
 6507SOL    HW220418   3.768   3.719   5.259
 6508SOL     OW20419   4.274   2.058   4.609
 6508SOL    HW120420   4.269   2.053   4.709
 6508SOL    HW220421   4.276   2.154   4.580
 6509SOL     OW20422   4.075   3.663   4.577
 6509SOL    HW120423   4.125   3.577   4.583
 6509SOL    HW220424   4.140   3.740   4.574
 6510SOL     OW20425   4.045   2.805   3.966
 6510SOL    HW120426   4.127   2.844   3.924
 6510SOL    HW220427   4.018   2.723   3.917
 6511SOL     OW20428   4.185   3.128   5.451
 6511SOL    HW120429   4.135   3.129   5.365
 6511SOL    HW220430   4.122   3.110   5.527
 6512SOL     OW20431   3.926   2.147   5.222
 6512SOL    HW120432   3.846   2.207   5.209
 6512SOL    HW220433   3.916   2.098   5.308
 6513SOL     OW20434   4.188   3.605   4.047
 6513SOL    HW120435   4.221   3.644   4.133
 6513SOL    HW220436   4.264   3.598   3.982
 6514SOL     OW20437   3.973   3.647   4.965
 6514SOL    HW120438   4.030   3.582   5.015
 6514SOL    HW220439   3.957   3.614   4.872
 6515SOL     OW20440   4.106   2.562   4.204
 6515SOL    HW120441   4.151   2.472   4.201
 6515SOL    HW220442   4.012   2.551   4.237
 6516SOL     OW20443   4.338   1.984   3.841
 6516SOL    HW120444   4.436   1.962   3.848
 6516SOL    HW220445   4.307   1.967   3.748
 6517SOL     OW20446   4.527   3.264   4.648
 6517SOL    HW120447   4.617   3.278   4.606
 6517SOL    HW220448   4.456   3.266   4.577
 6518SOL     OW20449   4.263   1.926   4.236
 6518SOL    HW120450   4.182   1.927   4.294
 6518SOL    HW220451   4.266   2.009   4.181
 6519SOL     OW20452   4.021   1.897   3.895
 6519SOL    HW120453   4.070   1.981   3.874
 6519SOL    HW220454   4.083   1.832   3.940
 6520SOL     OW20455   4.800   2.545   5.188
 6520SOL    HW120456   4.720   2.484   5.191
 6520SOL    HW220457   4.881   2.492   5.164
 6521SOL     OW20458   4.183   3.014   4.465
 6521SOL    HW120459   4.112   2.987   4.530
 6521SOL    HW220460   4.157   2.986   4.372
 6522SOL     OW20461   3.802   2.418   5.110
 6522SOL    HW120462   3.894   2.417   5.069
 6522SOL    HW220463   3.796   2.492   5.177
 6523SOL     OW20464   4.285   2.084   4.871
 6523SOL    HW120465   4.323   2.000   4.908
 6523SOL    HW220466   4.197   2.103   4.915
 6524SOL     OW20467   4.212   3.247   3.898
 6524SOL    HW120468   4.125   3.232   3.945
 6524SOL    HW220469   4.195   3.273   3.803
 6525SOL     OW20470   4.251   2.118   4.052
 6525SOL    HW120471   4.278   2.059   3.977
 6525SOL    HW220472   4.251   2.213   4.021
 6526SOL     OW20473   4.134   2.675   4.975
 6526SOL    HW120474   4.220   2.687   5.025
 6526SOL    HW220475   4.092   2.588   5.002
 6527SOL     OW20476   3.788   3.426   5.055
 6527SOL    HW120477   3.742   3.508   5.021
 6527SOL    HW220478   3.886   3.445   5.064
 6528SOL     OW20479   4.091   2.962   4.225
 6528SOL    HW120480   4.084   3.045   4.169
 6528SOL    HW220481   4.095   2.882   4.165
 6529SOL     OW20482   4.290   2.399   4.589
 6529SOL    HW120483   4.302   2.465   4.515
 6529SOL    HW220484   4.336   2.433   4.672
 6530SOL     OW20485   4.078   3.372   5.053
 6530SOL    HW120486   4.057   3.328   4.966
 6530SOL    HW220487   4.175   3.398   5.056
 6531SOL     OW20488   4.126   2.613   5.322
 6531SOL    HW120489   4.194   2.668   5.275
 6531SOL    HW220490   4.166   2.525   5.349
 6532SOL     OW20491   4.228   1.912   5.464
 6532SOL    HW120492   4.186   1.855   5.394
 6532SOL    HW220493   4.162   1.981   5.496
 6533SOL     OW20494   4.297   2.732   4.753
 6533SOL    HW120495   4.341   2.821   4.744
 6533SOL    HW220496   4.234   2.732   4.830
 6534SOL     OW20497   4.031   2.075   4.955
 6534SOL    HW120498   4.008   2.112   5.045
 6534SOL    HW220499   4.001   1.980   4.949
 6535SOL     OW20500   3.761   3.172   5.006
 6535SOL    HW120501   3.814   3.123   5.074
 6535SOL    HW220502   3.783   3.270   5.011
 6536SOL     OW20503   4.031   1.925   4.342
 6536SOL    HW120504   4.020   2.019   4.375
 6536SOL    HW220505   4.026   1.862   4.419
 6537SOL     OW20506   4.074   2.760   5.528
 6537SOL    HW120507   4.150   2.804   5.576
 6537SOL    HW220508   4.109   2.713   5.446
 6538SOL     OW20509   4.043   2.672   4.673
 6538SOL    HW120510   4.136   2.708   4.678
 6538SOL    HW220511   4.037   2.587   4.725
 6539SOL     OW20512   4.063   2.371   4.730
 6539SOL    HW120513   4.011   2.288   4.713
 6539SOL    HW220514   4.140   2.376   4.666
 6540SOL     OW20515   3.732   3.188   3.924
 6540SOL    HW120516   3.639   3.209   3.893
 6540SOL    HW220517   3.742   3.089   3.937
 6541SOL     OW20518   3.812   3.663   4.651
 6541SOL    HW120519   3.770   3.577   4.624
 6541SOL    HW220520   3.906   3.666   4.617
 6542SOL     OW20521   4.228   3.430   4.634
 6542SOL    HW120522   4.294   3.504   4.643
 6542SOL    HW220523   4.272   3.351   4.592
 6543SOL     OW20524   3.764   2.406   4.838
 6543SOL    HW120525   3.849   2.373   4.797
 6543SOL    HW220526   3.777   2.421   4.936
 6544SOL     OW20527   3.913   2.382   5.446
 6544SOL    HW120528   3.972   2.342   5.376
 6544SOL    HW220529   3.855   2.453   5.405
 6545SOL     OW20530   4.539   2.434   4.049
 6545SOL    HW120531   4.546   2.345   4.003
 6545SOL    HW220532   4.445   2.468   4.041
 6546SOL     OW20533   3.976   3.426   5.468
 6546SOL    HW120534   3.946   3.483   5.544
 6546SOL    HW220535   3.969   3.329   5.494
 6547SOL     OW20536   4.197   2.362   3.915
 6547SOL    HW120537   4.258   2.442   3.919
 6547SOL    HW220538   4.102   2.393   3.922
 6548SOL     OW20539   3.883   2.999   5.190
 6548SOL    HW120540   3.905   2.938   5.266
 6548SOL    HW220541   3.893   2.950   5.104
 6549SOL     OW20542   3.807   3.120   4.746
 6549SOL    HW120543   3.802   3.119   4.846
 6549SOL    HW220544   3.724   3.079   4.708
 6550SOL     OW20545   4.412   3.524   5.440
 6550SOL    HW120546   4.356   3.605   5.449
 6550SOL    HW220547   4.464   3.528   5.354
 6551SOL     OW20548   3.854   3.656   5.575
 6551SOL    HW120549   3.813   3.582   5.628
 6551SOL    HW220550   3.918   3.707   5.633
 6552SOL     OW20551   3.987   2.188   4.444
 6552SOL    HW120552   3.908   2.239   4.410
 6552SOL    HW220553   3.978   2.173   4.542
 6553SOL     OW20554   4.096   3.150   5.214
 6553SOL    HW120555   4.083   3.243   5.180
 6553SOL    HW220556   4.012   3.098   5.201
 6554SOL     OW20557   4.314   3.349   4.215
 6554SOL    HW120558   4.356   3.291   4.145
 6554SOL    HW220559   4.270   3.428   4.171
 6555SOL     OW20560   3.979   3.210   4.014
 6555SOL    HW120561   3.883   3.211   3.987
 6555SOL    HW220562   3.991   3.263   4.098
 6556SOL     OW20563   3.829   2.875   5.450
 6556SOL    HW120564   3.752   2.842   5.504
 6556SOL    HW220565   3.914   2.845   5.492
 6557SOL     OW20566   4.396   2.065   5.213
 6557SOL    HW120567   4.486   2.049   5.173
 6557SOL    HW220568   4.404   2.070   5.312
 6558SOL     OW20569   3.799   2.207   3.757
 6558SOL    HW120570   3.707   2.179   3.728
 6558SOL    HW220571   3.830   2.284   3.701
 6559SOL     OW20572   3.796   2.028   4.042
 6559SOL    HW120573   3.779   2.111   3.988
 6559SOL    HW220574   3.886   1.991   4.020
 6560SOL     OW20575   4.337   2.704   5.155
 6560SOL    HW120576   4.393   2.785   5.138
 6560SOL    HW220577   4.396   2.624   5.158
 6561SOL     OW20578   4.440   2.427   5.432
 6561SOL    HW120579   4.459   2.492   5.506
 6561SOL    HW220580   4.500   2.347   5.441
 6562SOL     OW20581   4.114   3.603   5.284
 6562SOL    HW120582   4.023   3.644   5.282
 6562SOL    HW220583   4.107   3.509   5.316
 6563SOL     OW20584   4.318   2.607   4.376
 6563SOL    HW120585   4.368   2.692   4.357
 6563SOL    HW220586   4.230   2.609   4.328
 6564SOL     OW20587   3.945   3.176   5.568
 6564SOL    HW120588   3.880   3.103   5.547
 6564SOL    HW220589   3.949   3.190   5.666
 6565SOL     OW20590   3.803   3.102   4.377
 6565SOL    HW120591   3.802   3.055   4.465
 6565SOL    HW220592   3.885   3.074   4.326
 6566SOL     OW20593   4.396   3.253   5.348
 6566SOL    HW120594   4.318   3.203   5.386
 6566SOL    HW220595   4.393   3.348   5.379
 6567SOL     OW20596   4.152   2.286   4.244
 6567SOL    HW120597   4.182   2.214   4.182
 6567SOL    HW220598   4.113   2.246   4.327
 6568SOL     OW20599   4.041   2.409   5.004
 6568SOL    HW120600   4.079   2.350   5.076
 6568SOL    HW220601   4.081   2.383   4.916
 6569SOL     OW20602   4.536   3.448   4.411
 6569SOL    HW120603   4.568   3.458   4.317
 6569SOL    HW220604   4.457   3.386   4.413
 6570SOL     OW20605   3.763   2.939   4.024
 6570SOL    HW120606   3.862   2.928   4.015
 6570SOL    HW220607   3.723   2.853   4.056
 6571SOL     OW20608   3.954   2.490   5.699
 6571SOL    HW120609   3.861   2.488   5.736
 6571SOL    HW220610   3.955   2.451   5.607
 6572SOL     OW20611   3.949   2.137   6.582
 6572SOL    HW120612   3.984   2.120   6.674
 6572SOL    HW220613   3.861   2.092   6.570
 6573SOL     OW20614   3.743   2.230   6.233
 6573SOL    HW120615   3.661   2.273   6.272
 6573SOL    HW220616   3.715   2.157   6.170
 6574SOL     OW20617   4.293   3.137   6.751
 6574SOL    HW120618   4.200   3.130   6.714
 6574SOL    HW220619   4.304   3.226   6.795
 6575SOL     OW20620   4.574   2.660   7.409
 6575SOL    HW120621   4.570   2.736   7.474
 6575SOL    HW220622   4.596   2.696   7.318
 6576SOL     OW20623   4.409   2.874   6.251
 6576SOL    HW120624   4.478   2.858   6.321
 6576SOL    HW220625   4.336   2.931   6.289
 6577SOL     OW20626   4.410   3.023   7.389
 6577SOL    HW120627   4.470   3.102   7.403
 6577SOL    HW220628   4.324   3.054   7.348
 6578SOL     OW20629   4.059   3.297   6.647
 6578SOL    HW120630   3.981   3.266   6.594
 6578SOL    HW220631   4.117   3.355   6.590
 6579SOL     OW20632   4.162   2.254   7.085
 6579SOL    HW120633   4.244   2.198   7.094
 6579SOL    HW220634   4.081   2.196   7.089
 6580SOL     OW20635   3.955   3.575   6.069
 6580SOL    HW120636   3.989   3.652   6.123
 6580SOL    HW220637   3.999   3.575   5.979
 6581SOL     OW20638   3.954   3.296   6.124
 6581SOL    HW120639   3.928   3.392   6.124
 6581SOL    HW220640   3.883   3.242   6.169
 6582SOL     OW20641   3.964   2.953   6.472
 6582SOL    HW120642   3.978   2.869   6.524
 6582SOL    HW220643   3.909   3.017   6.527
 6583SOL     OW20644   4.344   3.648   7.025
 6583SOL    HW120645   4.252   3.631   7.060
 6583SOL    HW220646   4.372   3.740   7.051
 6584SOL     OW20647   4.330   2.826   5.709
 6584SOL    HW120648   4.337   2.910   5.655
 6584SOL    HW220649   4.376   2.839   5.797
 6585SOL     OW20650   3.846   2.505   6.149
 6585SOL    HW120651   3.801   2.417   6.166
 6585SOL    HW220652   3.845   2.559   6.233
 6586SOL     OW20653   3.751   3.458   5.703
 6586SOL    HW120654   3.732   3.362   5.724
 6586SOL    HW220655   3.718   3.516   5.778
 6587SOL     OW20656   3.837   2.599   7.183
 6587SOL    HW120657   3.925   2.586   7.228
 6587SOL    HW220658   3.824   2.696   7.161
 6588SOL     OW20659   4.337   3.227   6.312
 6588SOL    HW120660   4.288   3.140   6.321
 6588SOL    HW220661   4.314   3.270   6.225
 6589SOL     OW20662   4.533   1.866   6.088
 6589SOL    HW120663   4.573   1.957   6.079
 6589SOL    HW220664   4.433   1.874   6.094
 6590SOL     OW20665   3.921   2.838   6.850
 6590SOL    HW120666   4.010   2.793   6.836
 6590SOL    HW220667   3.848   2.773   6.831
 6591SOL     OW20668   4.041   2.113   7.387
 6591SOL    HW120669   4.112   2.184   7.393
 6591SOL    HW220670   3.953   2.152   7.415
 6592SOL     OW20671   4.322   2.591   5.856
 6592SOL    HW120672   4.346   2.660   5.788
 6592SOL    HW220673   4.244   2.624   5.910
 6593SOL     OW20674   3.800   2.673   6.375
 6593SOL    HW120675   3.899   2.661   6.384
 6593SOL    HW220676   3.776   2.768   6.396
 6594SOL     OW20677   3.854   3.683   7.157
 6594SOL    HW120678   3.844   3.668   7.256
 6594SOL    HW220679   3.768   3.719   7.121
 6595SOL     OW20680   4.274   2.058   6.471
 6595SOL    HW120681   4.269   2.053   6.571
 6595SOL    HW220682   4.276   2.154   6.442
 6596SOL     OW20683   4.075   3.663   6.439
 6596SOL    HW120684   4.125   3.577   6.445
 6596SOL    HW220685   4.140   3.740   6.436
 6597SOL     OW20686   4.045   2.805   5.828
 6597SOL    HW120687   4.127   2.844   5.786
 6597SOL    HW220688   4.018   2.723   5.779
 6598SOL     OW20689   4.185   3.128   7.313
 6598SOL    HW120690   4.135   3.129   7.227
 6598SOL    HW220691   4.122   3.110   7.389
 6599SOL     OW20692   3.926   2.147   7.084
 6599SOL    HW120693   3.846   2.207   7.071
 6599SOL    HW220694   3.916   2.098   7.170
 6600SOL     OW20695   4.188   3.605   5.909
 6600SOL    HW120696   4.221   3.644   5.995
 6600SOL    HW220697   4.264   3.598   5.844
 6601SOL     OW20698   3.973   3.647   6.827
 6601SOL    HW120699   4.030   3.582   6.877
 6601SOL    HW220700   3.957   3.614   6.734
 6602SOL     OW20701   4.106   2.562   6.066
 6602SOL    HW120702   4.151   2.472   6.063
 6602SOL    HW220703   4.012   2.551   6.099
 6603SOL     OW20704   4.338   1.984   5.703
 6603SOL    HW120705   4.436   1.962   5.710
 6603SOL    HW220706   4.307   1.967   5.610
 6604SOL     OW20707   4.527   3.264   6.510
 6604SOL    HW120708   4.617   3.278   6.468
 6604SOL    HW220709   4.456   3.266   6.439
 6605SOL     OW20710   4.263   1.926   6.098
 6605SOL    HW120711   4.182   1.927   6.156
 6605SOL    HW220712   4.266   2.009   6.043
 6606SOL     OW20713   4.021   1.897   5.757
 6606SOL    HW120714   4.070   1.981   5.736
 6606SOL    HW220715   4.083   1.832   5.802
 6607SOL     OW20716   4.800   2.545   7.050
 6607SOL    HW120717   4.720   2.484   7.053
 6607SOL    HW220718   4.881   2.492   7.026
 6608SOL     OW20719   4.183   3.014   6.327
 6608SOL    HW120720   4.112   2.987   6.392
 6608SOL    HW220721   4.157   2.986   6.234
 6609SOL     OW20722   3.802   2.418   6.972
 6609SOL    HW120723   3.894   2.417   6.931
 6609SOL    HW220724   3.796   2.492   7.039
 6610SOL     OW20725   4.285   2.084   6.733
 6610SOL    HW120726   4.323   2.000   6.770
 6610SOL    HW220727   4.197   2.103   6.777
 6611SOL     OW20728   4.212   3.247   5.760
 6611SOL    HW120729   4.125   3.232   5.807
 6611SOL    HW220730   4.195   3.273   5.665
 6612SOL     OW20731   4.251   2.118   5.914
 6612SOL    HW120732   4.278   2.059   5.839
 6612SOL    HW220733   4.251   2.213   5.883
 6613SOL     OW20734   4.134   2.675   6.837
 6613SOL    HW120735   4.220   2.687   6.887
 6613SOL    HW220736   4.092   2.588   6.864
 6614SOL     OW20737   3.788   3.426   6.917
 6614SOL    HW120738   3.742   3.508   6.883
 6614SOL    HW220739   3.886   3.445   6.926
 6615SOL     OW20740   4.091   2.962   6.087
 6615SOL    HW120741   4.084   3.045   6.031
 6615SOL    HW220742   4.095   2.882   6.027
 6616SOL     OW20743   4.290   2.399   6.451
 6616SOL    HW120744   4.302   2.465   6.377
 6616SOL    HW220745   4.336   2.433   6.534
 6617SOL     OW20746   4.078   3.372   6.915
 6617SOL    HW120747   4.057   3.328   6.828
 6617SOL    HW220748   4.175   3.398   6.918
 6618SOL     OW20749   4.126   2.613   7.184
 6618SOL    HW120750   4.194   2.668   7.137
 6618SOL    HW220751   4.166   2.525   7.211
 6619SOL     OW20752   4.228   1.912   7.326
 6619SOL    HW120753   4.186   1.855   7.256
 6619SOL    HW220754   4.162   1.981   7.358
 6620SOL     OW20755   4.297   2.732   6.615
 6620SOL    HW120756   4.341   2.821   6.606
 6620SOL    HW220757   4.234   2.732   6.692
 6621SOL     OW20758   4.031   2.075   6.817
 6621SOL    HW120759   4.008   2.112   6.907
 6621SOL    HW220760   4.001   1.980   6.811
 6622SOL     OW20761   3.761   3.172   6.868
 6622SOL    HW120762   3.814   3.123   6.936
 6622SOL    HW220763   3.783   3.270   6.873
 6623SOL     OW20764   4.031   1.925   6.204
 6623SOL    HW120765   4.020   2.019   6.237
 6623SOL    HW220766   4.026   1.862   6.281
 6624SOL     OW20767   4.074   2.760   7.390
 6624SOL    HW120768   4.150   2.804   7.438
 6624SOL    HW220769   4.109   2.713   7.308
 6625SOL     OW20770   4.043   2.672   6.535
 6625SOL    HW120771   4.136   2.708   6.540
 6625SOL    HW220772   4.037   2.587   6.587
 6626SOL     OW20773   4.063   2.371   6.592
 6626SOL    HW120774   4.011   2.288   6.575
 6626SOL    HW220775   4.140   2.376   6.528
 6627SOL     OW20776   3.732   3.188   5.786
 6627SOL    HW120777   3.639   3.209   5.755
 6627SOL    HW220778   3.742   3.089   5.799
 6628SOL     OW20779   3.812   3.663   6.513
 6628SOL    HW120780   3.770   3.577   6.486
 6628SOL    HW220781   3.906   3.666   6.479
 6629SOL     OW20782   4.228   3.430   6.496
 6629SOL    HW120783   4.294   3.504   6.505
 6629SOL    HW220784   4.272   3.351   6.454
 6630SOL     OW20785   3.764   2.406   6.700
 6630SOL    HW120786   3.849   2.373   6.659
 6630SOL    HW220787   3.777   2.421   6.798
 6631SOL     OW20788   3.913   2.382   7.308
 6631SOL    HW120789   3.972   2.342   7.238
 6631SOL    HW220790   3.855   2.453   7.267
 6632SOL     OW20791   4.539   2.434   5.911
 6632SOL    HW120792   4.546   2.345   5.865
 6632SOL    HW220793   4.445   2.468   5.903
 6633SOL     OW20794   3.976   3.426   7.330
 6633SOL    HW120795   3.946   3.483   7.406
 6633SOL    HW220796   3.969   3.329   7.356
 6634SOL     OW20797   4.197   2.362   5.777
 6634SOL    HW120798   4.258   2.442   5.781
 6634SOL    HW220799   4.102   2.393   5.784
 6635SOL     OW20800   3.883   2.999   7.052
 6635SOL    HW120801   3.905   2.938   7.128
 6635SOL    HW220802   3.893   2.950   6.966
 6636SOL     OW20803   3.807   3.120   6.608
 6636SOL    HW120804   3.802   3.119   6.708
 6636SOL    HW220805   3.724   3.079   6.570
 6637SOL     OW20806   4.412   3.524   7.302
 6637SOL    HW120807   4.356   3.605   7.311
 6637SOL    HW220808   4.464   3.528   7.216
 6638SOL     OW20809   3.854   3.656   7.437
 6638SOL    HW120810   3.813   3.582   7.490
 6638SOL    HW220811   3.918   3.707   7.495
 6639SOL     OW20812   3.987   2.188   6.306
 6639SOL    HW120813   3.908   2.239   6.272
 6639SOL    HW220814   3.978   2.173   6.404
 6640SOL     OW20815   4.096   3.150   7.076
 6640SOL    HW120816   4.083   3.243   7.042
 6640SOL    HW220817   4.012   3.098   7.063
 6641SOL     OW20818   4.314   3.349   6.077
 6641SOL    HW120819   4.356   3.291   6.007
 6641SOL    HW220820   4.270   3.428   6.033
 6642SOL     OW20821   3.979   3.210   5.876
 6642SOL    HW120822   3.883   3.211   5.849
 6642SOL    HW220823   3.991   3.263   5.960
 6643SOL     OW20824   3.829   2.875   7.312
 6643SOL    HW120825   3.752   2.842   7.366
 6643SOL    HW220826   3.914   2.845   7.354
 6644SOL     OW20827   4.396   2.065   7.075
 6644SOL    HW120828   4.486   2.049   7.035
 6644SOL    HW220829   4.404   2.070   7.174
 6645SOL     OW20830   3.799   2.207   5.619
 6645SOL    HW120831   3.707   2.179   5.590
 6645SOL    HW220832   3.830   2.284   5.563
 6646SOL     OW20833   3.796   2.028   5.904
 6646SOL    HW120834   3.779   2.111   5.850
 6646SOL    HW220835   3.886   1.991   5.882
 6647SOL     OW20836   4.337   2.704   7.017
 6647SOL    HW120837   4.393   2.785   7.000
 6647SOL    HW220838   4.396   2.624   7.020
 6648SOL     OW20839   4.440   2.427   7.294
 6648SOL    HW120840   4.459   2.492   7.368
 6648SOL    HW220841   4.500   2.347   7.303
 6649SOL     OW20842   4.114   3.603   7.146
 6649SOL    HW120843   4.023   3.644   7.144
 6649SOL    HW220844   4.107   3.509   7.178
 6650SOL     OW20845   4.318   2.607   6.238
 6650SOL    HW120846   4.368   2.692   6.219
 6650SOL    HW220847   4.230   2.609   6.190
 6651SOL     OW20848   3.945   3.176   7.430
 6651SOL    HW120849   3.880   3.103   7.409
 6651SOL    HW220850   3.949   3.190   7.528
 6652SOL     OW20851   3.803   3.102   6.239
 6652SOL    HW120852   3.802   3.055   6.327
 6652SOL    HW220853   3.885   3.074   6.188
 6653SOL     OW20854   4.396   3.253   7.210
 6653SOL    HW120855   4.318   3.203   7.248
 6653SOL    HW220856   4.393   3.348   7.241
 6654SOL     OW20857   4.152   2.286   6.106
 6654SOL    HW120858   4.182   2.214   6.044
 6654SOL    HW220859   4.113   2.246   6.189
 6655SOL     OW20860   4.041   2.409   6.866
 6655SOL    HW120861   4.079   2.350   6.938
 6655SOL    HW220862   4.081   2.383   6.778
 6656SOL     OW20863   4.536   3.448   6.273
 6656SOL    HW120864   4.568   3.458   6.179
 6656SOL    HW220865   4.457   3.386   6.275
 6657SOL     OW20866   3.763   2.939   5.886
 6657SOL    HW120867   3.862   2.928   5.877
 6657SOL    HW220868   3.723   2.853   5.918
 6658SOL     OW20869   3.954   2.490   7.561
 6658SOL    HW120870   3.861   2.488   7.598
 6658SOL    HW220871   3.955   2.451   7.469
 6659SOL     OW20872   3.949   2.137   8.444
 6659SOL    HW120873   3.984   2.120   8.536
 6659SOL    HW220874   3.861   2.092   8.432
 6660SOL     OW20875   3.743   2.230   8.095
 6660SOL    HW120876   3.661   2.273   8.134
 6660SOL    HW220877   3.715   2.157   8.032
 6661SOL     OW20878   4.293   3.137   8.613
 6661SOL    HW120879   4.200   3.130   8.576
 6661SOL    HW220880   4.304   3.226   8.657
 6662SOL     OW20881   4.574   2.660   9.271
 6662SOL    HW120882   4.570   2.736   9.336
 6662SOL    HW220883   4.596   2.696   9.180
 6663SOL     OW20884   4.409   2.874   8.113
 6663SOL    HW120885   4.478   2.858   8.183
 6663SOL    HW220886   4.336   2.931   8.151
 6664SOL     OW20887   4.410   3.023   9.251
 6664SOL    HW120888   4.470   3.102   9.265
 6664SOL    HW220889   4.324   3.054   9.210
 6665SOL     OW20890   4.059   3.297   8.509
 6665SOL    HW120891   3.981   3.266   8.456
 6665SOL    HW220892   4.117   3.355   8.452
 6666SOL     OW20893   4.162   2.254   8.947
 6666SOL    HW120894   4.244   2.198   8.956
 6666SOL    HW220895   4.081   2.196   8.951
 6667SOL     OW20896   3.955   3.575   7.931
 6667SOL    HW120897   3.989   3.652   7.985
 6667SOL    HW220898   3.999   3.575   7.841
 6668SOL     OW20899   3.954   3.296   7.986
 6668SOL    HW120900   3.928   3.392   7.986
 6668SOL    HW220901   3.883   3.242   8.031
 6669SOL     OW20902   3.964   2.953   8.334
 6669SOL    HW120903   3.978   2.869   8.386
 6669SOL    HW220904   3.909   3.017   8.389
 6670SOL     OW20905   4.344   3.648   8.887
 6670SOL    HW120906   4.252   3.631   8.922
 6670SOL    HW220907   4.372   3.740   8.913
 6671SOL     OW20908   4.330   2.826   7.571
 6671SOL    HW120909   4.337   2.910   7.517
 6671SOL    HW220910   4.376   2.839   7.659
 6672SOL     OW20911   3.846   2.505   8.011
 6672SOL    HW120912   3.801   2.417   8.028
 6672SOL    HW220913   3.845   2.559   8.095
 6673SOL     OW20914   3.751   3.458   7.565
 6673SOL    HW120915   3.732   3.362   7.586
 6673SOL    HW220916   3.718   3.516   7.640
 6674SOL     OW20917   3.837   2.599   9.045
 6674SOL    HW120918   3.925   2.586   9.090
 6674SOL    HW220919   3.824   2.696   9.023
 6675SOL     OW20920   4.337   3.227   8.174
 6675SOL    HW120921   4.288   3.140   8.183
 6675SOL    HW220922   4.314   3.270   8.087
 6676SOL     OW20923   4.533   1.866   7.950
 6676SOL    HW120924   4.573   1.957   7.941
 6676SOL    HW220925   4.433   1.874   7.956
 6677SOL     OW20926   3.921   2.838   8.712
 6677SOL    HW120927   4.010   2.793   8.698
 6677SOL    HW220928   3.848   2.773   8.693
 6678SOL     OW20929   4.041   2.113   9.249
 6678SOL    HW120930   4.112   2.184   9.255
 6678SOL    HW220931   3.953   2.152   9.277
 6679SOL     OW20932   4.322   2.591   7.718
 6679SOL    HW120933   4.346   2.660   7.650
 6679SOL    HW220934   4.244   2.624   7.772
 6680SOL     OW20935   3.800   2.673   8.237
 6680SOL    HW120936   3.899   2.661   8.246
 6680SOL    HW220937   3.776   2.768   8.258
 6681SOL     OW20938   3.854   3.683   9.019
 6681SOL    HW120939   3.844   3.668   9.118
 6681SOL    HW220940   3.768   3.719   8.983
 6682SOL     OW20941   4.274   2.058   8.333
 6682SOL    HW120942   4.269   2.053   8.433
 6682SOL    HW220943   4.276   2.154   8.304
 6683SOL     OW20944   4.075   3.663   8.301
 6683SOL    HW120945   4.125   3.577   8.307
 6683SOL    HW220946   4.140   3.740   8.298
 6684SOL     OW20947   4.045   2.805   7.690
 6684SOL    HW120948   4.127   2.844   7.648
 6684SOL    HW220949   4.018   2.723   7.641
 6685SOL     OW20950   4.185   3.128   9.175
 6685SOL    HW120951   4.135   3.129   9.089
 6685SOL    HW220952   4.122   3.110   9.251
 6686SOL     OW20953   3.926   2.147   8.946
 6686SOL    HW120954   3.846   2.207   8.933
 6686SOL    HW220955   3.916   2.098   9.032
 6687SOL     OW20956   4.188   3.605   7.771
 6687SOL    HW120957   4.221   3.644   7.857
 6687SOL    HW220958   4.264   3.598   7.706
 6688SOL     OW20959   3.973   3.647   8.689
 6688SOL    HW120960   4.030   3.582   8.739
 6688SOL    HW220961   3.957   3.614   8.596
 6689SOL     OW20962   4.106   2.562   7.928
 6689SOL    HW120963   4.151   2.472   7.925
 6689SOL    HW220964   4.012   2.551   7.961
 6690SOL     OW20965   4.338   1.984   7.565
 6690SOL    HW120966   4.436   1.962   7.572
 6690SOL    HW220967   4.307   1.967   7.472
 6691SOL     OW20968   4.527   3.264   8.372
 6691SOL    HW120969   4.617   3.278   8.330
 6691SOL    HW220970   4.456   3.266   8.301
 6692SOL     OW20971   4.263   1.926   7.960
 6692SOL    HW120972   4.182   1.927   8.018
 6692SOL    HW220973   4.266   2.009   7.905
 6693SOL     OW20974   4.021   1.897   7.619
 6693SOL    HW120975   4.070   1.981   7.598
 6693SOL    HW220976   4.083   1.832   7.664
 6694SOL     OW20977   4.800   2.545   8.912
 6694SOL    HW120978   4.720   2.484   8.915
 6694SOL    HW220979   4.881   2.492   8.888
 6695SOL     OW20980   4.183   3.014   8.189
 6695SOL    HW120981   4.112   2.987   8.254
 6695SOL    HW220982   4.157   2.986   8.096
 6696SOL     OW20983   3.802   2.418   8.834
 6696SOL    HW120984   3.894   2.417   8.793
 6696SOL    HW220985   3.796   2.492   8.901
 6697SOL     OW20986   4.285   2.084   8.595
 6697SOL    HW120987   4.323   2.000   8.632
 6697SOL    HW220988   4.197   2.103   8.639
 6698SOL     OW20989   4.212   3.247   7.622
 6698SOL    HW120990   4.125   3.232   7.669
 6698SOL    HW220991   4.195   3.273   7.527
 6699SOL     OW20992   4.251   2.118   7.776
 6699SOL    HW120993   4.278   2.059   7.701
 6699SOL    HW220994   4.251   2.213   7.745
 6700SOL     OW20995   4.134   2.675   8.699
 6700SOL    HW120996   4.220   2.687   8.749
 6700SOL    HW220997   4.092   2.588   8.726
 6701SOL     OW20998   3.788   3.426   8.779
 6701SOL    HW120999   3.742   3.508   8.745
 6701SOL    HW221000   3.886   3.445   8.788
 6702SOL     OW21001   4.091   2.962   7.949
 6702SOL    HW121002   4.084   3.045   7.893
 6702SOL    HW221003   4.095   2.882   7.889
 6703SOL     OW21004   4.290   2.399   8.313
 6703SOL    HW121005   4.302   2.465   8.239
 6703SOL    HW221006   4.336   2.433   8.396
 6704SOL     OW21007   4.078   3.372   8.777
 6704SOL    HW121008   4.057   3.328   8.690
 6704SOL    HW221009   4.175   3.398   8.780
 6705SOL     OW21010   4.126   2.613   9.046
 6705SOL    HW121011   4.194   2.668   8.999
 6705SOL    HW221012   4.166   2.525   9.073
 6706SOL     OW21013   4.228   1.912   9.188
 6706SOL    HW121014   4.186   1.855   9.118
 6706SOL    HW221015   4.162   1.981   9.220
 6707SOL     OW21016   4.297   2.732   8.477
 6707SOL    HW121017   4.341   2.821   8.468
 6707SOL    HW221018   4.234   2.732   8.554
 6708SOL     OW21019   4.031   2.075   8.679
 6708SOL    HW121020   4.008   2.112   8.769
 6708SOL    HW221021   4.001   1.980   8.673
 6709SOL     OW21022   3.761   3.172   8.730
 6709SOL    HW121023   3.814   3.123   8.798
 6709SOL    HW221024   3.783   3.270   8.735
 6710SOL     OW21025   4.031   1.925   8.066
 6710SOL    HW121026   4.020   2.019   8.099
 6710SOL    HW221027   4.026   1.862   8.143
 6711SOL     OW21028   4.074   2.760   9.252
 6711SOL    HW121029   4.150   2.804   9.300
 6711SOL    HW221030   4.109   2.713   9.170
 6712SOL     OW21031   4.043   2.672   8.397
 6712SOL    HW121032   4.136   2.708   8.402
 6712SOL    HW221033   4.037   2.587   8.449
 6713SOL     OW21034   4.063   2.371   8.454
 6713SOL    HW121035   4.011   2.288   8.437
 6713SOL    HW221036   4.140   2.376   8.390
 6714SOL     OW21037   3.732   3.188   7.648
 6714SOL    HW121038   3.639   3.209   7.617
 6714SOL    HW221039   3.742   3.089   7.661
 6715SOL     OW21040   3.812   3.663   8.375
 6715SOL    HW121041   3.770   3.577   8.348
 6715SOL    HW221042   3.906   3.666   8.341
 6716SOL     OW21043   4.228   3.430   8.358
 6716SOL    HW121044   4.294   3.504   8.367
 6716SOL    HW221045   4.272   3.351   8.316
 6717SOL     OW21046   3.764   2.406   8.562
 6717SOL    HW121047   3.849   2.373   8.521
 6717SOL    HW221048   3.777   2.421   8.660
 6718SOL     OW21049   3.913   2.382   9.170
 6718SOL    HW121050   3.972   2.342   9.100
 6718SOL    HW221051   3.855   2.453   9.129
 6719SOL     OW21052   4.539   2.434   7.773
 6719SOL    HW121053   4.546   2.345   7.727
 6719SOL    HW221054   4.445   2.468   7.765
 6720SOL     OW21055   3.976   3.426   9.192
 6720SOL    HW121056   3.946   3.483   9.268
 6720SOL    HW221057   3.969   3.329   9.218
 6721SOL     OW21058   4.197   2.362   7.639
 6721SOL    HW121059   4.258   2.442   7.643
 6721SOL    HW221060   4.102   2.393   7.646
 6722SOL     OW21061   3.883   2.999   8.914
 6722SOL    HW121062   3.905   2.938   8.990
 6722SOL    HW221063   3.893   2.950   8.828
 6723SOL     OW21064   3.807   3.120   8.470
 6723SOL    HW121065   3.802   3.119   8.570
 6723SOL    HW221066   3.724   3.079   8.432
 6724SOL     OW21067   4.412   3.524   9.164
 6724SOL    HW121068   4.356   3.605   9.173
 6724SOL    HW221069   4.464   3.528   9.078
 6725SOL     OW21070   3.854   3.656   9.299
 6725SOL    HW121071   3.813   3.582   9.352
 6725SOL    HW221072   3.918   3.707   9.357
 6726SOL     OW21073   3.987   2.188   8.168
 6726SOL    HW121074   3.908   2.239   8.134
 6726SOL    HW221075   3.978   2.173   8.266
 6727SOL     OW21076   4.096   3.150   8.938
 6727SOL    HW121077   4.083   3.243   8.904
 6727SOL    HW221078   4.012   3.098   8.925
 6728SOL     OW21079   4.314   3.349   7.939
 6728SOL    HW121080   4.356   3.291   7.869
 6728SOL    HW221081   4.270   3.428   7.895
 6729SOL     OW21082   3.979   3.210   7.738
 6729SOL    HW121083   3.883   3.211   7.711
 6729SOL    HW221084   3.991   3.263   7.822
 6730SOL     OW21085   3.829   2.875   9.174
 6730SOL    HW121086   3.752   2.842   9.228
 6730SOL    HW221087   3.914   2.845   9.216
 6731SOL     OW21088   4.396   2.065   8.937
 6731SOL    HW121089   4.486   2.049   8.897
 6731SOL    HW221090   4.404   2.070   9.036
 6732SOL     OW21091   3.799   2.207   7.481
 6732SOL    HW121092   3.707   2.179   7.452
 6732SOL    HW221093   3.830   2.284   7.425
 6733SOL     OW21094   3.796   2.028   7.766
 6733SOL    HW121095   3.779   2.111   7.712
 6733SOL    HW221096   3.886   1.991   7.744
 6734SOL     OW21097   4.337   2.704   8.879
 6734SOL    HW121098   4.393   2.785   8.862
 6734SOL    HW221099   4.396   2.624   8.882
 6735SOL     OW21100   4.440   2.427   9.156
 6735SOL    HW121101   4.459   2.492   9.230
 6735SOL    HW221102   4.500   2.347   9.165
 6736SOL     OW21103   4.114   3.603   9.008
 6736SOL    HW121104   4.023   3.644   9.006
 6736SOL    HW221105   4.107   3.509   9.040
 6737SOL     OW21106   4.318   2.607   8.100
 6737SOL    HW121107   4.368   2.692   8.081
 6737SOL    HW221108   4.230   2.609   8.052
 6738SOL     OW21109   3.945   3.176   9.292
 6738SOL    HW121110   3.880   3.103   9.271
 6738SOL    HW221111   3.949   3.190   9.390
 6739SOL     OW21112   3.803   3.102   8.101
 6739SOL    HW121113   3.802   3.055   8.189
 6739SOL    HW221114   3.885   3.074   8.050
 6740SOL     OW21115   4.396   3.253   9.072
 6740SOL    HW121116   4.318   3.203   9.110
 6740SOL    HW221117   4.393   3.348   9.103
 6741SOL     OW21118   4.152   2.286   7.968
 6741SOL    HW121119   4.182   2.214   7.906
 6741SOL    HW221120   4.113   2.246   8.051
 6742SOL     OW21121   4.041   2.409   8.728
 6742SOL    HW121122   4.079   2.350   8.800
 6742SOL    HW221123   4.081   2.383   8.640
 6743SOL     OW21124   4.536   3.448   8.135
 6743SOL    HW121125   4.568   3.458   8.041
 6743SOL    HW221126   4.457   3.386   8.137
 6744SOL     OW21127   3.763   2.939   7.748
 6744SOL    HW121128   3.862   2.928   7.739
 6744SOL    HW221129   3.723   2.853   7.780
 6745SOL     OW21130   3.954   2.490   9.423
 6745SOL    HW121131   3.861   2.488   9.460
 6745SOL    HW221132   3.955   2.451   9.331
 6746SOL     OW21133   3.949   2.137  10.306
 6746SOL    HW121134   3.984   2.120  10.398
 6746SOL    HW221135   3.861   2.092  10.294
 6747SOL     OW21136   3.743   2.230   9.957
 6747SOL    HW121137   3.661   2.273   9.996
 6747SOL    HW221138   3.715   2.157   9.894
 6748SOL     OW21139   4.293   3.137  10.475
 6748SOL    HW121140   4.200   3.130  10.438
 6748SOL    HW221141   4.304   3.226  10.519
 6749SOL     OW21142   4.574   2.660  11.133
 6749SOL    HW121143   4.570   2.736  11.198
 6749SOL    HW221144   4.596   2.696  11.042
 6750SOL     OW21145   4.409   2.874   9.975
 6750SOL    HW121146   4.478   2.858  10.045
 6750SOL    HW221147   4.336   2.931  10.013
 6751SOL     OW21148   4.059   3.297  10.371
 6751SOL    HW121149   3.981   3.266  10.318
 6751SOL    HW221150   4.117   3.355  10.314
 6752SOL     OW21151   4.162   2.254  10.809
 6752SOL    HW121152   4.244   2.198  10.818
 6752SOL    HW221153   4.081   2.196  10.813
 6753SOL     OW21154   3.955   3.575   9.793
 6753SOL    HW121155   3.989   3.652   9.847
 6753SOL    HW221156   3.999   3.575   9.703
 6754SOL     OW21157   3.954   3.296   9.848
 6754SOL    HW121158   3.928   3.392   9.848
 6754SOL    HW221159   3.883   3.242   9.893
 6755SOL     OW21160   3.964   2.953  10.196
 6755SOL    HW121161   3.978   2.869  10.248
 6755SOL    HW221162   3.909   3.017  10.251
 6756SOL     OW21163   4.344   3.648  10.749
 6756SOL    HW121164   4.252   3.631  10.784
 6756SOL    HW221165   4.372   3.740  10.775
 6757SOL     OW21166   4.330   2.826   9.433
 6757SOL    HW121167   4.337   2.910   9.379
 6757SOL    HW221168   4.376   2.839   9.521
 6758SOL     OW21169   3.846   2.505   9.873
 6758SOL    HW121170   3.801   2.417   9.890
 6758SOL    HW221171   3.845   2.559   9.957
 6759SOL     OW21172   3.751   3.458   9.427
 6759SOL    HW121173   3.732   3.362   9.448
 6759SOL    HW221174   3.718   3.516   9.502
 6760SOL     OW21175   3.837   2.599  10.907
 6760SOL    HW121176   3.925   2.586  10.952
 6760SOL    HW221177   3.824   2.696  10.885
 6761SOL     OW21178   4.337   3.227  10.036
 6761SOL    HW121179   4.288   3.140  10.045
 6761SOL    HW221180   4.314   3.270   9.949
 6762SOL     OW21181   4.533   1.866   9.812
 6762SOL    HW121182   4.573   1.957   9.803
 6762SOL    HW221183   4.433   1.874   9.818
 6763SOL     OW21184   3.921   2.838  10.574
 6763SOL    HW121185   4.010   2.793  10.560
 6763SOL    HW221186   3.848   2.773  10.555
 6764SOL     OW21187   4.041   2.113  11.111
 6764SOL    HW121188   4.112   2.184  11.117
 6764SOL    HW221189   3.953   2.152  11.139
 6765SOL     OW21190   4.322   2.591   9.580
 6765SOL    HW121191   4.346   2.660   9.512
 6765SOL    HW221192   4.244   2.624   9.634
 6766SOL     OW21193   3.800   2.673  10.099
 6766SOL    HW121194   3.899   2.661  10.108
 6766SOL    HW221195   3.776   2.768  10.120
 6767SOL     OW21196   3.854   3.683  10.881
 6767SOL    HW121197   3.844   3.668  10.980
 6767SOL    HW221198   3.768   3.719  10.845
 6768SOL     OW21199   4.274   2.058  10.195
 6768SOL    HW121200   4.269   2.053  10.295
 6768SOL    HW221201   4.276   2.154  10.166
 6769SOL     OW21202   4.075   3.663  10.163
 6769SOL    HW121203   4.125   3.577  10.169
 6769SOL    HW221204   4.140   3.740  10.160
 6770SOL     OW21205   4.045   2.805   9.552
 6770SOL    HW121206   4.127   2.844   9.510
 6770SOL    HW221207   4.018   2.723   9.503
 6771SOL     OW21208   4.185   3.128  11.037
 6771SOL    HW121209   4.135   3.129  10.951
 6771SOL    HW221210   4.122   3.110  11.113
 6772SOL     OW21211   3.926   2.147  10.808
 6772SOL    HW121212   3.846   2.207  10.795
 6772SOL    HW221213   3.916   2.098  10.894
 6773SOL     OW21214   4.188   3.605   9.633
 6773SOL    HW121215   4.221   3.644   9.719
 6773SOL    HW221216   4.264   3.598   9.568
 6774SOL     OW21217   3.973   3.647  10.551
 6774SOL    HW121218   4.030   3.582  10.601
 6774SOL    HW221219   3.957   3.614  10.458
 6775SOL     OW21220   4.106   2.562   9.790
 6775SOL    HW121221   4.151   2.472   9.787
 6775SOL    HW221222   4.012   2.551   9.823
 6776SOL     OW21223   4.338   1.984   9.427
 6776SOL    HW121224   4.436   1.962   9.434
 6776SOL    HW221225   4.307   1.967   9.334
 6777SOL     OW21226   4.527   3.264  10.234
 6777SOL    HW121227   4.617   3.278  10.192
 6777SOL    HW221228   4.456   3.266  10.163
 6778SOL     OW21229   4.263   1.926   9.822
 6778SOL    HW121230   4.182   1.927   9.880
 6778SOL    HW221231   4.266   2.009   9.767
 6779SOL     OW21232   4.021   1.897   9.481
 6779SOL    HW121233   4.070   1.981   9.460
 6779SOL    HW221234   4.083   1.832   9.526
 6780SOL     OW21235   4.800   2.545  10.774
 6780SOL    HW121236   4.720   2.484  10.777
 6780SOL    HW221237   4.881   2.492  10.750
 6781SOL     OW21238   4.183   3.014  10.051
 6781SOL    HW121239   4.112   2.987  10.116
 6781SOL    HW221240   4.157   2.986   9.958
 6782SOL     OW21241   3.802   2.418  10.696
 6782SOL    HW121242   3.894   2.417  10.655
 6782SOL    HW221243   3.796   2.492  10.763
 6783SOL     OW21244   4.285   2.084  10.457
 6783SOL    HW121245   4.323   2.000  10.494
 6783SOL    HW221246   4.197   2.103  10.501
 6784SOL     OW21247   4.212   3.247   9.484
 6784SOL    HW121248   4.125   3.232   9.531
 6784SOL    HW221249   4.195   3.273   9.389
 6785SOL     OW21250   4.251   2.118   9.638
 6785SOL    HW121251   4.278   2.059   9.563
 6785SOL    HW221252   4.251   2.213   9.607
 6786SOL     OW21253   4.134   2.675  10.561
 6786SOL    HW121254   4.220   2.687  10.611
 6786SOL    HW221255   4.092   2.588  10.588
 6787SOL     OW21256   3.788   3.426  10.641
 6787SOL    HW121257   3.742   3.508  10.607
 6787SOL    HW221258   3.886   3.445  10.650
 6788SOL     OW21259   4.091   2.962   9.811
 6788SOL    HW121260   4.084   3.045   9.755
 6788SOL    HW221261   4.095   2.882   9.751
 6789SOL     OW21262   4.290   2.399  10.175
 6789SOL    HW121263   4.302   2.465  10.101
 6789SOL    HW221264   4.336   2.433  10.258
 6790SOL     OW21265   4.078   3.372  10.639
 6790SOL    HW121266   4.057   3.328  10.552
 6790SOL    HW221267   4.175   3.398  10.642
 6791SOL     OW21268   4.126   2.613  10.908
 6791SOL    HW121269   4.194   2.668  10.861
 6791SOL    HW221270   4.166   2.525  10.935
 6792SOL     OW21271   4.297   2.732  10.339
 6792SOL    HW121272   4.341   2.821  10.330
 6792SOL    HW221273   4.234   2.732  10.416
 6793SOL     OW21274   4.031   2.075  10.541
 6793SOL    HW121275   4.008   2.112  10.631
 6793SOL    HW221276   4.001   1.980  10.535
 6794SOL     OW21277   3.761   3.172  10.592
 6794SOL    HW121278   3.814   3.123  10.660
 6794SOL    HW221279   3.783   3.270  10.597
 6795SOL     OW21280   4.031   1.925   9.928
 6795SOL    HW121281   4.020   2.019   9.961
 6795SOL    HW221282   4.026   1.862  10.005
 6796SOL     OW21283   4.074   2.760  11.114
 6796SOL    HW121284   4.150   2.804  11.162
 6796SOL    HW221285   4.109   2.713  11.032
 6797SOL     OW21286   4.043   2.672  10.259
 6797SOL    HW121287   4.136   2.708  10.264
 6797SOL    HW221288   4.037   2.587  10.311
 6798SOL     OW21289   4.063   2.371  10.316
 6798SOL    HW121290   4.011   2.288  10.299
 6798SOL    HW221291   4.140   2.376  10.252
 6799SOL     OW21292   3.732   3.188   9.510
 6799SOL    HW121293   3.639   3.209   9.479
 6799SOL    HW221294   3.742   3.089   9.523
 6800SOL     OW21295   3.812   3.663  10.237
 6800SOL    HW121296   3.770   3.577  10.210
 6800SOL    HW221297   3.906   3.666  10.203
 6801SOL     OW21298   4.228   3.430  10.220
 6801SOL    HW121299   4.294   3.504  10.229
 6801SOL    HW221300   4.272   3.351  10.178
 6802SOL     OW21301   3.764   2.406  10.424
 6802SOL    HW121302   3.849   2.373  10.383
 6802SOL    HW221303   3.777   2.421  10.522
 6803SOL     OW21304   4.539   2.434   9.635
 6803SOL    HW121305   4.546   2.345   9.589
 6803SOL    HW221306   4.445   2.468   9.627
 6804SOL     OW21307   3.976   3.426  11.054
 6804SOL    HW121308   3.946   3.483  11.130
 6804SOL    HW221309   3.969   3.329  11.080
 6805SOL     OW21310   4.197   2.362   9.501
 6805SOL    HW121311   4.258   2.442   9.505
 6805SOL    HW221312   4.102   2.393   9.508
 6806SOL     OW21313   3.883   2.999  10.776
 6806SOL    HW121314   3.905   2.938  10.852
 6806SOL    HW221315   3.893   2.950  10.690
 6807SOL     OW21316   3.807   3.120  10.332
 6807SOL    HW121317   3.802   3.119  10.432
 6807SOL    HW221318   3.724   3.079  10.294
 6808SOL     OW21319   4.412   3.524  11.026
 6808SOL    HW121320   4.356   3.605  11.035
 6808SOL    HW221321   4.464   3.528  10.940
 6809SOL     OW21322   3.987   2.188  10.030
 6809SOL    HW121323   3.908   2.239   9.996
 6809SOL    HW221324   3.978   2.173  10.128
 6810SOL     OW21325   4.096   3.150  10.800
 6810SOL    HW121326   4.083   3.243  10.766
 6810SOL    HW221327   4.012   3.098  10.787
 6811SOL     OW21328   4.314   3.349   9.801
 6811SOL    HW121329   4.356   3.291   9.731
 6811SOL    HW221330   4.270   3.428   9.757
 6812SOL     OW21331   3.979   3.210   9.600
 6812SOL    HW121332   3.883   3.211   9.573
 6812SOL    HW221333   3.991   3.263   9.684
 6813SOL     OW21334   3.829   2.875  11.036
 6813SOL    HW121335   3.752   2.842  11.090
 6813SOL    HW221336   3.914   2.845  11.078
 6814SOL     OW21337   4.396   2.065  10.799
 6814SOL    HW121338   4.486   2.049  10.759
 6814SOL    HW221339   4.404   2.070  10.898
 6815SOL     OW21340   3.799   2.207   9.343
 6815SOL    HW121341   3.707   2.179   9.314
 6815SOL    HW221342   3.830   2.284   9.287
 6816SOL     OW21343   3.796   2.028   9.628
 6816SOL    HW121344   3.779   2.111   9.574
 6816SOL    HW221345   3.886   1.991   9.606
 6817SOL     OW21346   4.337   2.704  10.741
 6817SOL    HW121347   4.393   2.785  10.724
 6817SOL    HW221348   4.396   2.624  10.744
 6818SOL     OW21349   4.114   3.603  10.870
 6818SOL    HW121350   4.023   3.644  10.868
 6818SOL    HW221351   4.107   3.509  10.902
 6819SOL     OW21352   4.318   2.607   9.962
 6819SOL    HW121353   4.368   2.692   9.943
 6819SOL    HW221354   4.230   2.609   9.914
 6820SOL     OW21355   3.803   3.102   9.963
 6820SOL    HW121356   3.802   3.055  10.051
 6820SOL    HW221357   3.885   3.074   9.912
 6821SOL     OW21358   4.396   3.253  10.934
 6821SOL    HW121359   4.318   3.203  10.972
 6821SOL    HW221360   4.393   3.348  10.965
 6822SOL     OW21361   4.152   2.286   9.830
 6822SOL    HW121362   4.182   2.214   9.768
 6822SOL    HW221363   4.113   2.246   9.913
 6823SOL     OW21364   4.041   2.409  10.590
 6823SOL    HW121365   4.079   2.350  10.662
 6823SOL    HW221366   4.081   2.383  10.502
 6824SOL     OW21367   4.536   3.448   9.997
 6824SOL    HW121368   4.568   3.458   9.903
 6824SOL    HW221369   4.457   3.386   9.999
 6825SOL     OW21370   3.763   2.939   9.610
 6825SOL    HW121371   3.862   2.928   9.601
 6825SOL    HW221372   3.723   2.853   9.642
 6826SOL     OW21373   3.954   4.352   0.113
 6826SOL    HW121374   3.861   4.350   0.150
 6826SOL    HW221375   3.955   4.313   0.021
 6827SOL     OW21376   3.949   3.999   0.996
 6827SOL    HW121377   3.984   3.982   1.088
 6827SOL    HW221378   3.861   3.954   0.984
 6828SOL     OW21379   3.743   4.092   0.647
 6828SOL    HW121380   3.661   4.135   0.686
 6828SOL    HW221381   3.715   4.019   0.584
 6829SOL     OW21382   4.574   4.522   1.823
 6829SOL    HW121383   4.570   4.598   1.888
 6829SOL    HW221384   4.596   4.558   1.732
 6830SOL     OW21385   4.162   4.116   1.499
 6830SOL    HW121386   4.244   4.060   1.508
 6830SOL    HW221387   4.081   4.058   1.503
 6831SOL     OW21388   3.846   4.367   0.563
 6831SOL    HW121389   3.801   4.279   0.580
 6831SOL    HW221390   3.845   4.421   0.647
 6832SOL     OW21391   3.837   4.461   1.597
 6832SOL    HW121392   3.925   4.448   1.642
 6832SOL    HW221393   3.824   4.558   1.575
 6833SOL     OW21394   4.533   3.728   0.502
 6833SOL    HW121395   4.573   3.819   0.493
 6833SOL    HW221396   4.433   3.736   0.508
 6834SOL     OW21397   4.041   3.975   1.801
 6834SOL    HW121398   4.112   4.046   1.807
 6834SOL    HW221399   3.953   4.014   1.829
 6835SOL     OW21400   4.274   3.920   0.885
 6835SOL    HW121401   4.269   3.915   0.985
 6835SOL    HW221402   4.276   4.016   0.856
 6836SOL     OW21403   3.926   4.009   1.498
 6836SOL    HW121404   3.846   4.069   1.485
 6836SOL    HW221405   3.916   3.960   1.584
 6837SOL     OW21406   4.106   4.424   0.480
 6837SOL    HW121407   4.151   4.334   0.477
 6837SOL    HW221408   4.012   4.413   0.513
 6838SOL     OW21409   4.338   3.846   0.117
 6838SOL    HW121410   4.436   3.824   0.124
 6838SOL    HW221411   4.307   3.829   0.024
 6839SOL     OW21412   4.263   3.788   0.512
 6839SOL    HW121413   4.182   3.789   0.570
 6839SOL    HW221414   4.266   3.871   0.457
 6840SOL     OW21415   4.021   3.759   0.171
 6840SOL    HW121416   4.070   3.843   0.150
 6840SOL    HW221417   4.083   3.694   0.216
 6841SOL     OW21418   4.800   4.407   1.464
 6841SOL    HW121419   4.720   4.346   1.467
 6841SOL    HW221420   4.881   4.354   1.440
 6842SOL     OW21421   3.802   4.280   1.386
 6842SOL    HW121422   3.894   4.279   1.345
 6842SOL    HW221423   3.796   4.354   1.453
 6843SOL     OW21424   4.285   3.946   1.147
 6843SOL    HW121425   4.323   3.862   1.184
 6843SOL    HW221426   4.197   3.965   1.191
 6844SOL     OW21427   4.251   3.980   0.328
 6844SOL    HW121428   4.278   3.921   0.253
 6844SOL    HW221429   4.251   4.075   0.297
 6845SOL     OW21430   4.134   4.537   1.251
 6845SOL    HW121431   4.220   4.549   1.301
 6845SOL    HW221432   4.092   4.450   1.278
 6846SOL     OW21433   4.290   4.261   0.865
 6846SOL    HW121434   4.302   4.327   0.791
 6846SOL    HW221435   4.336   4.295   0.948
 6847SOL     OW21436   4.228   3.774   1.740
 6847SOL    HW121437   4.186   3.717   1.670
 6847SOL    HW221438   4.162   3.843   1.772
 6848SOL     OW21439   4.031   3.937   1.231
 6848SOL    HW121440   4.008   3.974   1.321
 6848SOL    HW221441   4.001   3.842   1.225
 6849SOL     OW21442   4.031   3.787   0.618
 6849SOL    HW121443   4.020   3.881   0.651
 6849SOL    HW221444   4.026   3.724   0.695
 6850SOL     OW21445   4.043   4.534   0.949
 6850SOL    HW121446   4.136   4.570   0.954
 6850SOL    HW221447   4.037   4.449   1.001
 6851SOL     OW21448   4.063   4.233   1.006
 6851SOL    HW121449   4.011   4.150   0.989
 6851SOL    HW221450   4.140   4.238   0.942
 6852SOL     OW21451   3.764   4.268   1.114
 6852SOL    HW121452   3.849   4.235   1.073
 6852SOL    HW221453   3.777   4.283   1.212
 6853SOL     OW21454   3.913   4.244   1.722
 6853SOL    HW121455   3.972   4.204   1.652
 6853SOL    HW221456   3.855   4.315   1.681
 6854SOL     OW21457   4.539   4.296   0.325
 6854SOL    HW121458   4.546   4.207   0.279
 6854SOL    HW221459   4.445   4.330   0.317
 6855SOL     OW21460   4.197   4.224   0.191
 6855SOL    HW121461   4.258   4.304   0.195
 6855SOL    HW221462   4.102   4.255   0.198
 6856SOL     OW21463   3.987   4.050   0.720
 6856SOL    HW121464   3.908   4.101   0.686
 6856SOL    HW221465   3.978   4.035   0.818
 6857SOL     OW21466   4.396   3.927   1.489
 6857SOL    HW121467   4.486   3.911   1.449
 6857SOL    HW221468   4.404   3.932   1.588
 6858SOL     OW21469   3.799   4.069   0.033
 6858SOL    HW121470   3.707   4.041   0.004
 6858SOL    HW221471   3.830   4.146  -0.023
 6859SOL     OW21472   3.796   3.890   0.318
 6859SOL    HW121473   3.779   3.973   0.264
 6859SOL    HW221474   3.886   3.853   0.296
 6860SOL     OW21475   4.440   4.289   1.708
 6860SOL    HW121476   4.459   4.354   1.782
 6860SOL    HW221477   4.500   4.209   1.717
 6861SOL     OW21478   4.152   4.148   0.520
 6861SOL    HW121479   4.182   4.076   0.458
 6861SOL    HW221480   4.113   4.108   0.603
 6862SOL     OW21481   4.041   4.271   1.280
 6862SOL    HW121482   4.079   4.212   1.352
 6862SOL    HW221483   4.081   4.245   1.192
 6863SOL     OW21484   3.954   4.352   1.975
 6863SOL    HW121485   3.861   4.350   2.012
 6863SOL    HW221486   3.955   4.313   1.883
 6864SOL     OW21487   3.949   3.999   2.858
 6864SOL    HW121488   3.984   3.982   2.950
 6864SOL    HW221489   3.861   3.954   2.846
 6865SOL     OW21490   3.743   4.092   2.509
 6865SOL    HW121491   3.661   4.135   2.548
 6865SOL    HW221492   3.715   4.019   2.446
 6866SOL     OW21493   4.574   4.522   3.685
 6866SOL    HW121494   4.570   4.598   3.750
 6866SOL    HW221495   4.596   4.558   3.594
 6867SOL     OW21496   4.162   4.116   3.361
 6867SOL    HW121497   4.244   4.060   3.370
 6867SOL    HW221498   4.081   4.058   3.365
 6868SOL     OW21499   3.846   4.367   2.425
 6868SOL    HW121500   3.801   4.279   2.442
 6868SOL    HW221501   3.845   4.421   2.509
 6869SOL     OW21502   3.837   4.461   3.459
 6869SOL    HW121503   3.925   4.448   3.504
 6869SOL    HW221504   3.824   4.558   3.437
 6870SOL     OW21505   4.533   3.728   2.364
 6870SOL    HW121506   4.573   3.819   2.355
 6870SOL    HW221507   4.433   3.736   2.370
 6871SOL     OW21508   4.041   3.975   3.663
 6871SOL    HW121509   4.112   4.046   3.669
 6871SOL    HW221510   3.953   4.014   3.691
 6872SOL     OW21511   4.274   3.920   2.747
 6872SOL    HW121512   4.269   3.915   2.847
 6872SOL    HW221513   4.276   4.016   2.718
 6873SOL     OW21514   3.926   4.009   3.360
 6873SOL    HW121515   3.846   4.069   3.347
 6873SOL    HW221516   3.916   3.960   3.446
 6874SOL     OW21517   4.106   4.424   2.342
 6874SOL    HW121518   4.151   4.334   2.339
 6874SOL    HW221519   4.012   4.413   2.375
 6875SOL     OW21520   4.338   3.846   1.979
 6875SOL    HW121521   4.436   3.824   1.986
 6875SOL    HW221522   4.307   3.829   1.886
 6876SOL     OW21523   4.263   3.788   2.374
 6876SOL    HW121524   4.182   3.789   2.432
 6876SOL    HW221525   4.266   3.871   2.319
 6877SOL     OW21526   4.021   3.759   2.033
 6877SOL    HW121527   4.070   3.843   2.012
 6877SOL    HW221528   4.083   3.694   2.078
 6878SOL     OW21529   4.800   4.407   3.326
 6878SOL    HW121530   4.720   4.346   3.329
 6878SOL    HW221531   4.881   4.354   3.302
 6879SOL     OW21532   3.802   4.280   3.248
 6879SOL    HW121533   3.894   4.279   3.207
 6879SOL    HW221534   3.796   4.354   3.315
 6880SOL     OW21535   4.285   3.946   3.009
 6880SOL    HW121536   4.323   3.862   3.046
 6880SOL    HW221537   4.197   3.965   3.053
 6881SOL     OW21538   4.251   3.980   2.190
 6881SOL    HW121539   4.278   3.921   2.115
 6881SOL    HW221540   4.251   4.075   2.159
 6882SOL     OW21541   4.134   4.537   3.113
 6882SOL    HW121542   4.220   4.549   3.163
 6882SOL    HW221543   4.092   4.450   3.140
 6883SOL     OW21544   4.290   4.261   2.727
 6883SOL    HW121545   4.302   4.327   2.653
 6883SOL    HW221546   4.336   4.295   2.810
 6884SOL     OW21547   4.228   3.774   3.602
 6884SOL    HW121548   4.186   3.717   3.532
 6884SOL    HW221549   4.162   3.843   3.634
 6885SOL     OW21550   4.031   3.937   3.093
 6885SOL    HW121551   4.008   3.974   3.183
 6885SOL    HW221552   4.001   3.842   3.087
 6886SOL     OW21553   4.031   3.787   2.480
 6886SOL    HW121554   4.020   3.881   2.513
 6886SOL    HW221555   4.026   3.724   2.557
 6887SOL     OW21556   4.043   4.534   2.811
 6887SOL    HW121557   4.136   4.570   2.816
 6887SOL    HW221558   4.037   4.449   2.863
 6888SOL     OW21559   4.063   4.233   2.868
 6888SOL    HW121560   4.011   4.150   2.851
 6888SOL    HW221561   4.140   4.238   2.804
 6889SOL     OW21562   3.764   4.268   2.976
 6889SOL    HW121563   3.849   4.235   2.935
 6889SOL    HW221564   3.777   4.283   3.074
 6890SOL     OW21565   3.913   4.244   3.584
 6890SOL    HW121566   3.972   4.204   3.514
 6890SOL    HW221567   3.855   4.315   3.543
 6891SOL     OW21568   4.539   4.296   2.187
 6891SOL    HW121569   4.546   4.207   2.141
 6891SOL    HW221570   4.445   4.330   2.179
 6892SOL     OW21571   4.197   4.224   2.053
 6892SOL    HW121572   4.258   4.304   2.057
 6892SOL    HW221573   4.102   4.255   2.060
 6893SOL     OW21574   3.987   4.050   2.582
 6893SOL    HW121575   3.908   4.101   2.548
 6893SOL    HW221576   3.978   4.035   2.680
 6894SOL     OW21577   4.396   3.927   3.351
 6894SOL    HW121578   4.486   3.911   3.311
 6894SOL    HW221579   4.404   3.932   3.450
 6895SOL     OW21580   3.799   4.069   1.895
 6895SOL    HW121581   3.707   4.041   1.866
 6895SOL    HW221582   3.830   4.146   1.839
 6896SOL     OW21583   3.796   3.890   2.180
 6896SOL    HW121584   3.779   3.973   2.126
 6896SOL    HW221585   3.886   3.853   2.158
 6897SOL     OW21586   4.440   4.289   3.570
 6897SOL    HW121587   4.459   4.354   3.644
 6897SOL    HW221588   4.500   4.209   3.579
 6898SOL     OW21589   4.152   4.148   2.382
 6898SOL    HW121590   4.182   4.076   2.320
 6898SOL    HW221591   4.113   4.108   2.465
 6899SOL     OW21592   4.041   4.271   3.142
 6899SOL    HW121593   4.079   4.212   3.214
 6899SOL    HW221594   4.081   4.245   3.054
 6900SOL     OW21595   3.954   4.352   3.837
 6900SOL    HW121596   3.861   4.350   3.874
 6900SOL    HW221597   3.955   4.313   3.745
 6901SOL     OW21598   3.949   3.999   4.720
 6901SOL    HW121599   3.984   3.982   4.812
 6901SOL    HW221600   3.861   3.954   4.708
 6902SOL     OW21601   3.743   4.092   4.371
 6902SOL    HW121602   3.661   4.135   4.410
 6902SOL    HW221603   3.715   4.019   4.308
 6903SOL     OW21604   4.574   4.522   5.547
 6903SOL    HW121605   4.570   4.598   5.612
 6903SOL    HW221606   4.596   4.558   5.456
 6904SOL     OW21607   4.162   4.116   5.223
 6904SOL    HW121608   4.244   4.060   5.232
 6904SOL    HW221609   4.081   4.058   5.227
 6905SOL     OW21610   3.846   4.367   4.287
 6905SOL    HW121611   3.801   4.279   4.304
 6905SOL    HW221612   3.845   4.421   4.371
 6906SOL     OW21613   3.837   4.461   5.321
 6906SOL    HW121614   3.925   4.448   5.366
 6906SOL    HW221615   3.824   4.558   5.299
 6907SOL     OW21616   4.533   3.728   4.226
 6907SOL    HW121617   4.573   3.819   4.217
 6907SOL    HW221618   4.433   3.736   4.232
 6908SOL     OW21619   4.041   3.975   5.525
 6908SOL    HW121620   4.112   4.046   5.531
 6908SOL    HW221621   3.953   4.014   5.553
 6909SOL     OW21622   4.274   3.920   4.609
 6909SOL    HW121623   4.269   3.915   4.709
 6909SOL    HW221624   4.276   4.016   4.580
 6910SOL     OW21625   3.926   4.009   5.222
 6910SOL    HW121626   3.846   4.069   5.209
 6910SOL    HW221627   3.916   3.960   5.308
 6911SOL     OW21628   4.106   4.424   4.204
 6911SOL    HW121629   4.151   4.334   4.201
 6911SOL    HW221630   4.012   4.413   4.237
 6912SOL     OW21631   4.338   3.846   3.841
 6912SOL    HW121632   4.436   3.824   3.848
 6912SOL    HW221633   4.307   3.829   3.748
 6913SOL     OW21634   4.263   3.788   4.236
 6913SOL    HW121635   4.182   3.789   4.294
 6913SOL    HW221636   4.266   3.871   4.181
 6914SOL     OW21637   4.021   3.759   3.895
 6914SOL    HW121638   4.070   3.843   3.874
 6914SOL    HW221639   4.083   3.694   3.940
 6915SOL     OW21640   4.800   4.407   5.188
 6915SOL    HW121641   4.720   4.346   5.191
 6915SOL    HW221642   4.881   4.354   5.164
 6916SOL     OW21643   3.802   4.280   5.110
 6916SOL    HW121644   3.894   4.279   5.069
 6916SOL    HW221645   3.796   4.354   5.177
 6917SOL     OW21646   4.285   3.946   4.871
 6917SOL    HW121647   4.323   3.862   4.908
 6917SOL    HW221648   4.197   3.965   4.915
 6918SOL     OW21649   4.251   3.980   4.052
 6918SOL    HW121650   4.278   3.921   3.977
 6918SOL    HW221651   4.251   4.075   4.021
 6919SOL     OW21652   4.134   4.537   4.975
 6919SOL    HW121653   4.220   4.549   5.025
 6919SOL    HW221654   4.092   4.450   5.002
 6920SOL     OW21655   4.290   4.261   4.589
 6920SOL    HW121656   4.302   4.327   4.515
 6920SOL    HW221657   4.336   4.295   4.672
 6921SOL     OW21658   4.228   3.774   5.464
 6921SOL    HW121659   4.186   3.717   5.394
 6921SOL    HW221660   4.162   3.843   5.496
 6922SOL     OW21661   4.031   3.937   4.955
 6922SOL    HW121662   4.008   3.974   5.045
 6922SOL    HW221663   4.001   3.842   4.949
 6923SOL     OW21664   4.031   3.787   4.342
 6923SOL    HW121665   4.020   3.881   4.375
 6923SOL    HW221666   4.026   3.724   4.419
 6924SOL     OW21667   4.043   4.534   4.673
 6924SOL    HW121668   4.136   4.570   4.678
 6924SOL    HW221669   4.037   4.449   4.725
 6925SOL     OW21670   4.063   4.233   4.730
 6925SOL    HW121671   4.011   4.150   4.713
 6925SOL    HW221672   4.140   4.238   4.666
 6926SOL     OW21673   3.764   4.268   4.838
 6926SOL    HW121674   3.849   4.235   4.797
 6926SOL    HW221675   3.777   4.283   4.936
 6927SOL     OW21676   3.913   4.244   5.446
 6927SOL    HW121677   3.972   4.204   5.376
 6927SOL    HW221678   3.855   4.315   5.405
 6928SOL     OW21679   4.539   4.296   4.049
 6928SOL    HW121680   4.546   4.207   4.003
 6928SOL    HW221681   4.445   4.330   4.041
 6929SOL     OW21682   4.197   4.224   3.915
 6929SOL    HW121683   4.258   4.304   3.919
 6929SOL    HW221684   4.102   4.255   3.922
 6930SOL     OW21685   3.987   4.050   4.444
 6930SOL    HW121686   3.908   4.101   4.410
 6930SOL    HW221687   3.978   4.035   4.542
 6931SOL     OW21688   4.396   3.927   5.213
 6931SOL    HW121689   4.486   3.911   5.173
 6931SOL    HW221690   4.404   3.932   5.312
 6932SOL     OW21691   3.799   4.069   3.757
 6932SOL    HW121692   3.707   4.041   3.728
 6932SOL    HW221693   3.830   4.146   3.701
 6933SOL     OW21694   3.796   3.890   4.042
 6933SOL    HW121695   3.779   3.973   3.988
 6933SOL    HW221696   3.886   3.853   4.020
 6934SOL     OW21697   4.440   4.289   5.432
 6934SOL    HW121698   4.459   4.354   5.506
 6934SOL    HW221699   4.500   4.209   5.441
 6935SOL     OW21700   4.152   4.148   4.244
 6935SOL    HW121701   4.182   4.076   4.182
 6935SOL    HW221702   4.113   4.108   4.327
 6936SOL     OW21703   4.041   4.271   5.004
 6936SOL    HW121704   4.079   4.212   5.076
 6936SOL    HW221705   4.081   4.245   4.916
 6937SOL     OW21706   3.954   4.352   5.699
 6937SOL    HW121707   3.861   4.350   5.736
 6937SOL    HW221708   3.955   4.313   5.607
 6938SOL     OW21709   3.949   3.999   6.582
 6938SOL    HW121710   3.984   3.982   6.674
 6938SOL    HW221711   3.861   3.954   6.570
 6939SOL     OW21712   3.743   4.092   6.233
 6939SOL    HW121713   3.661   4.135   6.272
 6939SOL    HW221714   3.715   4.019   6.170
 6940SOL     OW21715   4.574   4.522   7.409
 6940SOL    HW121716   4.570   4.598   7.474
 6940SOL    HW221717   4.596   4.558   7.318
 6941SOL     OW21718   4.162   4.116   7.085
 6941SOL    HW121719   4.244   4.060   7.094
 6941SOL    HW221720   4.081   4.058   7.089
 6942SOL     OW21721   3.846   4.367   6.149
 6942SOL    HW121722   3.801   4.279   6.166
 6942SOL    HW221723   3.845   4.421   6.233
 6943SOL     OW21724   3.837   4.461   7.183
 6943SOL    HW121725   3.925   4.448   7.228
 6943SOL    HW221726   3.824   4.558   7.161
 6944SOL     OW21727   4.533   3.728   6.088
 6944SOL    HW121728   4.573   3.819   6.079
 6944SOL    HW221729   4.433   3.736   6.094
 6945SOL     OW21730   4.041   3.975   7.387
 6945SOL    HW121731   4.112   4.046   7.393
 6945SOL    HW221732   3.953   4.014   7.415
 6946SOL     OW21733   4.274   3.920   6.471
 6946SOL    HW121734   4.269   3.915   6.571
 6946SOL    HW221735   4.276   4.016   6.442
 6947SOL     OW21736   3.926   4.009   7.084
 6947SOL    HW121737   3.846   4.069   7.071
 6947SOL    HW221738   3.916   3.960   7.170
 6948SOL     OW21739   4.106   4.424   6.066
 6948SOL    HW121740   4.151   4.334   6.063
 6948SOL    HW221741   4.012   4.413   6.099
 6949SOL     OW21742   4.338   3.846   5.703
 6949SOL    HW121743   4.436   3.824   5.710
 6949SOL    HW221744   4.307   3.829   5.610
 6950SOL     OW21745   4.263   3.788   6.098
 6950SOL    HW121746   4.182   3.789   6.156
 6950SOL    HW221747   4.266   3.871   6.043
 6951SOL     OW21748   4.021   3.759   5.757
 6951SOL    HW121749   4.070   3.843   5.736
 6951SOL    HW221750   4.083   3.694   5.802
 6952SOL     OW21751   4.800   4.407   7.050
 6952SOL    HW121752   4.720   4.346   7.053
 6952SOL    HW221753   4.881   4.354   7.026
 6953SOL     OW21754   3.802   4.280   6.972
 6953SOL    HW121755   3.894   4.279   6.931
 6953SOL    HW221756   3.796   4.354   7.039
 6954SOL     OW21757   4.285   3.946   6.733
 6954SOL    HW121758   4.323   3.862   6.770
 6954SOL    HW221759   4.197   3.965   6.777
 6955SOL     OW21760   4.251   3.980   5.914
 6955SOL    HW121761   4.278   3.921   5.839
 6955SOL    HW221762   4.251   4.075   5.883
 6956SOL     OW21763   4.134   4.537   6.837
 6956SOL    HW121764   4.220   4.549   6.887
 6956SOL    HW221765   4.092   4.450   6.864
 6957SOL     OW21766   4.290   4.261   6.451
 6957SOL    HW121767   4.302   4.327   6.377
 6957SOL    HW221768   4.336   4.295   6.534
 6958SOL     OW21769   4.228   3.774   7.326
 6958SOL    HW121770   4.186   3.717   7.256
 6958SOL    HW221771   4.162   3.843   7.358
 6959SOL     OW21772   4.031   3.937   6.817
 6959SOL    HW121773   4.008   3.974   6.907
 6959SOL    HW221774   4.001   3.842   6.811
 6960SOL     OW21775   4.031   3.787   6.204
 6960SOL    HW121776   4.020   3.881   6.237
 6960SOL    HW221777   4.026   3.724   6.281
 6961SOL     OW21778   4.043   4.534   6.535
 6961SOL    HW121779   4.136   4.570   6.540
 6961SOL    HW221780   4.037   4.449   6.587
 6962SOL     OW21781   4.063   4.233   6.592
 6962SOL    HW121782   4.011   4.150   6.575
 6962SOL    HW221783   4.140   4.238   6.528
 6963SOL     OW21784   3.764   4.268   6.700
 6963SOL    HW121785   3.849   4.235   6.659
 6963SOL    HW221786   3.777   4.283   6.798
 6964SOL     OW21787   3.913   4.244   7.308
 6964SOL    HW121788   3.972   4.204   7.238
 6964SOL    HW221789   3.855   4.315   7.267
 6965SOL     OW21790   4.539   4.296   5.911
 6965SOL    HW121791   4.546   4.207   5.865
 6965SOL    HW221792   4.445   4.330   5.903
 6966SOL     OW21793   4.197   4.224   5.777
 6966SOL    HW121794   4.258   4.304   5.781
 6966SOL    HW221795   4.102   4.255   5.784
 6967SOL     OW21796   3.987   4.050   6.306
 6967SOL    HW121797   3.908   4.101   6.272
 6967SOL    HW221798   3.978   4.035   6.404
 6968SOL     OW21799   4.396   3.927   7.075
 6968SOL    HW121800   4.486   3.911   7.035
 6968SOL    HW221801   4.404   3.932   7.174
 6969SOL     OW21802   3.799   4.069   5.619
 6969SOL    HW121803   3.707   4.041   5.590
 6969SOL    HW221804   3.830   4.146   5.563
 6970SOL     OW21805   3.796   3.890   5.904
 6970SOL    HW121806   3.779   3.973   5.850
 6970SOL    HW221807   3.886   3.853   5.882
 6971SOL     OW21808   4.440   4.289   7.294
 6971SOL    HW121809   4.459   4.354   7.368
 6971SOL    HW221810   4.500   4.209   7.303
 6972SOL     OW21811   4.152   4.148   6.106
 6972SOL    HW121812   4.182   4.076   6.044
 6972SOL    HW221813   4.113   4.108   6.189
 6973SOL     OW21814   4.041   4.271   6.866
 6973SOL    HW121815   4.079   4.212   6.938
 6973SOL    HW221816   4.081   4.245   6.778
 6974SOL     OW21817   3.954   4.352   7.561
 6974SOL    HW121818   3.861   4.350   7.598
 6974SOL    HW221819   3.955   4.313   7.469
 6975SOL     OW21820   3.949   3.999   8.444
 6975SOL    HW121821   3.984   3.982   8.536
 6975SOL    HW221822   3.861   3.954   8.432
 6976SOL     OW21823   3.743   4.092   8.095
 6976SOL    HW121824   3.661   4.135   8.134
 6976SOL    HW221825   3.715   4.019   8.032
 6977SOL     OW21826   4.574   4.522   9.271
 6977SOL    HW121827   4.570   4.598   9.336
 6977SOL    HW221828   4.596   4.558   9.180
 6978SOL     OW21829   4.162   4.116   8.947
 6978SOL    HW121830   4.244   4.060   8.956
 6978SOL    HW221831   4.081   4.058   8.951
 6979SOL     OW21832   3.846   4.367   8.011
 6979SOL    HW121833   3.801   4.279   8.028
 6979SOL    HW221834   3.845   4.421   8.095
 6980SOL     OW21835   3.837   4.461   9.045
 6980SOL    HW121836   3.925   4.448   9.090
 6980SOL    HW221837   3.824   4.558   9.023
 6981SOL     OW21838   4.533   3.728   7.950
 6981SOL    HW121839   4.573   3.819   7.941
 6981SOL    HW221840   4.433   3.736   7.956
 6982SOL     OW21841   4.041   3.975   9.249
 6982SOL    HW121842   4.112   4.046   9.255
 6982SOL    HW221843   3.953   4.014   9.277
 6983SOL     OW21844   4.274   3.920   8.333
 6983SOL    HW121845   4.269   3.915   8.433
 6983SOL    HW221846   4.276   4.016   8.304
 6984SOL     OW21847   3.926   4.009   8.946
 6984SOL    HW121848   3.846   4.069   8.933
 6984SOL    HW221849   3.916   3.960   9.032
 6985SOL     OW21850   4.106   4.424   7.928
 6985SOL    HW121851   4.151   4.334   7.925
 6985SOL    HW221852   4.012   4.413   7.961
 6986SOL     OW21853   4.338   3.846   7.565
 6986SOL    HW121854   4.436   3.824   7.572
 6986SOL    HW221855   4.307   3.829   7.472
 6987SOL     OW21856   4.263   3.788   7.960
 6987SOL    HW121857   4.182   3.789   8.018
 6987SOL    HW221858   4.266   3.871   7.905
 6988SOL     OW21859   4.021   3.759   7.619
 6988SOL    HW121860   4.070   3.843   7.598
 6988SOL    HW221861   4.083   3.694   7.664
 6989SOL     OW21862   4.800   4.407   8.912
 6989SOL    HW121863   4.720   4.346   8.915
 6989SOL    HW221864   4.881   4.354   8.888
 6990SOL     OW21865   3.802   4.280   8.834
 6990SOL    HW121866   3.894   4.279   8.793
 6990SOL    HW221867   3.796   4.354   8.901
 6991SOL     OW21868   4.285   3.946   8.595
 6991SOL    HW121869   4.323   3.862   8.632
 6991SOL    HW221870   4.197   3.965   8.639
 6992SOL     OW21871   4.251   3.980   7.776
 6992SOL    HW121872   4.278   3.921   7.701
 6992SOL    HW221873   4.251   4.075   7.745
 6993SOL     OW21874   4.134   4.537   8.699
 6993SOL    HW121875   4.220   4.549   8.749
 6993SOL    HW221876   4.092   4.450   8.726
 6994SOL     OW21877   4.290   4.261   8.313
 6994SOL    HW121878   4.302   4.327   8.239
 6994SOL    HW221879   4.336   4.295   8.396
 6995SOL     OW21880   4.228   3.774   9.188
 6995SOL    HW121881   4.186   3.717   9.118
 6995SOL    HW221882   4.162   3.843   9.220
 6996SOL     OW21883   4.031   3.937   8.679
 6996SOL    HW121884   4.008   3.974   8.769
 6996SOL    HW221885   4.001   3.842   8.673
 6997SOL     OW21886   4.031   3.787   8.066
 6997SOL    HW121887   4.020   3.881   8.099
 6997SOL    HW221888   4.026   3.724   8.143
 6998SOL     OW21889   4.043   4.534   8.397
 6998SOL    HW121890   4.136   4.570   8.402
 6998SOL    HW221891   4.037   4.449   8.449
 6999SOL     OW21892   4.063   4.233   8.454
 6999SOL    HW121893   4.011   4.150   8.437
 6999SOL    HW221894   4.140   4.238   8.390
 7000SOL     OW21895   3.764   4.268   8.562
 7000SOL    HW121896   3.849   4.235   8.521
 7000SOL    HW221897   3.777   4.283   8.660
 7001SOL     OW21898   3.913   4.244   9.170
 7001SOL    HW121899   3.972   4.204   9.100
 7001SOL    HW221900   3.855   4.315   9.129
 7002SOL     OW21901   4.539   4.296   7.773
 7002SOL    HW121902   4.546   4.207   7.727
 7002SOL    HW221903   4.445   4.330   7.765
 7003SOL     OW21904   4.197   4.224   7.639
 7003SOL    HW121905   4.258   4.304   7.643
 7003SOL    HW221906   4.102   4.255   7.646
 7004SOL     OW21907   3.987   4.050   8.168
 7004SOL    HW121908   3.908   4.101   8.134
 7004SOL    HW221909   3.978   4.035   8.266
 7005SOL     OW21910   4.396   3.927   8.937
 7005SOL    HW121911   4.486   3.911   8.897
 7005SOL    HW221912   4.404   3.932   9.036
 7006SOL     OW21913   3.799   4.069   7.481
 7006SOL    HW121914   3.707   4.041   7.452
 7006SOL    HW221915   3.830   4.146   7.425
 7007SOL     OW21916   3.796   3.890   7.766
 7007SOL    HW121917   3.779   3.973   7.712
 7007SOL    HW221918   3.886   3.853   7.744
 7008SOL     OW21919   4.440   4.289   9.156
 7008SOL    HW121920   4.459   4.354   9.230
 7008SOL    HW221921   4.500   4.209   9.165
 7009SOL     OW21922   4.152   4.148   7.968
 7009SOL    HW121923   4.182   4.076   7.906
 7009SOL    HW221924   4.113   4.108   8.051
 7010SOL     OW21925   4.041   4.271   8.728
 7010SOL    HW121926   4.079   4.212   8.800
 7010SOL    HW221927   4.081   4.245   8.640
 7011SOL     OW21928   3.954   4.352   9.423
 7011SOL    HW121929   3.861   4.350   9.460
 7011SOL    HW221930   3.955   4.313   9.331
 7012SOL     OW21931   3.949   3.999  10.306
 7012SOL    HW121932   3.984   3.982  10.398
 7012SOL    HW221933   3.861   3.954  10.294
 7013SOL     OW21934   3.743   4.092   9.957
 7013SOL    HW121935   3.661   4.135   9.996
 7013SOL    HW221936   3.715   4.019   9.894
 7014SOL     OW21937   4.162   4.116  10.809
 7014SOL    HW121938   4.244   4.060  10.818
 7014SOL    HW221939   4.081   4.058  10.813
 7015SOL     OW21940   3.846   4.367   9.873
 7015SOL    HW121941   3.801   4.279   9.890
 7015SOL    HW221942   3.845   4.421   9.957
 7016SOL     OW21943   3.837   4.461  10.907
 7016SOL    HW121944   3.925   4.448  10.952
 7016SOL    HW221945   3.824   4.558  10.885
 7017SOL     OW21946   4.533   3.728   9.812
 7017SOL    HW121947   4.573   3.819   9.803
 7017SOL    HW221948   4.433   3.736   9.818
 7018SOL     OW21949   4.041   3.975  11.111
 7018SOL    HW121950   4.112   4.046  11.117
 7018SOL    HW221951   3.953   4.014  11.139
 7019SOL     OW21952   4.274   3.920  10.195
 7019SOL    HW121953   4.269   3.915  10.295
 7019SOL    HW221954   4.276   4.016  10.166
 7020SOL     OW21955   3.926   4.009  10.808
 7020SOL    HW121956   3.846   4.069  10.795
 7020SOL    HW221957   3.916   3.960  10.894
 7021SOL     OW21958   4.106   4.424   9.790
 7021SOL    HW121959   4.151   4.334   9.787
 7021SOL    HW221960   4.012   4.413   9.823
 7022SOL     OW21961   4.338   3.846   9.427
 7022SOL    HW121962   4.436   3.824   9.434
 7022SOL    HW221963   4.307   3.829   9.334
 7023SOL     OW21964   4.263   3.788   9.822
 7023SOL    HW121965   4.182   3.789   9.880
 7023SOL    HW221966   4.266   3.871   9.767
 7024SOL     OW21967   4.021   3.759   9.481
 7024SOL    HW121968   4.070   3.843   9.460
 7024SOL    HW221969   4.083   3.694   9.526
 7025SOL     OW21970   4.800   4.407  10.774
 7025SOL    HW121971   4.720   4.346  10.777
 7025SOL    HW221972   4.881   4.354  10.750
 7026SOL     OW21973   3.802   4.280  10.696
 7026SOL    HW121974   3.894   4.279  10.655
 7026SOL    HW221975   3.796   4.354  10.763
 7027SOL     OW21976   4.285   3.946  10.457
 7027SOL    HW121977   4.323   3.862  10.494
 7027SOL    HW221978   4.197   3.965  10.501
 7028SOL     OW21979   4.251   3.980   9.638
 7028SOL    HW121980   4.278   3.921   9.563
 7028SOL    HW221981   4.251   4.075   9.607
 7029SOL     OW21982   4.134   4.537  10.561
 7029SOL    HW121983   4.220   4.549  10.611
 7029SOL    HW221984   4.092   4.450  10.588
 7030SOL     OW21985   4.290   4.261  10.175
 7030SOL    HW121986   4.302   4.327  10.101
 7030SOL    HW221987   4.336   4.295  10.258
 7031SOL     OW21988   4.126   4.475  10.908
 7031SOL    HW121989   4.194   4.530  10.861
 7031SOL    HW221990   4.166   4.387  10.935
 7032SOL     OW21991   4.031   3.937  10.541
 7032SOL    HW121992   4.008   3.974  10.631
 7032SOL    HW221993   4.001   3.842  10.535
 7033SOL     OW21994   4.031   3.787   9.928
 7033SOL    HW121995   4.020   3.881   9.961
 7033SOL    HW221996   4.026   3.724  10.005
 7034SOL     OW21997   4.043   4.534  10.259
 7034SOL    HW121998   4.136   4.570  10.264
 7034SOL    HW221999   4.037   4.449  10.311
 7035SOL     OW22000   4.063   4.233  10.316
 7035SOL    HW122001   4.011   4.150  10.299
 7035SOL    HW222002   4.140   4.238  10.252
 7036SOL     OW22003   3.764   4.268  10.424
 7036SOL    HW122004   3.849   4.235  10.383
 7036SOL    HW222005   3.777   4.283  10.522
 7037SOL     OW22006   4.539   4.296   9.635
 7037SOL    HW122007   4.546   4.207   9.589
 7037SOL    HW222008   4.445   4.330   9.627
 7038SOL     OW22009   4.197   4.224   9.501
 7038SOL    HW122010   4.258   4.304   9.505
 7038SOL    HW222011   4.102   4.255   9.508
 7039SOL     OW22012   3.987   4.050  10.030
 7039SOL    HW122013   3.908   4.101   9.996
 7039SOL    HW222014   3.978   4.035  10.128
 7040SOL     OW22015   4.396   3.927  10.799
 7040SOL    HW122016   4.486   3.911  10.759
 7040SOL    HW222017   4.404   3.932  10.898
 7041SOL     OW22018   3.799   4.069   9.343
 7041SOL    HW122019   3.707   4.041   9.314
 7041SOL    HW222020   3.830   4.146   9.287
 7042SOL     OW22021   3.796   3.890   9.628
 7042SOL    HW122022   3.779   3.973   9.574
 7042SOL    HW222023   3.886   3.853   9.606
 7043SOL     OW22024   4.152   4.148   9.830
 7043SOL    HW122025   4.182   4.076   9.768
 7043SOL    HW222026   4.113   4.108   9.913
 7044SOL     OW22027   4.041   4.271  10.590
 7044SOL    HW122028   4.079   4.212  10.662
 7044SOL    HW222029   4.081   4.245  10.502
   4.50000   4.50000  11.10000
