2aCDOH_1PEG_l11
21951
    1LIG      O    1   2.211   2.275   0.025
    1LIG      C    2   2.294   2.293   0.148
    1LIG     C1    3   2.221   2.239   0.280
    1LIG     O1    4   2.282   2.290   0.404
    1LIG     C2    5   2.222   2.235   0.527
    1LIG     C3    6   2.295   2.282   0.659
    1LIG     O2    7   2.234   2.222   0.779
    1LIG     C4    8   2.289   2.274   0.905
    1LIG     C5    9   2.209   2.220   1.030
    1LIG     O3   10   2.270   2.268   1.154
    1LIG     C6   11   2.211   2.218   1.278
    1LIG     C7   12   2.286   2.278   1.403
    1LIG     O4   13   2.216   2.243   1.526
    1LIG     C8   14   2.293   2.275   1.646
    1LIG     C9   15   2.216   2.225   1.773
    1LIG     O5   16   2.281   2.273   1.894
    1LIG    C10   17   2.223   2.221   2.017
    1LIG    C11   18   2.300   2.275   2.142
    1LIG     O6   19   2.247   2.213   2.263
    1LIG    C12   20   2.294   2.280   2.384
    1LIG    C13   21   2.217   2.228   2.510
    1LIG     O7   22   2.286   2.270   2.631
    1LIG    C14   23   2.214   2.245   2.754
    1LIG    C15   24   2.297   2.301   2.877
    1LIG     O8   25   2.249   2.246   3.003
    1LIG    C16   26   2.308   2.302   3.123
    1LIG    C17   27   2.236   2.240   3.247
    1LIG     O9   28   2.282   2.303   3.370
    1LIG    C18   29   2.225   2.241   3.489
    1LIG    C19   30   2.299   2.289   3.617
    1LIG    O10   31   2.231   2.243   3.736
    1LIG    C20   32   2.296   2.289   3.858
    1LIG    C21   33   2.217   2.240   3.984
    1LIG    O11   34   2.274   2.294   4.106
    1LIG    C22   35   2.213   2.237   4.225
    1LIG    C23   36   2.290   2.281   4.354
    1LIG    O12   37   2.230   2.220   4.471
    1LIG    C24   38   2.284   2.275   4.594
    1LIG    C25   39   2.207   2.219   4.717
    1LIG    O13   40   2.267   2.266   4.840
    1LIG    C26   41   2.200   2.217   4.959
    1LIG    C27   42   2.274   2.269   5.086
    1LIG    O14   43   2.204   2.231   5.208
    1LIG    C28   44   2.268   2.287   5.325
    1LIG    C29   45   2.204   2.236   5.458
    1LIG    O15   46   2.285   2.276   5.573
    1LIG    C30   47   2.225   2.236   5.698
    1LIG    C31   48   2.303   2.282   5.825
    1LIG    O16   49   2.234   2.230   5.943
    1LIG    C32   50   2.288   2.272   6.072
    1LIG    C33   51   2.203   2.213   6.191
    1LIG    O17   52   2.255   2.263   6.317
    1LIG    C34   53   2.182   2.223   6.436
    1LIG    C35   54   2.252   2.284   6.563
    1LIG    O18   55   2.186   2.247   6.687
    1LIG    C36   56   2.258   2.295   6.804
    1LIG    C37   57   2.204   2.224   6.932
    1LIG    O19   58   2.252   2.291   7.051
    1LIG    C38   59   2.208   2.226   7.173
    1LIG    C39   60   2.289   2.278   7.296
    1LIG    O20   61   2.228   2.233   7.419
    1LIG    C40   62   2.295   2.283   7.539
    1LIG    C41   63   2.219   2.233   7.666
    1LIG    O21   64   2.286   2.272   7.787
    1LIG    C42   65   2.214   2.231   7.906
    1LIG    C43   66   2.287   2.281   8.034
    1LIG    O22   67   2.232   2.218   8.153
    1LIG    C44   68   2.286   2.276   8.274
    1LIG    C45   69   2.210   2.220   8.400
    1LIG    O23   70   2.268   2.276   8.521
    1LIG    C46   71   2.214   2.219   8.644
    1LIG    C47   72   2.289   2.280   8.767
    1LIG    O24   73   2.217   2.252   8.890
    1LIG    C48   74   2.295   2.282   9.010
    1LIG    C49   75   2.223   2.228   9.138
    1LIG    O25   76   2.293   2.273   9.258
    1LIG    C50   77   2.231   2.228   9.382
    1LIG    C51   78   2.309   2.279   9.508
    1LIG    O26   79   2.249   2.224   9.629
    1LIG    C52   80   2.293   2.288   9.753
    1LIG    C53   81   2.210   2.234   9.875
    1LIG    O27   82   2.272   2.270  10.003
    1LIG    C54   83   2.205   2.220  10.124
    1LIG    C55   84   2.279   2.275  10.254
    1LIG    O28   85   2.215   2.234  10.379
    1LIG    C56   86   2.276   2.288  10.501
    1LIG    C57   87   2.212   2.221  10.630
    1LIG    O29   88   2.260   2.277  10.758
    1LIG    C58   89   2.195   2.215  10.876
    1LIG    C59   90   2.283   2.218  11.009
    1LIG      H   91   2.315   2.400   0.160
    1LIG     H1   92   2.390   2.241   0.137
    1LIG     H2   93   2.228   2.130   0.280
    1LIG     H3   94   2.115   2.267   0.277
    1LIG     H4   95   2.226   2.126   0.521
    1LIG     H5   96   2.116   2.264   0.531
    1LIG     H6   97   2.290   2.391   0.667
    1LIG     H7   98   2.401   2.253   0.655
    1LIG     H8   99   2.283   2.384   0.905
    1LIG     H9  100   2.394   2.245   0.914
    1LIG    H10  101   2.211   2.110   1.030
    1LIG    H11  102   2.105   2.253   1.025
    1LIG    H12  103   2.217   2.109   1.280
    1LIG    H13  104   2.105   2.247   1.282
    1LIG    H14  105   2.291   2.387   1.395
    1LIG    H15  106   2.387   2.239   1.406
    1LIG    H16  107   2.308   2.383   1.653
    1LIG    H17  108   2.391   2.226   1.642
    1LIG    H18  109   2.213   2.116   1.773
    1LIG    H19  110   2.113   2.263   1.770
    1LIG    H20  111   2.226   2.111   2.016
    1LIG    H21  112   2.119   2.253   2.024
    1LIG    H22  113   2.287   2.383   2.147
    1LIG    H23  114   2.407   2.252   2.133
    1LIG    H24  115   2.280   2.388   2.375
    1LIG    H25  116   2.401   2.260   2.396
    1LIG    H26  117   2.212   2.118   2.508
    1LIG    H27  118   2.115   2.268   2.509
    1LIG    H28  119   2.198   2.137   2.766
    1LIG    H29  120   2.116   2.295   2.751
    1LIG    H30  121   2.290   2.410   2.879
    1LIG    H31  122   2.402   2.273   2.865
    1LIG    H32  123   2.294   2.411   3.124
    1LIG    H33  124   2.415   2.280   3.126
    1LIG    H34  125   2.255   2.132   3.250
    1LIG    H35  126   2.129   2.257   3.236
    1LIG    H36  127   2.232   2.132   3.482
    1LIG    H37  128   2.118   2.268   3.496
    1LIG    H38  129   2.302   2.399   3.618
    1LIG    H39  130   2.401   2.251   3.616
    1LIG    H40  131   2.300   2.398   3.858
    1LIG    H41  132   2.399   2.251   3.863
    1LIG    H42  133   2.221   2.131   3.988
    1LIG    H43  134   2.112   2.271   3.977
    1LIG    H44  135   2.217   2.128   4.216
    1LIG    H45  136   2.108   2.267   4.231
    1LIG    H46  137   2.285   2.389   4.363
    1LIG    H47  138   2.395   2.250   4.346
    1LIG    H48  139   2.275   2.385   4.593
    1LIG    H49  140   2.391   2.249   4.602
    1LIG    H50  141   2.209   2.109   4.715
    1LIG    H51  142   2.102   2.252   4.712
    1LIG    H52  143   2.201   2.108   4.959
    1LIG    H53  144   2.096   2.252   4.961
    1LIG    H54  145   2.282   2.378   5.081
    1LIG    H55  146   2.376   2.228   5.087
    1LIG    H56  147   2.260   2.396   5.321
    1LIG    H57  148   2.374   2.259   5.323
    1LIG    H58  149   2.196   2.127   5.456
    1LIG    H59  150   2.103   2.277   5.467
    1LIG    H60  151   2.220   2.127   5.700
    1LIG    H61  152   2.123   2.275   5.704
    1LIG    H62  153   2.307   2.391   5.828
    1LIG    H63  154   2.406   2.243   5.823
    1LIG    H64  155   2.285   2.381   6.080
    1LIG    H65  156   2.392   2.239   6.080
    1LIG    H66  157   2.208   2.104   6.189
    1LIG    H67  158   2.098   2.244   6.180
    1LIG    H68  159   2.181   2.113   6.444
    1LIG    H69  160   2.079   2.259   6.430
    1LIG    H70  161   2.253   2.393   6.555
    1LIG    H71  162   2.356   2.248   6.567
    1LIG    H72  163   2.244   2.404   6.813
    1LIG    H73  164   2.365   2.276   6.794
    1LIG    H74  165   2.236   2.119   6.932
    1LIG    H75  166   2.094   2.227   6.931
    1LIG    H76  167   2.221   2.117   7.165
    1LIG    H77  168   2.101   2.247   7.188
    1LIG    H78  169   2.291   2.388   7.295
    1LIG    H79  170   2.392   2.241   7.290
    1LIG    H80  171   2.297   2.392   7.537
    1LIG    H81  172   2.399   2.247   7.540
    1LIG    H82  173   2.214   2.123   7.663
    1LIG    H83  174   2.116   2.271   7.665
    1LIG    H84  175   2.209   2.121   7.907
    1LIG    H85  176   2.111   2.270   7.903
    1LIG    H86  177   2.276   2.390   8.041
    1LIG    H87  178   2.394   2.258   8.026
    1LIG    H88  179   2.275   2.385   8.271
    1LIG    H89  180   2.393   2.252   8.282
    1LIG    H90  181   2.218   2.111   8.402
    1LIG    H91  182   2.104   2.248   8.394
    1LIG    H92  183   2.227   2.110   8.643
    1LIG    H93  184   2.107   2.243   8.651
    1LIG    H94  185   2.297   2.389   8.755
    1LIG    H95  186   2.391   2.239   8.772
    1LIG    H96  187   2.308   2.390   9.018
    1LIG    H97  188   2.395   2.238   9.002
    1LIG    H98  189   2.221   2.119   9.135
    1LIG    H99  190   2.120   2.265   9.140
    1LIG   H100  191   2.228   2.118   9.382
    1LIG   H101  192   2.129   2.265   9.386
    1LIG   H102  193   2.303   2.389   9.510
    1LIG   H103  194   2.414   2.250   9.502
    1LIG   H104  195   2.281   2.397   9.746
    1LIG   H105  196   2.400   2.265   9.768
    1LIG   H106  197   2.207   2.125   9.867
    1LIG   H107  198   2.108   2.272   9.870
    1LIG   H108  199   2.207   2.110  10.124
    1LIG   H109  200   2.101   2.253  10.125
    1LIG   H110  201   2.281   2.384  10.249
    1LIG   H111  202   2.382   2.238  10.253
    1LIG   H112  203   2.260   2.397  10.504
    1LIG   H113  204   2.384   2.270  10.500
    1LIG   H114  205   2.233   2.113  10.627
    1LIG   H115  206   2.103   2.233  10.625
    1LIG   H116  207   2.174   2.110  10.853
    1LIG   H117  208   2.099   2.265  10.893
    1LIG   H118  209   2.376   2.272  10.991
    1LIG   H119  210   2.309   2.114  11.034
    2MOL     C1  211   2.801   2.247   5.039
    2MOL     H1  212   2.887   2.313   5.053
    2MOL     O1  213   2.774   2.172   5.158
    2MOL     C2  214   2.655   2.090   5.155
    2MOL     H2  215   2.567   2.153   5.136
    2MOL     C3  216   2.639   2.026   5.295
    2MOL     H3  217   2.739   2.015   5.339
    2MOL     H4  218   2.597   1.925   5.286
    2MOL     O2  219   2.556   2.105   5.379
    2MOL     H5  220   2.473   2.054   5.387
    2MOL     C4  221   2.828   2.149   4.922
    2MOL     H6  222   2.916   2.087   4.947
    2MOL     O3  223   2.852   2.223   4.802
    2MOL     H7  224   2.795   2.304   4.813
    2MOL     C5  225   2.706   2.056   4.904
    2MOL     H8  226   2.621   2.119   4.872
    2MOL     O4  227   2.728   1.955   4.804
    2MOL     H9  228   2.783   1.994   4.733
    2MOL     C6  229   2.668   1.989   5.037
    2MOL    H10  230   2.744   1.914   5.062
    2MOL     O5  231   2.539   1.931   5.012
    2MOL     C7  232   2.524   1.793   5.046
    2MOL    H11  233   2.622   1.745   5.058
    2MOL     O6  234   2.447   1.786   5.168
    2MOL     C8  235   2.319   1.856   5.163
    2MOL    H12  236   2.334   1.962   5.140
    2MOL     C9  237   2.253   1.845   5.303
    2MOL    H13  238   2.245   1.739   5.330
    2MOL    H14  239   2.152   1.886   5.298
    2MOL     O7  240   2.327   1.914   5.404
    2MOL    H15  241   2.262   1.914   5.476
    2MOL    C10  242   2.450   1.723   4.931
    2MOL    H16  243   2.444   1.617   4.957
    2MOL     O8  244   2.518   1.739   4.806
    2MOL    H17  245   2.591   1.804   4.821
    2MOL    C11  246   2.306   1.779   4.919
    2MOL    H18  247   2.314   1.881   4.878
    2MOL     O9  248   2.231   1.697   4.830
    2MOL    H19  249   2.291   1.666   4.760
    2MOL    C12  250   2.234   1.788   5.054
    2MOL    H20  251   2.209   1.689   5.092
    2MOL    O10  252   2.115   1.864   5.031
    2MOL    C13  253   1.990   1.791   5.037
    2MOL    H21  254   2.008   1.683   5.046
    2MOL    O11  255   1.917   1.840   5.151
    2MOL    C14  256   1.895   1.984   5.152
    2MOL    H22  257   1.992   2.037   5.158
    2MOL    C15  258   1.814   2.019   5.279
    2MOL    H23  259   1.807   2.128   5.289
    2MOL    H24  260   1.867   1.981   5.367
    2MOL    O12  261   1.682   1.962   5.272
    2MOL    H25  262   1.629   2.012   5.340
    2MOL    C16  263   1.906   1.818   4.909
    2MOL    H26  264   1.808   1.769   4.921
    2MOL    O13  265   1.967   1.769   4.792
    2MOL    H27  266   2.064   1.754   4.814
    2MOL    C17  267   1.883   1.970   4.893
    2MOL    H28  268   1.982   2.016   4.879
    2MOL    O14  269   1.800   1.998   4.779
    2MOL    H29  270   1.829   1.936   4.709
    2MOL    C18  271   1.821   2.028   5.022
    2MOL    H30  272   1.717   1.995   5.026
    2MOL    O15  273   1.831   2.170   5.005
    2MOL    C19  274   1.711   2.245   5.025
    2MOL    H31  275   1.622   2.181   5.031
    2MOL    O16  276   1.726   2.321   5.147
    2MOL    C20  277   1.842   2.408   5.153
    2MOL    H32  278   1.934   2.348   5.148
    2MOL    C21  279   1.840   2.483   5.288
    2MOL    H33  280   1.925   2.552   5.294
    2MOL    H34  281   1.852   2.410   5.368
    2MOL    O17  282   1.718   2.555   5.307
    2MOL    H35  283   1.733   2.651   5.285
    2MOL    C22  284   1.693   2.343   4.907
    2MOL    H36  285   1.603   2.404   4.926
    2MOL    O18  286   1.679   2.273   4.784
    2MOL    H37  287   1.725   2.186   4.797
    2MOL    C23  288   1.815   2.436   4.896
    2MOL    H38  289   1.902   2.373   4.875
    2MOL    O19  290   1.798   2.533   4.789
    2MOL    H39  291   1.796   2.481   4.705
    2MOL    C24  292   1.841   2.505   5.032
    2MOL    H40  293   1.763   2.579   5.049
    2MOL    O20  294   1.970   2.565   5.017
    2MOL    C25  295   1.983   2.706   5.044
    2MOL    H41  296   1.885   2.753   5.059
    2MOL    O21  297   2.064   2.721   5.163
    2MOL    C26  298   2.193   2.654   5.155
    2MOL    H42  299   2.177   2.547   5.134
    2MOL    C27  300   2.269   2.661   5.291
    2MOL    H43  301   2.344   2.582   5.293
    2MOL    H44  302   2.198   2.641   5.373
    2MOL    O22  303   2.334   2.785   5.311
    2MOL    H45  304   2.429   2.761   5.305
    2MOL    C28  305   2.055   2.773   4.924
    2MOL    H46  306   2.064   2.881   4.944
    2MOL    O23  307   1.980   2.753   4.805
    2MOL    H47  308   1.929   2.670   4.821
    2MOL    C29  309   2.195   2.713   4.904
    2MOL    H48  310   2.183   2.608   4.876
    2MOL    O24  311   2.266   2.784   4.801
    2MOL    H49  312   2.200   2.806   4.733
    2MOL    C30  313   2.272   2.716   5.038
    2MOL    H50  314   2.298   2.820   5.062
    2MOL    O25  315   2.388   2.636   5.015
    2MOL    C31  316   2.514   2.699   5.043
    2MOL    H51  317   2.503   2.807   5.058
    2MOL    O26  318   2.567   2.637   5.163
    2MOL    C32  319   2.591   2.493   5.156
    2MOL    H52  320   2.496   2.441   5.143
    2MOL    C33  321   2.652   2.449   5.292
    2MOL    H53  322   2.713   2.530   5.332
    2MOL    H54  323   2.719   2.364   5.279
    2MOL    O27  324   2.550   2.416   5.386
    2MOL    H55  325   2.559   2.319   5.404
    2MOL    C34  326   2.607   2.674   4.922
    2MOL    H56  327   2.705   2.719   4.941
    2MOL    O28  328   2.549   2.728   4.804
    2MOL    H57  329   2.452   2.732   4.820
    2MOL    C35  330   2.627   2.523   4.904
    2MOL    H58  331   2.529   2.477   4.883
    2MOL    O29  332   2.715   2.496   4.796
    2MOL    H59  333   2.673   2.535   4.717
    2MOL    C36  334   2.682   2.462   5.033
    2MOL    H60  335   2.783   2.501   5.049
    2MOL    O30  336   2.682   2.321   5.007
    3MOL     C1  337   1.691   2.250   6.067
    3MOL     H1  338   1.600   2.312   6.059
    3MOL     O1  339   1.714   2.175   5.945
    3MOL     C2  340   1.836   2.096   5.944
    3MOL     H2  341   1.923   2.160   5.963
    3MOL     C3  342   1.853   2.032   5.803
    3MOL     H3  343   1.756   2.020   5.756
    3MOL     H4  344   1.896   1.932   5.812
    3MOL     O2  345   1.939   2.112   5.722
    3MOL     H5  346   2.024   2.063   5.721
    3MOL     C4  347   1.673   2.151   6.185
    3MOL     H6  348   1.584   2.090   6.167
    3MOL     O3  349   1.660   2.222   6.308
    3MOL     H7  350   1.696   2.312   6.294
    3MOL     C5  351   1.796   2.057   6.194
    3MOL     H8  352   1.883   2.119   6.222
    3MOL     O4  353   1.775   1.959   6.294
    3MOL     H9  354   1.749   2.013   6.372
    3MOL     C6  355   1.829   1.991   6.058
    3MOL    H10  356   1.752   1.916   6.035
    3MOL     O5  357   1.959   1.932   6.074
    3MOL     C7  358   1.974   1.793   6.043
    3MOL    H11  359   1.877   1.745   6.029
    3MOL     O6  360   2.054   1.781   5.923
    3MOL     C8  361   2.184   1.847   5.930
    3MOL    H12  362   2.171   1.954   5.950
    3MOL     C9  363   2.256   1.830   5.794
    3MOL    H13  364   2.265   1.723   5.770
    3MOL    H14  365   2.358   1.870   5.803
    3MOL     O7  366   2.190   1.899   5.689
    3MOL    H15  367   2.259   1.958   5.655
    3MOL    C10  368   2.047   1.724   6.160
    3MOL    H16  369   2.054   1.616   6.139
    3MOL     O8  370   1.975   1.745   6.280
    3MOL    H17  371   1.900   1.807   6.259
    3MOL    C11  372   2.189   1.781   6.178
    3MOL    H18  373   2.179   1.884   6.214
    3MOL     O9  374   2.263   1.703   6.273
    3MOL    H19  375   2.202   1.676   6.344
    3MOL    C12  376   2.266   1.784   6.045
    3MOL    H20  377   2.292   1.681   6.017
    3MOL    O10  378   2.382   1.865   6.068
    3MOL    C13  379   2.509   1.800   6.053
    3MOL    H21  380   2.497   1.692   6.040
    3MOL    O11  381   2.574   1.856   5.937
    3MOL    C14  382   2.601   1.999   5.940
    3MOL    H22  383   2.506   2.053   5.941
    3MOL    C15  384   2.679   2.034   5.811
    3MOL    H23  385   2.692   2.143   5.805
    3MOL    H24  386   2.620   2.003   5.725
    3MOL    O12  387   2.807   1.969   5.808
    3MOL    H25  388   2.846   1.983   5.719
    3MOL    C16  389   2.596   1.825   6.178
    3MOL    H26  390   2.694   1.778   6.163
    3MOL    O13  391   2.534   1.770   6.293
    3MOL    H27  392   2.436   1.768   6.275
    3MOL    C17  393   2.620   1.975   6.198
    3MOL    H28  394   2.521   2.023   6.214
    3MOL    O14  395   2.703   1.999   6.314
    3MOL    H29  396   2.659   1.949   6.385
    3MOL    C18  397   2.680   2.035   6.070
    3MOL    H30  398   2.784   2.001   6.061
    3MOL    O15  399   2.672   2.176   6.089
    3MOL    C19  400   2.795   2.249   6.074
    3MOL    H31  401   2.881   2.182   6.067
    3MOL    O16  402   2.785   2.330   5.955
    3MOL    C20  403   2.669   2.415   5.949
    3MOL    H32  404   2.578   2.354   5.946
    3MOL    C21  405   2.676   2.497   5.819
    3MOL    H33  406   2.582   2.552   5.804
    3MOL    H34  407   2.687   2.429   5.734
    3MOL    O17  408   2.786   2.590   5.822
    3MOL    H35  409   2.781   2.637   5.735
    3MOL    C22  410   2.811   2.340   6.196
    3MOL    H36  411   2.903   2.398   6.184
    3MOL    O18  412   2.816   2.262   6.315
    3MOL    H37  413   2.762   2.182   6.293
    3MOL    C23  414   2.690   2.435   6.207
    3MOL    H38  415   2.602   2.372   6.227
    3MOL    O19  416   2.707   2.531   6.313
    3MOL    H39  417   2.744   2.478   6.387
    3MOL    C24  418   2.663   2.507   6.074
    3MOL    H40  419   2.737   2.588   6.064
    3MOL    O20  420   2.529   2.557   6.087
    3MOL    C25  421   2.511   2.697   6.057
    3MOL    H41  422   2.608   2.744   6.042
    3MOL    O21  423   2.430   2.709   5.937
    3MOL    C26  424   2.300   2.645   5.943
    3MOL    H42  425   2.315   2.540   5.967
    3MOL    C27  426   2.229   2.651   5.804
    3MOL    H43  427   2.173   2.558   5.792
    3MOL    H44  428   2.303   2.656   5.724
    3MOL    O22  429   2.134   2.758   5.793
    3MOL    H45  430   2.050   2.710   5.809
    3MOL    C28  431   2.438   2.765   6.175
    3MOL    H46  432   2.431   2.872   6.153
    3MOL    O23  433   2.509   2.745   6.296
    3MOL    H47  434   2.580   2.679   6.279
    3MOL    C29  435   2.296   2.708   6.191
    3MOL    H48  436   2.306   2.603   6.223
    3MOL    O24  437   2.223   2.782   6.289
    3MOL    H49  438   2.277   2.786   6.371
    3MOL    C30  439   2.220   2.710   6.059
    3MOL    H50  440   2.198   2.814   6.033
    3MOL    O25  441   2.101   2.635   6.085
    3MOL    C31  442   1.977   2.704   6.062
    3MOL    H51  443   1.995   2.812   6.051
    3MOL    O26  444   1.918   2.648   5.943
    3MOL    C32  445   1.894   2.505   5.949
    3MOL    H52  446   1.989   2.451   5.965
    3MOL    C33  447   1.837   2.461   5.813
    3MOL    H53  448   1.773   2.541   5.774
    3MOL    H54  449   1.775   2.371   5.824
    3MOL    O27  450   1.943   2.434   5.721
    3MOL    H55  451   1.942   2.337   5.708
    3MOL    C34  452   1.881   2.685   6.182
    3MOL    H56  453   1.788   2.738   6.160
    3MOL    O28  454   1.940   2.738   6.300
    3MOL    H57  455   2.038   2.731   6.289
    3MOL    C35  456   1.850   2.536   6.202
    3MOL    H58  457   1.944   2.486   6.229
    3MOL    O29  458   1.754   2.517   6.308
    3MOL    H59  459   1.794   2.561   6.386
    3MOL    C36  460   1.800   2.472   6.070
    3MOL    H60  461   1.698   2.505   6.048
    3MOL    O30  462   1.807   2.330   6.094
    4SOL     OW  463   0.242   0.598   0.110
    4SOL    HW1  464   0.167   0.591   0.169
    4SOL    HW2  465   0.206   0.638   0.031
    5SOL     OW  466   0.194   0.294   0.989
    5SOL    HW1  467   0.229   0.269   1.075
    5SOL    HW2  468   0.129   0.226   0.969
    6SOL     OW  469   0.002   0.382   0.639
    6SOL    HW1  470   4.427   0.421   0.684
    6SOL    HW2  471   4.466   0.310   0.589
    7SOL     OW  472   0.567   1.288   1.176
    7SOL    HW1  473   0.480   1.294   1.137
    7SOL    HW2  474   0.584   1.376   1.211
    8SOL     OW  475   1.561   1.512   0.707
    8SOL    HW1  476   1.519   1.492   0.790
    8SOL    HW2  477   1.490   1.516   0.644
    9SOL     OW  478   1.135   0.699   0.698
    9SOL    HW1  479   1.181   0.782   0.688
    9SOL    HW2  480   1.084   0.708   0.778
   10SOL     OW  481   1.777   0.602   0.216
   10SOL    HW1  482   1.720   0.608   0.139
   10SOL    HW2  483   1.738   0.532   0.268
   11SOL     OW  484   0.754   1.142   1.041
   11SOL    HW1  485   0.685   1.177   1.098
   11SOL    HW2  486   0.790   1.218   0.997
   12SOL     OW  487   0.866   0.772   1.821
   12SOL    HW1  488   0.852   0.843   1.884
   12SOL    HW2  489   0.890   0.817   1.740
   13SOL     OW  490   0.685   1.003   0.647
   13SOL    HW1  491   0.751   0.990   0.715
   13SOL    HW2  492   0.616   1.054   0.689
   14SOL     OW  493   0.711   1.150   1.813
   14SOL    HW1  494   0.758   1.229   1.840
   14SOL    HW2  495   0.629   1.182   1.776
   15SOL     OW  496   0.335   1.420   1.069
   15SOL    HW1  497   0.253   1.402   1.022
   15SOL    HW2  498   0.385   1.475   1.008
   16SOL     OW  499   1.461   1.500   1.354
   16SOL    HW1  500   1.512   1.580   1.363
   16SOL    HW2  501   1.399   1.503   1.427
   17SOL     OW  502   0.440   0.395   1.489
   17SOL    HW1  503   0.529   0.360   1.490
   17SOL    HW2  504   0.385   0.320   1.513
   18SOL     OW  505   1.610   0.446   0.739
   18SOL    HW1  506   1.529   0.465   0.693
   18SOL    HW2  507   1.627   0.524   0.792
   19SOL     OW  508   0.245   1.691   0.482
   19SOL    HW1  509   0.232   1.778   0.520
   19SOL    HW2  510   0.308   1.705   0.411
   20SOL     OW  511   1.136   1.341   1.693
   20SOL    HW1  512   1.177   1.337   1.779
   20SOL    HW2  513   1.084   1.262   1.686
   21SOL     OW  514   0.245   1.427   0.528
   21SOL    HW1  515   0.240   1.522   0.528
   21SOL    HW2  516   0.180   1.400   0.593
   22SOL     OW  517   0.247   1.082   0.883
   22SOL    HW1  518   0.264   0.992   0.911
   22SOL    HW2  519   0.187   1.117   0.950
   23SOL     OW  520   0.613   1.791   1.431
   23SOL    HW1  521   0.529   1.773   1.475
   23SOL    HW2  522   0.633   1.881   1.455
   24SOL     OW  523   0.570   0.995   0.150
   24SOL    HW1  524   0.620   1.033   0.077
   24SOL    HW2  525   0.619   1.022   0.228
   25SOL     OW  526   1.581   0.116   1.470
   25SOL    HW1  527   1.605   0.185   1.408
   25SOL    HW2  528   1.571   0.162   1.554
   26SOL     OW  529   0.136   0.644   0.574
   26SOL    HW1  530   0.084   0.566   0.594
   26SOL    HW2  531   0.110   0.708   0.641
   27SOL     OW  532   1.841   1.761   0.331
   27SOL    HW1  533   1.904   1.730   0.396
   27SOL    HW2  534   1.868   1.851   0.313
   28SOL     OW  535   0.074   1.590   0.150
   28SOL    HW1  536   0.039   1.501   0.158
   28SOL    HW2  537   0.028   1.639   0.218
   29SOL     OW  538   1.690   0.919   0.641
   29SOL    HW1  539   1.773   0.878   0.619
   29SOL    HW2  540   1.667   0.971   0.564
   30SOL     OW  541   1.647   1.105   0.432
   30SOL    HW1  542   1.729   1.116   0.384
   30SOL    HW2  543   1.651   1.167   0.504
   31SOL     OW  544   0.105   0.765   1.579
   31SOL    HW1  545   0.195   0.760   1.548
   31SOL    HW2  546   0.092   0.858   1.602
   32SOL     OW  547   0.614   1.386   0.736
   32SOL    HW1  548   0.567   1.303   0.746
   32SOL    HW2  549   0.597   1.413   0.646
   33SOL     OW  550   1.288   1.238   1.423
   33SOL    HW1  551   1.321   1.171   1.363
   33SOL    HW2  552   1.346   1.232   1.499
   34SOL     OW  553   0.822   0.011   0.553
   34SOL    HW1  554   0.860   0.089   0.513
   34SOL    HW2  555   0.727   0.022   0.543
   35SOL     OW  556   0.179   0.940   1.279
   35SOL    HW1  557   0.271   0.923   1.259
   35SOL    HW2  558   0.133   0.928   1.196
   36SOL     OW  559   1.516   1.001   0.204
   36SOL    HW1  560   1.452   0.941   0.240
   36SOL    HW2  561   1.566   1.032   0.280
   37SOL     OW  562   1.185   1.807   1.622
   37SOL    HW1  563   1.197   1.865   1.548
   37SOL    HW2  564   1.202   1.719   1.587
   38SOL     OW  565   0.318   0.260   1.768
   38SOL    HW1  566   0.386   0.311   1.813
   38SOL    HW2  567   0.241   0.267   1.825
   39SOL     OW  568   1.466   1.419   0.951
   39SOL    HW1  569   1.398   1.435   1.017
   39SOL    HW2  570   1.454   1.328   0.925
   40SOL     OW  571   1.660   1.739   0.578
   40SOL    HW1  572   1.638   1.710   0.489
   40SOL    HW2  573   1.634   1.666   0.634
   41SOL     OW  574   0.594   0.719   0.263
   41SOL    HW1  575   0.598   0.801   0.215
   41SOL    HW2  576   0.532   0.735   0.334
   42SOL     OW  577   1.289   0.363   0.934
   42SOL    HW1  578   1.199   0.333   0.922
   42SOL    HW2  579   1.328   0.301   0.995
   43SOL     OW  580   1.581   1.670   0.312
   43SOL    HW1  581   1.672   1.701   0.304
   43SOL    HW2  582   1.555   1.652   0.222
   44SOL     OW  583   0.797   0.618   1.454
   44SOL    HW1  584   0.769   0.592   1.542
   44SOL    HW2  585   0.754   0.555   1.396
   45SOL     OW  586   1.388   0.479   1.676
   45SOL    HW1  587   1.392   0.524   1.761
   45SOL    HW2  588   1.455   0.411   1.682
   46SOL     OW  589   0.954   0.888   1.583
   46SOL    HW1  590   1.009   0.817   1.547
   46SOL    HW2  591   0.907   0.922   1.507
   47SOL     OW  592   0.998   0.417   1.235
   47SOL    HW1  593   0.911   0.426   1.274
   47SOL    HW2  594   0.983   0.367   1.155
   48SOL     OW  595   1.050   0.701   0.427
   48SOL    HW1  596   1.067   0.692   0.521
   48SOL    HW2  597   0.967   0.654   0.414
   49SOL     OW  598   0.098   0.824   0.784
   49SOL    HW1  599   0.184   0.812   0.824
   49SOL    HW2  600   0.042   0.853   0.856
   50SOL     OW  601   0.122   1.860   1.577
   50SOL    HW1  602   0.116   1.835   1.670
   50SOL    HW2  603   0.046   1.818   1.537
   51SOL     OW  604   0.879   0.361   0.204
   51SOL    HW1  605   0.930   0.415   0.143
   51SOL    HW2  606   0.906   0.272   0.185
   52SOL     OW  607   1.704   0.573   1.828
   52SOL    HW1  608   1.668   0.648   1.780
   52SOL    HW2  609   1.740   0.516   1.760
   53SOL     OW  610   1.378   1.142   0.541
   53SOL    HW1  611   1.456   1.129   0.487
   53SOL    HW2  612   1.324   1.204   0.492
   54SOL     OW  613   0.540   0.205   0.899
   54SOL    HW1  614   0.561   0.223   0.991
   54SOL    HW2  615   0.536   0.291   0.858
   55SOL     OW  616   1.004   1.444   0.473
   55SOL    HW1  617   0.968   1.517   0.424
   55SOL    HW2  618   0.985   1.465   0.565
   56SOL     OW  619   0.356   1.811   0.860
   56SOL    HW1  620   0.398   1.726   0.869
   56SOL    HW2  621   0.426   1.874   0.875
   57SOL     OW  622   1.800   1.056   0.868
   57SOL    HW1  623   1.744   1.039   0.792
   57SOL    HW2  624   1.738   1.062   0.941
   58SOL     OW  625   1.228   1.539   1.513
   58SOL    HW1  626   1.214   1.466   1.574
   58SOL    HW2  627   1.164   1.524   1.443
   59SOL     OW  628   0.312   0.955   0.279
   59SOL    HW1  629   0.395   0.983   0.240
   59SOL    HW2  630   0.309   0.861   0.264
   60SOL     OW  631   1.480   0.741   0.723
   60SOL    HW1  632   1.469   0.699   0.808
   60SOL    HW2  633   1.556   0.798   0.734
   61SOL     OW  634   0.468   1.263   1.735
   61SOL    HW1  635   0.441   1.269   1.644
   61SOL    HW2  636   0.386   1.267   1.785
   62SOL     OW  637   1.108   1.779   0.227
   62SOL    HW1  638   1.047   1.728   0.280
   62SOL    HW2  639   1.149   1.715   0.169
   63SOL     OW  640   0.162   0.266   1.510
   63SOL    HW1  641   0.135   0.353   1.481
   63SOL    HW2  642   0.197   0.279   1.598
   64SOL     OW  643   1.628   1.374   0.089
   64SOL    HW1  644   1.585   1.459   0.077
   64SOL    HW2  645   1.563   1.310   0.060
   65SOL     OW  646   0.468   1.741   0.318
   65SOL    HW1  647   0.508   1.799   0.384
   65SOL    HW2  648   0.542   1.712   0.264
   66SOL     OW  649   1.420   0.138   0.425
   66SOL    HW1  650   1.400   0.102   0.338
   66SOL    HW2  651   1.516   0.135   0.429
   67SOL     OW  652   0.255   1.788   1.233
   67SOL    HW1  653   0.304   1.713   1.269
   67SOL    HW2  654   0.225   1.759   1.148
   68SOL     OW  655   0.938   1.699   0.899
   68SOL    HW1  656   1.015   1.647   0.920
   68SOL    HW2  657   0.894   1.649   0.830
   69SOL     OW  658   0.393   0.692   0.469
   69SOL    HW1  659   0.419   0.601   0.484
   69SOL    HW2  660   0.302   0.696   0.499
   70SOL     OW  661   1.525   0.233   1.723
   70SOL    HW1  662   1.525   0.255   1.816
   70SOL    HW2  663   1.447   0.179   1.711
   71SOL     OW  664   0.601   0.103   0.122
   71SOL    HW1  665   0.694   0.082   0.120
   71SOL    HW2  666   0.567   0.071   0.038
   72SOL     OW  667   0.768   0.270   1.754
   72SOL    HW1  668   0.835   0.202   1.761
   72SOL    HW2  669   0.729   0.274   1.842
   73SOL     OW  670   0.877   1.522   1.194
   73SOL    HW1  671   0.861   1.486   1.106
   73SOL    HW2  672   0.946   1.467   1.230
   74SOL     OW  673   1.341   0.589   1.429
   74SOL    HW1  674   1.369   0.561   1.516
   74SOL    HW2  675   1.375   0.678   1.421
   75SOL     OW  676   0.816   1.394   0.940
   75SOL    HW1  677   0.900   1.383   0.896
   75SOL    HW2  678   0.751   1.396   0.869
   76SOL     OW  679   0.924   0.517   0.900
   76SOL    HW1  680   0.907   0.518   0.806
   76SOL    HW2  681   0.962   0.431   0.916
   77SOL     OW  682   0.563   0.069   0.513
   77SOL    HW1  683   0.475   0.056   0.549
   77SOL    HW2  684   0.551   0.137   0.446
   78SOL     OW  685   1.425   1.196   0.029
   78SOL    HW1  686   1.456   1.124   0.085
   78SOL    HW2  687   1.342   1.223   0.069
   79SOL     OW  688   0.297   0.054   0.191
   79SOL    HW1  689   0.377   0.088   0.151
   79SOL    HW2  690   0.328   4.499   0.263
   80SOL     OW  691   0.952   0.227   0.445
   80SOL    HW1  692   0.906   0.290   0.390
   80SOL    HW2  693   1.042   0.261   0.451
   81SOL     OW  694   1.081   0.681   1.460
   81SOL    HW1  695   1.010   0.617   1.460
   81SOL    HW2  696   1.161   0.630   1.449
   82SOL     OW  697   1.223   1.570   0.794
   82SOL    HW1  698   1.239   1.636   0.727
   82SOL    HW2  699   1.291   1.585   0.860
   83SOL     OW  700   0.468   1.150   0.739
   83SOL    HW1  701   0.398   1.131   0.800
   83SOL    HW2  702   0.429   1.137   0.652
   84SOL     OW  703   1.269   1.794   0.607
   84SOL    HW1  704   1.315   1.856   0.550
   84SOL    HW2  705   1.203   1.847   0.651
   85SOL     OW  706   1.020   0.531   0.037
   85SOL    HW1  707   0.982   0.616   0.015
   85SOL    HW2  708   1.093   0.551   0.095
   86SOL     OW  709   0.094   0.516   1.413
   86SOL    HW1  710   0.151   0.524   1.337
   86SOL    HW2  711   0.059   0.604   1.426
   87SOL     OW  712   0.561   0.245   1.166
   87SOL    HW1  713   0.592   0.162   1.203
   87SOL    HW2  714   0.467   0.246   1.184
   88SOL     OW  715   0.860   0.511   0.630
   88SOL    HW1  716   0.823   0.544   0.548
   88SOL    HW2  717   0.830   0.420   0.635
   89SOL     OW  718   0.958   0.029   0.787
   89SOL    HW1  719   0.911   0.025   0.703
   89SOL    HW2  720   0.981   4.438   0.805
   90SOL     OW  721   1.437   1.162   0.857
   90SOL    HW1  722   1.368   1.096   0.856
   90SOL    HW2  723   1.461   1.173   0.765
   91SOL     OW  724   1.466   0.605   0.974
   91SOL    HW1  725   1.411   0.526   0.976
   91SOL    HW2  726   1.523   0.597   1.050
   92SOL     OW  727   1.850   0.813   0.378
   92SOL    HW1  728   1.902   0.763   0.440
   92SOL    HW2  729   1.821   0.749   0.313
   93SOL     OW  730   0.495   1.423   0.174
   93SOL    HW1  731   0.415   1.398   0.221
   93SOL    HW2  732   0.491   1.373   0.092
   94SOL     OW  733   1.671   1.265   0.647
   94SOL    HW1  734   1.765   1.268   0.659
   94SOL    HW2  735   1.640   1.353   0.667
   95SOL     OW  736   1.391   0.574   0.077
   95SOL    HW1  737   1.328   0.556   0.147
   95SOL    HW2  738   1.458   0.506   0.088
   96SOL     OW  739   0.524   0.262   0.325
   96SOL    HW1  740   0.557   0.204   0.257
   96SOL    HW2  741   0.510   0.345   0.281
   97SOL     OW  742   1.753   1.239   1.573
   97SOL    HW1  743   1.840   1.200   1.568
   97SOL    HW2  744   1.768   1.330   1.600
   98SOL     OW  745   1.058   1.353   1.333
   98SOL    HW1  746   0.983   1.323   1.384
   98SOL    HW2  747   1.134   1.312   1.375
   99SOL     OW  748   1.608   1.624   1.654
   99SOL    HW1  749   1.602   1.661   1.565
   99SOL    HW2  750   1.692   1.578   1.655
  100SOL     OW  751   1.129   1.204   1.105
  100SOL    HW1  752   1.070   1.242   1.170
  100SOL    HW2  753   1.097   1.236   1.021
  101SOL     OW  754   1.628   1.098   1.077
  101SOL    HW1  755   1.623   1.160   1.150
  101SOL    HW2  756   1.550   1.115   1.025
  102SOL     OW  757   0.901   0.134   1.387
  102SOL    HW1  758   0.923   0.089   1.305
  102SOL    HW2  759   0.985   0.150   1.430
  103SOL     OW  760   0.984   1.114   1.723
  103SOL    HW1  761   0.892   1.131   1.745
  103SOL    HW2  762   0.982   1.037   1.667
  104SOL     OW  763   0.711   1.059   0.374
  104SOL    HW1  764   0.698   1.043   0.468
  104SOL    HW2  765   0.786   1.005   0.351
  105SOL     OW  766   0.430   0.827   1.242
  105SOL    HW1  767   0.499   0.837   1.308
  105SOL    HW2  768   0.372   0.760   1.278
  106SOL     OW  769   1.269   0.375   1.274
  106SOL    HW1  770   1.301   0.454   1.318
  106SOL    HW2  771   1.180   0.397   1.247
  107SOL     OW  772   0.063   1.576   1.345
  107SOL    HW1  773   0.037   1.665   1.320
  107SOL    HW2  774   0.158   1.579   1.348
  108SOL     OW  775   0.345   1.119   0.499
  108SOL    HW1  776   0.350   1.193   0.439
  108SOL    HW2  777   0.339   1.042   0.443
  109SOL     OW  778   0.563   0.525   0.852
  109SOL    HW1  779   0.575   0.586   0.780
  109SOL    HW2  780   0.624   0.556   0.920
  110SOL     OW  781   1.247   1.346   0.395
  110SOL    HW1  782   1.303   1.419   0.423
  110SOL    HW2  783   1.160   1.369   0.427
  111SOL     OW  784   1.281   1.458   1.147
  111SOL    HW1  785   1.337   1.461   1.225
  111SOL    HW2  786   1.226   1.381   1.160
  112SOL     OW  787   1.585   0.627   0.476
  112SOL    HW1  788   1.534   0.668   0.546
  112SOL    HW2  789   1.619   0.701   0.425
  113SOL     OW  790   0.347   1.532   1.314
  113SOL    HW1  791   0.333   1.484   1.232
  113SOL    HW2  792   0.442   1.541   1.321
  114SOL     OW  793   0.486   0.758   1.671
  114SOL    HW1  794   0.511   0.796   1.587
  114SOL    HW2  795   0.534   0.676   1.676
  115SOL     OW  796   1.601   0.778   1.681
  115SOL    HW1  797   1.516   0.820   1.675
  115SOL    HW2  798   1.654   0.820   1.613
  116SOL     OW  799   1.003   0.086   1.718
  116SOL    HW1  800   1.037   0.168   1.681
  116SOL    HW2  801   1.028   0.019   1.654
  117SOL     OW  802   0.495   0.044   1.752
  117SOL    HW1  803   0.481   4.497   1.670
  117SOL    HW2  804   0.429   0.113   1.752
  118SOL     OW  805   0.589   0.875   1.024
  118SOL    HW1  806   0.620   0.965   1.026
  118SOL    HW2  807   0.534   0.866   1.101
  119SOL     OW  808   1.357   0.858   1.029
  119SOL    HW1  809   1.274   0.849   0.984
  119SOL    HW2  810   1.398   0.772   1.022
  120SOL     OW  811   1.199   0.532   0.265
  120SOL    HW1  812   1.208   0.454   0.319
  120SOL    HW2  813   1.157   0.596   0.322
  121SOL     OW  814   0.284   0.215   1.234
  121SOL    HW1  815   0.245   0.233   1.319
  121SOL    HW2  816   0.326   0.129   1.244
  122SOL     OW  817   0.037   1.313   1.286
  122SOL    HW1  818   0.074   1.265   1.360
  122SOL    HW2  819   0.043   1.405   1.311
  123SOL     OW  820   0.723   0.630   1.057
  123SOL    HW1  821   0.798   0.611   1.000
  123SOL    HW2  822   0.698   0.719   1.032
  124SOL     OW  823   1.735   0.959   1.853
  124SOL    HW1  824   1.688   0.898   1.795
  124SOL    HW2  825   1.675   0.973   1.927
  125SOL     OW  826   0.318   0.073   0.628
  125SOL    HW1  827   0.302   0.162   0.661
  125SOL    HW2  828   0.308   0.017   0.705
  126SOL     OW  829   1.619   0.378   0.362
  126SOL    HW1  830   1.645   0.313   0.427
  126SOL    HW2  831   1.594   0.455   0.414
  127SOL     OW  832   1.029   0.761   0.961
  127SOL    HW1  833   1.025   0.778   1.055
  127SOL    HW2  834   1.000   0.671   0.950
  128SOL     OW  835   0.982   1.566   1.717
  128SOL    HW1  836   0.967   1.610   1.634
  128SOL    HW2  837   1.025   1.484   1.694
  129SOL     OW  838   1.856   1.503   1.604
  129SOL    HW1  839   1.870   1.534   1.515
  129SOL    HW2  840   1.937   1.526   1.650
  130SOL     OW  841   0.347   0.934   1.818
  130SOL    HW1  842   0.418   0.965   1.873
  130SOL    HW2  843   0.386   0.866   1.763
  131SOL     OW  844   1.532   0.297   0.109
  131SOL    HW1  845   1.475   0.222   0.125
  131SOL    HW2  846   1.567   0.319   0.196
  132SOL     OW  847   1.287   0.821   0.032
  132SOL    HW1  848   1.331   0.737   0.042
  132SOL    HW2  849   1.321   0.857  11.050
  133SOL     OW  850   1.066   1.335   0.854
  133SOL    HW1  851   1.069   1.263   0.791
  133SOL    HW2  852   1.127   1.400   0.819
  134SOL     OW  853   0.319   0.813   0.946
  134SOL    HW1  854   0.413   0.830   0.944
  134SOL    HW2  855   0.312   0.722   0.976
  135SOL     OW  856   0.334   0.531   0.988
  135SOL    HW1  857   0.290   0.448   0.970
  135SOL    HW2  858   0.412   0.529   0.933
  136SOL     OW  859   1.136   0.373   1.697
  136SOL    HW1  860   1.085   0.437   1.748
  136SOL    HW2  861   1.221   0.415   1.684
  137SOL     OW  862   1.156   0.213   1.473
  137SOL    HW1  863   1.150   0.277   1.544
  137SOL    HW2  864   1.197   0.261   1.401
  138SOL     OW  865   4.497   1.324   0.202
  138SOL    HW1  866   4.403   1.343   0.194
  138SOL    HW2  867   0.000   1.232   0.229
  139SOL     OW  868   0.097   1.775   0.940
  139SOL    HW1  869   0.059   1.725   0.868
  139SOL    HW2  870   0.185   1.796   0.909
  140SOL     OW  871   0.496   1.574   0.907
  140SOL    HW1  872   0.564   1.637   0.931
  140SOL    HW2  873   0.540   1.511   0.850
  141SOL     OW  874   0.983   0.793   1.227
  141SOL    HW1  875   1.039   0.770   1.301
  141SOL    HW2  876   0.898   0.754   1.248
  142SOL     OW  877   0.035   0.566   1.109
  142SOL    HW1  878   0.113   0.527   1.069
  142SOL    HW2  879   0.014   0.508   1.182
  143SOL     OW  880   0.179   0.525   1.713
  143SOL    HW1  881   0.267   0.508   1.679
  143SOL    HW2  882   0.152   0.605   1.668
  144SOL     OW  883   1.378   0.938   1.658
  144SOL    HW1  884   1.398   1.032   1.656
  144SOL    HW2  885   1.374   0.913   1.566
  145SOL     OW  886   0.811   0.577   0.361
  145SOL    HW1  887   0.820   0.501   0.303
  145SOL    HW2  888   0.738   0.626   0.324
  146SOL     OW  889   1.640   0.601   1.186
  146SOL    HW1  890   1.630   0.542   1.260
  146SOL    HW2  891   1.727   0.582   1.151
  147SOL     OW  892   0.272   1.562   1.740
  147SOL    HW1  893   0.216   1.613   1.798
  147SOL    HW2  894   0.254   1.471   1.763
  148SOL     OW  895   0.688   0.464   1.266
  148SOL    HW1  896   0.648   0.384   1.231
  148SOL    HW2  897   0.693   0.522   1.191
  149SOL     OW  898   0.927   1.679   1.468
  149SOL    HW1  899   0.902   1.644   1.382
  149SOL    HW2  900   0.923   1.774   1.457
  150SOL     OW  901   0.475   0.483   0.179
  150SOL    HW1  902   0.531   0.557   0.203
  150SOL    HW2  903   0.391   0.523   0.159
  151SOL     OW  904   0.161   1.140   1.461
  151SOL    HW1  905   0.145   1.096   1.544
  151SOL    HW2  906   0.169   1.070   1.396
  152SOL     OW  907   1.326   1.046   1.223
  152SOL    HW1  908   1.349   0.983   1.155
  152SOL    HW2  909   1.256   1.099   1.184
  153SOL     OW  910   1.309   0.852   0.310
  153SOL    HW1  911   1.233   0.821   0.359
  153SOL    HW2  912   1.285   0.838   0.218
  154SOL     OW  913   1.765   1.743   1.147
  154SOL    HW1  914   1.828   1.771   1.080
  154SOL    HW2  915   1.747   1.651   1.125
  155SOL     OW  916   1.241   1.733   1.111
  155SOL    HW1  917   1.323   1.754   1.068
  155SOL    HW2  918   1.247   1.639   1.130
  156SOL     OW  919   0.066   1.184   1.050
  156SOL    HW1  920   0.063   1.216   1.140
  156SOL    HW2  921   0.027   1.254   0.998
  157SOL     OW  922   0.679   1.666   1.730
  157SOL    HW1  923   0.623   1.743   1.724
  157SOL    HW2  924   0.743   1.677   1.660
  158SOL     OW  925   0.878   0.066   0.124
  158SOL    HW1  926   0.964   0.094   0.094
  158SOL    HW2  927   0.896   0.012   0.201
  159SOL     OW  928   1.720   0.134   0.495
  159SOL    HW1  929   1.792   0.141   0.432
  159SOL    HW2  930   1.741   0.057   0.548
  160SOL     OW  931   1.390   1.568   0.486
  160SOL    HW1  932   1.451   1.600   0.419
  160SOL    HW2  933   1.342   1.646   0.514
  161SOL     OW  934   0.118   1.808   1.848
  161SOL    HW1  935   0.078   1.735   1.896
  161SOL    HW2  936   0.182   1.845   1.909
  162SOL     OW  937   1.279   0.928   0.673
  162SOL    HW1  938   1.352   0.866   0.677
  162SOL    HW2  939   1.312   1.000   0.620
  163SOL     OW  940   0.814   1.274   1.429
  163SOL    HW1  941   0.786   1.313   1.512
  163SOL    HW2  942   0.744   1.296   1.368
  164SOL     OW  943   0.674   1.621   0.168
  164SOL    HW1  944   0.688   1.629   0.074
  164SOL    HW2  945   0.617   1.545   0.178
  165SOL     OW  946   1.623   1.726   1.389
  165SOL    HW1  947   1.675   1.734   1.309
  165SOL    HW2  948   1.611   1.816   1.419
  166SOL     OW  949   1.839   0.154   0.966
  166SOL    HW1  950   1.867   0.075   0.919
  166SOL    HW2  951   1.752   0.173   0.930
  167SOL     OW  952   0.263   0.323   0.722
  167SOL    HW1  953   0.180   0.359   0.690
  167SOL    HW2  954   0.250   0.315   0.816
  168SOL     OW  955   1.223   1.601   0.053
  168SOL    HW1  956   1.210   1.509   0.073
  168SOL    HW2  957   1.158   1.621  11.085
  169SOL     OW  958   0.825   1.007   1.372
  169SOL    HW1  959   0.868   1.003   1.287
  169SOL    HW2  960   0.824   1.100   1.394
  170SOL     OW  961   0.913   0.906   0.281
  170SOL    HW1  962   0.980   0.946   0.225
  170SOL    HW2  963   0.962   0.842   0.334
  171SOL     OW  964   1.499   1.622   0.047
  171SOL    HW1  965   1.403   1.617   0.045
  171SOL    HW2  966   1.524   1.638  11.056
  172SOL     OW  967   0.373   1.308   1.491
  172SOL    HW1  968   0.356   1.386   1.439
  172SOL    HW2  969   0.298   1.251   1.474
  173SOL     OW  970   1.610   1.283   1.280
  173SOL    HW1  971   1.671   1.273   1.353
  173SOL    HW2  972   1.550   1.352   1.308
  174SOL     OW  973   1.052   1.107   0.706
  174SOL    HW1  974   0.982   1.056   0.746
  174SOL    HW2  975   1.116   1.042   0.677
  175SOL     OW  976   1.010   0.242   1.000
  175SOL    HW1  977   1.010   0.214   0.908
  175SOL    HW2  978   1.001   0.161   1.050
  176SOL     OW  979   0.603   1.490   0.483
  176SOL    HW1  980   0.643   1.440   0.412
  176SOL    HW2  981   0.530   1.536   0.441
  177SOL     OW  982   1.722   0.394   1.377
  177SOL    HW1  983   1.795   0.456   1.376
  177SOL    HW2  984   1.751   0.322   1.320
  178SOL     OW  985   0.264   1.328   0.283
  178SOL    HW1  986   0.176   1.339   0.247
  178SOL    HW2  987   0.259   1.368   0.370
  179SOL     OW  988   0.115   1.006   1.695
  179SOL    HW1  989   0.052   1.051   1.752
  179SOL    HW2  990   0.194   0.998   1.748
  180SOL     OW  991   0.658   0.210   1.498
  180SOL    HW1  992   0.737   0.183   1.451
  180SOL    HW2  993   0.687   0.226   1.588
  181SOL     OW  994   0.050   0.339   0.015
  181SOL    HW1  995   4.460   0.329   0.044
  181SOL    HW2  996   0.068   0.433   0.027
  182SOL     OW  997   1.429   0.858   1.400
  182SOL    HW1  998   1.381   0.919   1.344
  182SOL    HW2  999   1.519   0.861   1.365
  183SOL     OW 1000   0.081   0.182   0.294
  183SOL    HW1 1001   0.084   0.264   0.245
  183SOL    HW2 1002   0.159   0.135   0.266
  184SOL     OW 1003   1.183   1.339   0.122
  184SOL    HW1 1004   1.089   1.322   0.114
  184SOL    HW2 1005   1.201   1.331   0.216
  185SOL     OW 1006   0.624   0.830   1.431
  185SOL    HW1 1007   0.679   0.907   1.417
  185SOL    HW2 1008   0.686   0.758   1.439
  186SOL     OW 1009   1.485   1.776   0.979
  186SOL    HW1 1010   1.509   1.837   0.909
  186SOL    HW2 1011   1.567   1.761   1.026
  187SOL     OW 1012   0.712   0.563   1.705
  187SOL    HW1 1013   0.753   0.628   1.762
  187SOL    HW2 1014   0.746   0.479   1.736
  188SOL     OW 1015   1.472   1.199   1.632
  188SOL    HW1 1016   1.459   1.214   1.726
  188SOL    HW2 1017   1.565   1.215   1.617
  189SOL     OW 1018   0.379   1.744   1.565
  189SOL    HW1 1019   0.294   1.785   1.546
  189SOL    HW2 1020   0.357   1.664   1.613
  190SOL     OW 1021   1.670   0.881   1.255
  190SOL    HW1 1022   1.661   0.796   1.212
  190SOL    HW2 1023   1.659   0.945   1.185
  191SOL     OW 1024   1.218   0.328   0.447
  191SOL    HW1 1025   1.285   0.260   0.436
  191SOL    HW2 1026   1.244   0.374   0.527
  192SOL     OW 1027   0.584   0.737   0.671
  192SOL    HW1 1028   0.627   0.822   0.657
  192SOL    HW2 1029   0.519   0.732   0.602
  193SOL     OW 1030   1.762   0.366   1.644
  193SOL    HW1 1031   1.746   0.380   1.550
  193SOL    HW2 1032   1.684   0.320   1.675
  194SOL     OW 1033   1.745   0.933   1.512
  194SOL    HW1 1034   1.742   1.028   1.526
  194SOL    HW2 1035   1.730   0.922   1.418
  195SOL     OW 1036   0.905   1.356   0.070
  195SOL    HW1 1037   0.835   1.354   0.135
  195SOL    HW2 1038   0.891   1.437   0.021
  196SOL     OW 1039   0.661   1.791   0.945
  196SOL    HW1 1040   0.640   1.881   0.921
  196SOL    HW2 1041   0.756   1.785   0.936
  197SOL     OW 1042   0.868   0.968   0.854
  197SOL    HW1 1043   0.918   0.896   0.893
  197SOL    HW2 1044   0.833   1.015   0.929
  198SOL     OW 1045   1.079   0.989   0.085
  198SOL    HW1 1046   1.053   1.023  11.099
  198SOL    HW2 1047   1.155   0.934   0.068
  199SOL     OW 1048   1.855   1.554   0.844
  199SOL    HW1 1049   1.776   1.545   0.790
  199SOL    HW2 1050   1.842   1.492   0.916
  200SOL     OW 1051   0.231   1.305   1.858
  200SOL    HW1 1052   0.155   1.250   1.837
  200SOL    HW2 1053   0.227   1.316   1.953
  201SOL     OW 1054   0.105   1.229   0.669
  201SOL    HW1 1055   0.126   1.188   0.752
  201SOL    HW2 1056   0.171   1.194   0.608
  202SOL     OW 1057   0.682   1.403   1.629
  202SOL    HW1 1058   0.602   1.360   1.657
  202SOL    HW2 1059   0.677   1.491   1.666
  203SOL     OW 1060   1.808   0.181   1.238
  203SOL    HW1 1061   1.805   0.087   1.259
  203SOL    HW2 1062   1.824   0.184   1.144
  204SOL     OW 1063   0.439   0.431   0.530
  204SOL    HW1 1064   0.459   0.360   0.469
  204SOL    HW2 1065   0.382   0.391   0.596
  205SOL     OW 1066   1.703   1.485   1.091
  205SOL    HW1 1067   1.620   1.464   1.048
  205SOL    HW2 1068   1.712   1.419   1.160
  206SOL     OW 1069   0.309   0.503   1.252
  206SOL    HW1 1070   0.382   0.456   1.292
  206SOL    HW2 1071   0.336   0.516   1.161
  207SOL     OW 1072   0.828   1.578   0.678
  207SOL    HW1 1073   0.813   1.632   0.600
  207SOL    HW2 1074   0.751   1.520   0.681
  208SOL     OW 1075   1.432   0.217   1.117
  208SOL    HW1 1076   1.467   0.145   1.170
  208SOL    HW2 1077   1.381   0.269   1.179
  209SOL     OW 1078   0.996   0.008   1.151
  209SOL    HW1 1079   0.954   4.423   1.142
  209SOL    HW2 1080   1.088   4.488   1.162
  210SOL     OW 1081   0.768   1.328   0.317
  210SOL    HW1 1082   0.740   1.237   0.331
  210SOL    HW2 1083   0.852   1.334   0.363
  211SOL     OW 1084   0.621   1.556   1.286
  211SOL    HW1 1085   0.623   1.638   1.335
  211SOL    HW2 1086   0.708   1.549   1.247
  212SOL     OW 1087   1.351   0.058   0.169
  212SOL    HW1 1088   1.387   4.497   0.105
  212SOL    HW2 1089   1.270   0.017   0.199
  213SOL     OW 1090   1.316   0.463   0.677
  213SOL    HW1 1091   1.255   0.537   0.677
  213SOL    HW2 1092   1.302   0.421   0.762
  214SOL     OW 1093   1.586   0.200   0.868
  214SOL    HW1 1094   1.526   0.215   0.941
  214SOL    HW2 1095   1.588   0.283   0.821
  215SOL     OW 1096   0.038   1.051   0.284
  215SOL    HW1 1097   0.133   1.043   0.283
  215SOL    HW2 1098   0.012   1.021   0.371
  216SOL     OW 1099   0.886   1.654   0.346
  216SOL    HW1 1100   0.813   1.634   0.287
  216SOL    HW2 1101   0.855   1.727   0.399
  217SOL     OW 1102   0.246   0.627   1.984
  217SOL    HW1 1103   0.172   0.605   2.040
  217SOL    HW2 1104   0.213   0.615   1.895
  218SOL     OW 1105   0.193   0.294   2.851
  218SOL    HW1 1106   0.227   0.267   2.937
  218SOL    HW2 1107   0.131   0.224   2.827
  219SOL     OW 1108   0.003   0.383   2.501
  219SOL    HW1 1109   4.425   0.419   2.544
  219SOL    HW2 1110   4.470   0.311   2.448
  220SOL     OW 1111   0.568   1.288   3.038
  220SOL    HW1 1112   0.480   1.293   2.999
  220SOL    HW2 1113   0.583   1.376   3.073
  221SOL     OW 1114   1.562   1.512   2.570
  221SOL    HW1 1115   1.519   1.492   2.653
  221SOL    HW2 1116   1.490   1.516   2.506
  222SOL     OW 1117   1.135   0.698   2.560
  222SOL    HW1 1118   1.181   0.782   2.550
  222SOL    HW2 1119   1.085   0.708   2.641
  223SOL     OW 1120   1.768   0.606   2.089
  223SOL    HW1 1121   1.747   0.597   1.997
  223SOL    HW2 1122   1.735   0.526   2.130
  224SOL     OW 1123   0.754   1.142   2.903
  224SOL    HW1 1124   0.686   1.177   2.960
  224SOL    HW2 1125   0.790   1.218   2.859
  225SOL     OW 1126   0.866   0.772   3.683
  225SOL    HW1 1127   0.852   0.843   3.746
  225SOL    HW2 1128   0.890   0.817   3.602
  226SOL     OW 1129   0.685   1.003   2.509
  226SOL    HW1 1130   0.751   0.991   2.577
  226SOL    HW2 1131   0.616   1.054   2.551
  227SOL     OW 1132   0.711   1.150   3.675
  227SOL    HW1 1133   0.758   1.229   3.702
  227SOL    HW2 1134   0.629   1.182   3.638
  228SOL     OW 1135   0.335   1.421   2.931
  228SOL    HW1 1136   0.254   1.401   2.885
  228SOL    HW2 1137   0.385   1.475   2.870
  229SOL     OW 1138   1.461   1.500   3.216
  229SOL    HW1 1139   1.512   1.580   3.225
  229SOL    HW2 1140   1.399   1.503   3.289
  230SOL     OW 1141   0.440   0.395   3.352
  230SOL    HW1 1142   0.529   0.360   3.352
  230SOL    HW2 1143   0.385   0.320   3.375
  231SOL     OW 1144   1.610   0.445   2.601
  231SOL    HW1 1145   1.530   0.466   2.553
  231SOL    HW2 1146   1.628   0.523   2.653
  232SOL     OW 1147   0.245   1.691   2.339
  232SOL    HW1 1148   0.230   1.776   2.380
  232SOL    HW2 1149   0.315   1.708   2.275
  233SOL     OW 1150   1.136   1.341   3.555
  233SOL    HW1 1151   1.177   1.337   3.641
  233SOL    HW2 1152   1.084   1.262   3.548
  234SOL     OW 1153   0.250   1.426   2.389
  234SOL    HW1 1154   0.240   1.522   2.391
  234SOL    HW2 1155   0.187   1.394   2.454
  235SOL     OW 1156   0.248   1.082   2.746
  235SOL    HW1 1157   0.265   0.992   2.774
  235SOL    HW2 1158   0.188   1.117   2.812
  236SOL     OW 1159   0.612   1.791   3.293
  236SOL    HW1 1160   0.529   1.773   3.337
  236SOL    HW2 1161   0.633   1.881   3.317
  237SOL     OW 1162   0.578   0.988   2.001
  237SOL    HW1 1163   0.626   1.030   1.930
  237SOL    HW2 1164   0.623   1.016   2.081
  238SOL     OW 1165   1.581   0.116   3.332
  238SOL    HW1 1166   1.605   0.185   3.270
  238SOL    HW2 1167   1.571   0.161   3.416
  239SOL     OW 1168   0.136   0.644   2.436
  239SOL    HW1 1169   0.084   0.565   2.455
  239SOL    HW2 1170   0.108   0.707   2.502
  240SOL     OW 1171   1.843   1.760   2.195
  240SOL    HW1 1172   1.906   1.733   2.262
  240SOL    HW2 1173   1.867   1.850   2.175
  241SOL     OW 1174   0.032   1.602   2.004
  241SOL    HW1 1175   0.021   1.508   2.000
  241SOL    HW2 1176   0.025   1.624   2.097
  242SOL     OW 1177   1.691   0.920   2.503
  242SOL    HW1 1178   1.773   0.877   2.481
  242SOL    HW2 1179   1.667   0.970   2.425
  243SOL     OW 1180   1.646   1.107   2.291
  243SOL    HW1 1181   1.732   1.112   2.249
  243SOL    HW2 1182   1.651   1.168   2.364
  244SOL     OW 1183   0.105   0.766   3.442
  244SOL    HW1 1184   0.195   0.760   3.410
  244SOL    HW2 1185   0.093   0.858   3.464
  245SOL     OW 1186   0.614   1.386   2.598
  245SOL    HW1 1187   0.567   1.303   2.608
  245SOL    HW2 1188   0.598   1.412   2.508
  246SOL     OW 1189   1.288   1.238   3.285
  246SOL    HW1 1190   1.321   1.171   3.225
  246SOL    HW2 1191   1.346   1.232   3.361
  247SOL     OW 1192   0.821   0.014   2.415
  247SOL    HW1 1193   0.856   0.100   2.389
  247SOL    HW2 1194   0.727   0.022   2.402
  248SOL     OW 1195   0.179   0.940   3.141
  248SOL    HW1 1196   0.271   0.923   3.121
  248SOL    HW2 1197   0.133   0.927   3.058
  249SOL     OW 1198   1.532   0.993   2.061
  249SOL    HW1 1199   1.461   0.937   2.093
  249SOL    HW2 1200   1.572   1.028   2.140
  250SOL     OW 1201   1.185   1.807   3.484
  250SOL    HW1 1202   1.197   1.865   3.410
  250SOL    HW2 1203   1.202   1.719   3.449
  251SOL     OW 1204   0.318   0.260   3.630
  251SOL    HW1 1205   0.385   0.311   3.674
  251SOL    HW2 1206   0.241   0.267   3.687
  252SOL     OW 1207   1.466   1.419   2.813
  252SOL    HW1 1208   1.398   1.435   2.879
  252SOL    HW2 1209   1.453   1.328   2.787
  253SOL     OW 1210   1.660   1.739   2.439
  253SOL    HW1 1211   1.637   1.709   2.351
  253SOL    HW2 1212   1.634   1.667   2.496
  254SOL     OW 1213   0.595   0.723   2.128
  254SOL    HW1 1214   0.597   0.805   2.078
  254SOL    HW2 1215   0.530   0.737   2.196
  255SOL     OW 1216   1.292   0.365   2.795
  255SOL    HW1 1217   1.202   0.334   2.778
  255SOL    HW2 1218   1.327   0.301   2.857
  256SOL     OW 1219   1.580   1.671   2.171
  256SOL    HW1 1220   1.670   1.701   2.163
  256SOL    HW2 1221   1.553   1.653   2.081
  257SOL     OW 1222   0.797   0.618   3.316
  257SOL    HW1 1223   0.769   0.593   3.404
  257SOL    HW2 1224   0.755   0.555   3.258
  258SOL     OW 1225   1.388   0.479   3.538
  258SOL    HW1 1226   1.392   0.524   3.623
  258SOL    HW2 1227   1.455   0.411   3.544
  259SOL     OW 1228   0.954   0.888   3.445
  259SOL    HW1 1229   1.009   0.817   3.409
  259SOL    HW2 1230   0.907   0.922   3.369
  260SOL     OW 1231   0.998   0.417   3.097
  260SOL    HW1 1232   0.910   0.425   3.135
  260SOL    HW2 1233   0.985   0.365   3.018
  261SOL     OW 1234   1.050   0.698   2.289
  261SOL    HW1 1235   1.067   0.690   2.383
  261SOL    HW2 1236   0.967   0.651   2.275
  262SOL     OW 1237   0.097   0.826   2.646
  262SOL    HW1 1238   0.184   0.812   2.684
  262SOL    HW2 1239   0.042   0.851   2.720
  263SOL     OW 1240   0.122   1.860   3.439
  263SOL    HW1 1241   0.116   1.835   3.532
  263SOL    HW2 1242   0.046   1.818   3.399
  264SOL     OW 1243   0.853   0.369   2.043
  264SOL    HW1 1244   0.926   0.403   1.991
  264SOL    HW2 1245   0.870   0.275   2.048
  265SOL     OW 1246   1.704   0.573   3.690
  265SOL    HW1 1247   1.668   0.648   3.642
  265SOL    HW2 1248   1.740   0.516   3.622
  266SOL     OW 1249   1.378   1.142   2.403
  266SOL    HW1 1250   1.456   1.130   2.350
  266SOL    HW2 1251   1.324   1.205   2.353
  267SOL     OW 1252   0.541   0.205   2.762
  267SOL    HW1 1253   0.562   0.224   2.854
  267SOL    HW2 1254   0.533   0.291   2.721
  268SOL     OW 1255   1.005   1.444   2.334
  268SOL    HW1 1256   0.968   1.517   2.284
  268SOL    HW2 1257   0.987   1.465   2.425
  269SOL     OW 1258   0.356   1.811   2.721
  269SOL    HW1 1259   0.398   1.725   2.731
  269SOL    HW2 1260   0.426   1.874   2.737
  270SOL     OW 1261   1.799   1.057   2.730
  270SOL    HW1 1262   1.745   1.038   2.653
  270SOL    HW2 1263   1.737   1.063   2.802
  271SOL     OW 1264   1.228   1.539   3.375
  271SOL    HW1 1265   1.214   1.466   3.436
  271SOL    HW2 1266   1.165   1.524   3.305
  272SOL     OW 1267   0.315   0.954   2.116
  272SOL    HW1 1268   0.399   0.977   2.076
  272SOL    HW2 1269   0.301   0.863   2.089
  273SOL     OW 1270   1.480   0.742   2.586
  273SOL    HW1 1271   1.469   0.699   2.671
  273SOL    HW2 1272   1.556   0.799   2.598
  274SOL     OW 1273   0.468   1.263   3.597
  274SOL    HW1 1274   0.441   1.269   3.506
  274SOL    HW2 1275   0.386   1.267   3.647
  275SOL     OW 1276   1.122   1.778   2.093
  275SOL    HW1 1277   1.049   1.736   2.138
  275SOL    HW2 1278   1.145   1.716   2.023
  276SOL     OW 1279   0.162   0.266   3.372
  276SOL    HW1 1280   0.135   0.353   3.343
  276SOL    HW2 1281   0.197   0.279   3.460
  277SOL     OW 1282   1.628   1.381   1.950
  277SOL    HW1 1283   1.587   1.465   1.934
  277SOL    HW2 1284   1.560   1.316   1.931
  278SOL     OW 1285   0.469   1.742   2.176
  278SOL    HW1 1286   0.511   1.797   2.243
  278SOL    HW2 1287   0.541   1.708   2.124
  279SOL     OW 1288   1.422   0.140   2.280
  279SOL    HW1 1289   1.405   0.087   2.201
  279SOL    HW2 1290   1.516   0.132   2.295
  280SOL     OW 1291   0.256   1.788   3.095
  280SOL    HW1 1292   0.304   1.713   3.131
  280SOL    HW2 1293   0.225   1.758   3.010
  281SOL     OW 1294   0.938   1.699   2.761
  281SOL    HW1 1295   1.015   1.647   2.783
  281SOL    HW2 1296   0.894   1.649   2.692
  282SOL     OW 1297   0.394   0.693   2.334
  282SOL    HW1 1298   0.419   0.601   2.348
  282SOL    HW2 1299   0.302   0.697   2.360
  283SOL     OW 1300   1.525   0.233   3.585
  283SOL    HW1 1301   1.525   0.255   3.678
  283SOL    HW2 1302   1.447   0.179   3.573
  284SOL     OW 1303   0.625   0.120   1.980
  284SOL    HW1 1304   0.714   0.085   1.992
  284SOL    HW2 1305   0.595   0.083   1.898
  285SOL     OW 1306   0.768   0.270   3.616
  285SOL    HW1 1307   0.835   0.202   3.623
  285SOL    HW2 1308   0.729   0.274   3.704
  286SOL     OW 1309   0.877   1.522   3.056
  286SOL    HW1 1310   0.861   1.486   2.969
  286SOL    HW2 1311   0.946   1.467   3.092
  287SOL     OW 1312   1.341   0.589   3.291
  287SOL    HW1 1313   1.369   0.561   3.378
  287SOL    HW2 1314   1.375   0.678   3.282
  288SOL     OW 1315   0.816   1.395   2.802
  288SOL    HW1 1316   0.900   1.383   2.758
  288SOL    HW2 1317   0.751   1.396   2.731
  289SOL     OW 1318   0.923   0.519   2.761
  289SOL    HW1 1319   0.907   0.517   2.667
  289SOL    HW2 1320   0.960   0.433   2.781
  290SOL     OW 1321   0.562   0.069   2.370
  290SOL    HW1 1322   0.476   0.055   2.409
  290SOL    HW2 1323   0.549   0.138   2.305
  291SOL     OW 1324   1.428   1.198   1.903
  291SOL    HW1 1325   1.458   1.123   1.953
  291SOL    HW2 1326   1.343   1.220   1.940
  292SOL     OW 1327   0.305   0.073   2.051
  292SOL    HW1 1328   0.388   0.119   2.049
  292SOL    HW2 1329   0.320   4.499   2.109
  293SOL     OW 1330   0.954   0.240   2.330
  293SOL    HW1 1331   0.902   0.297   2.274
  293SOL    HW2 1332   1.043   0.276   2.324
  294SOL     OW 1333   1.081   0.681   3.322
  294SOL    HW1 1334   1.010   0.617   3.322
  294SOL    HW2 1335   1.160   0.630   3.311
  295SOL     OW 1336   1.224   1.570   2.656
  295SOL    HW1 1337   1.240   1.637   2.589
  295SOL    HW2 1338   1.291   1.585   2.722
  296SOL     OW 1339   0.466   1.150   2.597
  296SOL    HW1 1340   0.396   1.131   2.659
  296SOL    HW2 1341   0.427   1.134   2.511
  297SOL     OW 1342   1.269   1.794   2.470
  297SOL    HW1 1343   1.315   1.855   2.413
  297SOL    HW2 1344   1.202   1.847   2.514
  298SOL     OW 1345   1.028   0.547   1.880
  298SOL    HW1 1346   0.980   0.628   1.864
  298SOL    HW2 1347   1.087   0.567   1.952
  299SOL     OW 1348   0.094   0.516   3.275
  299SOL    HW1 1349   0.151   0.523   3.199
  299SOL    HW2 1350   0.059   0.604   3.288
  300SOL     OW 1351   0.561   0.245   3.029
  300SOL    HW1 1352   0.591   0.162   3.066
  300SOL    HW2 1353   0.467   0.246   3.047
  301SOL     OW 1354   0.865   0.504   2.489
  301SOL    HW1 1355   0.822   0.544   2.414
  301SOL    HW2 1356   0.828   0.415   2.493
  302SOL     OW 1357   0.961   0.022   2.649
  302SOL    HW1 1358   0.913   0.023   2.566
  302SOL    HW2 1359   0.976   4.430   2.668
  303SOL     OW 1360   1.437   1.162   2.719
  303SOL    HW1 1361   1.367   1.096   2.719
  303SOL    HW2 1362   1.460   1.173   2.627
  304SOL     OW 1363   1.465   0.605   2.836
  304SOL    HW1 1364   1.411   0.526   2.838
  304SOL    HW2 1365   1.523   0.597   2.912
  305SOL     OW 1366   1.845   0.816   2.245
  305SOL    HW1 1367   1.902   0.765   2.303
  305SOL    HW2 1368   1.817   0.754   2.178
  306SOL     OW 1369   0.491   1.418   2.021
  306SOL    HW1 1370   0.414   1.389   2.069
  306SOL    HW2 1371   0.476   1.388   1.931
  307SOL     OW 1372   1.671   1.265   2.507
  307SOL    HW1 1373   1.766   1.268   2.521
  307SOL    HW2 1374   1.640   1.353   2.529
  308SOL     OW 1375   1.394   0.571   1.932
  308SOL    HW1 1376   1.333   0.555   2.003
  308SOL    HW2 1377   1.480   0.553   1.970
  309SOL     OW 1378   0.521   0.264   2.182
  309SOL    HW1 1379   0.571   0.215   2.117
  309SOL    HW2 1380   0.505   0.349   2.141
  310SOL     OW 1381   1.753   1.239   3.435
  310SOL    HW1 1382   1.840   1.200   3.430
  310SOL    HW2 1383   1.768   1.330   3.462
  311SOL     OW 1384   1.058   1.354   3.196
  311SOL    HW1 1385   0.983   1.323   3.246
  311SOL    HW2 1386   1.134   1.312   3.237
  312SOL     OW 1387   1.609   1.625   3.516
  312SOL    HW1 1388   1.602   1.661   3.427
  312SOL    HW2 1389   1.692   1.578   3.517
  313SOL     OW 1390   1.129   1.204   2.967
  313SOL    HW1 1391   1.070   1.242   3.032
  313SOL    HW2 1392   1.097   1.236   2.883
  314SOL     OW 1393   1.628   1.098   2.939
  314SOL    HW1 1394   1.623   1.160   3.012
  314SOL    HW2 1395   1.549   1.115   2.888
  315SOL     OW 1396   0.901   0.134   3.249
  315SOL    HW1 1397   0.923   0.089   3.167
  315SOL    HW2 1398   0.985   0.150   3.291
  316SOL     OW 1399   0.984   1.114   3.585
  316SOL    HW1 1400   0.892   1.131   3.607
  316SOL    HW2 1401   0.982   1.037   3.529
  317SOL     OW 1402   0.709   1.061   2.234
  317SOL    HW1 1403   0.696   1.045   2.328
  317SOL    HW2 1404   0.784   1.008   2.210
  318SOL     OW 1405   0.430   0.827   3.104
  318SOL    HW1 1406   0.499   0.837   3.170
  318SOL    HW2 1407   0.372   0.760   3.139
  319SOL     OW 1408   1.269   0.375   3.136
  319SOL    HW1 1409   1.301   0.454   3.180
  319SOL    HW2 1410   1.180   0.397   3.109
  320SOL     OW 1411   0.063   1.576   3.207
  320SOL    HW1 1412   0.037   1.665   3.182
  320SOL    HW2 1413   0.158   1.579   3.211
  321SOL     OW 1414   0.345   1.109   2.355
  321SOL    HW1 1415   0.356   1.183   2.295
  321SOL    HW2 1416   0.345   1.032   2.299
  322SOL     OW 1417   0.563   0.525   2.714
  322SOL    HW1 1418   0.575   0.586   2.642
  322SOL    HW2 1419   0.624   0.556   2.782
  323SOL     OW 1420   1.248   1.348   2.251
  323SOL    HW1 1421   1.304   1.420   2.282
  323SOL    HW2 1422   1.161   1.369   2.285
  324SOL     OW 1423   1.281   1.458   3.009
  324SOL    HW1 1424   1.337   1.461   3.087
  324SOL    HW2 1425   1.226   1.381   3.022
  325SOL     OW 1426   1.581   0.623   2.340
  325SOL    HW1 1427   1.534   0.673   2.407
  325SOL    HW2 1428   1.625   0.690   2.287
  326SOL     OW 1429   0.347   1.532   3.176
  326SOL    HW1 1430   0.333   1.484   3.094
  326SOL    HW2 1431   0.442   1.541   3.183
  327SOL     OW 1432   0.486   0.759   3.534
  327SOL    HW1 1433   0.511   0.797   3.449
  327SOL    HW2 1434   0.534   0.676   3.537
  328SOL     OW 1435   1.601   0.778   3.543
  328SOL    HW1 1436   1.516   0.820   3.537
  328SOL    HW2 1437   1.654   0.820   3.475
  329SOL     OW 1438   1.003   0.086   3.580
  329SOL    HW1 1439   1.037   0.167   3.543
  329SOL    HW2 1440   1.028   0.019   3.516
  330SOL     OW 1441   0.495   0.043   3.614
  330SOL    HW1 1442   0.481   4.497   3.532
  330SOL    HW2 1443   0.430   0.113   3.614
  331SOL     OW 1444   0.589   0.875   2.886
  331SOL    HW1 1445   0.620   0.965   2.888
  331SOL    HW2 1446   0.534   0.866   2.963
  332SOL     OW 1447   1.357   0.858   2.891
  332SOL    HW1 1448   1.273   0.849   2.846
  332SOL    HW2 1449   1.398   0.772   2.884
  333SOL     OW 1450   1.203   0.535   2.124
  333SOL    HW1 1451   1.209   0.455   2.176
  333SOL    HW2 1452   1.160   0.598   2.182
  334SOL     OW 1453   0.284   0.215   3.096
  334SOL    HW1 1454   0.244   0.233   3.181
  334SOL    HW2 1455   0.326   0.130   3.106
  335SOL     OW 1456   0.037   1.313   3.148
  335SOL    HW1 1457   0.075   1.265   3.222
  335SOL    HW2 1458   0.043   1.405   3.173
  336SOL     OW 1459   0.723   0.631   2.919
  336SOL    HW1 1460   0.798   0.611   2.863
  336SOL    HW2 1461   0.698   0.719   2.895
  337SOL     OW 1462   1.735   0.959   3.715
  337SOL    HW1 1463   1.688   0.898   3.657
  337SOL    HW2 1464   1.676   0.973   3.789
  338SOL     OW 1465   0.321   0.074   2.493
  338SOL    HW1 1466   0.303   0.162   2.523
  338SOL    HW2 1467   0.309   0.018   2.570
  339SOL     OW 1468   1.616   0.379   2.224
  339SOL    HW1 1469   1.644   0.315   2.289
  339SOL    HW2 1470   1.593   0.456   2.274
  340SOL     OW 1471   1.030   0.762   2.823
  340SOL    HW1 1472   1.025   0.778   2.917
  340SOL    HW2 1473   1.000   0.671   2.812
  341SOL     OW 1474   0.982   1.566   3.579
  341SOL    HW1 1475   0.967   1.610   3.496
  341SOL    HW2 1476   1.025   1.484   3.556
  342SOL     OW 1477   1.856   1.504   3.466
  342SOL    HW1 1478   1.871   1.533   3.377
  342SOL    HW2 1479   1.936   1.527   3.513
  343SOL     OW 1480   0.346   0.934   3.680
  343SOL    HW1 1481   0.418   0.965   3.735
  343SOL    HW2 1482   0.386   0.866   3.625
  344SOL     OW 1483   1.530   0.264   1.990
  344SOL    HW1 1484   1.459   0.208   2.020
  344SOL    HW2 1485   1.560   0.309   2.069
  345SOL     OW 1486   1.291   0.826   1.892
  345SOL    HW1 1487   1.333   0.740   1.895
  345SOL    HW2 1488   1.322   0.866   1.811
  346SOL     OW 1489   1.066   1.336   2.716
  346SOL    HW1 1490   1.069   1.263   2.653
  346SOL    HW2 1491   1.127   1.400   2.681
  347SOL     OW 1492   0.319   0.812   2.808
  347SOL    HW1 1493   0.413   0.830   2.806
  347SOL    HW2 1494   0.312   0.722   2.838
  348SOL     OW 1495   0.334   0.530   2.851
  348SOL    HW1 1496   0.289   0.448   2.832
  348SOL    HW2 1497   0.412   0.528   2.795
  349SOL     OW 1498   1.136   0.373   3.559
  349SOL    HW1 1499   1.085   0.437   3.609
  349SOL    HW2 1500   1.221   0.414   3.546
  350SOL     OW 1501   1.156   0.213   3.335
  350SOL    HW1 1502   1.150   0.277   3.406
  350SOL    HW2 1503   1.197   0.261   3.263
  351SOL     OW 1504   4.491   1.322   2.068
  351SOL    HW1 1505   4.399   1.338   2.050
  351SOL    HW2 1506   4.495   1.228   2.089
  352SOL     OW 1507   0.098   1.775   2.802
  352SOL    HW1 1508   0.059   1.724   2.731
  352SOL    HW2 1509   0.186   1.797   2.771
  353SOL     OW 1510   0.496   1.574   2.769
  353SOL    HW1 1511   0.564   1.637   2.793
  353SOL    HW2 1512   0.540   1.511   2.712
  354SOL     OW 1513   0.983   0.793   3.089
  354SOL    HW1 1514   1.039   0.770   3.163
  354SOL    HW2 1515   0.898   0.754   3.110
  355SOL     OW 1516   0.037   0.568   2.973
  355SOL    HW1 1517   0.112   0.526   2.930
  355SOL    HW2 1518   0.012   0.507   3.043
  356SOL     OW 1519   0.179   0.525   3.575
  356SOL    HW1 1520   0.267   0.507   3.540
  356SOL    HW2 1521   0.152   0.605   3.530
  357SOL     OW 1522   1.378   0.938   3.520
  357SOL    HW1 1523   1.399   1.032   3.519
  357SOL    HW2 1524   1.374   0.913   3.428
  358SOL     OW 1525   0.811   0.574   2.218
  358SOL    HW1 1526   0.815   0.503   2.154
  358SOL    HW2 1527   0.739   0.630   2.188
  359SOL     OW 1528   1.640   0.601   3.047
  359SOL    HW1 1529   1.630   0.542   3.122
  359SOL    HW2 1530   1.727   0.582   3.013
  360SOL     OW 1531   0.272   1.562   3.602
  360SOL    HW1 1532   0.216   1.613   3.660
  360SOL    HW2 1533   0.254   1.471   3.625
  361SOL     OW 1534   0.688   0.463   3.128
  361SOL    HW1 1535   0.648   0.384   3.094
  361SOL    HW2 1536   0.693   0.522   3.053
  362SOL     OW 1537   0.927   1.679   3.330
  362SOL    HW1 1538   0.902   1.644   3.244
  362SOL    HW2 1539   0.923   1.774   3.319
  363SOL     OW 1540   0.472   0.490   2.044
  363SOL    HW1 1541   0.532   0.561   2.068
  363SOL    HW2 1542   0.389   0.534   2.028
  364SOL     OW 1543   0.161   1.141   3.323
  364SOL    HW1 1544   0.145   1.096   3.406
  364SOL    HW2 1545   0.169   1.070   3.258
  365SOL     OW 1546   1.326   1.046   3.085
  365SOL    HW1 1547   1.349   0.983   3.017
  365SOL    HW2 1548   1.256   1.099   3.046
  366SOL     OW 1549   1.313   0.856   2.168
  366SOL    HW1 1550   1.237   0.828   2.219
  366SOL    HW2 1551   1.286   0.843   2.077
  367SOL     OW 1552   1.766   1.740   3.010
  367SOL    HW1 1553   1.830   1.770   2.946
  367SOL    HW2 1554   1.749   1.649   2.986
  368SOL     OW 1555   1.240   1.733   2.974
  368SOL    HW1 1556   1.323   1.754   2.930
  368SOL    HW2 1557   1.247   1.639   2.993
  369SOL     OW 1558   0.067   1.185   2.912
  369SOL    HW1 1559   0.064   1.216   3.002
  369SOL    HW2 1560   0.025   1.254   2.861
  370SOL     OW 1561   0.679   1.666   3.592
  370SOL    HW1 1562   0.623   1.743   3.585
  370SOL    HW2 1563   0.743   1.677   3.522
  371SOL     OW 1564   1.719   0.129   2.354
  371SOL    HW1 1565   1.789   0.139   2.290
  371SOL    HW2 1566   1.747   0.058   2.410
  372SOL     OW 1567   1.390   1.568   2.347
  372SOL    HW1 1568   1.450   1.600   2.280
  372SOL    HW2 1569   1.341   1.645   2.376
  373SOL     OW 1570   0.118   1.808   3.710
  373SOL    HW1 1571   0.078   1.735   3.758
  373SOL    HW2 1572   0.182   1.845   3.771
  374SOL     OW 1573   1.279   0.928   2.534
  374SOL    HW1 1574   1.351   0.866   2.540
  374SOL    HW2 1575   1.312   1.000   2.481
  375SOL     OW 1576   0.814   1.274   3.291
  375SOL    HW1 1577   0.786   1.313   3.374
  375SOL    HW2 1578   0.744   1.295   3.230
  376SOL     OW 1579   0.672   1.620   2.017
  376SOL    HW1 1580   0.682   1.632   1.923
  376SOL    HW2 1581   0.617   1.542   2.026
  377SOL     OW 1582   1.624   1.725   3.252
  377SOL    HW1 1583   1.675   1.734   3.171
  377SOL    HW2 1584   1.610   1.816   3.281
  378SOL     OW 1585   1.839   0.154   2.828
  378SOL    HW1 1586   1.868   0.076   2.780
  378SOL    HW2 1587   1.752   0.173   2.792
  379SOL     OW 1588   0.262   0.325   2.584
  379SOL    HW1 1589   0.179   0.359   2.551
  379SOL    HW2 1590   0.248   0.315   2.678
  380SOL     OW 1591   1.207   1.606   1.894
  380SOL    HW1 1592   1.198   1.514   1.920
  380SOL    HW2 1593   1.142   1.618   1.824
  381SOL     OW 1594   0.825   1.007   3.234
  381SOL    HW1 1595   0.868   1.003   3.149
  381SOL    HW2 1596   0.824   1.100   3.256
  382SOL     OW 1597   0.915   0.910   2.152
  382SOL    HW1 1598   0.977   0.942   2.086
  382SOL    HW2 1599   0.963   0.841   2.198
  383SOL     OW 1600   1.492   1.626   1.904
  383SOL    HW1 1601   1.397   1.619   1.890
  383SOL    HW2 1602   1.529   1.631   1.816
  384SOL     OW 1603   0.373   1.308   3.353
  384SOL    HW1 1604   0.356   1.386   3.301
  384SOL    HW2 1605   0.298   1.251   3.336
  385SOL     OW 1606   1.610   1.283   3.142
  385SOL    HW1 1607   1.671   1.273   3.215
  385SOL    HW2 1608   1.550   1.352   3.170
  386SOL     OW 1609   1.053   1.107   2.568
  386SOL    HW1 1610   0.982   1.057   2.608
  386SOL    HW2 1611   1.116   1.042   2.538
  387SOL     OW 1612   1.004   0.244   2.869
  387SOL    HW1 1613   1.010   0.223   2.776
  387SOL    HW2 1614   0.997   0.159   2.912
  388SOL     OW 1615   0.604   1.489   2.344
  388SOL    HW1 1616   0.647   1.439   2.274
  388SOL    HW2 1617   0.530   1.531   2.302
  389SOL     OW 1618   1.722   0.394   3.239
  389SOL    HW1 1619   1.795   0.456   3.238
  389SOL    HW2 1620   1.751   0.322   3.182
  390SOL     OW 1621   0.252   1.344   2.138
  390SOL    HW1 1622   0.157   1.342   2.124
  390SOL    HW2 1623   0.263   1.376   2.227
  391SOL     OW 1624   0.115   1.007   3.557
  391SOL    HW1 1625   0.053   1.051   3.614
  391SOL    HW2 1626   0.194   0.998   3.610
  392SOL     OW 1627   0.658   0.209   3.360
  392SOL    HW1 1628   0.737   0.182   3.313
  392SOL    HW2 1629   0.687   0.226   3.450
  393SOL     OW 1630   0.072   0.320   1.888
  393SOL    HW1 1631   4.478   0.328   1.904
  393SOL    HW2 1632   0.098   0.407   1.857
  394SOL     OW 1633   1.429   0.858   3.262
  394SOL    HW1 1634   1.381   0.919   3.206
  394SOL    HW2 1635   1.519   0.861   3.227
  395SOL     OW 1636   0.085   0.188   2.164
  395SOL    HW1 1637   0.076   0.261   2.103
  395SOL    HW2 1638   0.165   0.143   2.136
  396SOL     OW 1639   1.179   1.339   1.979
  396SOL    HW1 1640   1.088   1.309   1.981
  396SOL    HW2 1641   1.206   1.339   2.071
  397SOL     OW 1642   0.624   0.830   3.293
  397SOL    HW1 1643   0.678   0.907   3.279
  397SOL    HW2 1644   0.686   0.757   3.301
  398SOL     OW 1645   1.484   1.776   2.841
  398SOL    HW1 1646   1.505   1.839   2.772
  398SOL    HW2 1647   1.567   1.762   2.887
  399SOL     OW 1648   0.712   0.562   3.567
  399SOL    HW1 1649   0.753   0.628   3.624
  399SOL    HW2 1650   0.746   0.479   3.599
  400SOL     OW 1651   1.472   1.199   3.494
  400SOL    HW1 1652   1.459   1.214   3.588
  400SOL    HW2 1653   1.565   1.215   3.479
  401SOL     OW 1654   0.379   1.744   3.427
  401SOL    HW1 1655   0.294   1.785   3.408
  401SOL    HW2 1656   0.357   1.664   3.475
  402SOL     OW 1657   1.669   0.881   3.117
  402SOL    HW1 1658   1.662   0.796   3.074
  402SOL    HW2 1659   1.659   0.945   3.047
  403SOL     OW 1660   1.218   0.330   2.309
  403SOL    HW1 1661   1.284   0.262   2.298
  403SOL    HW2 1662   1.247   0.378   2.387
  404SOL     OW 1663   0.587   0.737   2.533
  404SOL    HW1 1664   0.627   0.822   2.518
  404SOL    HW2 1665   0.520   0.730   2.465
  405SOL     OW 1666   1.762   0.366   3.506
  405SOL    HW1 1667   1.746   0.379   3.412
  405SOL    HW2 1668   1.683   0.320   3.537
  406SOL     OW 1669   1.745   0.933   3.374
  406SOL    HW1 1670   1.742   1.028   3.388
  406SOL    HW2 1671   1.730   0.922   3.280
  407SOL     OW 1672   0.864   1.367   1.897
  407SOL    HW1 1673   0.824   1.394   1.980
  407SOL    HW2 1674   0.880   1.449   1.850
  408SOL     OW 1675   0.661   1.791   2.807
  408SOL    HW1 1676   0.641   1.882   2.783
  408SOL    HW2 1677   0.756   1.785   2.799
  409SOL     OW 1678   0.868   0.968   2.716
  409SOL    HW1 1679   0.918   0.896   2.755
  409SOL    HW2 1680   0.833   1.015   2.791
  410SOL     OW 1681   1.079   0.988   1.951
  410SOL    HW1 1682   1.057   1.039   1.873
  410SOL    HW2 1683   1.154   0.935   1.924
  411SOL     OW 1684   1.854   1.550   2.703
  411SOL    HW1 1685   1.773   1.542   2.653
  411SOL    HW2 1686   1.843   1.491   2.778
  412SOL     OW 1687   0.231   1.305   3.720
  412SOL    HW1 1688   0.155   1.250   3.699
  412SOL    HW2 1689   0.227   1.316   3.815
  413SOL     OW 1690   0.108   1.234   2.530
  413SOL    HW1 1691   0.123   1.189   2.614
  413SOL    HW2 1692   0.167   1.190   2.469
  414SOL     OW 1693   0.682   1.403   3.490
  414SOL    HW1 1694   0.602   1.359   3.519
  414SOL    HW2 1695   0.676   1.491   3.528
  415SOL     OW 1696   1.808   0.181   3.100
  415SOL    HW1 1697   1.805   0.087   3.121
  415SOL    HW2 1698   1.824   0.184   3.006
  416SOL     OW 1699   0.441   0.430   2.394
  416SOL    HW1 1700   0.457   0.361   2.331
  416SOL    HW2 1701   0.381   0.392   2.458
  417SOL     OW 1702   1.704   1.484   2.951
  417SOL    HW1 1703   1.620   1.463   2.910
  417SOL    HW2 1704   1.713   1.419   3.021
  418SOL     OW 1705   0.310   0.504   3.115
  418SOL    HW1 1706   0.383   0.456   3.154
  418SOL    HW2 1707   0.335   0.516   3.023
  419SOL     OW 1708   0.828   1.578   2.539
  419SOL    HW1 1709   0.814   1.632   2.462
  419SOL    HW2 1710   0.751   1.520   2.542
  420SOL     OW 1711   1.432   0.216   2.980
  420SOL    HW1 1712   1.467   0.144   3.033
  420SOL    HW2 1713   1.381   0.269   3.041
  421SOL     OW 1714   0.996   0.006   3.013
  421SOL    HW1 1715   0.954   4.420   3.004
  421SOL    HW2 1716   1.089   4.486   3.024
  422SOL     OW 1717   0.772   1.333   2.176
  422SOL    HW1 1718   0.742   1.242   2.183
  422SOL    HW2 1719   0.854   1.334   2.226
  423SOL     OW 1720   0.621   1.556   3.147
  423SOL    HW1 1721   0.623   1.638   3.197
  423SOL    HW2 1722   0.708   1.549   3.109
  424SOL     OW 1723   1.340   0.052   2.016
  424SOL    HW1 1724   1.379   4.477   1.972
  424SOL    HW2 1725   1.264   0.017   2.063
  425SOL     OW 1726   1.314   0.463   2.537
  425SOL    HW1 1727   1.256   0.539   2.538
  425SOL    HW2 1728   1.303   0.423   2.624
  426SOL     OW 1729   1.585   0.200   2.730
  426SOL    HW1 1730   1.526   0.215   2.804
  426SOL    HW2 1731   1.588   0.283   2.683
  427SOL     OW 1732   0.041   1.051   2.150
  427SOL    HW1 1733   0.134   1.034   2.140
  427SOL    HW2 1734   0.021   1.020   2.239
  428SOL     OW 1735   0.885   1.653   2.204
  428SOL    HW1 1736   0.812   1.636   2.144
  428SOL    HW2 1737   0.856   1.728   2.256
  429SOL     OW 1738   0.246   0.627   3.846
  429SOL    HW1 1739   0.172   0.605   3.902
  429SOL    HW2 1740   0.214   0.614   3.757
  430SOL     OW 1741   0.193   0.294   4.713
  430SOL    HW1 1742   0.227   0.267   4.799
  430SOL    HW2 1743   0.131   0.224   4.689
  431SOL     OW 1744   0.003   0.383   4.363
  431SOL    HW1 1745   4.425   0.419   4.405
  431SOL    HW2 1746   4.470   0.311   4.310
  432SOL     OW 1747   0.568   1.288   4.900
  432SOL    HW1 1748   0.481   1.293   4.861
  432SOL    HW2 1749   0.583   1.376   4.935
  433SOL     OW 1750   1.559   1.516   4.431
  433SOL    HW1 1751   1.517   1.491   4.513
  433SOL    HW2 1752   1.487   1.517   4.367
  434SOL     OW 1753   1.135   0.698   4.422
  434SOL    HW1 1754   1.181   0.782   4.412
  434SOL    HW2 1755   1.085   0.708   4.503
  435SOL     OW 1756   1.768   0.606   3.951
  435SOL    HW1 1757   1.747   0.597   3.859
  435SOL    HW2 1758   1.735   0.526   3.992
  436SOL     OW 1759   0.755   1.142   4.766
  436SOL    HW1 1760   0.686   1.177   4.822
  436SOL    HW2 1761   0.790   1.219   4.721
  437SOL     OW 1762   0.867   0.772   5.545
  437SOL    HW1 1763   0.851   0.843   5.608
  437SOL    HW2 1764   0.890   0.817   5.464
  438SOL     OW 1765   0.685   1.003   4.371
  438SOL    HW1 1766   0.751   0.991   4.440
  438SOL    HW2 1767   0.616   1.054   4.413
  439SOL     OW 1768   0.711   1.150   5.537
  439SOL    HW1 1769   0.758   1.229   5.564
  439SOL    HW2 1770   0.629   1.182   5.501
  440SOL     OW 1771   0.335   1.421   4.793
  440SOL    HW1 1772   0.254   1.401   4.747
  440SOL    HW2 1773   0.385   1.475   4.732
  441SOL     OW 1774   1.459   1.498   5.080
  441SOL    HW1 1775   1.504   1.583   5.088
  441SOL    HW2 1776   1.395   1.499   5.151
  442SOL     OW 1777   0.440   0.394   5.214
  442SOL    HW1 1778   0.529   0.359   5.214
  442SOL    HW2 1779   0.385   0.320   5.237
  443SOL     OW 1780   1.610   0.445   4.463
  443SOL    HW1 1781   1.530   0.466   4.414
  443SOL    HW2 1782   1.628   0.524   4.515
  444SOL     OW 1783   0.245   1.691   4.201
  444SOL    HW1 1784   0.230   1.776   4.242
  444SOL    HW2 1785   0.314   1.708   4.137
  445SOL     OW 1786   1.136   1.341   5.417
  445SOL    HW1 1787   1.176   1.337   5.504
  445SOL    HW2 1788   1.084   1.262   5.410
  446SOL     OW 1789   0.250   1.426   4.251
  446SOL    HW1 1790   0.240   1.522   4.254
  446SOL    HW2 1791   0.187   1.394   4.315
  447SOL     OW 1792   0.248   1.082   4.608
  447SOL    HW1 1793   0.265   0.992   4.636
  447SOL    HW2 1794   0.188   1.117   4.674
  448SOL     OW 1795   0.613   1.791   5.156
  448SOL    HW1 1796   0.530   1.773   5.199
  448SOL    HW2 1797   0.633   1.881   5.179
  449SOL     OW 1798   0.578   0.988   3.863
  449SOL    HW1 1799   0.626   1.030   3.792
  449SOL    HW2 1800   0.623   1.016   3.943
  450SOL     OW 1801   1.581   0.116   5.194
  450SOL    HW1 1802   1.605   0.185   5.132
  450SOL    HW2 1803   1.571   0.162   5.278
  451SOL     OW 1804   0.136   0.644   4.298
  451SOL    HW1 1805   0.084   0.565   4.317
  451SOL    HW2 1806   0.108   0.707   4.364
  452SOL     OW 1807   1.841   1.759   4.057
  452SOL    HW1 1808   1.903   1.729   4.124
  452SOL    HW2 1809   1.867   1.850   4.040
  453SOL     OW 1810   0.032   1.602   3.866
  453SOL    HW1 1811   0.021   1.508   3.862
  453SOL    HW2 1812   0.025   1.624   3.959
  454SOL     OW 1813   1.690   0.919   4.365
  454SOL    HW1 1814   1.773   0.878   4.343
  454SOL    HW2 1815   1.667   0.970   4.287
  455SOL     OW 1816   1.647   1.108   4.154
  455SOL    HW1 1817   1.732   1.113   4.112
  455SOL    HW2 1818   1.652   1.170   4.227
  456SOL     OW 1819   0.104   0.766   5.304
  456SOL    HW1 1820   0.195   0.760   5.273
  456SOL    HW2 1821   0.092   0.858   5.326
  457SOL     OW 1822   0.614   1.386   4.460
  457SOL    HW1 1823   0.567   1.303   4.470
  457SOL    HW2 1824   0.597   1.412   4.370
  458SOL     OW 1825   1.289   1.238   5.147
  458SOL    HW1 1826   1.320   1.171   5.087
  458SOL    HW2 1827   1.346   1.231   5.223
  459SOL     OW 1828   0.821   0.014   4.277
  459SOL    HW1 1829   0.856   0.100   4.251
  459SOL    HW2 1830   0.727   0.022   4.264
  460SOL     OW 1831   0.179   0.940   5.003
  460SOL    HW1 1832   0.270   0.922   4.983
  460SOL    HW2 1833   0.133   0.927   4.920
  461SOL     OW 1834   1.532   0.993   3.923
  461SOL    HW1 1835   1.461   0.937   3.955
  461SOL    HW2 1836   1.573   1.028   4.002
  462SOL     OW 1837   1.187   1.807   5.347
  462SOL    HW1 1838   1.195   1.866   5.272
  462SOL    HW2 1839   1.202   1.720   5.311
  463SOL     OW 1840   0.318   0.260   5.492
  463SOL    HW1 1841   0.385   0.311   5.536
  463SOL    HW2 1842   0.241   0.267   5.549
  464SOL     OW 1843   1.466   1.422   4.675
  464SOL    HW1 1844   1.398   1.436   4.741
  464SOL    HW2 1845   1.456   1.330   4.649
  465SOL     OW 1846   1.658   1.740   4.300
  465SOL    HW1 1847   1.637   1.710   4.212
  465SOL    HW2 1848   1.634   1.666   4.357
  466SOL     OW 1849   0.595   0.723   3.990
  466SOL    HW1 1850   0.597   0.805   3.940
  466SOL    HW2 1851   0.529   0.738   4.058
  467SOL     OW 1852   1.292   0.365   4.657
  467SOL    HW1 1853   1.202   0.335   4.640
  467SOL    HW2 1854   1.327   0.301   4.719
  468SOL     OW 1855   1.580   1.670   4.033
  468SOL    HW1 1856   1.670   1.701   4.026
  468SOL    HW2 1857   1.553   1.653   3.942
  469SOL     OW 1858   0.797   0.618   5.178
  469SOL    HW1 1859   0.769   0.593   5.266
  469SOL    HW2 1860   0.755   0.555   5.120
  470SOL     OW 1861   1.388   0.480   5.400
  470SOL    HW1 1862   1.392   0.524   5.485
  470SOL    HW2 1863   1.455   0.411   5.406
  471SOL     OW 1864   0.955   0.888   5.307
  471SOL    HW1 1865   1.009   0.817   5.271
  471SOL    HW2 1866   0.907   0.922   5.231
  472SOL     OW 1867   0.998   0.418   4.959
  472SOL    HW1 1868   0.910   0.425   4.997
  472SOL    HW2 1869   0.985   0.365   4.880
  473SOL     OW 1870   1.050   0.697   4.151
  473SOL    HW1 1871   1.067   0.690   4.245
  473SOL    HW2 1872   0.967   0.651   4.137
  474SOL     OW 1873   0.097   0.826   4.508
  474SOL    HW1 1874   0.184   0.812   4.546
  474SOL    HW2 1875   0.042   0.851   4.582
  475SOL     OW 1876   0.122   1.859   5.301
  475SOL    HW1 1877   0.116   1.835   5.394
  475SOL    HW2 1878   0.046   1.818   5.261
  476SOL     OW 1879   0.853   0.369   3.905
  476SOL    HW1 1880   0.926   0.404   3.853
  476SOL    HW2 1881   0.870   0.275   3.910
  477SOL     OW 1882   1.704   0.573   5.552
  477SOL    HW1 1883   1.668   0.648   5.504
  477SOL    HW2 1884   1.740   0.516   5.485
  478SOL     OW 1885   1.377   1.142   4.264
  478SOL    HW1 1886   1.457   1.131   4.212
  478SOL    HW2 1887   1.324   1.204   4.214
  479SOL     OW 1888   0.541   0.205   4.625
  479SOL    HW1 1889   0.562   0.224   4.716
  479SOL    HW2 1890   0.533   0.290   4.583
  480SOL     OW 1891   1.005   1.444   4.196
  480SOL    HW1 1892   0.968   1.517   4.146
  480SOL    HW2 1893   0.987   1.465   4.287
  481SOL     OW 1894   0.356   1.811   4.583
  481SOL    HW1 1895   0.398   1.725   4.593
  481SOL    HW2 1896   0.426   1.874   4.599
  482SOL     OW 1897   1.800   1.055   4.592
  482SOL    HW1 1898   1.745   1.040   4.515
  482SOL    HW2 1899   1.738   1.062   4.665
  483SOL     OW 1900   1.228   1.538   5.237
  483SOL    HW1 1901   1.213   1.466   5.298
  483SOL    HW2 1902   1.164   1.524   5.167
  484SOL     OW 1903   0.315   0.954   3.978
  484SOL    HW1 1904   0.399   0.977   3.938
  484SOL    HW2 1905   0.300   0.863   3.951
  485SOL     OW 1906   1.480   0.742   4.448
  485SOL    HW1 1907   1.469   0.700   4.533
  485SOL    HW2 1908   1.556   0.799   4.459
  486SOL     OW 1909   0.468   1.263   5.459
  486SOL    HW1 1910   0.441   1.269   5.368
  486SOL    HW2 1911   0.386   1.266   5.509
  487SOL     OW 1912   1.122   1.778   3.954
  487SOL    HW1 1913   1.049   1.736   4.000
  487SOL    HW2 1914   1.145   1.716   3.885
  488SOL     OW 1915   0.162   0.266   5.234
  488SOL    HW1 1916   0.136   0.353   5.205
  488SOL    HW2 1917   0.197   0.279   5.322
  489SOL     OW 1918   1.629   1.380   3.812
  489SOL    HW1 1919   1.587   1.465   3.796
  489SOL    HW2 1920   1.560   1.316   3.793
  490SOL     OW 1921   0.469   1.743   4.038
  490SOL    HW1 1922   0.511   1.797   4.105
  490SOL    HW2 1923   0.541   1.708   3.986
  491SOL     OW 1924   1.421   0.140   4.142
  491SOL    HW1 1925   1.405   0.087   4.063
  491SOL    HW2 1926   1.516   0.132   4.157
  492SOL     OW 1927   0.256   1.788   4.957
  492SOL    HW1 1928   0.304   1.713   4.992
  492SOL    HW2 1929   0.224   1.759   4.872
  493SOL     OW 1930   0.938   1.698   4.623
  493SOL    HW1 1931   1.016   1.647   4.643
  493SOL    HW2 1932   0.894   1.649   4.554
  494SOL     OW 1933   0.394   0.693   4.196
  494SOL    HW1 1934   0.419   0.601   4.210
  494SOL    HW2 1935   0.302   0.696   4.222
  495SOL     OW 1936   1.525   0.233   5.447
  495SOL    HW1 1937   1.525   0.255   5.540
  495SOL    HW2 1938   1.447   0.179   5.435
  496SOL     OW 1939   0.625   0.120   3.842
  496SOL    HW1 1940   0.714   0.085   3.854
  496SOL    HW2 1941   0.595   0.083   3.760
  497SOL     OW 1942   0.768   0.270   5.478
  497SOL    HW1 1943   0.835   0.202   5.485
  497SOL    HW2 1944   0.729   0.273   5.566
  498SOL     OW 1945   0.877   1.522   4.918
  498SOL    HW1 1946   0.861   1.486   4.831
  498SOL    HW2 1947   0.946   1.467   4.954
  499SOL     OW 1948   1.341   0.589   5.153
  499SOL    HW1 1949   1.369   0.561   5.240
  499SOL    HW2 1950   1.375   0.678   5.145
  500SOL     OW 1951   0.815   1.395   4.664
  500SOL    HW1 1952   0.900   1.383   4.620
  500SOL    HW2 1953   0.751   1.396   4.593
  501SOL     OW 1954   0.923   0.519   4.623
  501SOL    HW1 1955   0.907   0.517   4.529
  501SOL    HW2 1956   0.960   0.433   4.643
  502SOL     OW 1957   0.562   0.069   4.232
  502SOL    HW1 1958   0.476   0.055   4.271
  502SOL    HW2 1959   0.549   0.138   4.167
  503SOL     OW 1960   1.428   1.198   3.765
  503SOL    HW1 1961   1.458   1.123   3.816
  503SOL    HW2 1962   1.343   1.220   3.802
  504SOL     OW 1963   0.305   0.073   3.913
  504SOL    HW1 1964   0.388   0.119   3.911
  504SOL    HW2 1965   0.320   4.499   3.971
  505SOL     OW 1966   0.954   0.240   4.192
  505SOL    HW1 1967   0.902   0.297   4.136
  505SOL    HW2 1968   1.043   0.276   4.186
  506SOL     OW 1969   1.080   0.681   5.184
  506SOL    HW1 1970   1.010   0.617   5.184
  506SOL    HW2 1971   1.160   0.630   5.173
  507SOL     OW 1972   1.222   1.571   4.518
  507SOL    HW1 1973   1.239   1.637   4.451
  507SOL    HW2 1974   1.293   1.583   4.582
  508SOL     OW 1975   0.466   1.150   4.459
  508SOL    HW1 1976   0.396   1.131   4.521
  508SOL    HW2 1977   0.427   1.134   4.373
  509SOL     OW 1978   1.268   1.793   4.331
  509SOL    HW1 1979   1.315   1.855   4.275
  509SOL    HW2 1980   1.203   1.847   4.377
  510SOL     OW 1981   1.028   0.547   3.742
  510SOL    HW1 1982   0.980   0.628   3.726
  510SOL    HW2 1983   1.087   0.567   3.814
  511SOL     OW 1984   0.095   0.516   5.138
  511SOL    HW1 1985   0.151   0.524   5.061
  511SOL    HW2 1986   0.058   0.604   5.150
  512SOL     OW 1987   0.561   0.245   4.891
  512SOL    HW1 1988   0.591   0.162   4.927
  512SOL    HW2 1989   0.467   0.246   4.909
  513SOL     OW 1990   0.865   0.504   4.351
  513SOL    HW1 1991   0.822   0.544   4.276
  513SOL    HW2 1992   0.828   0.415   4.356
  514SOL     OW 1993   0.961   0.022   4.511
  514SOL    HW1 1994   0.913   0.023   4.428
  514SOL    HW2 1995   0.976   4.430   4.529
  515SOL     OW 1996   1.438   1.163   4.582
  515SOL    HW1 1997   1.368   1.098   4.579
  515SOL    HW2 1998   1.464   1.175   4.491
  516SOL     OW 1999   1.465   0.605   4.698
  516SOL    HW1 2000   1.412   0.526   4.700
  516SOL    HW2 2001   1.523   0.597   4.774
  517SOL     OW 2002   1.846   0.816   4.107
  517SOL    HW1 2003   1.902   0.765   4.165
  517SOL    HW2 2004   1.817   0.754   4.040
  518SOL     OW 2005   0.491   1.418   3.883
  518SOL    HW1 2006   0.414   1.389   3.931
  518SOL    HW2 2007   0.476   1.388   3.793
  519SOL     OW 2008   1.671   1.267   4.371
  519SOL    HW1 2009   1.766   1.268   4.384
  519SOL    HW2 2010   1.643   1.356   4.393
  520SOL     OW 2011   1.394   0.571   3.793
  520SOL    HW1 2012   1.333   0.555   3.865
  520SOL    HW2 2013   1.480   0.553   3.832
  521SOL     OW 2014   0.521   0.264   4.044
  521SOL    HW1 2015   0.571   0.215   3.979
  521SOL    HW2 2016   0.505   0.349   4.003
  522SOL     OW 2017   1.752   1.239   5.300
  522SOL    HW1 2018   1.839   1.200   5.290
  522SOL    HW2 2019   1.768   1.329   5.325
  523SOL     OW 2020   1.058   1.355   5.059
  523SOL    HW1 2021   0.983   1.323   5.109
  523SOL    HW2 2022   1.134   1.312   5.099
  524SOL     OW 2023   1.604   1.619   5.383
  524SOL    HW1 2024   1.593   1.657   5.296
  524SOL    HW2 2025   1.691   1.578   5.380
  525SOL     OW 2026   1.130   1.205   4.830
  525SOL    HW1 2027   1.069   1.241   4.894
  525SOL    HW2 2028   1.097   1.236   4.745
  526SOL     OW 2029   1.627   1.097   4.801
  526SOL    HW1 2030   1.621   1.160   4.873
  526SOL    HW2 2031   1.550   1.114   4.747
  527SOL     OW 2032   0.901   0.134   5.111
  527SOL    HW1 2033   0.923   0.089   5.029
  527SOL    HW2 2034   0.985   0.149   5.153
  528SOL     OW 2035   0.984   1.114   5.447
  528SOL    HW1 2036   0.892   1.130   5.469
  528SOL    HW2 2037   0.982   1.037   5.391
  529SOL     OW 2038   0.709   1.061   4.096
  529SOL    HW1 2039   0.696   1.045   4.190
  529SOL    HW2 2040   0.784   1.008   4.072
  530SOL     OW 2041   0.430   0.827   4.966
  530SOL    HW1 2042   0.498   0.837   5.032
  530SOL    HW2 2043   0.373   0.759   5.001
  531SOL     OW 2044   1.269   0.375   4.998
  531SOL    HW1 2045   1.301   0.454   5.042
  531SOL    HW2 2046   1.180   0.397   4.971
  532SOL     OW 2047   0.063   1.576   5.069
  532SOL    HW1 2048   0.036   1.665   5.045
  532SOL    HW2 2049   0.158   1.580   5.073
  533SOL     OW 2050   0.345   1.109   4.217
  533SOL    HW1 2051   0.356   1.183   4.157
  533SOL    HW2 2052   0.345   1.032   4.161
  534SOL     OW 2053   0.564   0.525   4.576
  534SOL    HW1 2054   0.575   0.586   4.504
  534SOL    HW2 2055   0.624   0.556   4.644
  535SOL     OW 2056   1.248   1.348   4.113
  535SOL    HW1 2057   1.303   1.420   4.143
  535SOL    HW2 2058   1.161   1.369   4.147
  536SOL     OW 2059   1.281   1.458   4.871
  536SOL    HW1 2060   1.336   1.459   4.949
  536SOL    HW2 2061   1.226   1.381   4.881
  537SOL     OW 2062   1.582   0.623   4.202
  537SOL    HW1 2063   1.534   0.673   4.268
  537SOL    HW2 2064   1.626   0.690   4.149
  538SOL     OW 2065   0.347   1.532   5.038
  538SOL    HW1 2066   0.333   1.484   4.956
  538SOL    HW2 2067   0.442   1.541   5.045
  539SOL     OW 2068   0.487   0.760   5.396
  539SOL    HW1 2069   0.511   0.797   5.311
  539SOL    HW2 2070   0.532   0.675   5.399
  540SOL     OW 2071   1.602   0.779   5.406
  540SOL    HW1 2072   1.516   0.820   5.399
  540SOL    HW2 2073   1.654   0.821   5.337
  541SOL     OW 2074   1.004   0.086   5.442
  541SOL    HW1 2075   1.037   0.168   5.404
  541SOL    HW2 2076   1.028   0.019   5.378
  542SOL     OW 2077   0.495   0.044   5.476
  542SOL    HW1 2078   0.481   4.497   5.394
  542SOL    HW2 2079   0.430   0.113   5.476
  543SOL     OW 2080   0.589   0.874   4.748
  543SOL    HW1 2081   0.620   0.965   4.750
  543SOL    HW2 2082   0.534   0.866   4.825
  544SOL     OW 2083   1.357   0.858   4.754
  544SOL    HW1 2084   1.274   0.849   4.707
  544SOL    HW2 2085   1.398   0.772   4.746
  545SOL     OW 2086   1.203   0.535   3.986
  545SOL    HW1 2087   1.209   0.455   4.038
  545SOL    HW2 2088   1.160   0.598   4.044
  546SOL     OW 2089   0.284   0.216   4.958
  546SOL    HW1 2090   0.244   0.233   5.043
  546SOL    HW2 2091   0.326   0.130   4.968
  547SOL     OW 2092   0.037   1.313   5.010
  547SOL    HW1 2093   0.075   1.265   5.084
  547SOL    HW2 2094   0.044   1.405   5.035
  548SOL     OW 2095   0.724   0.631   4.781
  548SOL    HW1 2096   0.798   0.611   4.725
  548SOL    HW2 2097   0.698   0.719   4.757
  549SOL     OW 2098   1.735   0.960   5.577
  549SOL    HW1 2099   1.689   0.898   5.519
  549SOL    HW2 2100   1.675   0.972   5.650
  550SOL     OW 2101   0.321   0.074   4.355
  550SOL    HW1 2102   0.303   0.162   4.385
  550SOL    HW2 2103   0.309   0.018   4.432
  551SOL     OW 2104   1.616   0.379   4.086
  551SOL    HW1 2105   1.644   0.315   4.151
  551SOL    HW2 2106   1.592   0.456   4.136
  552SOL     OW 2107   1.029   0.762   4.685
  552SOL    HW1 2108   1.025   0.778   4.779
  552SOL    HW2 2109   1.000   0.671   4.674
  553SOL     OW 2110   0.984   1.568   5.441
  553SOL    HW1 2111   0.967   1.611   5.357
  553SOL    HW2 2112   1.025   1.485   5.417
  554SOL     OW 2113   1.855   1.508   5.327
  554SOL    HW1 2114   1.868   1.557   5.245
  554SOL    HW2 2115   1.937   1.521   5.375
  555SOL     OW 2116   0.346   0.934   5.542
  555SOL    HW1 2117   0.418   0.965   5.597
  555SOL    HW2 2118   0.386   0.867   5.487
  556SOL     OW 2119   1.530   0.264   3.852
  556SOL    HW1 2120   1.459   0.208   3.882
  556SOL    HW2 2121   1.560   0.310   3.931
  557SOL     OW 2122   1.291   0.826   3.754
  557SOL    HW1 2123   1.333   0.740   3.757
  557SOL    HW2 2124   1.322   0.866   3.673
  558SOL     OW 2125   1.066   1.335   4.578
  558SOL    HW1 2126   1.069   1.263   4.516
  558SOL    HW2 2127   1.127   1.400   4.543
  559SOL     OW 2128   0.318   0.812   4.670
  559SOL    HW1 2129   0.413   0.830   4.668
  559SOL    HW2 2130   0.312   0.721   4.700
  560SOL     OW 2131   0.334   0.530   4.713
  560SOL    HW1 2132   0.289   0.448   4.694
  560SOL    HW2 2133   0.412   0.528   4.657
  561SOL     OW 2134   1.136   0.373   5.421
  561SOL    HW1 2135   1.085   0.437   5.471
  561SOL    HW2 2136   1.221   0.415   5.407
  562SOL     OW 2137   1.156   0.213   5.197
  562SOL    HW1 2138   1.151   0.277   5.268
  562SOL    HW2 2139   1.197   0.261   5.125
  563SOL     OW 2140   4.491   1.322   3.930
  563SOL    HW1 2141   4.399   1.338   3.912
  563SOL    HW2 2142   4.495   1.228   3.951
  564SOL     OW 2143   0.098   1.775   4.664
  564SOL    HW1 2144   0.059   1.724   4.593
  564SOL    HW2 2145   0.186   1.797   4.633
  565SOL     OW 2146   0.496   1.574   4.631
  565SOL    HW1 2147   0.564   1.637   4.655
  565SOL    HW2 2148   0.540   1.511   4.574
  566SOL     OW 2149   0.983   0.793   4.951
  566SOL    HW1 2150   1.039   0.770   5.025
  566SOL    HW2 2151   0.898   0.753   4.971
  567SOL     OW 2152   0.038   0.568   4.836
  567SOL    HW1 2153   0.112   0.526   4.792
  567SOL    HW2 2154   0.012   0.507   4.904
  568SOL     OW 2155   0.179   0.526   5.437
  568SOL    HW1 2156   0.267   0.507   5.402
  568SOL    HW2 2157   0.151   0.605   5.392
  569SOL     OW 2158   1.378   0.938   5.382
  569SOL    HW1 2159   1.398   1.032   5.380
  569SOL    HW2 2160   1.374   0.912   5.290
  570SOL     OW 2161   0.811   0.574   4.080
  570SOL    HW1 2162   0.815   0.503   4.016
  570SOL    HW2 2163   0.739   0.630   4.051
  571SOL     OW 2164   1.640   0.602   4.910
  571SOL    HW1 2165   1.630   0.542   4.984
  571SOL    HW2 2166   1.727   0.582   4.876
  572SOL     OW 2167   0.273   1.562   5.465
  572SOL    HW1 2168   0.216   1.614   5.521
  572SOL    HW2 2169   0.254   1.471   5.488
  573SOL     OW 2170   0.689   0.463   4.990
  573SOL    HW1 2171   0.648   0.384   4.956
  573SOL    HW2 2172   0.694   0.522   4.915
  574SOL     OW 2173   0.929   1.679   5.191
  574SOL    HW1 2174   0.902   1.643   5.107
  574SOL    HW2 2175   0.922   1.774   5.180
  575SOL     OW 2176   0.472   0.491   3.906
  575SOL    HW1 2177   0.532   0.561   3.930
  575SOL    HW2 2178   0.389   0.534   3.890
  576SOL     OW 2179   0.162   1.141   5.185
  576SOL    HW1 2180   0.145   1.096   5.268
  576SOL    HW2 2181   0.169   1.070   5.120
  577SOL     OW 2182   1.325   1.047   4.947
  577SOL    HW1 2183   1.348   0.983   4.879
  577SOL    HW2 2184   1.256   1.099   4.908
  578SOL     OW 2185   1.313   0.856   4.030
  578SOL    HW1 2186   1.237   0.828   4.081
  578SOL    HW2 2187   1.286   0.843   3.939
  579SOL     OW 2188   1.243   1.735   4.839
  579SOL    HW1 2189   1.323   1.755   4.792
  579SOL    HW2 2190   1.247   1.641   4.855
  580SOL     OW 2191   0.067   1.184   4.774
  580SOL    HW1 2192   0.064   1.216   4.864
  580SOL    HW2 2193   0.025   1.254   4.723
  581SOL     OW 2194   0.679   1.667   5.454
  581SOL    HW1 2195   0.622   1.743   5.448
  581SOL    HW2 2196   0.742   1.678   5.383
  582SOL     OW 2197   1.719   0.129   4.216
  582SOL    HW1 2198   1.789   0.139   4.152
  582SOL    HW2 2199   1.747   0.058   4.272
  583SOL     OW 2200   1.389   1.568   4.208
  583SOL    HW1 2201   1.450   1.600   4.142
  583SOL    HW2 2202   1.341   1.645   4.237
  584SOL     OW 2203   0.118   1.808   5.572
  584SOL    HW1 2204   0.078   1.735   5.620
  584SOL    HW2 2205   0.182   1.845   5.633
  585SOL     OW 2206   1.279   0.928   4.397
  585SOL    HW1 2207   1.352   0.866   4.402
  585SOL    HW2 2208   1.312   1.000   4.344
  586SOL     OW 2209   0.813   1.274   5.153
  586SOL    HW1 2210   0.785   1.313   5.236
  586SOL    HW2 2211   0.743   1.295   5.092
  587SOL     OW 2212   0.672   1.620   3.879
  587SOL    HW1 2213   0.682   1.632   3.785
  587SOL    HW2 2214   0.617   1.542   3.888
  588SOL     OW 2215   1.619   1.728   5.127
  588SOL    HW1 2216   1.681   1.721   5.054
  588SOL    HW2 2217   1.644   1.809   5.171
  589SOL     OW 2218   1.839   0.154   4.690
  589SOL    HW1 2219   1.868   0.076   4.642
  589SOL    HW2 2220   1.752   0.173   4.654
  590SOL     OW 2221   0.262   0.325   4.446
  590SOL    HW1 2222   0.179   0.358   4.413
  590SOL    HW2 2223   0.248   0.315   4.540
  591SOL     OW 2224   1.207   1.606   3.756
  591SOL    HW1 2225   1.198   1.514   3.782
  591SOL    HW2 2226   1.142   1.618   3.686
  592SOL     OW 2227   0.825   1.007   5.096
  592SOL    HW1 2228   0.868   1.003   5.011
  592SOL    HW2 2229   0.824   1.100   5.118
  593SOL     OW 2230   0.915   0.910   4.014
  593SOL    HW1 2231   0.977   0.942   3.948
  593SOL    HW2 2232   0.963   0.841   4.060
  594SOL     OW 2233   1.492   1.625   3.766
  594SOL    HW1 2234   1.397   1.619   3.752
  594SOL    HW2 2235   1.529   1.631   3.678
  595SOL     OW 2236   0.373   1.308   5.215
  595SOL    HW1 2237   0.355   1.386   5.163
  595SOL    HW2 2238   0.298   1.250   5.198
  596SOL     OW 2239   1.610   1.282   5.004
  596SOL    HW1 2240   1.673   1.275   5.075
  596SOL    HW2 2241   1.549   1.350   5.031
  597SOL     OW 2242   1.053   1.108   4.430
  597SOL    HW1 2243   0.982   1.056   4.470
  597SOL    HW2 2244   1.115   1.042   4.400
  598SOL     OW 2245   1.004   0.244   4.731
  598SOL    HW1 2246   1.010   0.224   4.638
  598SOL    HW2 2247   0.997   0.159   4.774
  599SOL     OW 2248   0.605   1.489   4.206
  599SOL    HW1 2249   0.647   1.439   4.136
  599SOL    HW2 2250   0.530   1.531   4.164
  600SOL     OW 2251   1.722   0.394   5.101
  600SOL    HW1 2252   1.795   0.456   5.100
  600SOL    HW2 2253   1.751   0.322   5.044
  601SOL     OW 2254   0.252   1.344   4.000
  601SOL    HW1 2255   0.157   1.342   3.986
  601SOL    HW2 2256   0.263   1.376   4.089
  602SOL     OW 2257   0.115   1.007   5.419
  602SOL    HW1 2258   0.052   1.051   5.476
  602SOL    HW2 2259   0.194   0.998   5.472
  603SOL     OW 2260   0.658   0.209   5.222
  603SOL    HW1 2261   0.737   0.183   5.175
  603SOL    HW2 2262   0.687   0.226   5.312
  604SOL     OW 2263   0.072   0.320   3.750
  604SOL    HW1 2264   4.478   0.328   3.765
  604SOL    HW2 2265   0.098   0.407   3.719
  605SOL     OW 2266   1.430   0.858   5.124
  605SOL    HW1 2267   1.380   0.919   5.068
  605SOL    HW2 2268   1.518   0.861   5.088
  606SOL     OW 2269   0.085   0.188   4.026
  606SOL    HW1 2270   0.076   0.261   3.965
  606SOL    HW2 2271   0.165   0.143   3.998
  607SOL     OW 2272   1.179   1.339   3.841
  607SOL    HW1 2273   1.088   1.309   3.843
  607SOL    HW2 2274   1.207   1.339   3.932
  608SOL     OW 2275   0.624   0.830   5.154
  608SOL    HW1 2276   0.679   0.907   5.141
  608SOL    HW2 2277   0.686   0.757   5.163
  609SOL     OW 2278   1.482   1.782   4.703
  609SOL    HW1 2279   1.504   1.850   4.639
  609SOL    HW2 2280   1.565   1.738   4.721
  610SOL     OW 2281   0.713   0.562   5.429
  610SOL    HW1 2282   0.753   0.627   5.487
  610SOL    HW2 2283   0.746   0.478   5.460
  611SOL     OW 2284   1.471   1.199   5.356
  611SOL    HW1 2285   1.460   1.214   5.450
  611SOL    HW2 2286   1.565   1.214   5.341
  612SOL     OW 2287   0.379   1.744   5.288
  612SOL    HW1 2288   0.295   1.785   5.270
  612SOL    HW2 2289   0.357   1.664   5.337
  613SOL     OW 2290   1.669   0.881   4.979
  613SOL    HW1 2291   1.662   0.796   4.936
  613SOL    HW2 2292   1.659   0.945   4.909
  614SOL     OW 2293   1.218   0.330   4.171
  614SOL    HW1 2294   1.284   0.262   4.160
  614SOL    HW2 2295   1.247   0.378   4.249
  615SOL     OW 2296   0.586   0.737   4.395
  615SOL    HW1 2297   0.627   0.822   4.380
  615SOL    HW2 2298   0.520   0.730   4.327
  616SOL     OW 2299   1.761   0.367   5.368
  616SOL    HW1 2300   1.746   0.380   5.274
  616SOL    HW2 2301   1.684   0.320   5.399
  617SOL     OW 2302   1.747   0.933   5.236
  617SOL    HW1 2303   1.740   1.028   5.249
  617SOL    HW2 2304   1.730   0.921   5.142
  618SOL     OW 2305   0.863   1.367   3.759
  618SOL    HW1 2306   0.824   1.395   3.842
  618SOL    HW2 2307   0.880   1.449   3.712
  619SOL     OW 2308   0.661   1.791   4.669
  619SOL    HW1 2309   0.641   1.882   4.645
  619SOL    HW2 2310   0.756   1.785   4.660
  620SOL     OW 2311   0.868   0.968   4.578
  620SOL    HW1 2312   0.918   0.896   4.617
  620SOL    HW2 2313   0.833   1.015   4.654
  621SOL     OW 2314   1.079   0.988   3.813
  621SOL    HW1 2315   1.057   1.039   3.735
  621SOL    HW2 2316   1.154   0.935   3.786
  622SOL     OW 2317   1.863   1.525   4.553
  622SOL    HW1 2318   1.780   1.557   4.517
  622SOL    HW2 2319   1.849   1.523   4.648
  623SOL     OW 2320   0.231   1.305   5.582
  623SOL    HW1 2321   0.155   1.251   5.561
  623SOL    HW2 2322   0.226   1.316   5.677
  624SOL     OW 2323   0.108   1.234   4.392
  624SOL    HW1 2324   0.122   1.189   4.475
  624SOL    HW2 2325   0.167   1.190   4.331
  625SOL     OW 2326   0.683   1.403   5.353
  625SOL    HW1 2327   0.603   1.359   5.381
  625SOL    HW2 2328   0.676   1.491   5.390
  626SOL     OW 2329   1.808   0.181   4.962
  626SOL    HW1 2330   1.805   0.087   4.983
  626SOL    HW2 2331   1.824   0.184   4.868
  627SOL     OW 2332   0.441   0.430   4.256
  627SOL    HW1 2333   0.457   0.361   4.193
  627SOL    HW2 2334   0.381   0.392   4.320
  628SOL     OW 2335   1.701   1.501   4.825
  628SOL    HW1 2336   1.623   1.474   4.777
  628SOL    HW2 2337   1.716   1.430   4.888
  629SOL     OW 2338   0.311   0.505   4.977
  629SOL    HW1 2339   0.383   0.455   5.015
  629SOL    HW2 2340   0.335   0.516   4.885
  630SOL     OW 2341   0.828   1.578   4.402
  630SOL    HW1 2342   0.814   1.632   4.324
  630SOL    HW2 2343   0.751   1.521   4.404
  631SOL     OW 2344   1.432   0.216   4.841
  631SOL    HW1 2345   1.467   0.144   4.895
  631SOL    HW2 2346   1.381   0.269   4.903
  632SOL     OW 2347   0.995   0.006   4.876
  632SOL    HW1 2348   0.954   4.420   4.866
  632SOL    HW2 2349   1.089   4.486   4.886
  633SOL     OW 2350   0.772   1.333   4.039
  633SOL    HW1 2351   0.742   1.242   4.045
  633SOL    HW2 2352   0.854   1.334   4.088
  634SOL     OW 2353   0.621   1.556   5.010
  634SOL    HW1 2354   0.623   1.638   5.060
  634SOL    HW2 2355   0.708   1.549   4.971
  635SOL     OW 2356   1.340   0.052   3.879
  635SOL    HW1 2357   1.379   4.477   3.834
  635SOL    HW2 2358   1.264   0.017   3.925
  636SOL     OW 2359   1.314   0.463   4.399
  636SOL    HW1 2360   1.256   0.539   4.400
  636SOL    HW2 2361   1.303   0.423   4.486
  637SOL     OW 2362   1.585   0.200   4.592
  637SOL    HW1 2363   1.526   0.215   4.666
  637SOL    HW2 2364   1.588   0.283   4.545
  638SOL     OW 2365   0.041   1.051   4.012
  638SOL    HW1 2366   0.134   1.034   4.002
  638SOL    HW2 2367   0.021   1.020   4.101
  639SOL     OW 2368   0.885   1.653   4.066
  639SOL    HW1 2369   0.812   1.636   4.006
  639SOL    HW2 2370   0.856   1.728   4.118
  640SOL     OW 2371   0.246   0.627   5.708
  640SOL    HW1 2372   0.172   0.605   5.764
  640SOL    HW2 2373   0.214   0.614   5.619
  641SOL     OW 2374   0.193   0.294   6.575
  641SOL    HW1 2375   0.227   0.267   6.661
  641SOL    HW2 2376   0.131   0.225   6.551
  642SOL     OW 2377   0.003   0.383   6.225
  642SOL    HW1 2378   4.425   0.419   6.268
  642SOL    HW2 2379   4.470   0.311   6.172
  643SOL     OW 2380   0.568   1.288   6.762
  643SOL    HW1 2381   0.480   1.293   6.723
  643SOL    HW2 2382   0.583   1.376   6.797
  644SOL     OW 2383   1.557   1.510   6.296
  644SOL    HW1 2384   1.518   1.488   6.381
  644SOL    HW2 2385   1.483   1.512   6.235
  645SOL     OW 2386   1.135   0.698   6.284
  645SOL    HW1 2387   1.181   0.782   6.274
  645SOL    HW2 2388   1.085   0.708   6.364
  646SOL     OW 2389   1.768   0.607   5.814
  646SOL    HW1 2390   1.747   0.597   5.721
  646SOL    HW2 2391   1.735   0.527   5.854
  647SOL     OW 2392   0.754   1.142   6.627
  647SOL    HW1 2393   0.686   1.177   6.684
  647SOL    HW2 2394   0.790   1.219   6.583
  648SOL     OW 2395   0.866   0.772   7.407
  648SOL    HW1 2396   0.852   0.842   7.470
  648SOL    HW2 2397   0.890   0.817   7.326
  649SOL     OW 2398   0.685   1.003   6.233
  649SOL    HW1 2399   0.751   0.991   6.302
  649SOL    HW2 2400   0.616   1.054   6.275
  650SOL     OW 2401   0.711   1.150   7.399
  650SOL    HW1 2402   0.758   1.229   7.426
  650SOL    HW2 2403   0.629   1.182   7.362
  651SOL     OW 2404   0.335   1.421   6.655
  651SOL    HW1 2405   0.253   1.401   6.609
  651SOL    HW2 2406   0.385   1.475   6.594
  652SOL     OW 2407   1.461   1.499   6.941
  652SOL    HW1 2408   1.512   1.579   6.950
  652SOL    HW2 2409   1.398   1.502   7.013
  653SOL     OW 2410   0.440   0.395   7.075
  653SOL    HW1 2411   0.529   0.360   7.076
  653SOL    HW2 2412   0.385   0.320   7.099
  654SOL     OW 2413   1.610   0.445   6.325
  654SOL    HW1 2414   1.530   0.466   6.277
  654SOL    HW2 2415   1.627   0.523   6.378
  655SOL     OW 2416   0.246   1.691   6.063
  655SOL    HW1 2417   0.230   1.776   6.104
  655SOL    HW2 2418   0.314   1.709   5.998
  656SOL     OW 2419   1.137   1.341   7.279
  656SOL    HW1 2420   1.177   1.337   7.365
  656SOL    HW2 2421   1.084   1.262   7.272
  657SOL     OW 2422   0.250   1.426   6.113
  657SOL    HW1 2423   0.240   1.522   6.116
  657SOL    HW2 2424   0.187   1.394   6.177
  658SOL     OW 2425   0.248   1.082   6.470
  658SOL    HW1 2426   0.265   0.992   6.498
  658SOL    HW2 2427   0.188   1.117   6.536
  659SOL     OW 2428   0.613   1.791   7.017
  659SOL    HW1 2429   0.529   1.773   7.060
  659SOL    HW2 2430   0.634   1.881   7.041
  660SOL     OW 2431   0.578   0.988   5.725
  660SOL    HW1 2432   0.626   1.030   5.654
  660SOL    HW2 2433   0.623   1.016   5.805
  661SOL     OW 2434   1.581   0.116   7.056
  661SOL    HW1 2435   1.605   0.185   6.994
  661SOL    HW2 2436   1.571   0.161   7.140
  662SOL     OW 2437   0.136   0.644   6.160
  662SOL    HW1 2438   0.084   0.565   6.179
  662SOL    HW2 2439   0.108   0.707   6.226
  663SOL     OW 2440   0.032   1.602   5.728
  663SOL    HW1 2441   0.021   1.507   5.724
  663SOL    HW2 2442   0.024   1.624   5.821
  664SOL     OW 2443   1.691   0.921   6.228
  664SOL    HW1 2444   1.773   0.877   6.206
  664SOL    HW2 2445   1.668   0.969   6.149
  665SOL     OW 2446   1.647   1.107   6.014
  665SOL    HW1 2447   1.733   1.112   5.974
  665SOL    HW2 2448   1.651   1.168   6.088
  666SOL     OW 2449   0.105   0.766   7.166
  666SOL    HW1 2450   0.195   0.760   7.135
  666SOL    HW2 2451   0.092   0.858   7.188
  667SOL     OW 2452   0.614   1.386   6.322
  667SOL    HW1 2453   0.567   1.303   6.332
  667SOL    HW2 2454   0.598   1.412   6.232
  668SOL     OW 2455   1.289   1.238   7.009
  668SOL    HW1 2456   1.321   1.171   6.949
  668SOL    HW2 2457   1.346   1.232   7.085
  669SOL     OW 2458   0.821   0.014   6.139
  669SOL    HW1 2459   0.856   0.100   6.113
  669SOL    HW2 2460   0.727   0.022   6.127
  670SOL     OW 2461   0.179   0.940   6.865
  670SOL    HW1 2462   0.271   0.922   6.845
  670SOL    HW2 2463   0.133   0.927   6.782
  671SOL     OW 2464   1.532   0.993   5.785
  671SOL    HW1 2465   1.461   0.936   5.816
  671SOL    HW2 2466   1.572   1.027   5.865
  672SOL     OW 2467   1.185   1.807   7.208
  672SOL    HW1 2468   1.196   1.866   7.133
  672SOL    HW2 2469   1.202   1.720   7.173
  673SOL     OW 2470   0.318   0.260   7.354
  673SOL    HW1 2471   0.386   0.311   7.399
  673SOL    HW2 2472   0.241   0.267   7.411
  674SOL     OW 2473   1.466   1.418   6.538
  674SOL    HW1 2474   1.398   1.434   6.604
  674SOL    HW2 2475   1.453   1.327   6.511
  675SOL     OW 2476   1.671   1.702   6.139
  675SOL    HW1 2477   1.619   1.676   6.063
  675SOL    HW2 2478   1.640   1.644   6.210
  676SOL     OW 2479   0.595   0.723   5.852
  676SOL    HW1 2480   0.597   0.805   5.802
  676SOL    HW2 2481   0.529   0.737   5.920
  677SOL     OW 2482   1.292   0.365   6.519
  677SOL    HW1 2483   1.202   0.334   6.502
  677SOL    HW2 2484   1.327   0.301   6.581
  678SOL     OW 2485   1.571   1.671   5.883
  678SOL    HW1 2486   1.653   1.715   5.861
  678SOL    HW2 2487   1.534   1.645   5.799
  679SOL     OW 2488   0.797   0.618   7.040
  679SOL    HW1 2489   0.769   0.593   7.128
  679SOL    HW2 2490   0.755   0.555   6.982
  680SOL     OW 2491   1.388   0.480   7.262
  680SOL    HW1 2492   1.392   0.524   7.347
  680SOL    HW2 2493   1.455   0.411   7.268
  681SOL     OW 2494   0.954   0.888   7.169
  681SOL    HW1 2495   1.009   0.817   7.133
  681SOL    HW2 2496   0.907   0.922   7.093
  682SOL     OW 2497   0.998   0.418   6.821
  682SOL    HW1 2498   0.910   0.425   6.859
  682SOL    HW2 2499   0.985   0.365   6.742
  683SOL     OW 2500   1.050   0.698   6.013
  683SOL    HW1 2501   1.066   0.690   6.107
  683SOL    HW2 2502   0.967   0.651   5.999
  684SOL     OW 2503   0.097   0.827   6.370
  684SOL    HW1 2504   0.183   0.812   6.408
  684SOL    HW2 2505   0.042   0.851   6.445
  685SOL     OW 2506   0.122   1.859   7.163
  685SOL    HW1 2507   0.116   1.834   7.256
  685SOL    HW2 2508   0.046   1.818   7.123
  686SOL     OW 2509   0.854   0.369   5.767
  686SOL    HW1 2510   0.926   0.403   5.715
  686SOL    HW2 2511   0.869   0.275   5.772
  687SOL     OW 2512   1.704   0.573   7.414
  687SOL    HW1 2513   1.668   0.647   7.366
  687SOL    HW2 2514   1.740   0.516   7.346
  688SOL     OW 2515   1.378   1.143   6.128
  688SOL    HW1 2516   1.456   1.130   6.074
  688SOL    HW2 2517   1.324   1.204   6.077
  689SOL     OW 2518   0.542   0.205   6.486
  689SOL    HW1 2519   0.562   0.224   6.578
  689SOL    HW2 2520   0.534   0.291   6.445
  690SOL     OW 2521   1.006   1.445   6.058
  690SOL    HW1 2522   0.969   1.518   6.008
  690SOL    HW2 2523   0.984   1.465   6.149
  691SOL     OW 2524   0.356   1.811   6.445
  691SOL    HW1 2525   0.398   1.725   6.455
  691SOL    HW2 2526   0.426   1.874   6.462
  692SOL     OW 2527   1.799   1.057   6.454
  692SOL    HW1 2528   1.745   1.037   6.378
  692SOL    HW2 2529   1.736   1.062   6.527
  693SOL     OW 2530   1.228   1.539   7.099
  693SOL    HW1 2531   1.214   1.466   7.160
  693SOL    HW2 2532   1.164   1.524   7.030
  694SOL     OW 2533   0.315   0.954   5.840
  694SOL    HW1 2534   0.399   0.977   5.800
  694SOL    HW2 2535   0.300   0.863   5.813
  695SOL     OW 2536   1.480   0.743   6.310
  695SOL    HW1 2537   1.468   0.699   6.394
  695SOL    HW2 2538   1.557   0.799   6.323
  696SOL     OW 2539   0.468   1.263   7.321
  696SOL    HW1 2540   0.441   1.269   7.230
  696SOL    HW2 2541   0.386   1.267   7.371
  697SOL     OW 2542   1.124   1.775   5.819
  697SOL    HW1 2543   1.048   1.737   5.863
  697SOL    HW2 2544   1.144   1.714   5.748
  698SOL     OW 2545   0.162   0.266   7.096
  698SOL    HW1 2546   0.135   0.353   7.067
  698SOL    HW2 2547   0.197   0.279   7.184
  699SOL     OW 2548   1.630   1.382   5.676
  699SOL    HW1 2549   1.587   1.465   5.655
  699SOL    HW2 2550   1.564   1.316   5.657
  700SOL     OW 2551   0.469   1.743   5.900
  700SOL    HW1 2552   0.511   1.797   5.967
  700SOL    HW2 2553   0.541   1.708   5.848
  701SOL     OW 2554   1.422   0.140   6.003
  701SOL    HW1 2555   1.405   0.087   5.926
  701SOL    HW2 2556   1.516   0.131   6.019
  702SOL     OW 2557   0.256   1.788   6.819
  702SOL    HW1 2558   0.304   1.713   6.855
  702SOL    HW2 2559   0.224   1.758   6.734
  703SOL     OW 2560   0.937   1.700   6.484
  703SOL    HW1 2561   1.013   1.646   6.509
  703SOL    HW2 2562   0.894   1.649   6.415
  704SOL     OW 2563   0.394   0.693   6.058
  704SOL    HW1 2564   0.419   0.601   6.072
  704SOL    HW2 2565   0.302   0.697   6.084
  705SOL     OW 2566   1.525   0.233   7.309
  705SOL    HW1 2567   1.525   0.255   7.402
  705SOL    HW2 2568   1.447   0.179   7.297
  706SOL     OW 2569   0.626   0.121   5.704
  706SOL    HW1 2570   0.714   0.085   5.716
  706SOL    HW2 2571   0.595   0.083   5.621
  707SOL     OW 2572   0.768   0.270   7.340
  707SOL    HW1 2573   0.835   0.202   7.347
  707SOL    HW2 2574   0.729   0.274   7.428
  708SOL     OW 2575   0.877   1.522   6.779
  708SOL    HW1 2576   0.860   1.485   6.693
  708SOL    HW2 2577   0.946   1.467   6.816
  709SOL     OW 2578   1.341   0.589   7.015
  709SOL    HW1 2579   1.369   0.560   7.102
  709SOL    HW2 2580   1.375   0.678   7.007
  710SOL     OW 2581   0.816   1.395   6.526
  710SOL    HW1 2582   0.900   1.383   6.481
  710SOL    HW2 2583   0.751   1.396   6.456
  711SOL     OW 2584   0.923   0.519   6.485
  711SOL    HW1 2585   0.907   0.517   6.391
  711SOL    HW2 2586   0.960   0.433   6.505
  712SOL     OW 2587   0.562   0.069   6.094
  712SOL    HW1 2588   0.476   0.055   6.133
  712SOL    HW2 2589   0.549   0.138   6.029
  713SOL     OW 2590   1.430   1.200   5.629
  713SOL    HW1 2591   1.459   1.123   5.678
  713SOL    HW2 2592   1.343   1.220   5.663
  714SOL     OW 2593   0.305   0.073   5.775
  714SOL    HW1 2594   0.388   0.120   5.773
  714SOL    HW2 2595   0.320   4.499   5.833
  715SOL     OW 2596   0.954   0.240   6.054
  715SOL    HW1 2597   0.902   0.297   5.998
  715SOL    HW2 2598   1.043   0.276   6.048
  716SOL     OW 2599   1.081   0.681   7.046
  716SOL    HW1 2600   1.010   0.617   7.046
  716SOL    HW2 2601   1.160   0.630   7.035
  717SOL     OW 2602   1.225   1.567   6.379
  717SOL    HW1 2603   1.241   1.637   6.315
  717SOL    HW2 2604   1.289   1.583   6.448
  718SOL     OW 2605   0.467   1.150   6.321
  718SOL    HW1 2606   0.396   1.131   6.383
  718SOL    HW2 2607   0.427   1.134   6.235
  719SOL     OW 2608   1.270   1.796   6.196
  719SOL    HW1 2609   1.310   1.860   6.137
  719SOL    HW2 2610   1.199   1.844   6.239
  720SOL     OW 2611   1.029   0.547   5.603
  720SOL    HW1 2612   0.980   0.628   5.588
  720SOL    HW2 2613   1.087   0.567   5.676
  721SOL     OW 2614   0.094   0.516   7.000
  721SOL    HW1 2615   0.151   0.523   6.923
  721SOL    HW2 2616   0.058   0.604   7.012
  722SOL     OW 2617   0.561   0.245   6.753
  722SOL    HW1 2618   0.591   0.162   6.790
  722SOL    HW2 2619   0.467   0.246   6.771
  723SOL     OW 2620   0.865   0.504   6.213
  723SOL    HW1 2621   0.822   0.544   6.138
  723SOL    HW2 2622   0.828   0.415   6.218
  724SOL     OW 2623   0.961   0.023   6.372
  724SOL    HW1 2624   0.913   0.023   6.289
  724SOL    HW2 2625   0.976   4.430   6.392
  725SOL     OW 2626   1.436   1.162   6.442
  725SOL    HW1 2627   1.368   1.096   6.444
  725SOL    HW2 2628   1.458   1.172   6.350
  726SOL     OW 2629   1.465   0.605   6.560
  726SOL    HW1 2630   1.411   0.526   6.562
  726SOL    HW2 2631   1.523   0.597   6.636
  727SOL     OW 2632   1.845   0.817   5.969
  727SOL    HW1 2633   1.901   0.766   6.027
  727SOL    HW2 2634   1.817   0.755   5.902
  728SOL     OW 2635   0.492   1.418   5.745
  728SOL    HW1 2636   0.414   1.389   5.794
  728SOL    HW2 2637   0.475   1.389   5.655
  729SOL     OW 2638   1.671   1.267   6.228
  729SOL    HW1 2639   1.766   1.269   6.242
  729SOL    HW2 2640   1.641   1.353   6.255
  730SOL     OW 2641   1.395   0.571   5.656
  730SOL    HW1 2642   1.332   0.555   5.727
  730SOL    HW2 2643   1.480   0.552   5.694
  731SOL     OW 2644   0.521   0.264   5.906
  731SOL    HW1 2645   0.571   0.215   5.840
  731SOL    HW2 2646   0.505   0.349   5.865
  732SOL     OW 2647   1.753   1.239   7.159
  732SOL    HW1 2648   1.840   1.201   7.154
  732SOL    HW2 2649   1.768   1.329   7.187
  733SOL     OW 2650   1.058   1.353   6.919
  733SOL    HW1 2651   0.983   1.323   6.970
  733SOL    HW2 2652   1.134   1.312   6.961
  734SOL     OW 2653   1.608   1.625   7.240
  734SOL    HW1 2654   1.602   1.660   7.151
  734SOL    HW2 2655   1.691   1.578   7.242
  735SOL     OW 2656   1.130   1.204   6.691
  735SOL    HW1 2657   1.070   1.241   6.756
  735SOL    HW2 2658   1.096   1.235   6.607
  736SOL     OW 2659   1.628   1.098   6.663
  736SOL    HW1 2660   1.623   1.159   6.737
  736SOL    HW2 2661   1.549   1.115   6.613
  737SOL     OW 2662   0.901   0.134   6.972
  737SOL    HW1 2663   0.923   0.089   6.891
  737SOL    HW2 2664   0.985   0.150   7.015
  738SOL     OW 2665   0.984   1.115   7.309
  738SOL    HW1 2666   0.892   1.131   7.331
  738SOL    HW2 2667   0.982   1.037   7.253
  739SOL     OW 2668   0.709   1.062   5.958
  739SOL    HW1 2669   0.695   1.045   6.051
  739SOL    HW2 2670   0.784   1.008   5.934
  740SOL     OW 2671   0.430   0.827   6.828
  740SOL    HW1 2672   0.499   0.837   6.894
  740SOL    HW2 2673   0.372   0.759   6.863
  741SOL     OW 2674   1.269   0.375   6.860
  741SOL    HW1 2675   1.301   0.454   6.904
  741SOL    HW2 2676   1.180   0.397   6.833
  742SOL     OW 2677   0.063   1.576   6.930
  742SOL    HW1 2678   0.036   1.665   6.907
  742SOL    HW2 2679   0.158   1.580   6.935
  743SOL     OW 2680   0.345   1.109   6.079
  743SOL    HW1 2681   0.355   1.183   6.019
  743SOL    HW2 2682   0.345   1.032   6.023
  744SOL     OW 2683   0.564   0.525   6.438
  744SOL    HW1 2684   0.575   0.586   6.366
  744SOL    HW2 2685   0.624   0.556   6.506
  745SOL     OW 2686   1.248   1.348   5.975
  745SOL    HW1 2687   1.303   1.419   6.008
  745SOL    HW2 2688   1.160   1.368   6.009
  746SOL     OW 2689   1.281   1.457   6.733
  746SOL    HW1 2690   1.337   1.460   6.811
  746SOL    HW2 2691   1.226   1.381   6.746
  747SOL     OW 2692   1.581   0.623   6.064
  747SOL    HW1 2693   1.534   0.672   6.131
  747SOL    HW2 2694   1.625   0.690   6.011
  748SOL     OW 2695   0.347   1.532   6.900
  748SOL    HW1 2696   0.333   1.484   6.818
  748SOL    HW2 2697   0.442   1.541   6.907
  749SOL     OW 2698   0.486   0.759   7.258
  749SOL    HW1 2699   0.511   0.797   7.173
  749SOL    HW2 2700   0.533   0.676   7.261
  750SOL     OW 2701   1.601   0.778   7.267
  750SOL    HW1 2702   1.516   0.820   7.261
  750SOL    HW2 2703   1.654   0.820   7.199
  751SOL     OW 2704   1.003   0.086   7.304
  751SOL    HW1 2705   1.037   0.168   7.267
  751SOL    HW2 2706   1.028   0.019   7.240
  752SOL     OW 2707   0.495   0.044   7.338
  752SOL    HW1 2708   0.481   4.497   7.256
  752SOL    HW2 2709   0.430   0.113   7.338
  753SOL     OW 2710   0.590   0.875   6.610
  753SOL    HW1 2711   0.620   0.965   6.612
  753SOL    HW2 2712   0.534   0.866   6.687
  754SOL     OW 2713   1.357   0.859   6.614
  754SOL    HW1 2714   1.273   0.848   6.570
  754SOL    HW2 2715   1.398   0.772   6.608
  755SOL     OW 2716   1.203   0.536   5.848
  755SOL    HW1 2717   1.210   0.456   5.900
  755SOL    HW2 2718   1.160   0.598   5.906
  756SOL     OW 2719   0.284   0.215   6.820
  756SOL    HW1 2720   0.244   0.233   6.905
  756SOL    HW2 2721   0.326   0.130   6.830
  757SOL     OW 2722   0.037   1.313   6.872
  757SOL    HW1 2723   0.075   1.265   6.946
  757SOL    HW2 2724   0.044   1.405   6.897
  758SOL     OW 2725   0.723   0.631   6.643
  758SOL    HW1 2726   0.798   0.611   6.587
  758SOL    HW2 2727   0.698   0.719   6.619
  759SOL     OW 2728   1.735   0.959   7.439
  759SOL    HW1 2729   1.688   0.898   7.382
  759SOL    HW2 2730   1.675   0.973   7.513
  760SOL     OW 2731   0.321   0.074   6.217
  760SOL    HW1 2732   0.303   0.162   6.248
  760SOL    HW2 2733   0.309   0.018   6.294
  761SOL     OW 2734   1.616   0.379   5.947
  761SOL    HW1 2735   1.644   0.314   6.013
  761SOL    HW2 2736   1.593   0.456   5.999
  762SOL     OW 2737   1.030   0.762   6.547
  762SOL    HW1 2738   1.025   0.778   6.641
  762SOL    HW2 2739   1.000   0.671   6.536
  763SOL     OW 2740   0.983   1.567   7.303
  763SOL    HW1 2741   0.967   1.610   7.219
  763SOL    HW2 2742   1.025   1.484   7.280
  764SOL     OW 2743   1.855   1.505   7.191
  764SOL    HW1 2744   1.872   1.531   7.101
  764SOL    HW2 2745   1.936   1.525   7.238
  765SOL     OW 2746   0.346   0.934   7.404
  765SOL    HW1 2747   0.418   0.965   7.459
  765SOL    HW2 2748   0.386   0.866   7.349
  766SOL     OW 2749   1.530   0.264   5.714
  766SOL    HW1 2750   1.458   0.208   5.744
  766SOL    HW2 2751   1.560   0.309   5.793
  767SOL     OW 2752   1.292   0.826   5.616
  767SOL    HW1 2753   1.333   0.740   5.619
  767SOL    HW2 2754   1.322   0.865   5.535
  768SOL     OW 2755   1.066   1.335   6.439
  768SOL    HW1 2756   1.069   1.263   6.377
  768SOL    HW2 2757   1.127   1.400   6.404
  769SOL     OW 2758   0.318   0.812   6.532
  769SOL    HW1 2759   0.413   0.830   6.530
  769SOL    HW2 2760   0.312   0.721   6.562
  770SOL     OW 2761   0.334   0.530   6.575
  770SOL    HW1 2762   0.289   0.448   6.556
  770SOL    HW2 2763   0.412   0.528   6.519
  771SOL     OW 2764   1.136   0.373   7.283
  771SOL    HW1 2765   1.085   0.437   7.334
  771SOL    HW2 2766   1.221   0.415   7.270
  772SOL     OW 2767   1.156   0.213   7.059
  772SOL    HW1 2768   1.151   0.277   7.130
  772SOL    HW2 2769   1.197   0.261   6.987
  773SOL     OW 2770   4.491   1.322   5.792
  773SOL    HW1 2771   4.399   1.338   5.774
  773SOL    HW2 2772   4.496   1.228   5.813
  774SOL     OW 2773   0.098   1.775   6.526
  774SOL    HW1 2774   0.059   1.723   6.455
  774SOL    HW2 2775   0.186   1.797   6.495
  775SOL     OW 2776   0.496   1.574   6.493
  775SOL    HW1 2777   0.564   1.637   6.517
  775SOL    HW2 2778   0.540   1.511   6.436
  776SOL     OW 2779   0.983   0.793   6.813
  776SOL    HW1 2780   1.039   0.770   6.887
  776SOL    HW2 2781   0.898   0.754   6.833
  777SOL     OW 2782   0.037   0.568   6.697
  777SOL    HW1 2783   0.112   0.526   6.654
  777SOL    HW2 2784   0.012   0.507   6.767
  778SOL     OW 2785   0.179   0.526   7.299
  778SOL    HW1 2786   0.267   0.507   7.265
  778SOL    HW2 2787   0.152   0.605   7.254
  779SOL     OW 2788   1.378   0.938   7.244
  779SOL    HW1 2789   1.398   1.032   7.243
  779SOL    HW2 2790   1.374   0.913   7.152
  780SOL     OW 2791   0.812   0.575   5.942
  780SOL    HW1 2792   0.815   0.504   5.878
  780SOL    HW2 2793   0.739   0.630   5.912
  781SOL     OW 2794   1.640   0.602   6.771
  781SOL    HW1 2795   1.630   0.543   6.846
  781SOL    HW2 2796   1.727   0.582   6.737
  782SOL     OW 2797   0.272   1.562   7.326
  782SOL    HW1 2798   0.216   1.613   7.384
  782SOL    HW2 2799   0.254   1.471   7.349
  783SOL     OW 2800   0.688   0.463   6.852
  783SOL    HW1 2801   0.648   0.384   6.818
  783SOL    HW2 2802   0.693   0.522   6.777
  784SOL     OW 2803   0.928   1.679   7.053
  784SOL    HW1 2804   0.901   1.644   6.968
  784SOL    HW2 2805   0.923   1.774   7.043
  785SOL     OW 2806   0.472   0.491   5.768
  785SOL    HW1 2807   0.532   0.561   5.792
  785SOL    HW2 2808   0.389   0.534   5.752
  786SOL     OW 2809   0.162   1.141   7.047
  786SOL    HW1 2810   0.145   1.096   7.130
  786SOL    HW2 2811   0.169   1.070   6.982
  787SOL     OW 2812   1.326   1.046   6.808
  787SOL    HW1 2813   1.348   0.983   6.740
  787SOL    HW2 2814   1.256   1.099   6.770
  788SOL     OW 2815   1.312   0.857   5.892
  788SOL    HW1 2816   1.238   0.827   5.944
  788SOL    HW2 2817   1.285   0.844   5.801
  789SOL     OW 2818   1.754   1.746   6.733
  789SOL    HW1 2819   1.829   1.766   6.677
  789SOL    HW2 2820   1.737   1.653   6.717
  790SOL     OW 2821   1.238   1.732   6.698
  790SOL    HW1 2822   1.322   1.753   6.657
  790SOL    HW2 2823   1.245   1.638   6.718
  791SOL     OW 2824   0.067   1.184   6.636
  791SOL    HW1 2825   0.064   1.216   6.726
  791SOL    HW2 2826   0.025   1.254   6.585
  792SOL     OW 2827   0.679   1.666   7.316
  792SOL    HW1 2828   0.622   1.743   7.310
  792SOL    HW2 2829   0.743   1.678   7.246
  793SOL     OW 2830   1.719   0.129   6.078
  793SOL    HW1 2831   1.789   0.139   6.014
  793SOL    HW2 2832   1.747   0.058   6.135
  794SOL     OW 2833   1.389   1.568   6.071
  794SOL    HW1 2834   1.440   1.600   5.997
  794SOL    HW2 2835   1.338   1.644   6.100
  795SOL     OW 2836   0.118   1.808   7.434
  795SOL    HW1 2837   0.078   1.735   7.482
  795SOL    HW2 2838   0.182   1.845   7.495
  796SOL     OW 2839   1.278   0.928   6.258
  796SOL    HW1 2840   1.351   0.866   6.264
  796SOL    HW2 2841   1.313   1.000   6.206
  797SOL     OW 2842   0.814   1.274   7.015
  797SOL    HW1 2843   0.786   1.313   7.098
  797SOL    HW2 2844   0.743   1.295   6.954
  798SOL     OW 2845   0.673   1.620   5.741
  798SOL    HW1 2846   0.682   1.632   5.646
  798SOL    HW2 2847   0.617   1.542   5.750
  799SOL     OW 2848   1.624   1.727   6.978
  799SOL    HW1 2849   1.671   1.734   6.895
  799SOL    HW2 2850   1.612   1.817   7.006
  800SOL     OW 2851   1.839   0.154   6.551
  800SOL    HW1 2852   1.868   0.075   6.505
  800SOL    HW2 2853   1.752   0.172   6.515
  801SOL     OW 2854   0.262   0.325   6.308
  801SOL    HW1 2855   0.179   0.358   6.275
  801SOL    HW2 2856   0.248   0.315   6.402
  802SOL     OW 2857   1.207   1.605   5.617
  802SOL    HW1 2858   1.197   1.514   5.644
  802SOL    HW2 2859   1.142   1.618   5.548
  803SOL     OW 2860   0.825   1.007   6.958
  803SOL    HW1 2861   0.868   1.003   6.873
  803SOL    HW2 2862   0.824   1.100   6.980
  804SOL     OW 2863   0.916   0.911   5.876
  804SOL    HW1 2864   0.977   0.942   5.810
  804SOL    HW2 2865   0.963   0.841   5.921
  805SOL     OW 2866   1.488   1.624   5.628
  805SOL    HW1 2867   1.393   1.618   5.613
  805SOL    HW2 2868   1.526   1.629   5.540
  806SOL     OW 2869   0.373   1.308   7.077
  806SOL    HW1 2870   0.355   1.386   7.025
  806SOL    HW2 2871   0.298   1.250   7.060
  807SOL     OW 2872   1.609   1.280   6.870
  807SOL    HW1 2873   1.670   1.270   6.943
  807SOL    HW2 2874   1.549   1.349   6.897
  808SOL     OW 2875   1.053   1.107   6.292
  808SOL    HW1 2876   0.982   1.057   6.331
  808SOL    HW2 2877   1.116   1.041   6.263
  809SOL     OW 2878   1.004   0.244   6.592
  809SOL    HW1 2879   1.010   0.223   6.499
  809SOL    HW2 2880   0.997   0.159   6.636
  810SOL     OW 2881   0.605   1.490   6.068
  810SOL    HW1 2882   0.646   1.440   5.998
  810SOL    HW2 2883   0.529   1.531   6.027
  811SOL     OW 2884   1.722   0.394   6.962
  811SOL    HW1 2885   1.795   0.456   6.962
  811SOL    HW2 2886   1.751   0.322   6.906
  812SOL     OW 2887   0.252   1.344   5.862
  812SOL    HW1 2888   0.157   1.342   5.848
  812SOL    HW2 2889   0.263   1.376   5.952
  813SOL     OW 2890   0.115   1.007   7.281
  813SOL    HW1 2891   0.053   1.051   7.338
  813SOL    HW2 2892   0.194   0.998   7.334
  814SOL     OW 2893   0.658   0.209   7.084
  814SOL    HW1 2894   0.737   0.183   7.037
  814SOL    HW2 2895   0.687   0.226   7.174
  815SOL     OW 2896   0.072   0.320   5.612
  815SOL    HW1 2897   4.478   0.327   5.627
  815SOL    HW2 2898   0.098   0.407   5.581
  816SOL     OW 2899   1.429   0.858   6.986
  816SOL    HW1 2900   1.381   0.919   6.930
  816SOL    HW2 2901   1.519   0.861   6.952
  817SOL     OW 2902   0.085   0.188   5.888
  817SOL    HW1 2903   0.076   0.261   5.827
  817SOL    HW2 2904   0.165   0.143   5.860
  818SOL     OW 2905   1.179   1.339   5.703
  818SOL    HW1 2906   1.088   1.310   5.704
  818SOL    HW2 2907   1.205   1.338   5.794
  819SOL     OW 2908   0.624   0.830   7.017
  819SOL    HW1 2909   0.679   0.907   7.003
  819SOL    HW2 2910   0.686   0.757   7.025
  820SOL     OW 2911   1.482   1.768   6.571
  820SOL    HW1 2912   1.508   1.810   6.488
  820SOL    HW2 2913   1.565   1.750   6.616
  821SOL     OW 2914   0.712   0.562   7.291
  821SOL    HW1 2915   0.753   0.627   7.349
  821SOL    HW2 2916   0.746   0.478   7.323
  822SOL     OW 2917   1.471   1.200   7.218
  822SOL    HW1 2918   1.459   1.214   7.312
  822SOL    HW2 2919   1.565   1.215   7.203
  823SOL     OW 2920   0.379   1.744   7.150
  823SOL    HW1 2921   0.295   1.785   7.132
  823SOL    HW2 2922   0.357   1.664   7.199
  824SOL     OW 2923   1.670   0.881   6.841
  824SOL    HW1 2924   1.662   0.796   6.798
  824SOL    HW2 2925   1.660   0.945   6.770
  825SOL     OW 2926   1.218   0.331   6.033
  825SOL    HW1 2927   1.284   0.262   6.022
  825SOL    HW2 2928   1.246   0.378   6.112
  826SOL     OW 2929   0.587   0.737   6.257
  826SOL    HW1 2930   0.627   0.822   6.242
  826SOL    HW2 2931   0.520   0.730   6.189
  827SOL     OW 2932   1.762   0.367   7.230
  827SOL    HW1 2933   1.746   0.380   7.136
  827SOL    HW2 2934   1.684   0.320   7.261
  828SOL     OW 2935   1.745   0.933   7.098
  828SOL    HW1 2936   1.742   1.028   7.112
  828SOL    HW2 2937   1.730   0.922   7.004
  829SOL     OW 2938   0.865   1.367   5.621
  829SOL    HW1 2939   0.824   1.393   5.704
  829SOL    HW2 2940   0.880   1.449   5.575
  830SOL     OW 2941   0.660   1.791   6.530
  830SOL    HW1 2942   0.640   1.882   6.507
  830SOL    HW2 2943   0.756   1.785   6.523
  831SOL     OW 2944   0.868   0.968   6.440
  831SOL    HW1 2945   0.918   0.896   6.479
  831SOL    HW2 2946   0.833   1.015   6.515
  832SOL     OW 2947   1.080   0.989   5.676
  832SOL    HW1 2948   1.057   1.039   5.597
  832SOL    HW2 2949   1.154   0.935   5.648
  833SOL     OW 2950   1.847   1.557   6.463
  833SOL    HW1 2951   1.793   1.538   6.387
  833SOL    HW2 2952   1.836   1.482   6.521
  834SOL     OW 2953   0.231   1.305   7.444
  834SOL    HW1 2954   0.155   1.250   7.423
  834SOL    HW2 2955   0.227   1.316   7.539
  835SOL     OW 2956   0.108   1.234   6.254
  835SOL    HW1 2957   0.121   1.190   6.338
  835SOL    HW2 2958   0.167   1.190   6.193
  836SOL     OW 2959   0.682   1.403   7.214
  836SOL    HW1 2960   0.602   1.359   7.243
  836SOL    HW2 2961   0.676   1.491   7.252
  837SOL     OW 2962   1.808   0.181   6.824
  837SOL    HW1 2963   1.805   0.087   6.845
  837SOL    HW2 2964   1.824   0.184   6.730
  838SOL     OW 2965   0.441   0.430   6.118
  838SOL    HW1 2966   0.457   0.361   6.055
  838SOL    HW2 2967   0.381   0.392   6.182
  839SOL     OW 2968   1.693   1.487   6.694
  839SOL    HW1 2969   1.615   1.463   6.644
  839SOL    HW2 2970   1.704   1.415   6.757
  840SOL     OW 2971   0.310   0.504   6.839
  840SOL    HW1 2972   0.383   0.456   6.878
  840SOL    HW2 2973   0.335   0.515   6.747
  841SOL     OW 2974   0.829   1.577   6.263
  841SOL    HW1 2975   0.813   1.633   6.186
  841SOL    HW2 2976   0.752   1.520   6.267
  842SOL     OW 2977   1.432   0.216   6.703
  842SOL    HW1 2978   1.467   0.144   6.757
  842SOL    HW2 2979   1.381   0.269   6.765
  843SOL     OW 2980   0.996   0.006   6.737
  843SOL    HW1 2981   0.954   4.420   6.729
  843SOL    HW2 2982   1.089   4.486   6.748
  844SOL     OW 2983   0.772   1.332   5.900
  844SOL    HW1 2984   0.741   1.242   5.906
  844SOL    HW2 2985   0.854   1.333   5.950
  845SOL     OW 2986   0.621   1.556   6.871
  845SOL    HW1 2987   0.623   1.638   6.921
  845SOL    HW2 2988   0.708   1.549   6.833
  846SOL     OW 2989   1.340   0.052   5.740
  846SOL    HW1 2990   1.379   4.477   5.696
  846SOL    HW2 2991   1.264   0.017   5.787
  847SOL     OW 2992   1.315   0.463   6.262
  847SOL    HW1 2993   1.255   0.539   6.263
  847SOL    HW2 2994   1.303   0.422   6.347
  848SOL     OW 2995   1.585   0.200   6.454
  848SOL    HW1 2996   1.526   0.215   6.528
  848SOL    HW2 2997   1.588   0.283   6.407
  849SOL     OW 2998   0.041   1.051   5.874
  849SOL    HW1 2999   0.134   1.033   5.864
  849SOL    HW2 3000   0.020   1.020   5.963
  850SOL     OW 3001   0.886   1.654   5.927
  850SOL    HW1 3002   0.813   1.636   5.868
  850SOL    HW2 3003   0.856   1.728   5.980
  851SOL     OW 3004   0.246   0.628   7.570
  851SOL    HW1 3005   0.172   0.605   7.626
  851SOL    HW2 3006   0.214   0.614   7.481
  852SOL     OW 3007   0.193   0.294   8.437
  852SOL    HW1 3008   0.227   0.267   8.523
  852SOL    HW2 3009   0.131   0.224   8.413
  853SOL     OW 3010   0.003   0.383   8.087
  853SOL    HW1 3011   4.425   0.419   8.129
  853SOL    HW2 3012   4.470   0.311   8.034
  854SOL     OW 3013   0.568   1.288   8.624
  854SOL    HW1 3014   0.480   1.293   8.585
  854SOL    HW2 3015   0.584   1.376   8.659
  855SOL     OW 3016   1.561   1.512   8.155
  855SOL    HW1 3017   1.519   1.492   8.239
  855SOL    HW2 3018   1.490   1.516   8.092
  856SOL     OW 3019   1.135   0.698   8.146
  856SOL    HW1 3020   1.181   0.782   8.136
  856SOL    HW2 3021   1.085   0.708   8.227
  857SOL     OW 3022   1.768   0.606   7.675
  857SOL    HW1 3023   1.747   0.597   7.583
  857SOL    HW2 3024   1.735   0.526   7.716
  858SOL     OW 3025   0.754   1.142   8.489
  858SOL    HW1 3026   0.686   1.177   8.546
  858SOL    HW2 3027   0.790   1.218   8.445
  859SOL     OW 3028   0.866   0.772   9.269
  859SOL    HW1 3029   0.852   0.843   9.332
  859SOL    HW2 3030   0.890   0.817   9.188
  860SOL     OW 3031   0.685   1.003   8.095
  860SOL    HW1 3032   0.751   0.991   8.164
  860SOL    HW2 3033   0.616   1.054   8.137
  861SOL     OW 3034   0.711   1.150   9.261
  861SOL    HW1 3035   0.758   1.229   9.288
  861SOL    HW2 3036   0.629   1.182   9.224
  862SOL     OW 3037   0.335   1.421   8.517
  862SOL    HW1 3038   0.254   1.401   8.471
  862SOL    HW2 3039   0.385   1.475   8.456
  863SOL     OW 3040   1.461   1.500   8.802
  863SOL    HW1 3041   1.512   1.580   8.811
  863SOL    HW2 3042   1.399   1.503   8.875
  864SOL     OW 3043   0.440   0.395   8.938
  864SOL    HW1 3044   0.529   0.360   8.938
  864SOL    HW2 3045   0.385   0.320   8.961
  865SOL     OW 3046   1.611   0.445   8.187
  865SOL    HW1 3047   1.530   0.466   8.139
  865SOL    HW2 3048   1.628   0.523   8.240
  866SOL     OW 3049   0.245   1.691   7.925
  866SOL    HW1 3050   0.230   1.776   7.966
  866SOL    HW2 3051   0.315   1.708   7.861
  867SOL     OW 3052   1.136   1.341   9.141
  867SOL    HW1 3053   1.177   1.337   9.227
  867SOL    HW2 3054   1.084   1.262   9.134
  868SOL     OW 3055   0.249   1.426   7.975
  868SOL    HW1 3056   0.240   1.522   7.977
  868SOL    HW2 3057   0.187   1.394   8.040
  869SOL     OW 3058   0.248   1.082   8.332
  869SOL    HW1 3059   0.265   0.992   8.360
  869SOL    HW2 3060   0.188   1.117   8.398
  870SOL     OW 3061   0.612   1.791   8.879
  870SOL    HW1 3062   0.529   1.773   8.922
  870SOL    HW2 3063   0.633   1.881   8.903
  871SOL     OW 3064   0.578   0.988   7.587
  871SOL    HW1 3065   0.626   1.030   7.516
  871SOL    HW2 3066   0.623   1.016   7.667
  872SOL     OW 3067   1.581   0.116   8.918
  872SOL    HW1 3068   1.605   0.185   8.856
  872SOL    HW2 3069   1.571   0.161   9.002
  873SOL     OW 3070   0.136   0.644   8.022
  873SOL    HW1 3071   0.084   0.565   8.041
  873SOL    HW2 3072   0.108   0.707   8.088
  874SOL     OW 3073   1.842   1.759   7.781
  874SOL    HW1 3074   1.904   1.730   7.849
  874SOL    HW2 3075   1.866   1.850   7.764
  875SOL     OW 3076   0.032   1.602   7.590
  875SOL    HW1 3077   0.020   1.508   7.586
  875SOL    HW2 3078   0.025   1.624   7.683
  876SOL     OW 3079   1.691   0.920   8.089
  876SOL    HW1 3080   1.773   0.877   8.066
  876SOL    HW2 3081   1.667   0.970   8.011
  877SOL     OW 3082   1.646   1.107   7.877
  877SOL    HW1 3083   1.732   1.112   7.835
  877SOL    HW2 3084   1.651   1.168   7.950
  878SOL     OW 3085   0.105   0.766   9.028
  878SOL    HW1 3086   0.195   0.760   8.997
  878SOL    HW2 3087   0.093   0.858   9.050
  879SOL     OW 3088   0.614   1.386   8.184
  879SOL    HW1 3089   0.567   1.303   8.194
  879SOL    HW2 3090   0.597   1.412   8.094
  880SOL     OW 3091   1.288   1.238   8.871
  880SOL    HW1 3092   1.321   1.171   8.811
  880SOL    HW2 3093   1.346   1.232   8.947
  881SOL     OW 3094   0.821   0.014   8.001
  881SOL    HW1 3095   0.856   0.100   7.975
  881SOL    HW2 3096   0.727   0.022   7.988
  882SOL     OW 3097   0.179   0.940   8.727
  882SOL    HW1 3098   0.271   0.923   8.707
  882SOL    HW2 3099   0.133   0.927   8.644
  883SOL     OW 3100   1.532   0.993   7.647
  883SOL    HW1 3101   1.461   0.937   7.679
  883SOL    HW2 3102   1.572   1.028   7.726
  884SOL     OW 3103   1.185   1.807   9.070
  884SOL    HW1 3104   1.197   1.865   8.996
  884SOL    HW2 3105   1.202   1.719   9.035
  885SOL     OW 3106   0.318   0.260   9.216
  885SOL    HW1 3107   0.386   0.311   9.260
  885SOL    HW2 3108   0.241   0.267   9.273
  886SOL     OW 3109   1.466   1.419   8.399
  886SOL    HW1 3110   1.398   1.435   8.465
  886SOL    HW2 3111   1.454   1.328   8.373
  887SOL     OW 3112   1.661   1.738   8.025
  887SOL    HW1 3113   1.638   1.709   7.937
  887SOL    HW2 3114   1.634   1.666   8.082
  888SOL     OW 3115   0.595   0.723   7.714
  888SOL    HW1 3116   0.597   0.805   7.664
  888SOL    HW2 3117   0.530   0.737   7.782
  889SOL     OW 3118   1.292   0.365   8.381
  889SOL    HW1 3119   1.202   0.334   8.364
  889SOL    HW2 3120   1.327   0.301   8.443
  890SOL     OW 3121   1.580   1.670   7.757
  890SOL    HW1 3122   1.670   1.702   7.750
  890SOL    HW2 3123   1.553   1.653   7.667
  891SOL     OW 3124   0.797   0.618   8.902
  891SOL    HW1 3125   0.769   0.593   8.990
  891SOL    HW2 3126   0.755   0.555   8.844
  892SOL     OW 3127   1.388   0.479   9.124
  892SOL    HW1 3128   1.392   0.524   9.209
  892SOL    HW2 3129   1.455   0.411   9.130
  893SOL     OW 3130   0.954   0.888   9.031
  893SOL    HW1 3131   1.009   0.817   8.995
  893SOL    HW2 3132   0.907   0.922   8.955
  894SOL     OW 3133   0.998   0.417   8.683
  894SOL    HW1 3134   0.910   0.425   8.721
  894SOL    HW2 3135   0.985   0.365   8.604
  895SOL     OW 3136   1.050   0.698   7.875
  895SOL    HW1 3137   1.067   0.690   7.969
  895SOL    HW2 3138   0.967   0.651   7.861
  896SOL     OW 3139   0.097   0.826   8.232
  896SOL    HW1 3140   0.184   0.812   8.270
  896SOL    HW2 3141   0.042   0.851   8.306
  897SOL     OW 3142   0.122   1.859   9.025
  897SOL    HW1 3143   0.116   1.835   9.118
  897SOL    HW2 3144   0.046   1.818   8.985
  898SOL     OW 3145   0.853   0.369   7.629
  898SOL    HW1 3146   0.926   0.403   7.577
  898SOL    HW2 3147   0.870   0.275   7.634
  899SOL     OW 3148   1.704   0.573   9.276
  899SOL    HW1 3149   1.668   0.648   9.228
  899SOL    HW2 3150   1.740   0.516   9.208
  900SOL     OW 3151   1.377   1.142   7.989
  900SOL    HW1 3152   1.456   1.130   7.936
  900SOL    HW2 3153   1.324   1.205   7.939
  901SOL     OW 3154   0.541   0.205   8.348
  901SOL    HW1 3155   0.562   0.224   8.440
  901SOL    HW2 3156   0.533   0.291   8.307
  902SOL     OW 3157   1.005   1.444   7.920
  902SOL    HW1 3158   0.968   1.517   7.870
  902SOL    HW2 3159   0.987   1.465   8.011
  903SOL     OW 3160   0.356   1.811   8.307
  903SOL    HW1 3161   0.398   1.726   8.317
  903SOL    HW2 3162   0.426   1.874   8.323
  904SOL     OW 3163   1.799   1.057   8.316
  904SOL    HW1 3164   1.745   1.038   8.239
  904SOL    HW2 3165   1.738   1.063   8.389
  905SOL     OW 3166   1.228   1.539   8.961
  905SOL    HW1 3167   1.214   1.466   9.022
  905SOL    HW2 3168   1.165   1.524   8.891
  906SOL     OW 3169   0.315   0.954   7.702
  906SOL    HW1 3170   0.399   0.977   7.662
  906SOL    HW2 3171   0.300   0.863   7.675
  907SOL     OW 3172   1.480   0.742   8.172
  907SOL    HW1 3173   1.469   0.699   8.257
  907SOL    HW2 3174   1.556   0.799   8.184
  908SOL     OW 3175   0.468   1.263   9.183
  908SOL    HW1 3176   0.441   1.269   9.092
  908SOL    HW2 3177   0.386   1.267   9.233
  909SOL     OW 3178   1.122   1.778   7.679
  909SOL    HW1 3179   1.049   1.736   7.724
  909SOL    HW2 3180   1.145   1.716   7.609
  910SOL     OW 3181   0.162   0.266   8.958
  910SOL    HW1 3182   0.135   0.353   8.929
  910SOL    HW2 3183   0.197   0.279   9.046
  911SOL     OW 3184   1.629   1.380   7.536
  911SOL    HW1 3185   1.587   1.465   7.521
  911SOL    HW2 3186   1.560   1.316   7.517
  912SOL     OW 3187   0.469   1.742   7.762
  912SOL    HW1 3188   0.511   1.797   7.829
  912SOL    HW2 3189   0.541   1.708   7.710
  913SOL     OW 3190   1.422   0.140   7.866
  913SOL    HW1 3191   1.405   0.087   7.787
  913SOL    HW2 3192   1.516   0.132   7.881
  914SOL     OW 3193   0.255   1.788   8.682
  914SOL    HW1 3194   0.304   1.713   8.717
  914SOL    HW2 3195   0.225   1.758   8.596
  915SOL     OW 3196   0.938   1.699   8.347
  915SOL    HW1 3197   1.015   1.647   8.369
  915SOL    HW2 3198   0.894   1.649   8.278
  916SOL     OW 3199   0.394   0.693   7.920
  916SOL    HW1 3200   0.419   0.601   7.934
  916SOL    HW2 3201   0.302   0.697   7.946
  917SOL     OW 3202   1.525   0.233   9.171
  917SOL    HW1 3203   1.525   0.255   9.264
  917SOL    HW2 3204   1.447   0.179   9.159
  918SOL     OW 3205   0.625   0.121   7.566
  918SOL    HW1 3206   0.714   0.085   7.578
  918SOL    HW2 3207   0.595   0.083   7.484
  919SOL     OW 3208   0.768   0.270   9.202
  919SOL    HW1 3209   0.835   0.202   9.209
  919SOL    HW2 3210   0.729   0.274   9.290
  920SOL     OW 3211   0.877   1.522   8.642
  920SOL    HW1 3212   0.861   1.485   8.555
  920SOL    HW2 3213   0.946   1.467   8.678
  921SOL     OW 3214   1.341   0.589   8.877
  921SOL    HW1 3215   1.369   0.561   8.964
  921SOL    HW2 3216   1.375   0.678   8.869
  922SOL     OW 3217   0.816   1.395   8.388
  922SOL    HW1 3218   0.900   1.383   8.344
  922SOL    HW2 3219   0.751   1.396   8.317
  923SOL     OW 3220   0.923   0.519   8.347
  923SOL    HW1 3221   0.907   0.517   8.253
  923SOL    HW2 3222   0.960   0.433   8.367
  924SOL     OW 3223   0.562   0.069   7.956
  924SOL    HW1 3224   0.476   0.055   7.995
  924SOL    HW2 3225   0.549   0.138   7.891
  925SOL     OW 3226   1.428   1.198   7.489
  925SOL    HW1 3227   1.458   1.123   7.539
  925SOL    HW2 3228   1.342   1.220   7.526
  926SOL     OW 3229   0.305   0.073   7.637
  926SOL    HW1 3230   0.388   0.119   7.635
  926SOL    HW2 3231   0.320   4.499   7.695
  927SOL     OW 3232   0.954   0.240   7.916
  927SOL    HW1 3233   0.902   0.297   7.860
  927SOL    HW2 3234   1.043   0.276   7.910
  928SOL     OW 3235   1.081   0.681   8.908
  928SOL    HW1 3236   1.010   0.617   8.908
  928SOL    HW2 3237   1.160   0.630   8.897
  929SOL     OW 3238   1.224   1.569   8.241
  929SOL    HW1 3239   1.240   1.637   8.175
  929SOL    HW2 3240   1.291   1.585   8.308
  930SOL     OW 3241   0.466   1.150   8.183
  930SOL    HW1 3242   0.396   1.131   8.245
  930SOL    HW2 3243   0.427   1.134   8.097
  931SOL     OW 3244   1.269   1.794   8.056
  931SOL    HW1 3245   1.315   1.855   7.999
  931SOL    HW2 3246   1.202   1.847   8.100
  932SOL     OW 3247   1.029   0.547   7.465
  932SOL    HW1 3248   0.980   0.628   7.450
  932SOL    HW2 3249   1.087   0.567   7.538
  933SOL     OW 3250   0.094   0.516   8.862
  933SOL    HW1 3251   0.151   0.523   8.785
  933SOL    HW2 3252   0.059   0.604   8.874
  934SOL     OW 3253   0.561   0.245   8.615
  934SOL    HW1 3254   0.591   0.162   8.652
  934SOL    HW2 3255   0.467   0.246   8.633
  935SOL     OW 3256   0.865   0.504   8.075
  935SOL    HW1 3257   0.822   0.544   8.000
  935SOL    HW2 3258   0.828   0.415   8.080
  936SOL     OW 3259   0.961   0.023   8.235
  936SOL    HW1 3260   0.913   0.023   8.152
  936SOL    HW2 3261   0.976   4.430   8.254
  937SOL     OW 3262   1.437   1.162   8.305
  937SOL    HW1 3263   1.367   1.096   8.304
  937SOL    HW2 3264   1.460   1.173   8.213
  938SOL     OW 3265   1.465   0.605   8.422
  938SOL    HW1 3266   1.411   0.526   8.424
  938SOL    HW2 3267   1.523   0.597   8.498
  939SOL     OW 3268   1.845   0.816   7.831
  939SOL    HW1 3269   1.902   0.765   7.889
  939SOL    HW2 3270   1.817   0.754   7.764
  940SOL     OW 3271   0.491   1.418   7.607
  940SOL    HW1 3272   0.414   1.389   7.655
  940SOL    HW2 3273   0.476   1.389   7.517
  941SOL     OW 3274   1.671   1.265   8.093
  941SOL    HW1 3275   1.765   1.268   8.107
  941SOL    HW2 3276   1.640   1.353   8.115
  942SOL     OW 3277   1.394   0.571   7.517
  942SOL    HW1 3278   1.333   0.555   7.589
  942SOL    HW2 3279   1.480   0.553   7.556
  943SOL     OW 3280   0.521   0.264   7.768
  943SOL    HW1 3281   0.571   0.215   7.703
  943SOL    HW2 3282   0.505   0.349   7.727
  944SOL     OW 3283   1.753   1.239   9.021
  944SOL    HW1 3284   1.840   1.201   9.016
  944SOL    HW2 3285   1.768   1.330   9.048
  945SOL     OW 3286   1.058   1.353   8.781
  945SOL    HW1 3287   0.983   1.323   8.832
  945SOL    HW2 3288   1.134   1.312   8.823
  946SOL     OW 3289   1.608   1.624   9.101
  946SOL    HW1 3290   1.602   1.661   9.013
  946SOL    HW2 3291   1.692   1.578   9.103
  947SOL     OW 3292   1.129   1.204   8.553
  947SOL    HW1 3293   1.070   1.242   8.618
  947SOL    HW2 3294   1.097   1.236   8.469
  948SOL     OW 3295   1.628   1.098   8.525
  948SOL    HW1 3296   1.624   1.160   8.598
  948SOL    HW2 3297   1.549   1.115   8.474
  949SOL     OW 3298   0.901   0.134   8.835
  949SOL    HW1 3299   0.923   0.089   8.753
  949SOL    HW2 3300   0.985   0.150   8.877
  950SOL     OW 3301   0.984   1.114   9.171
  950SOL    HW1 3302   0.892   1.131   9.193
  950SOL    HW2 3303   0.982   1.037   9.115
  951SOL     OW 3304   0.709   1.061   7.820
  951SOL    HW1 3305   0.696   1.045   7.914
  951SOL    HW2 3306   0.784   1.008   7.796
  952SOL     OW 3307   0.430   0.827   8.690
  952SOL    HW1 3308   0.499   0.837   8.756
  952SOL    HW2 3309   0.372   0.760   8.725
  953SOL     OW 3310   1.269   0.375   8.722
  953SOL    HW1 3311   1.301   0.454   8.766
  953SOL    HW2 3312   1.180   0.397   8.695
  954SOL     OW 3313   0.063   1.576   8.793
  954SOL    HW1 3314   0.037   1.665   8.768
  954SOL    HW2 3315   0.158   1.579   8.797
  955SOL     OW 3316   0.345   1.109   7.941
  955SOL    HW1 3317   0.356   1.183   7.881
  955SOL    HW2 3318   0.345   1.032   7.885
  956SOL     OW 3319   0.563   0.525   8.300
  956SOL    HW1 3320   0.575   0.586   8.228
  956SOL    HW2 3321   0.624   0.556   8.368
  957SOL     OW 3322   1.248   1.348   7.837
  957SOL    HW1 3323   1.304   1.420   7.868
  957SOL    HW2 3324   1.161   1.369   7.871
  958SOL     OW 3325   1.281   1.458   8.595
  958SOL    HW1 3326   1.337   1.461   8.673
  958SOL    HW2 3327   1.226   1.381   8.608
  959SOL     OW 3328   1.581   0.623   7.926
  959SOL    HW1 3329   1.534   0.673   7.993
  959SOL    HW2 3330   1.625   0.690   7.873
  960SOL     OW 3331   0.347   1.532   8.762
  960SOL    HW1 3332   0.333   1.484   8.680
  960SOL    HW2 3333   0.442   1.541   8.769
  961SOL     OW 3334   0.486   0.759   9.119
  961SOL    HW1 3335   0.511   0.797   9.035
  961SOL    HW2 3336   0.534   0.676   9.123
  962SOL     OW 3337   1.601   0.778   9.129
  962SOL    HW1 3338   1.516   0.820   9.123
  962SOL    HW2 3339   1.654   0.820   9.061
  963SOL     OW 3340   1.003   0.086   9.166
  963SOL    HW1 3341   1.037   0.168   9.129
  963SOL    HW2 3342   1.028   0.019   9.102
  964SOL     OW 3343   0.495   0.043   9.200
  964SOL    HW1 3344   0.481   4.497   9.118
  964SOL    HW2 3345   0.430   0.113   9.200
  965SOL     OW 3346   0.589   0.875   8.472
  965SOL    HW1 3347   0.620   0.965   8.474
  965SOL    HW2 3348   0.534   0.866   8.549
  966SOL     OW 3349   1.357   0.858   8.477
  966SOL    HW1 3350   1.273   0.849   8.432
  966SOL    HW2 3351   1.398   0.772   8.470
  967SOL     OW 3352   1.203   0.535   7.710
  967SOL    HW1 3353   1.209   0.455   7.762
  967SOL    HW2 3354   1.160   0.598   7.768
  968SOL     OW 3355   0.284   0.215   8.682
  968SOL    HW1 3356   0.244   0.232   8.767
  968SOL    HW2 3357   0.326   0.130   8.692
  969SOL     OW 3358   0.037   1.313   8.734
  969SOL    HW1 3359   0.074   1.265   8.808
  969SOL    HW2 3360   0.043   1.405   8.759
  970SOL     OW 3361   0.723   0.631   8.505
  970SOL    HW1 3362   0.798   0.611   8.449
  970SOL    HW2 3363   0.698   0.719   8.481
  971SOL     OW 3364   1.735   0.959   9.301
  971SOL    HW1 3365   1.688   0.898   9.243
  971SOL    HW2 3366   1.675   0.973   9.375
  972SOL     OW 3367   0.321   0.074   8.079
  972SOL    HW1 3368   0.303   0.162   8.109
  972SOL    HW2 3369   0.309   0.018   8.156
  973SOL     OW 3370   1.616   0.379   7.810
  973SOL    HW1 3371   1.644   0.315   7.875
  973SOL    HW2 3372   1.593   0.456   7.860
  974SOL     OW 3373   1.030   0.762   8.409
  974SOL    HW1 3374   1.025   0.778   8.503
  974SOL    HW2 3375   1.000   0.671   8.398
  975SOL     OW 3376   0.982   1.566   9.165
  975SOL    HW1 3377   0.967   1.610   9.082
  975SOL    HW2 3378   1.025   1.484   9.142
  976SOL     OW 3379   1.856   1.504   9.053
  976SOL    HW1 3380   1.871   1.533   8.963
  976SOL    HW2 3381   1.936   1.527   9.099
  977SOL     OW 3382   0.346   0.934   9.266
  977SOL    HW1 3383   0.418   0.965   9.321
  977SOL    HW2 3384   0.386   0.866   9.211
  978SOL     OW 3385   1.530   0.264   7.576
  978SOL    HW1 3386   1.459   0.208   7.606
  978SOL    HW2 3387   1.560   0.309   7.655
  979SOL     OW 3388   1.291   0.826   7.478
  979SOL    HW1 3389   1.333   0.740   7.481
  979SOL    HW2 3390   1.322   0.866   7.397
  980SOL     OW 3391   1.066   1.336   8.302
  980SOL    HW1 3392   1.069   1.263   8.239
  980SOL    HW2 3393   1.127   1.400   8.267
  981SOL     OW 3394   0.319   0.812   8.394
  981SOL    HW1 3395   0.413   0.830   8.392
  981SOL    HW2 3396   0.312   0.722   8.424
  982SOL     OW 3397   0.334   0.530   8.437
  982SOL    HW1 3398   0.289   0.448   8.418
  982SOL    HW2 3399   0.412   0.528   8.381
  983SOL     OW 3400   1.136   0.373   9.145
  983SOL    HW1 3401   1.085   0.437   9.195
  983SOL    HW2 3402   1.221   0.415   9.132
  984SOL     OW 3403   1.156   0.213   8.921
  984SOL    HW1 3404   1.150   0.277   8.992
  984SOL    HW2 3405   1.197   0.261   8.849
  985SOL     OW 3406   4.491   1.322   7.654
  985SOL    HW1 3407   4.399   1.338   7.636
  985SOL    HW2 3408   4.495   1.228   7.675
  986SOL     OW 3409   0.098   1.775   8.388
  986SOL    HW1 3410   0.059   1.723   8.317
  986SOL    HW2 3411   0.186   1.797   8.357
  987SOL     OW 3412   0.496   1.574   8.355
  987SOL    HW1 3413   0.564   1.637   8.379
  987SOL    HW2 3414   0.540   1.511   8.298
  988SOL     OW 3415   0.983   0.793   8.675
  988SOL    HW1 3416   1.039   0.770   8.749
  988SOL    HW2 3417   0.898   0.754   8.696
  989SOL     OW 3418   0.037   0.568   8.559
  989SOL    HW1 3419   0.112   0.526   8.516
  989SOL    HW2 3420   0.013   0.507   8.629
  990SOL     OW 3421   0.179   0.526   9.161
  990SOL    HW1 3422   0.267   0.507   9.127
  990SOL    HW2 3423   0.152   0.605   9.116
  991SOL     OW 3424   1.378   0.938   9.106
  991SOL    HW1 3425   1.399   1.032   9.104
  991SOL    HW2 3426   1.374   0.913   9.014
  992SOL     OW 3427   0.811   0.574   7.804
  992SOL    HW1 3428   0.815   0.503   7.740
  992SOL    HW2 3429   0.739   0.630   7.774
  993SOL     OW 3430   1.640   0.601   8.633
  993SOL    HW1 3431   1.630   0.542   8.708
  993SOL    HW2 3432   1.727   0.582   8.599
  994SOL     OW 3433   0.272   1.562   9.188
  994SOL    HW1 3434   0.216   1.613   9.246
  994SOL    HW2 3435   0.254   1.471   9.211
  995SOL     OW 3436   0.688   0.464   8.714
  995SOL    HW1 3437   0.648   0.384   8.680
  995SOL    HW2 3438   0.693   0.522   8.639
  996SOL     OW 3439   0.927   1.679   8.916
  996SOL    HW1 3440   0.902   1.644   8.831
  996SOL    HW2 3441   0.923   1.774   8.905
  997SOL     OW 3442   0.472   0.491   7.630
  997SOL    HW1 3443   0.532   0.561   7.654
  997SOL    HW2 3444   0.389   0.534   7.614
  998SOL     OW 3445   0.161   1.141   8.909
  998SOL    HW1 3446   0.145   1.096   8.991
  998SOL    HW2 3447   0.169   1.070   8.844
  999SOL     OW 3448   1.326   1.046   8.671
  999SOL    HW1 3449   1.349   0.983   8.603
  999SOL    HW2 3450   1.256   1.099   8.632
 1000SOL     OW 3451   1.313   0.856   7.754
 1000SOL    HW1 3452   1.237   0.828   7.806
 1000SOL    HW2 3453   1.285   0.843   7.663
 1001SOL     OW 3454   1.762   1.742   8.593
 1001SOL    HW1 3455   1.827   1.771   8.529
 1001SOL    HW2 3456   1.746   1.651   8.571
 1002SOL     OW 3457   1.240   1.733   8.559
 1002SOL    HW1 3458   1.323   1.754   8.516
 1002SOL    HW2 3459   1.247   1.639   8.578
 1003SOL     OW 3460   0.067   1.185   8.498
 1003SOL    HW1 3461   0.064   1.216   8.588
 1003SOL    HW2 3462   0.025   1.254   8.447
 1004SOL     OW 3463   0.679   1.666   9.178
 1004SOL    HW1 3464   0.623   1.743   9.172
 1004SOL    HW2 3465   0.743   1.677   9.108
 1005SOL     OW 3466   1.719   0.129   7.940
 1005SOL    HW1 3467   1.789   0.139   7.876
 1005SOL    HW2 3468   1.747   0.058   7.997
 1006SOL     OW 3469   1.390   1.568   7.933
 1006SOL    HW1 3470   1.450   1.600   7.866
 1006SOL    HW2 3471   1.342   1.645   7.962
 1007SOL     OW 3472   0.118   1.808   9.296
 1007SOL    HW1 3473   0.078   1.735   9.344
 1007SOL    HW2 3474   0.182   1.845   9.357
 1008SOL     OW 3475   1.279   0.928   8.120
 1008SOL    HW1 3476   1.351   0.866   8.126
 1008SOL    HW2 3477   1.312   1.000   8.068
 1009SOL     OW 3478   0.814   1.274   8.877
 1009SOL    HW1 3479   0.786   1.313   8.960
 1009SOL    HW2 3480   0.744   1.296   8.816
 1010SOL     OW 3481   0.672   1.620   7.603
 1010SOL    HW1 3482   0.682   1.632   7.509
 1010SOL    HW2 3483   0.617   1.542   7.612
 1011SOL     OW 3484   1.624   1.726   8.837
 1011SOL    HW1 3485   1.674   1.734   8.756
 1011SOL    HW2 3486   1.611   1.816   8.866
 1012SOL     OW 3487   1.839   0.154   8.413
 1012SOL    HW1 3488   1.868   0.076   8.366
 1012SOL    HW2 3489   1.752   0.173   8.378
 1013SOL     OW 3490   0.262   0.325   8.170
 1013SOL    HW1 3491   0.179   0.359   8.137
 1013SOL    HW2 3492   0.249   0.315   8.264
 1014SOL     OW 3493   1.207   1.606   7.479
 1014SOL    HW1 3494   1.198   1.514   7.506
 1014SOL    HW2 3495   1.142   1.618   7.411
 1015SOL     OW 3496   0.825   1.007   8.820
 1015SOL    HW1 3497   0.869   1.003   8.735
 1015SOL    HW2 3498   0.824   1.100   8.842
 1016SOL     OW 3499   0.915   0.910   7.738
 1016SOL    HW1 3500   0.977   0.942   7.672
 1016SOL    HW2 3501   0.963   0.841   7.784
 1017SOL     OW 3502   1.492   1.625   7.491
 1017SOL    HW1 3503   1.397   1.619   7.477
 1017SOL    HW2 3504   1.528   1.631   7.402
 1018SOL     OW 3505   0.373   1.308   8.939
 1018SOL    HW1 3506   0.356   1.386   8.887
 1018SOL    HW2 3507   0.298   1.251   8.922
 1019SOL     OW 3508   1.610   1.283   8.728
 1019SOL    HW1 3509   1.671   1.273   8.801
 1019SOL    HW2 3510   1.550   1.352   8.756
 1020SOL     OW 3511   1.053   1.107   8.154
 1020SOL    HW1 3512   0.982   1.057   8.194
 1020SOL    HW2 3513   1.116   1.042   8.124
 1021SOL     OW 3514   1.004   0.244   8.455
 1021SOL    HW1 3515   1.010   0.223   8.361
 1021SOL    HW2 3516   0.997   0.159   8.498
 1022SOL     OW 3517   0.604   1.489   7.930
 1022SOL    HW1 3518   0.647   1.439   7.860
 1022SOL    HW2 3519   0.530   1.532   7.888
 1023SOL     OW 3520   1.722   0.394   8.825
 1023SOL    HW1 3521   1.795   0.456   8.824
 1023SOL    HW2 3522   1.751   0.322   8.768
 1024SOL     OW 3523   0.252   1.344   7.724
 1024SOL    HW1 3524   0.157   1.342   7.710
 1024SOL    HW2 3525   0.263   1.376   7.813
 1025SOL     OW 3526   0.115   1.007   9.143
 1025SOL    HW1 3527   0.053   1.051   9.200
 1025SOL    HW2 3528   0.194   0.998   9.196
 1026SOL     OW 3529   0.658   0.209   8.946
 1026SOL    HW1 3530   0.737   0.182   8.899
 1026SOL    HW2 3531   0.687   0.226   9.036
 1027SOL     OW 3532   0.072   0.320   7.474
 1027SOL    HW1 3533   4.478   0.328   7.489
 1027SOL    HW2 3534   0.098   0.407   7.443
 1028SOL     OW 3535   1.429   0.858   8.848
 1028SOL    HW1 3536   1.381   0.919   8.792
 1028SOL    HW2 3537   1.519   0.861   8.813
 1029SOL     OW 3538   0.085   0.188   7.750
 1029SOL    HW1 3539   0.076   0.261   7.689
 1029SOL    HW2 3540   0.165   0.143   7.722
 1030SOL     OW 3541   1.179   1.339   7.565
 1030SOL    HW1 3542   1.088   1.309   7.567
 1030SOL    HW2 3543   1.206   1.339   7.656
 1031SOL     OW 3544   0.624   0.830   8.879
 1031SOL    HW1 3545   0.678   0.907   8.865
 1031SOL    HW2 3546   0.686   0.757   8.887
 1032SOL     OW 3547   1.486   1.776   8.427
 1032SOL    HW1 3548   1.510   1.838   8.358
 1032SOL    HW2 3549   1.567   1.761   8.475
 1033SOL     OW 3550   0.712   0.562   9.153
 1033SOL    HW1 3551   0.753   0.628   9.210
 1033SOL    HW2 3552   0.746   0.479   9.185
 1034SOL     OW 3553   1.472   1.199   9.080
 1034SOL    HW1 3554   1.459   1.214   9.174
 1034SOL    HW2 3555   1.565   1.215   9.065
 1035SOL     OW 3556   0.379   1.744   9.013
 1035SOL    HW1 3557   0.294   1.785   8.994
 1035SOL    HW2 3558   0.357   1.664   9.061
 1036SOL     OW 3559   1.670   0.881   8.703
 1036SOL    HW1 3560   1.661   0.796   8.660
 1036SOL    HW2 3561   1.659   0.945   8.633
 1037SOL     OW 3562   1.218   0.331   7.895
 1037SOL    HW1 3563   1.284   0.262   7.884
 1037SOL    HW2 3564   1.246   0.378   7.974
 1038SOL     OW 3565   0.587   0.737   8.119
 1038SOL    HW1 3566   0.627   0.822   8.104
 1038SOL    HW2 3567   0.520   0.730   8.051
 1039SOL     OW 3568   1.762   0.366   9.092
 1039SOL    HW1 3569   1.746   0.380   8.998
 1039SOL    HW2 3570   1.684   0.320   9.123
 1040SOL     OW 3571   1.746   0.933   8.960
 1040SOL    HW1 3572   1.742   1.028   8.974
 1040SOL    HW2 3573   1.730   0.922   8.866
 1041SOL     OW 3574   0.863   1.367   7.483
 1041SOL    HW1 3575   0.824   1.394   7.566
 1041SOL    HW2 3576   0.880   1.449   7.436
 1042SOL     OW 3577   0.661   1.791   8.393
 1042SOL    HW1 3578   0.641   1.882   8.369
 1042SOL    HW2 3579   0.756   1.785   8.385
 1043SOL     OW 3580   0.868   0.968   8.302
 1043SOL    HW1 3581   0.918   0.896   8.341
 1043SOL    HW2 3582   0.833   1.015   8.377
 1044SOL     OW 3583   1.079   0.988   7.537
 1044SOL    HW1 3584   1.057   1.039   7.459
 1044SOL    HW2 3585   1.154   0.935   7.510
 1045SOL     OW 3586   1.855   1.553   8.292
 1045SOL    HW1 3587   1.775   1.545   8.239
 1045SOL    HW2 3588   1.842   1.493   8.365
 1046SOL     OW 3589   0.231   1.305   9.306
 1046SOL    HW1 3590   0.155   1.250   9.285
 1046SOL    HW2 3591   0.227   1.316   9.401
 1047SOL     OW 3592   0.108   1.234   8.116
 1047SOL    HW1 3593   0.123   1.189   8.200
 1047SOL    HW2 3594   0.167   1.190   8.055
 1048SOL     OW 3595   0.682   1.403   9.077
 1048SOL    HW1 3596   0.602   1.360   9.105
 1048SOL    HW2 3597   0.677   1.491   9.114
 1049SOL     OW 3598   1.808   0.181   8.686
 1049SOL    HW1 3599   1.805   0.087   8.707
 1049SOL    HW2 3600   1.824   0.184   8.592
 1050SOL     OW 3601   0.441   0.430   7.980
 1050SOL    HW1 3602   0.457   0.361   7.917
 1050SOL    HW2 3603   0.381   0.392   8.044
 1051SOL     OW 3604   1.704   1.484   8.538
 1051SOL    HW1 3605   1.620   1.463   8.496
 1051SOL    HW2 3606   1.713   1.419   8.607
 1052SOL     OW 3607   0.310   0.504   8.701
 1052SOL    HW1 3608   0.383   0.456   8.740
 1052SOL    HW2 3609   0.335   0.515   8.609
 1053SOL     OW 3610   0.828   1.578   8.125
 1053SOL    HW1 3611   0.814   1.632   8.048
 1053SOL    HW2 3612   0.751   1.520   8.128
 1054SOL     OW 3613   1.432   0.216   8.566
 1054SOL    HW1 3614   1.467   0.144   8.619
 1054SOL    HW2 3615   1.381   0.269   8.627
 1055SOL     OW 3616   0.996   0.006   8.599
 1055SOL    HW1 3617   0.954   4.420   8.590
 1055SOL    HW2 3618   1.089   4.486   8.610
 1056SOL     OW 3619   0.773   1.333   7.762
 1056SOL    HW1 3620   0.742   1.242   7.769
 1056SOL    HW2 3621   0.854   1.334   7.812
 1057SOL     OW 3622   0.621   1.556   8.733
 1057SOL    HW1 3623   0.623   1.638   8.783
 1057SOL    HW2 3624   0.708   1.549   8.695
 1058SOL     OW 3625   1.340   0.052   7.602
 1058SOL    HW1 3626   1.379   4.477   7.558
 1058SOL    HW2 3627   1.264   0.017   7.649
 1059SOL     OW 3628   1.314   0.463   8.124
 1059SOL    HW1 3629   1.256   0.539   8.124
 1059SOL    HW2 3630   1.303   0.423   8.210
 1060SOL     OW 3631   1.585   0.200   8.316
 1060SOL    HW1 3632   1.526   0.215   8.390
 1060SOL    HW2 3633   1.588   0.283   8.269
 1061SOL     OW 3634   0.041   1.051   7.736
 1061SOL    HW1 3635   0.134   1.034   7.726
 1061SOL    HW2 3636   0.021   1.020   7.825
 1062SOL     OW 3637   0.885   1.653   7.790
 1062SOL    HW1 3638   0.812   1.636   7.730
 1062SOL    HW2 3639   0.856   1.728   7.842
 1063SOL     OW 3640   0.246   0.628   9.432
 1063SOL    HW1 3641   0.172   0.605   9.488
 1063SOL    HW2 3642   0.214   0.614   9.343
 1064SOL     OW 3643   0.196   0.293  10.300
 1064SOL    HW1 3644   0.228   0.268  10.386
 1064SOL    HW2 3645   0.133   0.224  10.277
 1065SOL     OW 3646   0.003   0.383   9.949
 1065SOL    HW1 3647   4.425   0.420   9.991
 1065SOL    HW2 3648   4.470   0.311   9.896
 1066SOL     OW 3649   0.568   1.288  10.487
 1066SOL    HW1 3650   0.481   1.292  10.447
 1066SOL    HW2 3651   0.583   1.377  10.521
 1067SOL     OW 3652   1.562   1.512  10.017
 1067SOL    HW1 3653   1.519   1.492  10.100
 1067SOL    HW2 3654   1.490   1.516   9.954
 1068SOL     OW 3655   1.135   0.698  10.008
 1068SOL    HW1 3656   1.181   0.782   9.998
 1068SOL    HW2 3657   1.085   0.708  10.088
 1069SOL     OW 3658   1.768   0.606   9.537
 1069SOL    HW1 3659   1.747   0.597   9.445
 1069SOL    HW2 3660   1.735   0.526   9.578
 1070SOL     OW 3661   0.755   1.142  10.352
 1070SOL    HW1 3662   0.686   1.178  10.408
 1070SOL    HW2 3663   0.790   1.219  10.307
 1071SOL     OW 3664   0.855   0.774   0.022
 1071SOL    HW1 3665   0.862   0.829   0.099
 1071SOL    HW2 3666   0.887   0.829  11.050
 1072SOL     OW 3667   0.685   1.003   9.957
 1072SOL    HW1 3668   0.751   0.991  10.026
 1072SOL    HW2 3669   0.616   1.054   9.999
 1073SOL     OW 3670   0.336   1.420  10.378
 1073SOL    HW1 3671   0.254   1.401  10.332
 1073SOL    HW2 3672   0.385   1.474  10.317
 1074SOL     OW 3673   1.464   1.500  10.661
 1074SOL    HW1 3674   1.520   1.577  10.668
 1074SOL    HW2 3675   1.406   1.504  10.737
 1075SOL     OW 3676   0.442   0.389  10.784
 1075SOL    HW1 3677   0.529   0.349  10.784
 1075SOL    HW2 3678   0.394   0.344  10.854
 1076SOL     OW 3679   1.611   0.445  10.049
 1076SOL    HW1 3680   1.530   0.466  10.001
 1076SOL    HW2 3681   1.628   0.523  10.102
 1077SOL     OW 3682   0.245   1.691   9.787
 1077SOL    HW1 3683   0.230   1.776   9.828
 1077SOL    HW2 3684   0.315   1.708   9.723
 1078SOL     OW 3685   0.250   1.426   9.837
 1078SOL    HW1 3686   0.240   1.522   9.839
 1078SOL    HW2 3687   0.187   1.394   9.902
 1079SOL     OW 3688   0.248   1.082  10.195
 1079SOL    HW1 3689   0.264   0.992  10.222
 1079SOL    HW2 3690   0.188   1.117  10.260
 1080SOL     OW 3691   0.611   1.790  10.739
 1080SOL    HW1 3692   0.531   1.771  10.787
 1080SOL    HW2 3693   0.633   1.880  10.763
 1081SOL     OW 3694   0.578   0.988   9.449
 1081SOL    HW1 3695   0.626   1.030   9.378
 1081SOL    HW2 3696   0.623   1.016   9.529
 1082SOL     OW 3697   1.553   0.137  10.785
 1082SOL    HW1 3698   1.599   0.193  10.722
 1082SOL    HW2 3699   1.616   0.126  10.856
 1083SOL     OW 3700   0.135   0.644   9.884
 1083SOL    HW1 3701   0.085   0.565   9.903
 1083SOL    HW2 3702   0.108   0.707   9.950
 1084SOL     OW 3703   1.840   1.759   9.642
 1084SOL    HW1 3704   1.905   1.729   9.706
 1084SOL    HW2 3705   1.865   1.850   9.624
 1085SOL     OW 3706   0.032   1.602   9.452
 1085SOL    HW1 3707   0.021   1.508   9.448
 1085SOL    HW2 3708   0.025   1.624   9.545
 1086SOL     OW 3709   1.691   0.920   9.951
 1086SOL    HW1 3710   1.773   0.877   9.929
 1086SOL    HW2 3711   1.667   0.970   9.873
 1087SOL     OW 3712   1.646   1.107   9.739
 1087SOL    HW1 3713   1.732   1.112   9.697
 1087SOL    HW2 3714   1.651   1.168   9.812
 1088SOL     OW 3715   0.097   0.762  10.911
 1088SOL    HW1 3716   0.185   0.744  10.878
 1088SOL    HW2 3717   0.090   0.857  10.912
 1089SOL     OW 3718   0.614   1.386  10.046
 1089SOL    HW1 3719   0.567   1.303  10.056
 1089SOL    HW2 3720   0.598   1.412   9.956
 1090SOL     OW 3721   1.293   1.236  10.752
 1090SOL    HW1 3722   1.318   1.176  10.682
 1090SOL    HW2 3723   1.350   1.213  10.825
 1091SOL     OW 3724   0.821   0.014   9.862
 1091SOL    HW1 3725   0.856   0.100   9.837
 1091SOL    HW2 3726   0.726   0.022   9.851
 1092SOL     OW 3727   0.177   0.939  10.589
 1092SOL    HW1 3728   0.269   0.921  10.571
 1092SOL    HW2 3729   0.133   0.926  10.506
 1093SOL     OW 3730   1.532   0.993   9.509
 1093SOL    HW1 3731   1.461   0.937   9.541
 1093SOL    HW2 3732   1.572   1.028   9.588
 1094SOL     OW 3733   1.196   1.806  10.928
 1094SOL    HW1 3734   1.194   1.870  10.856
 1094SOL    HW2 3735   1.205   1.722  10.884
 1095SOL     OW 3736   0.325   0.294  11.057
 1095SOL    HW1 3737   0.389   0.335   0.016
 1095SOL    HW2 3738   0.245   0.287   0.009
 1096SOL     OW 3739   1.467   1.419  10.261
 1096SOL    HW1 3740   1.398   1.435  10.325
 1096SOL    HW2 3741   1.454   1.328  10.234
 1097SOL     OW 3742   1.660   1.739   9.887
 1097SOL    HW1 3743   1.638   1.709   9.799
 1097SOL    HW2 3744   1.634   1.667   9.944
 1098SOL     OW 3745   0.595   0.723   9.576
 1098SOL    HW1 3746   0.597   0.805   9.526
 1098SOL    HW2 3747   0.529   0.737   9.644
 1099SOL     OW 3748   1.292   0.364  10.243
 1099SOL    HW1 3749   1.202   0.335  10.227
 1099SOL    HW2 3750   1.327   0.301  10.305
 1100SOL     OW 3751   1.580   1.670   9.619
 1100SOL    HW1 3752   1.670   1.702   9.612
 1100SOL    HW2 3753   1.553   1.653   9.529
 1101SOL     OW 3754   0.798   0.618  10.764
 1101SOL    HW1 3755   0.768   0.592  10.851
 1101SOL    HW2 3756   0.758   0.554  10.705
 1102SOL     OW 3757   0.965   0.899  10.903
 1102SOL    HW1 3758   1.014   0.827  10.863
 1102SOL    HW2 3759   0.915   0.937  10.831
 1103SOL     OW 3760   0.998   0.420  10.543
 1103SOL    HW1 3761   0.910   0.425  10.582
 1103SOL    HW2 3762   0.986   0.365  10.466
 1104SOL     OW 3763   1.050   0.698   9.737
 1104SOL    HW1 3764   1.067   0.690   9.831
 1104SOL    HW2 3765   0.967   0.651   9.723
 1105SOL     OW 3766   0.097   0.827  10.094
 1105SOL    HW1 3767   0.183   0.812  10.132
 1105SOL    HW2 3768   0.042   0.850  10.169
 1106SOL     OW 3769   0.117   1.850  10.900
 1106SOL    HW1 3770   0.114   1.789  10.974
 1106SOL    HW2 3771   0.051   1.818  10.839
 1107SOL     OW 3772   0.853   0.369   9.491
 1107SOL    HW1 3773   0.926   0.403   9.439
 1107SOL    HW2 3774   0.870   0.275   9.496
 1108SOL     OW 3775   1.377   1.143   9.851
 1108SOL    HW1 3776   1.456   1.130   9.798
 1108SOL    HW2 3777   1.324   1.205   9.801
 1109SOL     OW 3778   0.542   0.206  10.210
 1109SOL    HW1 3779   0.561   0.224  10.302
 1109SOL    HW2 3780   0.534   0.292  10.170
 1110SOL     OW 3781   1.005   1.444   9.782
 1110SOL    HW1 3782   0.969   1.517   9.732
 1110SOL    HW2 3783   0.987   1.465   9.873
 1111SOL     OW 3784   0.356   1.811  10.169
 1111SOL    HW1 3785   0.398   1.726  10.179
 1111SOL    HW2 3786   0.425   1.874  10.186
 1112SOL     OW 3787   1.800   1.057  10.178
 1112SOL    HW1 3788   1.745   1.037  10.101
 1112SOL    HW2 3789   1.738   1.062  10.251
 1113SOL     OW 3790   1.229   1.537  10.823
 1113SOL    HW1 3791   1.237   1.448  10.859
 1113SOL    HW2 3792   1.165   1.529  10.753
 1114SOL     OW 3793   0.315   0.954   9.564
 1114SOL    HW1 3794   0.399   0.977   9.524
 1114SOL    HW2 3795   0.300   0.863   9.537
 1115SOL     OW 3796   1.480   0.743  10.034
 1115SOL    HW1 3797   1.469   0.699  10.119
 1115SOL    HW2 3798   1.557   0.798  10.046
 1116SOL     OW 3799   0.455   1.267  11.052
 1116SOL    HW1 3800   0.426   1.281  10.962
 1116SOL    HW2 3801   0.389   1.210  11.090
 1117SOL     OW 3802   1.122   1.778   9.541
 1117SOL    HW1 3803   1.048   1.736   9.586
 1117SOL    HW2 3804   1.145   1.716   9.471
 1118SOL     OW 3805   0.161   0.260  10.821
 1118SOL    HW1 3806   0.138   0.349  10.794
 1118SOL    HW2 3807   0.206   0.271  10.905
 1119SOL     OW 3808   1.629   1.380   9.398
 1119SOL    HW1 3809   1.587   1.465   9.382
 1119SOL    HW2 3810   1.560   1.316   9.379
 1120SOL     OW 3811   0.469   1.742   9.624
 1120SOL    HW1 3812   0.511   1.797   9.691
 1120SOL    HW2 3813   0.541   1.708   9.572
 1121SOL     OW 3814   1.422   0.140   9.728
 1121SOL    HW1 3815   1.405   0.087   9.650
 1121SOL    HW2 3816   1.516   0.132   9.743
 1122SOL     OW 3817   0.253   1.789  10.545
 1122SOL    HW1 3818   0.303   1.716  10.583
 1122SOL    HW2 3819   0.227   1.757  10.459
 1123SOL     OW 3820   0.938   1.699  10.209
 1123SOL    HW1 3821   1.017   1.647  10.229
 1123SOL    HW2 3822   0.894   1.649  10.140
 1124SOL     OW 3823   0.394   0.693   9.782
 1124SOL    HW1 3824   0.419   0.601   9.796
 1124SOL    HW2 3825   0.302   0.697   9.808
 1125SOL     OW 3826   0.625   0.121   9.428
 1125SOL    HW1 3827   0.714   0.085   9.440
 1125SOL    HW2 3828   0.595   0.083   9.346
 1126SOL     OW 3829   0.766   0.274  11.043
 1126SOL    HW1 3830   0.828   0.205  11.070
 1126SOL    HW2 3831   0.710   0.287   0.020
 1127SOL     OW 3832   0.876   1.522  10.504
 1127SOL    HW1 3833   0.860   1.486  10.416
 1127SOL    HW2 3834   0.948   1.470  10.538
 1128SOL     OW 3835   1.344   0.590  10.753
 1128SOL    HW1 3836   1.394   0.573  10.833
 1128SOL    HW2 3837   1.370   0.679  10.728
 1129SOL     OW 3838   0.816   1.395  10.250
 1129SOL    HW1 3839   0.900   1.383  10.205
 1129SOL    HW2 3840   0.751   1.396  10.179
 1130SOL     OW 3841   0.923   0.519  10.209
 1130SOL    HW1 3842   0.907   0.517  10.115
 1130SOL    HW2 3843   0.960   0.433  10.229
 1131SOL     OW 3844   0.562   0.069   9.818
 1131SOL    HW1 3845   0.476   0.055   9.857
 1131SOL    HW2 3846   0.548   0.138   9.753
 1132SOL     OW 3847   1.428   1.198   9.351
 1132SOL    HW1 3848   1.458   1.123   9.401
 1132SOL    HW2 3849   1.343   1.220   9.388
 1133SOL     OW 3850   0.305   0.073   9.499
 1133SOL    HW1 3851   0.388   0.119   9.497
 1133SOL    HW2 3852   0.320   4.499   9.557
 1134SOL     OW 3853   0.954   0.240   9.778
 1134SOL    HW1 3854   0.902   0.298   9.722
 1134SOL    HW2 3855   1.043   0.276   9.772
 1135SOL     OW 3856   1.079   0.686  10.772
 1135SOL    HW1 3857   1.007   0.623  10.772
 1135SOL    HW2 3858   1.158   0.632  10.768
 1136SOL     OW 3859   1.223   1.570  10.104
 1136SOL    HW1 3860   1.239   1.637  10.037
 1136SOL    HW2 3861   1.292   1.585  10.169
 1137SOL     OW 3862   0.466   1.150  10.045
 1137SOL    HW1 3863   0.396   1.131  10.107
 1137SOL    HW2 3864   0.427   1.134   9.959
 1138SOL     OW 3865   1.269   1.794   9.918
 1138SOL    HW1 3866   1.315   1.855   9.861
 1138SOL    HW2 3867   1.202   1.847   9.962
 1139SOL     OW 3868   1.029   0.547   9.327
 1139SOL    HW1 3869   0.980   0.628   9.312
 1139SOL    HW2 3870   1.087   0.567   9.400
 1140SOL     OW 3871   0.088   0.515  10.724
 1140SOL    HW1 3872   0.150   0.524  10.653
 1140SOL    HW2 3873   0.063   0.605  10.746
 1141SOL     OW 3874   0.560   0.246  10.477
 1141SOL    HW1 3875   0.588   0.160  10.507
 1141SOL    HW2 3876   0.466   0.250  10.499
 1142SOL     OW 3877   0.865   0.504   9.937
 1142SOL    HW1 3878   0.822   0.543   9.862
 1142SOL    HW2 3879   0.828   0.415   9.942
 1143SOL     OW 3880   0.962   0.023  10.096
 1143SOL    HW1 3881   0.914   0.022  10.013
 1143SOL    HW2 3882   0.976   4.430  10.116
 1144SOL     OW 3883   1.436   1.162  10.167
 1144SOL    HW1 3884   1.368   1.095  10.166
 1144SOL    HW2 3885   1.461   1.173  10.075
 1145SOL     OW 3886   1.465   0.606  10.284
 1145SOL    HW1 3887   1.411   0.527  10.285
 1145SOL    HW2 3888   1.523   0.597  10.360
 1146SOL     OW 3889   1.845   0.816   9.693
 1146SOL    HW1 3890   1.902   0.765   9.751
 1146SOL    HW2 3891   1.817   0.754   9.626
 1147SOL     OW 3892   0.491   1.418   9.469
 1147SOL    HW1 3893   0.414   1.389   9.517
 1147SOL    HW2 3894   0.476   1.388   9.379
 1148SOL     OW 3895   1.670   1.265   9.955
 1148SOL    HW1 3896   1.765   1.268   9.969
 1148SOL    HW2 3897   1.640   1.353   9.977
 1149SOL     OW 3898   1.394   0.571   9.380
 1149SOL    HW1 3899   1.333   0.555   9.451
 1149SOL    HW2 3900   1.480   0.553   9.418
 1150SOL     OW 3901   0.521   0.264   9.630
 1150SOL    HW1 3902   0.571   0.215   9.565
 1150SOL    HW2 3903   0.505   0.349   9.589
 1151SOL     OW 3904   1.760   1.229  10.867
 1151SOL    HW1 3905   1.851   1.201  10.868
 1151SOL    HW2 3906   1.760   1.316  10.907
 1152SOL     OW 3907   1.063   1.354  10.649
 1152SOL    HW1 3908   0.985   1.321  10.694
 1152SOL    HW2 3909   1.135   1.306  10.689
 1153SOL     OW 3910   1.130   1.207  10.415
 1153SOL    HW1 3911   1.064   1.241  10.476
 1153SOL    HW2 3912   1.100   1.236  10.329
 1154SOL     OW 3913   1.629   1.099  10.387
 1154SOL    HW1 3914   1.625   1.160  10.460
 1154SOL    HW2 3915   1.550   1.116  10.337
 1155SOL     OW 3916   0.897   0.127  10.696
 1155SOL    HW1 3917   0.924   0.089  10.613
 1155SOL    HW2 3918   0.978   0.149  10.741
 1156SOL     OW 3919   0.709   1.061   9.682
 1156SOL    HW1 3920   0.696   1.045   9.776
 1156SOL    HW2 3921   0.784   1.008   9.658
 1157SOL     OW 3922   0.428   0.826  10.553
 1157SOL    HW1 3923   0.497   0.834  10.619
 1157SOL    HW2 3924   0.370   0.758  10.586
 1158SOL     OW 3925   1.271   0.382  10.582
 1158SOL    HW1 3926   1.301   0.459  10.630
 1158SOL    HW2 3927   1.181   0.404  10.555
 1159SOL     OW 3928   0.064   1.579  10.659
 1159SOL    HW1 3929   0.040   1.665  10.624
 1159SOL    HW2 3930   0.160   1.579  10.659
 1160SOL     OW 3931   0.345   1.109   9.803
 1160SOL    HW1 3932   0.356   1.183   9.743
 1160SOL    HW2 3933   0.345   1.032   9.747
 1161SOL     OW 3934   0.563   0.524  10.162
 1161SOL    HW1 3935   0.575   0.586  10.090
 1161SOL    HW2 3936   0.623   0.555  10.230
 1162SOL     OW 3937   1.248   1.348   9.699
 1162SOL    HW1 3938   1.304   1.420   9.730
 1162SOL    HW2 3939   1.161   1.370   9.733
 1163SOL     OW 3940   1.280   1.459  10.455
 1163SOL    HW1 3941   1.338   1.462  10.532
 1163SOL    HW2 3942   1.227   1.381  10.467
 1164SOL     OW 3943   1.581   0.623   9.788
 1164SOL    HW1 3944   1.534   0.673   9.854
 1164SOL    HW2 3945   1.625   0.690   9.735
 1165SOL     OW 3946   0.346   1.528  10.623
 1165SOL    HW1 3947   0.333   1.482  10.541
 1165SOL    HW2 3948   0.440   1.541  10.630
 1166SOL     OW 3949   0.492   0.747  10.973
 1166SOL    HW1 3950   0.525   0.783  10.891
 1166SOL    HW2 3951   0.535   0.662  10.981
 1167SOL     OW 3952   1.596   0.758  10.968
 1167SOL    HW1 3953   1.518   0.815  10.963
 1167SOL    HW2 3954   1.665   0.809  10.925
 1168SOL     OW 3955   0.589   0.875  10.334
 1168SOL    HW1 3956   0.619   0.965  10.337
 1168SOL    HW2 3957   0.533   0.865  10.411
 1169SOL     OW 3958   1.357   0.860  10.343
 1169SOL    HW1 3959   1.274   0.851  10.296
 1169SOL    HW2 3960   1.399   0.775  10.335
 1170SOL     OW 3961   1.203   0.535   9.572
 1170SOL    HW1 3962   1.210   0.455   9.624
 1170SOL    HW2 3963   1.160   0.598   9.630
 1171SOL     OW 3964   0.284   0.214  10.546
 1171SOL    HW1 3965   0.252   0.231  10.634
 1171SOL    HW2 3966   0.323   0.126  10.552
 1172SOL     OW 3967   0.038   1.315  10.595
 1172SOL    HW1 3968   0.074   1.266  10.669
 1172SOL    HW2 3969   0.042   1.407  10.624
 1173SOL     OW 3970   0.723   0.631  10.367
 1173SOL    HW1 3971   0.798   0.611  10.310
 1173SOL    HW2 3972   0.697   0.720  10.342
 1174SOL     OW 3973   0.321   0.074   9.941
 1174SOL    HW1 3974   0.303   0.162   9.972
 1174SOL    HW2 3975   0.309   0.018  10.018
 1175SOL     OW 3976   1.616   0.379   9.672
 1175SOL    HW1 3977   1.644   0.315   9.737
 1175SOL    HW2 3978   1.593   0.456   9.722
 1176SOL     OW 3979   1.029   0.762  10.271
 1176SOL    HW1 3980   1.025   0.778  10.365
 1176SOL    HW2 3981   1.000   0.671  10.260
 1177SOL     OW 3982   0.973   1.572  11.004
 1177SOL    HW1 3983   0.959   1.623  10.923
 1177SOL    HW2 3984   1.003   1.487  10.973
 1178SOL     OW 3985   1.858   1.492  10.911
 1178SOL    HW1 3986   1.872   1.527  10.823
 1178SOL    HW2 3987   1.922   1.537  10.966
 1179SOL     OW 3988   0.348   0.935  11.092
 1179SOL    HW1 3989   0.420   0.964   0.048
 1179SOL    HW2 3990   0.384   0.862  11.042
 1180SOL     OW 3991   1.530   0.264   9.438
 1180SOL    HW1 3992   1.459   0.208   9.468
 1180SOL    HW2 3993   1.560   0.309   9.517
 1181SOL     OW 3994   1.291   0.826   9.340
 1181SOL    HW1 3995   1.333   0.740   9.343
 1181SOL    HW2 3996   1.322   0.866   9.259
 1182SOL     OW 3997   1.067   1.335  10.164
 1182SOL    HW1 3998   1.069   1.263  10.101
 1182SOL    HW2 3999   1.127   1.400  10.129
 1183SOL     OW 4000   0.318   0.812  10.257
 1183SOL    HW1 4001   0.412   0.829  10.254
 1183SOL    HW2 4002   0.311   0.721  10.286
 1184SOL     OW 4003   0.334   0.531  10.299
 1184SOL    HW1 4004   0.290   0.448  10.282
 1184SOL    HW2 4005   0.412   0.528  10.244
 1185SOL     OW 4006   1.147   0.218  10.767
 1185SOL    HW1 4007   1.175   0.256  10.851
 1185SOL    HW2 4008   1.192   0.270  10.701
 1186SOL     OW 4009   4.491   1.322   9.516
 1186SOL    HW1 4010   4.399   1.338   9.498
 1186SOL    HW2 4011   4.495   1.228   9.537
 1187SOL     OW 4012   0.097   1.774  10.249
 1187SOL    HW1 4013   0.059   1.723  10.178
 1187SOL    HW2 4014   0.185   1.797  10.219
 1188SOL     OW 4015   0.496   1.574  10.217
 1188SOL    HW1 4016   0.564   1.637  10.240
 1188SOL    HW2 4017   0.540   1.511  10.159
 1189SOL     OW 4018   0.982   0.795  10.537
 1189SOL    HW1 4019   1.038   0.772  10.612
 1189SOL    HW2 4020   0.899   0.753  10.556
 1190SOL     OW 4021   0.033   0.565  10.416
 1190SOL    HW1 4022   0.113   0.527  10.379
 1190SOL    HW2 4023   0.017   0.515  10.496
 1191SOL     OW 4024   0.811   0.575   9.666
 1191SOL    HW1 4025   0.815   0.503   9.602
 1191SOL    HW2 4026   0.739   0.630   9.636
 1192SOL     OW 4027   1.640   0.601  10.495
 1192SOL    HW1 4028   1.631   0.544  10.571
 1192SOL    HW2 4029   1.728   0.583  10.461
 1193SOL     OW 4030   0.262   1.575  11.054
 1193SOL    HW1 4031   0.208   1.598   0.030
 1193SOL    HW2 4032   0.246   1.481  11.041
 1194SOL     OW 4033   0.695   0.461  10.575
 1194SOL    HW1 4034   0.650   0.383  10.543
 1194SOL    HW2 4035   0.697   0.520  10.500
 1195SOL     OW 4036   0.940   1.682  10.757
 1195SOL    HW1 4037   0.903   1.648  10.676
 1195SOL    HW2 4038   0.924   1.776  10.753
 1196SOL     OW 4039   0.472   0.491   9.492
 1196SOL    HW1 4040   0.532   0.561   9.516
 1196SOL    HW2 4041   0.389   0.535   9.476
 1197SOL     OW 4042   0.163   1.142  10.767
 1197SOL    HW1 4043   0.138   1.103  10.851
 1197SOL    HW2 4044   0.168   1.069  10.707
 1198SOL     OW 4045   1.324   1.052  10.538
 1198SOL    HW1 4046   1.350   0.987  10.473
 1198SOL    HW2 4047   1.254   1.102  10.495
 1199SOL     OW 4048   1.312   0.856   9.616
 1199SOL    HW1 4049   1.237   0.827   9.667
 1199SOL    HW2 4050   1.286   0.843   9.525
 1200SOL     OW 4051   1.768   1.745  10.459
 1200SOL    HW1 4052   1.830   1.773  10.391
 1200SOL    HW2 4053   1.747   1.654  10.438
 1201SOL     OW 4054   1.241   1.734  10.422
 1201SOL    HW1 4055   1.323   1.755  10.378
 1201SOL    HW2 4056   1.247   1.640  10.440
 1202SOL     OW 4057   0.067   1.185  10.360
 1202SOL    HW1 4058   0.065   1.217  10.450
 1202SOL    HW2 4059   0.025   1.254  10.309
 1203SOL     OW 4060   1.718   0.129   9.802
 1203SOL    HW1 4061   1.789   0.139   9.738
 1203SOL    HW2 4062   1.747   0.058   9.859
 1204SOL     OW 4063   1.391   1.568   9.795
 1204SOL    HW1 4064   1.450   1.600   9.728
 1204SOL    HW2 4065   1.342   1.645   9.823
 1205SOL     OW 4066   1.279   0.928   9.983
 1205SOL    HW1 4067   1.351   0.866   9.988
 1205SOL    HW2 4068   1.312   1.000   9.930
 1206SOL     OW 4069   0.817   1.274  10.737
 1206SOL    HW1 4070   0.786   1.309  10.821
 1206SOL    HW2 4071   0.747   1.296  10.676
 1207SOL     OW 4072   0.672   1.620   9.465
 1207SOL    HW1 4073   0.682   1.632   9.371
 1207SOL    HW2 4074   0.617   1.542   9.474
 1208SOL     OW 4075   1.621   1.721  10.695
 1208SOL    HW1 4076   1.675   1.735  10.618
 1208SOL    HW2 4077   1.605   1.808  10.731
 1209SOL     OW 4078   1.839   0.154  10.276
 1209SOL    HW1 4079   1.868   0.076  10.230
 1209SOL    HW2 4080   1.752   0.173  10.240
 1210SOL     OW 4081   0.263   0.325  10.032
 1210SOL    HW1 4082   0.179   0.359  10.000
 1210SOL    HW2 4083   0.250   0.315  10.127
 1211SOL     OW 4084   1.207   1.606   9.342
 1211SOL    HW1 4085   1.198   1.514   9.368
 1211SOL    HW2 4086   1.142   1.618   9.272
 1212SOL     OW 4087   0.826   1.006  10.687
 1212SOL    HW1 4088   0.869   0.998  10.602
 1212SOL    HW2 4089   0.826   1.100  10.705
 1213SOL     OW 4090   0.915   0.910   9.600
 1213SOL    HW1 4091   0.977   0.942   9.534
 1213SOL    HW2 4092   0.963   0.841   9.645
 1214SOL     OW 4093   1.492   1.625   9.352
 1214SOL    HW1 4094   1.397   1.619   9.338
 1214SOL    HW2 4095   1.529   1.631   9.264
 1215SOL     OW 4096   0.367   1.313  10.807
 1215SOL    HW1 4097   0.354   1.387  10.747
 1215SOL    HW2 4098   0.296   1.252  10.785
 1216SOL     OW 4099   1.613   1.282  10.593
 1216SOL    HW1 4100   1.669   1.268  10.669
 1216SOL    HW2 4101   1.556   1.354  10.618
 1217SOL     OW 4102   1.053   1.107  10.016
 1217SOL    HW1 4103   0.982   1.056  10.055
 1217SOL    HW2 4104   1.115   1.042   9.986
 1218SOL     OW 4105   1.005   0.245  10.316
 1218SOL    HW1 4106   1.010   0.223  10.223
 1218SOL    HW2 4107   0.997   0.160  10.360
 1219SOL     OW 4108   0.605   1.489   9.792
 1219SOL    HW1 4109   0.647   1.439   9.722
 1219SOL    HW2 4110   0.530   1.531   9.750
 1220SOL     OW 4111   1.719   0.394  10.690
 1220SOL    HW1 4112   1.792   0.456  10.692
 1220SOL    HW2 4113   1.748   0.324  10.631
 1221SOL     OW 4114   0.252   1.344   9.586
 1221SOL    HW1 4115   0.157   1.342   9.572
 1221SOL    HW2 4116   0.263   1.376   9.675
 1222SOL     OW 4117   0.110   1.020  11.002
 1222SOL    HW1 4118   0.054   1.026  11.080
 1222SOL    HW2 4119   0.197   1.000  11.037
 1223SOL     OW 4120   0.654   0.198  10.803
 1223SOL    HW1 4121   0.733   0.172  10.755
 1223SOL    HW2 4122   0.687   0.227  10.889
 1224SOL     OW 4123   0.072   0.320   9.336
 1224SOL    HW1 4124   4.478   0.328   9.351
 1224SOL    HW2 4125   0.098   0.407   9.305
 1225SOL     OW 4126   1.429   0.849  10.709
 1225SOL    HW1 4127   1.380   0.917  10.662
 1225SOL    HW2 4128   1.519   0.858  10.678
 1226SOL     OW 4129   0.085   0.188   9.612
 1226SOL    HW1 4130   0.076   0.261   9.551
 1226SOL    HW2 4131   0.165   0.143   9.584
 1227SOL     OW 4132   1.179   1.339   9.427
 1227SOL    HW1 4133   1.088   1.309   9.429
 1227SOL    HW2 4134   1.206   1.339   9.519
 1228SOL     OW 4135   0.624   0.828  10.740
 1228SOL    HW1 4136   0.679   0.905  10.726
 1228SOL    HW2 4137   0.687   0.755  10.747
 1229SOL     OW 4138   1.484   1.777  10.289
 1229SOL    HW1 4139   1.509   1.838  10.219
 1229SOL    HW2 4140   1.566   1.759  10.335
 1230SOL     OW 4141   0.712   0.563  11.014
 1230SOL    HW1 4142   0.750   0.633  11.067
 1230SOL    HW2 4143   0.758   0.484  11.042
 1231SOL     OW 4144   0.383   1.739  10.873
 1231SOL    HW1 4145   0.306   1.796  10.865
 1231SOL    HW2 4146   0.355   1.670  10.933
 1232SOL     OW 4147   1.671   0.882  10.567
 1232SOL    HW1 4148   1.662   0.797  10.524
 1232SOL    HW2 4149   1.661   0.946  10.496
 1233SOL     OW 4150   1.218   0.331   9.757
 1233SOL    HW1 4151   1.284   0.262   9.746
 1233SOL    HW2 4152   1.246   0.378   9.836
 1234SOL     OW 4153   0.587   0.737   9.981
 1234SOL    HW1 4154   0.627   0.822   9.966
 1234SOL    HW2 4155   0.520   0.730   9.913
 1235SOL     OW 4156   1.749   0.312  10.953
 1235SOL    HW1 4157   1.731   0.352  10.867
 1235SOL    HW2 4158   1.672   0.334  11.005
 1236SOL     OW 4159   1.749   0.936  10.825
 1236SOL    HW1 4160   1.741   1.030  10.839
 1236SOL    HW2 4161   1.731   0.924  10.732
 1237SOL     OW 4162   0.863   1.367   9.345
 1237SOL    HW1 4163   0.824   1.395   9.428
 1237SOL    HW2 4164   0.880   1.449   9.298
 1238SOL     OW 4165   0.661   1.791  10.255
 1238SOL    HW1 4166   0.640   1.881  10.231
 1238SOL    HW2 4167   0.756   1.785  10.246
 1239SOL     OW 4168   0.868   0.968  10.165
 1239SOL    HW1 4169   0.918   0.895  10.203
 1239SOL    HW2 4170   0.833   1.015  10.240
 1240SOL     OW 4171   1.079   0.988   9.399
 1240SOL    HW1 4172   1.057   1.039   9.321
 1240SOL    HW2 4173   1.154   0.935   9.372
 1241SOL     OW 4174   1.855   1.554  10.154
 1241SOL    HW1 4175   1.776   1.544  10.101
 1241SOL    HW2 4176   1.845   1.492  10.225
 1242SOL     OW 4177   0.108   1.234   9.978
 1242SOL    HW1 4178   0.122   1.189  10.062
 1242SOL    HW2 4179   0.167   1.190   9.917
 1243SOL     OW 4180   0.681   1.396  10.940
 1243SOL    HW1 4181   0.609   1.345  10.977
 1243SOL    HW2 4182   0.644   1.484  10.930
 1244SOL     OW 4183   1.801   0.179  10.549
 1244SOL    HW1 4184   1.815   0.087  10.569
 1244SOL    HW2 4185   1.819   0.186  10.455
 1245SOL     OW 4186   0.441   0.431   9.842
 1245SOL    HW1 4187   0.457   0.361   9.779
 1245SOL    HW2 4188   0.381   0.392   9.906
 1246SOL     OW 4189   1.703   1.488  10.403
 1246SOL    HW1 4190   1.621   1.465  10.360
 1246SOL    HW2 4191   1.715   1.421  10.470
 1247SOL     OW 4192   0.304   0.505  10.565
 1247SOL    HW1 4193   0.372   0.455  10.610
 1247SOL    HW2 4194   0.337   0.513  10.475
 1248SOL     OW 4195   0.828   1.578   9.988
 1248SOL    HW1 4196   0.815   1.633   9.910
 1248SOL    HW2 4197   0.751   1.521   9.990
 1249SOL     OW 4198   1.431   0.215  10.428
 1249SOL    HW1 4199   1.470   0.147  10.483
 1249SOL    HW2 4200   1.382   0.270  10.490
 1250SOL     OW 4201   0.995   0.007  10.460
 1250SOL    HW1 4202   0.954   4.421  10.451
 1250SOL    HW2 4203   1.088   4.487  10.473
 1251SOL     OW 4204   0.772   1.333   9.625
 1251SOL    HW1 4205   0.741   1.242   9.631
 1251SOL    HW2 4206   0.854   1.334   9.674
 1252SOL     OW 4207   0.620   1.555  10.598
 1252SOL    HW1 4208   0.621   1.638  10.644
 1252SOL    HW2 4209   0.707   1.549  10.557
 1253SOL     OW 4210   1.340   0.052   9.464
 1253SOL    HW1 4211   1.378   4.477   9.420
 1253SOL    HW2 4212   1.264   0.017   9.511
 1254SOL     OW 4213   1.315   0.463   9.986
 1254SOL    HW1 4214   1.256   0.539   9.987
 1254SOL    HW2 4215   1.303   0.422  10.072
 1255SOL     OW 4216   1.585   0.200  10.178
 1255SOL    HW1 4217   1.526   0.214  10.252
 1255SOL    HW2 4218   1.588   0.283  10.132
 1256SOL     OW 4219   0.041   1.051   9.598
 1256SOL    HW1 4220   0.134   1.034   9.588
 1256SOL    HW2 4221   0.021   1.020   9.687
 1257SOL     OW 4222   0.885   1.653   9.652
 1257SOL    HW1 4223   0.812   1.636   9.592
 1257SOL    HW2 4224   0.856   1.728   9.704
 1258SOL     OW 4225   0.240   2.457   0.107
 1258SOL    HW1 4226   0.168   2.451   0.169
 1258SOL    HW2 4227   0.204   2.502   0.031
 1259SOL     OW 4228   0.212   2.137   0.992
 1259SOL    HW1 4229   0.249   2.111   1.076
 1259SOL    HW2 4230   0.137   2.079   0.979
 1260SOL     OW 4231   0.008   2.254   0.638
 1260SOL    HW1 4232   4.428   2.285   0.679
 1260SOL    HW2 4233   4.484   2.171   0.597
 1261SOL     OW 4234   0.568   3.150   1.176
 1261SOL    HW1 4235   0.481   3.155   1.137
 1261SOL    HW2 4236   0.583   3.238   1.211
 1262SOL     OW 4237   1.561   3.374   0.707
 1262SOL    HW1 4238   1.518   3.353   0.790
 1262SOL    HW2 4239   1.490   3.377   0.643
 1263SOL     OW 4240   1.130   2.561   0.700
 1263SOL    HW1 4241   1.180   2.642   0.687
 1263SOL    HW2 4242   1.084   2.574   0.783
 1264SOL     OW 4243   1.771   2.466   0.224
 1264SOL    HW1 4244   1.733   2.463   0.136
 1264SOL    HW2 4245   1.736   2.389   0.269
 1265SOL     OW 4246   0.755   3.004   1.041
 1265SOL    HW1 4247   0.686   3.039   1.098
 1265SOL    HW2 4248   0.790   3.081   0.997
 1266SOL     OW 4249   0.867   2.634   1.821
 1266SOL    HW1 4250   0.853   2.705   1.884
 1266SOL    HW2 4251   0.890   2.679   1.740
 1267SOL     OW 4252   0.685   2.865   0.647
 1267SOL    HW1 4253   0.751   2.853   0.716
 1267SOL    HW2 4254   0.616   2.916   0.689
 1268SOL     OW 4255   0.711   3.012   1.813
 1268SOL    HW1 4256   0.758   3.091   1.840
 1268SOL    HW2 4257   0.629   3.044   1.777
 1269SOL     OW 4258   0.335   3.282   1.069
 1269SOL    HW1 4259   0.253   3.263   1.023
 1269SOL    HW2 4260   0.385   3.337   1.008
 1270SOL     OW 4261   1.461   3.361   1.355
 1270SOL    HW1 4262   1.511   3.442   1.365
 1270SOL    HW2 4263   1.398   3.363   1.427
 1271SOL     OW 4264   0.445   2.267   1.491
 1271SOL    HW1 4265   0.524   2.214   1.496
 1271SOL    HW2 4266   0.373   2.203   1.497
 1272SOL     OW 4267   1.610   2.308   0.743
 1272SOL    HW1 4268   1.535   2.330   0.687
 1272SOL    HW2 4269   1.626   2.388   0.793
 1273SOL     OW 4270   0.245   3.553   0.482
 1273SOL    HW1 4271   0.232   3.640   0.520
 1273SOL    HW2 4272   0.306   3.568   0.410
 1274SOL     OW 4273   1.136   3.203   1.693
 1274SOL    HW1 4274   1.177   3.199   1.779
 1274SOL    HW2 4275   1.084   3.124   1.686
 1275SOL     OW 4276   0.246   3.289   0.528
 1275SOL    HW1 4277   0.240   3.384   0.528
 1275SOL    HW2 4278   0.181   3.261   0.593
 1276SOL     OW 4279   0.248   2.944   0.884
 1276SOL    HW1 4280   0.264   2.854   0.912
 1276SOL    HW2 4281   0.188   2.979   0.950
 1277SOL     OW 4282   0.613   3.653   1.431
 1277SOL    HW1 4283   0.530   3.635   1.475
 1277SOL    HW2 4284   0.633   3.743   1.455
 1278SOL     OW 4285   0.570   2.857   0.149
 1278SOL    HW1 4286   0.620   2.895   0.077
 1278SOL    HW2 4287   0.619   2.883   0.228
 1279SOL     OW 4288   1.590   1.985   1.466
 1279SOL    HW1 4289   1.608   2.065   1.416
 1279SOL    HW2 4290   1.581   2.016   1.557
 1280SOL     OW 4291   0.135   2.509   0.572
 1280SOL    HW1 4292   0.089   2.428   0.592
 1280SOL    HW2 4293   0.107   2.570   0.640
 1281SOL     OW 4294   1.842   3.621   0.333
 1281SOL    HW1 4295   1.907   3.592   0.397
 1281SOL    HW2 4296   1.867   3.712   0.314
 1282SOL     OW 4297   0.075   3.452   0.151
 1282SOL    HW1 4298   0.040   3.363   0.158
 1282SOL    HW2 4299   0.026   3.502   0.216
 1283SOL     OW 4300   1.689   2.781   0.641
 1283SOL    HW1 4301   1.771   2.738   0.617
 1283SOL    HW2 4302   1.666   2.832   0.564
 1284SOL     OW 4303   1.646   2.967   0.432
 1284SOL    HW1 4304   1.729   2.977   0.385
 1284SOL    HW2 4305   1.652   3.030   0.504
 1285SOL     OW 4306   0.112   2.626   1.583
 1285SOL    HW1 4307   0.203   2.623   1.552
 1285SOL    HW2 4308   0.096   2.718   1.602
 1286SOL     OW 4309   0.614   3.248   0.736
 1286SOL    HW1 4310   0.568   3.165   0.746
 1286SOL    HW2 4311   0.597   3.275   0.646
 1287SOL     OW 4312   1.289   3.100   1.423
 1287SOL    HW1 4313   1.321   3.033   1.363
 1287SOL    HW2 4314   1.346   3.094   1.499
 1288SOL     OW 4315   0.817   1.863   0.509
 1288SOL    HW1 4316   0.855   1.949   0.491
 1288SOL    HW2 4317   0.723   1.880   0.517
 1289SOL     OW 4318   0.179   2.802   1.279
 1289SOL    HW1 4319   0.271   2.784   1.259
 1289SOL    HW2 4320   0.133   2.789   1.196
 1290SOL     OW 4321   1.515   2.865   0.203
 1290SOL    HW1 4322   1.452   2.803   0.239
 1290SOL    HW2 4323   1.567   2.894   0.279
 1291SOL     OW 4324   1.186   3.669   1.622
 1291SOL    HW1 4325   1.196   3.727   1.547
 1291SOL    HW2 4326   1.202   3.581   1.587
 1292SOL     OW 4327   0.331   2.118   1.799
 1292SOL    HW1 4328   0.380   2.192   1.836
 1292SOL    HW2 4329   0.244   2.125   1.837
 1293SOL     OW 4330   1.467   3.281   0.952
 1293SOL    HW1 4331   1.398   3.297   1.017
 1293SOL    HW2 4332   1.454   3.190   0.924
 1294SOL     OW 4333   1.658   3.602   0.579
 1294SOL    HW1 4334   1.639   3.574   0.490
 1294SOL    HW2 4335   1.633   3.528   0.634
 1295SOL     OW 4336   0.595   2.579   0.265
 1295SOL    HW1 4337   0.599   2.662   0.216
 1295SOL    HW2 4338   0.533   2.596   0.335
 1296SOL     OW 4339   1.279   2.216   0.933
 1296SOL    HW1 4340   1.190   2.182   0.941
 1296SOL    HW2 4341   1.331   2.162   0.993
 1297SOL     OW 4342   1.582   3.533   0.312
 1297SOL    HW1 4343   1.673   3.562   0.305
 1297SOL    HW2 4344   1.556   3.514   0.222
 1298SOL     OW 4345   0.793   2.478   1.451
 1298SOL    HW1 4346   0.767   2.454   1.540
 1298SOL    HW2 4347   0.751   2.413   1.395
 1299SOL     OW 4348   1.393   2.336   1.678
 1299SOL    HW1 4349   1.396   2.380   1.763
 1299SOL    HW2 4350   1.455   2.264   1.686
 1300SOL     OW 4351   0.955   2.749   1.582
 1300SOL    HW1 4352   1.009   2.679   1.547
 1300SOL    HW2 4353   0.907   2.784   1.507
 1301SOL     OW 4354   0.993   2.276   1.238
 1301SOL    HW1 4355   0.907   2.296   1.276
 1301SOL    HW2 4356   0.972   2.228   1.157
 1302SOL     OW 4357   1.051   2.564   0.427
 1302SOL    HW1 4358   1.068   2.556   0.521
 1302SOL    HW2 4359   0.968   2.517   0.413
 1303SOL     OW 4360   0.097   2.689   0.784
 1303SOL    HW1 4361   0.183   2.674   0.823
 1303SOL    HW2 4362   0.041   2.714   0.858
 1304SOL     OW 4363   0.124   3.717   1.576
 1304SOL    HW1 4364   0.117   3.694   1.669
 1304SOL    HW2 4365   0.044   3.681   1.537
 1305SOL     OW 4366   0.889   2.217   0.209
 1305SOL    HW1 4367   0.935   2.273   0.147
 1305SOL    HW2 4368   0.903   2.128   0.175
 1306SOL     OW 4369   1.711   2.442   1.830
 1306SOL    HW1 4370   1.672   2.515   1.782
 1306SOL    HW2 4371   1.728   2.376   1.763
 1307SOL     OW 4372   1.377   3.003   0.541
 1307SOL    HW1 4373   1.455   2.990   0.488
 1307SOL    HW2 4374   1.324   3.066   0.492
 1308SOL     OW 4375   0.552   2.043   0.893
 1308SOL    HW1 4376   0.554   2.074   0.984
 1308SOL    HW2 4377   0.552   2.123   0.841
 1309SOL     OW 4378   1.005   3.306   0.474
 1309SOL    HW1 4379   0.968   3.379   0.424
 1309SOL    HW2 4380   0.985   3.327   0.565
 1310SOL     OW 4381   0.356   3.673   0.860
 1310SOL    HW1 4382   0.397   3.587   0.869
 1310SOL    HW2 4383   0.426   3.736   0.874
 1311SOL     OW 4384   1.800   2.917   0.868
 1311SOL    HW1 4385   1.745   2.901   0.791
 1311SOL    HW2 4386   1.738   2.923   0.941
 1312SOL     OW 4387   1.228   3.401   1.513
 1312SOL    HW1 4388   1.214   3.328   1.574
 1312SOL    HW2 4389   1.164   3.386   1.443
 1313SOL     OW 4390   0.312   2.818   0.279
 1313SOL    HW1 4391   0.395   2.845   0.240
 1313SOL    HW2 4392   0.309   2.723   0.266
 1314SOL     OW 4393   1.478   2.604   0.726
 1314SOL    HW1 4394   1.470   2.561   0.811
 1314SOL    HW2 4395   1.556   2.660   0.735
 1315SOL     OW 4396   0.468   3.125   1.735
 1315SOL    HW1 4397   0.441   3.131   1.643
 1315SOL    HW2 4398   0.386   3.128   1.785
 1316SOL     OW 4399   1.108   3.641   0.227
 1316SOL    HW1 4400   1.047   3.590   0.281
 1316SOL    HW2 4401   1.149   3.576   0.170
 1317SOL     OW 4402   0.196   2.139   1.485
 1317SOL    HW1 4403   0.138   2.214   1.492
 1317SOL    HW2 4404   0.183   2.091   1.567
 1318SOL     OW 4405   1.628   3.236   0.089
 1318SOL    HW1 4406   1.585   3.321   0.077
 1318SOL    HW2 4407   1.562   3.172   0.060
 1319SOL     OW 4408   0.469   3.604   0.317
 1319SOL    HW1 4409   0.508   3.660   0.383
 1319SOL    HW2 4410   0.543   3.573   0.264
 1320SOL     OW 4411   1.401   1.970   0.432
 1320SOL    HW1 4412   1.393   1.947   0.339
 1320SOL    HW2 4413   1.496   1.978   0.446
 1321SOL     OW 4414   0.260   3.655   1.230
 1321SOL    HW1 4415   0.305   3.580   1.268
 1321SOL    HW2 4416   0.225   3.623   1.147
 1322SOL     OW 4417   0.938   3.561   0.898
 1322SOL    HW1 4418   1.015   3.509   0.920
 1322SOL    HW2 4419   0.894   3.511   0.829
 1323SOL     OW 4420   0.393   2.557   0.469
 1323SOL    HW1 4421   0.417   2.465   0.482
 1323SOL    HW2 4422   0.302   2.562   0.499
 1324SOL     OW 4423   1.533   2.085   1.726
 1324SOL    HW1 4424   1.541   2.105   1.820
 1324SOL    HW2 4425   1.466   2.018   1.721
 1325SOL     OW 4426   0.615   1.968   0.124
 1325SOL    HW1 4427   0.705   1.935   0.122
 1325SOL    HW2 4428   0.582   1.951   0.035
 1326SOL     OW 4429   0.767   2.140   1.755
 1326SOL    HW1 4430   0.843   2.082   1.754
 1326SOL    HW2 4431   0.718   2.116   1.834
 1327SOL     OW 4432   0.877   3.385   1.193
 1327SOL    HW1 4433   0.860   3.348   1.107
 1327SOL    HW2 4434   0.946   3.330   1.230
 1328SOL     OW 4435   1.340   2.451   1.432
 1328SOL    HW1 4436   1.371   2.419   1.517
 1328SOL    HW2 4437   1.377   2.539   1.425
 1329SOL     OW 4438   0.816   3.257   0.940
 1329SOL    HW1 4439   0.900   3.245   0.896
 1329SOL    HW2 4440   0.751   3.258   0.870
 1330SOL     OW 4441   0.928   2.371   0.903
 1330SOL    HW1 4442   0.904   2.363   0.811
 1330SOL    HW2 4443   0.959   2.284   0.928
 1331SOL     OW 4444   0.553   1.923   0.504
 1331SOL    HW1 4445   0.471   1.921   0.553
 1331SOL    HW2 4446   0.547   2.002   0.450
 1332SOL     OW 4447   1.425   3.059   0.029
 1332SOL    HW1 4448   1.456   2.987   0.084
 1332SOL    HW2 4449   1.342   3.085   0.069
 1333SOL     OW 4450   0.286   1.911   0.191
 1333SOL    HW1 4451   0.335   1.961   0.126
 1333SOL    HW2 4452   0.349   1.846   0.223
 1334SOL     OW 4453   0.940   2.108   0.462
 1334SOL    HW1 4454   0.912   2.153   0.383
 1334SOL    HW2 4455   1.034   2.124   0.466
 1335SOL     OW 4456   1.080   2.543   1.459
 1335SOL    HW1 4457   1.012   2.476   1.464
 1335SOL    HW2 4458   1.162   2.494   1.453
 1336SOL     OW 4459   1.223   3.432   0.794
 1336SOL    HW1 4460   1.239   3.498   0.727
 1336SOL    HW2 4461   1.292   3.446   0.859
 1337SOL     OW 4462   0.469   3.012   0.739
 1337SOL    HW1 4463   0.398   2.993   0.800
 1337SOL    HW2 4464   0.429   3.000   0.652
 1338SOL     OW 4465   1.269   3.656   0.607
 1338SOL    HW1 4466   1.316   3.717   0.551
 1338SOL    HW2 4467   1.203   3.710   0.651
 1339SOL     OW 4468   1.011   2.398   0.040
 1339SOL    HW1 4469   0.978   2.486   0.021
 1339SOL    HW2 4470   1.092   2.412   0.089
 1340SOL     OW 4471   0.083   2.389   1.410
 1340SOL    HW1 4472   0.147   2.385   1.339
 1340SOL    HW2 4473   0.068   2.482   1.424
 1341SOL     OW 4474   0.560   2.090   1.166
 1341SOL    HW1 4475   0.603   2.011   1.201
 1341SOL    HW2 4476   0.469   2.081   1.193
 1342SOL     OW 4477   0.868   2.322   0.640
 1342SOL    HW1 4478   0.823   2.376   0.575
 1342SOL    HW2 4479   0.888   2.240   0.594
 1343SOL     OW 4480   1.015   1.916   0.751
 1343SOL    HW1 4481   0.957   1.908   0.676
 1343SOL    HW2 4482   0.994   1.840   0.806
 1344SOL     OW 4483   1.437   3.025   0.857
 1344SOL    HW1 4484   1.368   2.959   0.856
 1344SOL    HW2 4485   1.462   3.035   0.765
 1345SOL     OW 4486   1.465   2.468   0.977
 1345SOL    HW1 4487   1.414   2.386   0.979
 1345SOL    HW2 4488   1.524   2.461   1.052
 1346SOL     OW 4489   1.849   2.675   0.384
 1346SOL    HW1 4490   1.905   2.623   0.441
 1346SOL    HW2 4491   1.820   2.613   0.316
 1347SOL     OW 4492   0.495   3.285   0.174
 1347SOL    HW1 4493   0.415   3.260   0.221
 1347SOL    HW2 4494   0.491   3.235   0.092
 1348SOL     OW 4495   1.670   3.126   0.648
 1348SOL    HW1 4496   1.765   3.130   0.659
 1348SOL    HW2 4497   1.640   3.215   0.667
 1349SOL     OW 4498   1.390   2.438   0.080
 1349SOL    HW1 4499   1.330   2.416   0.152
 1349SOL    HW2 4500   1.457   2.370   0.084
 1350SOL     OW 4501   0.529   2.125   0.327
 1350SOL    HW1 4502   0.556   2.065   0.258
 1350SOL    HW2 4503   0.510   2.207   0.282
 1351SOL     OW 4504   1.752   3.102   1.572
 1351SOL    HW1 4505   1.839   3.062   1.569
 1351SOL    HW2 4506   1.767   3.191   1.601
 1352SOL     OW 4507   1.058   3.216   1.334
 1352SOL    HW1 4508   0.983   3.185   1.385
 1352SOL    HW2 4509   1.134   3.174   1.375
 1353SOL     OW 4510   1.608   3.488   1.655
 1353SOL    HW1 4511   1.602   3.522   1.565
 1353SOL    HW2 4512   1.691   3.440   1.656
 1354SOL     OW 4513   1.130   3.066   1.105
 1354SOL    HW1 4514   1.070   3.103   1.170
 1354SOL    HW2 4515   1.097   3.098   1.021
 1355SOL     OW 4516   1.628   2.960   1.077
 1355SOL    HW1 4517   1.623   3.022   1.150
 1355SOL    HW2 4518   1.549   2.977   1.026
 1356SOL     OW 4519   0.917   1.960   1.396
 1356SOL    HW1 4520   0.940   1.940   1.305
 1356SOL    HW2 4521   0.997   1.998   1.433
 1357SOL     OW 4522   0.984   2.977   1.723
 1357SOL    HW1 4523   0.892   2.992   1.745
 1357SOL    HW2 4524   0.983   2.899   1.667
 1358SOL     OW 4525   0.711   2.922   0.374
 1358SOL    HW1 4526   0.697   2.906   0.468
 1358SOL    HW2 4527   0.786   2.868   0.351
 1359SOL     OW 4528   0.431   2.689   1.242
 1359SOL    HW1 4529   0.501   2.701   1.307
 1359SOL    HW2 4530   0.373   2.623   1.281
 1360SOL     OW 4531   1.265   2.239   1.276
 1360SOL    HW1 4532   1.298   2.316   1.321
 1360SOL    HW2 4533   1.175   2.261   1.253
 1361SOL     OW 4534   0.063   3.438   1.343
 1361SOL    HW1 4535   0.036   3.528   1.323
 1361SOL    HW2 4536   0.158   3.443   1.348
 1362SOL     OW 4537   0.346   2.981   0.499
 1362SOL    HW1 4538   0.349   3.055   0.439
 1362SOL    HW2 4539   0.339   2.904   0.443
 1363SOL     OW 4540   0.560   2.395   0.855
 1363SOL    HW1 4541   0.574   2.455   0.782
 1363SOL    HW2 4542   0.622   2.425   0.922
 1364SOL     OW 4543   1.247   3.208   0.395
 1364SOL    HW1 4544   1.303   3.281   0.423
 1364SOL    HW2 4545   1.160   3.232   0.427
 1365SOL     OW 4546   1.281   3.320   1.147
 1365SOL    HW1 4547   1.336   3.322   1.225
 1365SOL    HW2 4548   1.226   3.243   1.159
 1366SOL     OW 4549   1.583   2.486   0.480
 1366SOL    HW1 4550   1.534   2.536   0.545
 1366SOL    HW2 4551   1.620   2.553   0.421
 1367SOL     OW 4552   0.346   3.395   1.314
 1367SOL    HW1 4553   0.333   3.347   1.232
 1367SOL    HW2 4554   0.441   3.404   1.321
 1368SOL     OW 4555   0.481   2.619   1.667
 1368SOL    HW1 4556   0.510   2.657   1.585
 1368SOL    HW2 4557   0.529   2.536   1.673
 1369SOL     OW 4558   1.601   2.643   1.683
 1369SOL    HW1 4559   1.515   2.683   1.676
 1369SOL    HW2 4560   1.653   2.684   1.614
 1370SOL     OW 4561   0.996   1.986   1.754
 1370SOL    HW1 4562   1.053   2.058   1.727
 1370SOL    HW2 4563   1.044   1.907   1.729
 1371SOL     OW 4564   0.497   1.904   1.747
 1371SOL    HW1 4565   0.456   1.848   1.682
 1371SOL    HW2 4566   0.438   1.979   1.755
 1372SOL     OW 4567   0.590   2.736   1.024
 1372SOL    HW1 4568   0.619   2.827   1.026
 1372SOL    HW2 4569   0.534   2.727   1.101
 1373SOL     OW 4570   1.357   2.721   1.030
 1373SOL    HW1 4571   1.274   2.711   0.983
 1373SOL    HW2 4572   1.398   2.634   1.024
 1374SOL     OW 4573   1.201   2.387   0.270
 1374SOL    HW1 4574   1.210   2.310   0.326
 1374SOL    HW2 4575   1.159   2.452   0.326
 1375SOL     OW 4576   0.302   2.052   1.242
 1375SOL    HW1 4577   0.262   2.086   1.322
 1375SOL    HW2 4578   0.285   1.958   1.245
 1376SOL     OW 4579   0.037   3.175   1.286
 1376SOL    HW1 4580   0.075   3.127   1.360
 1376SOL    HW2 4581   0.043   3.267   1.310
 1377SOL     OW 4582   0.725   2.493   1.058
 1377SOL    HW1 4583   0.800   2.475   1.001
 1377SOL    HW2 4584   0.698   2.582   1.035
 1378SOL     OW 4585   1.734   2.823   1.852
 1378SOL    HW1 4586   1.689   2.760   1.796
 1378SOL    HW2 4587   1.675   2.836   1.926
 1379SOL     OW 4588   0.312   1.932   0.620
 1379SOL    HW1 4589   0.287   2.021   0.646
 1379SOL    HW2 4590   0.308   1.881   0.701
 1380SOL     OW 4591   1.616   2.236   0.366
 1380SOL    HW1 4592   1.646   2.173   0.432
 1380SOL    HW2 4593   1.594   2.314   0.417
 1381SOL     OW 4594   1.028   2.621   0.960
 1381SOL    HW1 4595   1.024   2.638   1.054
 1381SOL    HW2 4596   1.001   2.529   0.952
 1382SOL     OW 4597   0.983   3.429   1.717
 1382SOL    HW1 4598   0.967   3.472   1.633
 1382SOL    HW2 4599   1.025   3.346   1.694
 1383SOL     OW 4600   1.855   3.368   1.605
 1383SOL    HW1 4601   1.873   3.394   1.515
 1383SOL    HW2 4602   1.936   3.386   1.653
 1384SOL     OW 4603   0.347   2.796   1.818
 1384SOL    HW1 4604   0.419   2.825   1.873
 1384SOL    HW2 4605   0.385   2.728   1.762
 1385SOL     OW 4606   1.532   2.154   0.116
 1385SOL    HW1 4607   1.474   2.080   0.132
 1385SOL    HW2 4608   1.566   2.177   0.202
 1386SOL     OW 4609   1.287   2.684   0.032
 1386SOL    HW1 4610   1.330   2.600   0.044
 1386SOL    HW2 4611   1.323   2.719  11.051
 1387SOL     OW 4612   1.066   3.197   0.854
 1387SOL    HW1 4613   1.069   3.125   0.791
 1387SOL    HW2 4614   1.127   3.262   0.819
 1388SOL     OW 4615   0.318   2.673   0.947
 1388SOL    HW1 4616   0.412   2.690   0.945
 1388SOL    HW2 4617   0.311   2.582   0.975
 1389SOL     OW 4618   0.330   2.387   0.989
 1389SOL    HW1 4619   0.292   2.301   0.974
 1389SOL    HW2 4620   0.409   2.389   0.935
 1390SOL     OW 4621   1.134   2.238   1.682
 1390SOL    HW1 4622   1.087   2.293   1.745
 1390SOL    HW2 4623   1.222   2.276   1.678
 1391SOL     OW 4624   1.160   2.065   1.470
 1391SOL    HW1 4625   1.150   2.128   1.541
 1391SOL    HW2 4626   1.201   2.114   1.399
 1392SOL     OW 4627   4.497   3.186   0.202
 1392SOL    HW1 4628   4.403   3.205   0.194
 1392SOL    HW2 4629   0.000   3.094   0.229
 1393SOL     OW 4630   0.098   3.638   0.940
 1393SOL    HW1 4631   0.058   3.587   0.869
 1393SOL    HW2 4632   0.186   3.659   0.909
 1394SOL     OW 4633   0.496   3.436   0.907
 1394SOL    HW1 4634   0.564   3.499   0.931
 1394SOL    HW2 4635   0.540   3.373   0.849
 1395SOL     OW 4636   0.983   2.654   1.226
 1395SOL    HW1 4637   1.039   2.631   1.300
 1395SOL    HW2 4638   0.897   2.617   1.248
 1396SOL     OW 4639   0.033   2.424   1.102
 1396SOL    HW1 4640   0.118   2.393   1.073
 1396SOL    HW2 4641   0.018   2.379   1.185
 1397SOL     OW 4642   0.179   2.382   1.715
 1397SOL    HW1 4643   0.260   2.352   1.673
 1397SOL    HW2 4644   0.157   2.463   1.669
 1398SOL     OW 4645   1.376   2.801   1.658
 1398SOL    HW1 4646   1.398   2.894   1.656
 1398SOL    HW2 4647   1.374   2.774   1.566
 1399SOL     OW 4648   0.816   2.436   0.366
 1399SOL    HW1 4649   0.825   2.361   0.308
 1399SOL    HW2 4650   0.741   2.485   0.331
 1400SOL     OW 4651   1.640   2.465   1.187
 1400SOL    HW1 4652   1.632   2.402   1.259
 1400SOL    HW2 4653   1.728   2.451   1.153
 1401SOL     OW 4654   0.274   3.424   1.741
 1401SOL    HW1 4655   0.216   3.476   1.796
 1401SOL    HW2 4656   0.254   3.333   1.764
 1402SOL     OW 4657   0.693   2.316   1.261
 1402SOL    HW1 4658   0.646   2.239   1.229
 1402SOL    HW2 4659   0.693   2.377   1.188
 1403SOL     OW 4660   0.928   3.541   1.467
 1403SOL    HW1 4661   0.902   3.506   1.383
 1403SOL    HW2 4662   0.922   3.636   1.456
 1404SOL     OW 4663   0.475   2.345   0.179
 1404SOL    HW1 4664   0.531   2.418   0.204
 1404SOL    HW2 4665   0.390   2.385   0.160
 1405SOL     OW 4666   0.162   3.003   1.460
 1405SOL    HW1 4667   0.145   2.958   1.543
 1405SOL    HW2 4668   0.169   2.932   1.396
 1406SOL     OW 4669   1.326   2.909   1.223
 1406SOL    HW1 4670   1.349   2.845   1.155
 1406SOL    HW2 4671   1.256   2.961   1.184
 1407SOL     OW 4672   1.308   2.714   0.310
 1407SOL    HW1 4673   1.231   2.681   0.358
 1407SOL    HW2 4674   1.286   2.700   0.218
 1408SOL     OW 4675   1.773   3.605   1.151
 1408SOL    HW1 4676   1.832   3.632   1.081
 1408SOL    HW2 4677   1.748   3.515   1.129
 1409SOL     OW 4678   1.241   3.596   1.113
 1409SOL    HW1 4679   1.323   3.616   1.068
 1409SOL    HW2 4680   1.247   3.502   1.131
 1410SOL     OW 4681   0.067   3.046   1.050
 1410SOL    HW1 4682   0.063   3.078   1.140
 1410SOL    HW2 4683   0.026   3.116   0.998
 1411SOL     OW 4684   0.679   3.528   1.731
 1411SOL    HW1 4685   0.622   3.605   1.724
 1411SOL    HW2 4686   0.742   3.539   1.660
 1412SOL     OW 4687   0.918   1.954   0.106
 1412SOL    HW1 4688   0.968   1.917   0.034
 1412SOL    HW2 4689   0.955   1.913   0.184
 1413SOL     OW 4690   1.720   2.008   0.510
 1413SOL    HW1 4691   1.791   1.993   0.448
 1413SOL    HW2 4692   1.704   1.922   0.549
 1414SOL     OW 4693   1.390   3.430   0.486
 1414SOL    HW1 4694   1.451   3.462   0.419
 1414SOL    HW2 4695   1.343   3.508   0.514
 1415SOL     OW 4696   0.119   3.669   1.847
 1415SOL    HW1 4697   0.078   3.597   1.895
 1415SOL    HW2 4698   0.182   3.706   1.909
 1416SOL     OW 4699   1.277   2.788   0.672
 1416SOL    HW1 4700   1.351   2.727   0.678
 1416SOL    HW2 4701   1.311   2.860   0.619
 1417SOL     OW 4702   0.813   3.136   1.429
 1417SOL    HW1 4703   0.786   3.175   1.512
 1417SOL    HW2 4704   0.743   3.157   1.368
 1418SOL     OW 4705   0.674   3.483   0.168
 1418SOL    HW1 4706   0.688   3.490   0.073
 1418SOL    HW2 4707   0.617   3.407   0.178
 1419SOL     OW 4708   1.626   3.588   1.391
 1419SOL    HW1 4709   1.676   3.595   1.310
 1419SOL    HW2 4710   1.613   3.679   1.419
 1420SOL     OW 4711   1.847   2.045   0.966
 1420SOL    HW1 4712   1.881   1.958   0.942
 1420SOL    HW2 4713   1.761   2.049   0.925
 1421SOL     OW 4714   0.264   2.182   0.719
 1421SOL    HW1 4715   0.181   2.221   0.691
 1421SOL    HW2 4716   0.254   2.169   0.814
 1422SOL     OW 4717   1.223   3.463   0.053
 1422SOL    HW1 4718   1.210   3.371   0.073
 1422SOL    HW2 4719   1.157   3.483  11.086
 1423SOL     OW 4720   0.826   2.869   1.372
 1423SOL    HW1 4721   0.868   2.865   1.287
 1423SOL    HW2 4722   0.824   2.962   1.394
 1424SOL     OW 4723   0.914   2.769   0.281
 1424SOL    HW1 4724   0.980   2.809   0.225
 1424SOL    HW2 4725   0.962   2.704   0.333
 1425SOL     OW 4726   1.498   3.484   0.047
 1425SOL    HW1 4727   1.403   3.478   0.045
 1425SOL    HW2 4728   1.524   3.498  11.056
 1426SOL     OW 4729   0.373   3.170   1.490
 1426SOL    HW1 4730   0.355   3.248   1.439
 1426SOL    HW2 4731   0.298   3.113   1.474
 1427SOL     OW 4732   1.612   3.145   1.281
 1427SOL    HW1 4733   1.669   3.133   1.356
 1427SOL    HW2 4734   1.550   3.214   1.308
 1428SOL     OW 4735   1.052   2.969   0.706
 1428SOL    HW1 4736   0.982   2.918   0.746
 1428SOL    HW2 4737   1.116   2.904   0.676
 1429SOL     OW 4738   1.021   2.102   0.966
 1429SOL    HW1 4739   1.017   2.055   0.883
 1429SOL    HW2 4740   1.016   2.034   1.033
 1430SOL     OW 4741   0.603   3.353   0.483
 1430SOL    HW1 4742   0.643   3.302   0.412
 1430SOL    HW2 4743   0.529   3.396   0.442
 1431SOL     OW 4744   1.719   2.258   1.380
 1431SOL    HW1 4745   1.794   2.317   1.382
 1431SOL    HW2 4746   1.748   2.184   1.326
 1432SOL     OW 4747   0.264   3.190   0.283
 1432SOL    HW1 4748   0.176   3.201   0.247
 1432SOL    HW2 4749   0.259   3.230   0.370
 1433SOL     OW 4750   0.116   2.869   1.694
 1433SOL    HW1 4751   0.052   2.912   1.751
 1433SOL    HW2 4752   0.194   2.859   1.748
 1434SOL     OW 4753   0.674   2.061   1.499
 1434SOL    HW1 4754   0.758   2.039   1.458
 1434SOL    HW2 4755   0.698   2.089   1.587
 1435SOL     OW 4756   0.058   2.205   0.002
 1435SOL    HW1 4757   4.472   2.189   0.041
 1435SOL    HW2 4758   0.078   2.296   0.023
 1436SOL     OW 4759   1.430   2.721   1.400
 1436SOL    HW1 4760   1.381   2.781   1.344
 1436SOL    HW2 4761   1.519   2.723   1.366
 1437SOL     OW 4762   0.078   2.032   0.307
 1437SOL    HW1 4763   0.085   2.116   0.262
 1437SOL    HW2 4764   0.154   1.982   0.276
 1438SOL     OW 4765   1.183   3.201   0.122
 1438SOL    HW1 4766   1.089   3.184   0.115
 1438SOL    HW2 4767   1.201   3.193   0.216
 1439SOL     OW 4768   0.624   2.693   1.431
 1439SOL    HW1 4769   0.680   2.769   1.418
 1439SOL    HW2 4770   0.685   2.619   1.439
 1440SOL     OW 4771   1.483   3.639   0.979
 1440SOL    HW1 4772   1.507   3.699   0.908
 1440SOL    HW2 4773   1.567   3.619   1.022
 1441SOL     OW 4774   0.713   2.425   1.704
 1441SOL    HW1 4775   0.756   2.488   1.763
 1441SOL    HW2 4776   0.743   2.339   1.735
 1442SOL     OW 4777   1.471   3.062   1.632
 1442SOL    HW1 4778   1.459   3.075   1.726
 1442SOL    HW2 4779   1.565   3.077   1.618
 1443SOL     OW 4780   0.380   3.606   1.565
 1443SOL    HW1 4781   0.295   3.646   1.547
 1443SOL    HW2 4782   0.359   3.526   1.613
 1444SOL     OW 4783   1.670   2.744   1.255
 1444SOL    HW1 4784   1.661   2.658   1.213
 1444SOL    HW2 4785   1.659   2.807   1.184
 1445SOL     OW 4786   1.216   2.179   0.460
 1445SOL    HW1 4787   1.280   2.109   0.450
 1445SOL    HW2 4788   1.245   2.229   0.536
 1446SOL     OW 4789   0.589   2.599   0.669
 1446SOL    HW1 4790   0.627   2.686   0.655
 1446SOL    HW2 4791   0.521   2.592   0.602
 1447SOL     OW 4792   1.749   2.237   1.658
 1447SOL    HW1 4793   1.750   2.237   1.563
 1447SOL    HW2 4794   1.681   2.174   1.682
 1448SOL     OW 4795   1.745   2.796   1.512
 1448SOL    HW1 4796   1.741   2.891   1.525
 1448SOL    HW2 4797   1.730   2.784   1.418
 1449SOL     OW 4798   0.905   3.218   0.070
 1449SOL    HW1 4799   0.835   3.216   0.135
 1449SOL    HW2 4800   0.890   3.300   0.022
 1450SOL     OW 4801   0.661   3.653   0.946
 1450SOL    HW1 4802   0.640   3.743   0.921
 1450SOL    HW2 4803   0.756   3.647   0.936
 1451SOL     OW 4804   0.868   2.829   0.854
 1451SOL    HW1 4805   0.917   2.757   0.894
 1451SOL    HW2 4806   0.832   2.878   0.929
 1452SOL     OW 4807   1.078   2.852   0.084
 1452SOL    HW1 4808   1.054   2.884  11.098
 1452SOL    HW2 4809   1.155   2.796   0.068
 1453SOL     OW 4810   1.853   3.417   0.845
 1453SOL    HW1 4811   1.776   3.405   0.789
 1453SOL    HW2 4812   1.844   3.350   0.912
 1454SOL     OW 4813   0.231   3.167   1.858
 1454SOL    HW1 4814   0.156   3.112   1.836
 1454SOL    HW2 4815   0.226   3.177   1.953
 1455SOL     OW 4816   0.106   3.093   0.669
 1455SOL    HW1 4817   0.124   3.050   0.752
 1455SOL    HW2 4818   0.170   3.056   0.608
 1456SOL     OW 4819   0.683   3.265   1.629
 1456SOL    HW1 4820   0.603   3.221   1.657
 1456SOL    HW2 4821   0.676   3.353   1.666
 1457SOL     OW 4822   1.807   2.056   1.231
 1457SOL    HW1 4823   1.841   1.972   1.261
 1457SOL    HW2 4824   1.820   2.055   1.137
 1458SOL     OW 4825   0.433   2.297   0.526
 1458SOL    HW1 4826   0.463   2.224   0.471
 1458SOL    HW2 4827   0.384   2.255   0.597
 1459SOL     OW 4828   1.699   3.351   1.096
 1459SOL    HW1 4829   1.619   3.329   1.049
 1459SOL    HW2 4830   1.709   3.282   1.162
 1460SOL     OW 4831   0.299   2.349   1.252
 1460SOL    HW1 4832   0.374   2.308   1.296
 1460SOL    HW2 4833   0.330   2.366   1.163
 1461SOL     OW 4834   0.827   3.440   0.678
 1461SOL    HW1 4835   0.813   3.493   0.600
 1461SOL    HW2 4836   0.751   3.382   0.682
 1462SOL     OW 4837   1.432   2.088   1.117
 1462SOL    HW1 4838   1.463   2.010   1.164
 1462SOL    HW2 4839   1.380   2.136   1.181
 1463SOL     OW 4840   1.009   1.880   1.142
 1463SOL    HW1 4841   0.954   1.813   1.102
 1463SOL    HW2 4842   1.097   1.843   1.144
 1464SOL     OW 4843   0.769   3.190   0.316
 1464SOL    HW1 4844   0.740   3.099   0.331
 1464SOL    HW2 4845   0.852   3.196   0.362
 1465SOL     OW 4846   0.621   3.418   1.286
 1465SOL    HW1 4847   0.623   3.499   1.336
 1465SOL    HW2 4848   0.708   3.411   1.247
 1466SOL     OW 4849   1.351   1.917   0.165
 1466SOL    HW1 4850   1.372   1.866   0.086
 1466SOL    HW2 4851   1.264   1.885   0.191
 1467SOL     OW 4852   1.296   2.323   0.681
 1467SOL    HW1 4853   1.243   2.402   0.688
 1467SOL    HW2 4854   1.292   2.283   0.768
 1468SOL     OW 4855   1.588   2.062   0.879
 1468SOL    HW1 4856   1.528   2.082   0.950
 1468SOL    HW2 4857   1.587   2.140   0.824
 1469SOL     OW 4858   0.038   2.913   0.284
 1469SOL    HW1 4859   0.133   2.904   0.284
 1469SOL    HW2 4860   0.011   2.882   0.371
 1470SOL     OW 4861   0.886   3.516   0.347
 1470SOL    HW1 4862   0.813   3.496   0.288
 1470SOL    HW2 4863   0.855   3.590   0.399
 1471SOL     OW 4864   0.247   2.491   1.982
 1471SOL    HW1 4865   0.173   2.469   2.039
 1471SOL    HW2 4866   0.216   2.473   1.894
 1472SOL     OW 4867   0.213   2.137   2.853
 1472SOL    HW1 4868   0.249   2.110   2.938
 1472SOL    HW2 4869   0.137   2.080   2.841
 1473SOL     OW 4870   0.008   2.254   2.502
 1473SOL    HW1 4871   4.427   2.286   2.541
 1473SOL    HW2 4872   4.482   2.174   2.456
 1474SOL     OW 4873   0.568   3.150   3.038
 1474SOL    HW1 4874   0.481   3.155   2.999
 1474SOL    HW2 4875   0.583   3.238   3.073
 1475SOL     OW 4876   1.561   3.374   2.569
 1475SOL    HW1 4877   1.518   3.353   2.652
 1475SOL    HW2 4878   1.490   3.378   2.505
 1476SOL     OW 4879   1.130   2.560   2.563
 1476SOL    HW1 4880   1.179   2.641   2.549
 1476SOL    HW2 4881   1.084   2.574   2.645
 1477SOL     OW 4882   1.772   2.466   2.090
 1477SOL    HW1 4883   1.747   2.460   1.998
 1477SOL    HW2 4884   1.733   2.388   2.130
 1478SOL     OW 4885   0.755   3.004   2.903
 1478SOL    HW1 4886   0.686   3.039   2.960
 1478SOL    HW2 4887   0.790   3.081   2.859
 1479SOL     OW 4888   0.867   2.634   3.683
 1479SOL    HW1 4889   0.852   2.705   3.745
 1479SOL    HW2 4890   0.890   2.679   3.602
 1480SOL     OW 4891   0.685   2.865   2.509
 1480SOL    HW1 4892   0.751   2.853   2.578
 1480SOL    HW2 4893   0.616   2.917   2.550
 1481SOL     OW 4894   0.711   3.012   3.675
 1481SOL    HW1 4895   0.758   3.091   3.702
 1481SOL    HW2 4896   0.629   3.044   3.639
 1482SOL     OW 4897   0.335   3.283   2.931
 1482SOL    HW1 4898   0.254   3.263   2.885
 1482SOL    HW2 4899   0.385   3.337   2.870
 1483SOL     OW 4900   1.461   3.361   3.217
 1483SOL    HW1 4901   1.511   3.442   3.227
 1483SOL    HW2 4902   1.397   3.363   3.289
 1484SOL     OW 4903   0.445   2.267   3.353
 1484SOL    HW1 4904   0.524   2.214   3.358
 1484SOL    HW2 4905   0.373   2.203   3.359
 1485SOL     OW 4906   1.607   2.310   2.604
 1485SOL    HW1 4907   1.533   2.334   2.549
 1485SOL    HW2 4908   1.627   2.390   2.653
 1486SOL     OW 4909   0.246   3.553   2.339
 1486SOL    HW1 4910   0.230   3.638   2.380
 1486SOL    HW2 4911   0.314   3.570   2.274
 1487SOL     OW 4912   1.136   3.203   3.555
 1487SOL    HW1 4913   1.176   3.199   3.641
 1487SOL    HW2 4914   1.084   3.124   3.548
 1488SOL     OW 4915   0.250   3.288   2.389
 1488SOL    HW1 4916   0.241   3.383   2.392
 1488SOL    HW2 4917   0.187   3.256   2.454
 1489SOL     OW 4918   0.249   2.944   2.747
 1489SOL    HW1 4919   0.264   2.854   2.774
 1489SOL    HW2 4920   0.188   2.979   2.812
 1490SOL     OW 4921   0.613   3.653   3.293
 1490SOL    HW1 4922   0.530   3.634   3.337
 1490SOL    HW2 4923   0.634   3.743   3.317
 1491SOL     OW 4924   0.578   2.849   2.001
 1491SOL    HW1 4925   0.627   2.892   1.930
 1491SOL    HW2 4926   0.623   2.878   2.080
 1492SOL     OW 4927   1.588   1.982   3.333
 1492SOL    HW1 4928   1.609   2.056   3.276
 1492SOL    HW2 4929   1.580   2.021   3.420
 1493SOL     OW 4930   0.136   2.508   2.436
 1493SOL    HW1 4931   0.089   2.427   2.454
 1493SOL    HW2 4932   0.106   2.570   2.503
 1494SOL     OW 4933   1.842   3.621   2.196
 1494SOL    HW1 4934   1.906   3.593   2.262
 1494SOL    HW2 4935   1.866   3.712   2.177
 1495SOL     OW 4936   0.032   3.464   2.003
 1495SOL    HW1 4937   0.021   3.369   2.000
 1495SOL    HW2 4938   0.023   3.486   2.096
 1496SOL     OW 4939   1.691   2.781   2.504
 1496SOL    HW1 4940   1.772   2.736   2.480
 1496SOL    HW2 4941   1.667   2.831   2.425
 1497SOL     OW 4942   1.645   2.968   2.291
 1497SOL    HW1 4943   1.731   2.973   2.249
 1497SOL    HW2 4944   1.650   3.030   2.364
 1498SOL     OW 4945   0.112   2.626   3.445
 1498SOL    HW1 4946   0.202   2.623   3.414
 1498SOL    HW2 4947   0.096   2.718   3.464
 1499SOL     OW 4948   0.614   3.248   2.598
 1499SOL    HW1 4949   0.567   3.165   2.608
 1499SOL    HW2 4950   0.598   3.274   2.508
 1500SOL     OW 4951   1.289   3.100   3.285
 1500SOL    HW1 4952   1.321   3.033   3.225
 1500SOL    HW2 4953   1.346   3.094   3.361
 1501SOL     OW 4954   0.817   1.862   2.371
 1501SOL    HW1 4955   0.856   1.947   2.351
 1501SOL    HW2 4956   0.723   1.881   2.380
 1502SOL     OW 4957   0.179   2.802   3.141
 1502SOL    HW1 4958   0.271   2.784   3.121
 1502SOL    HW2 4959   0.133   2.789   3.058
 1503SOL     OW 4960   1.532   2.856   2.060
 1503SOL    HW1 4961   1.462   2.798   2.092
 1503SOL    HW2 4962   1.572   2.890   2.140
 1504SOL     OW 4963   1.186   3.669   3.484
 1504SOL    HW1 4964   1.195   3.727   3.409
 1504SOL    HW2 4965   1.202   3.581   3.449
 1505SOL     OW 4966   0.331   2.118   3.661
 1505SOL    HW1 4967   0.380   2.192   3.698
 1505SOL    HW2 4968   0.244   2.125   3.699
 1506SOL     OW 4969   1.467   3.281   2.814
 1506SOL    HW1 4970   1.399   3.297   2.879
 1506SOL    HW2 4971   1.454   3.190   2.786
 1507SOL     OW 4972   1.659   3.602   2.440
 1507SOL    HW1 4973   1.638   3.572   2.351
 1507SOL    HW2 4974   1.633   3.528   2.496
 1508SOL     OW 4975   0.598   2.582   2.129
 1508SOL    HW1 4976   0.600   2.664   2.078
 1508SOL    HW2 4977   0.532   2.597   2.196
 1509SOL     OW 4978   1.278   2.217   2.795
 1509SOL    HW1 4979   1.188   2.182   2.803
 1509SOL    HW2 4980   1.329   2.163   2.856
 1510SOL     OW 4981   1.580   3.533   2.171
 1510SOL    HW1 4982   1.671   3.564   2.164
 1510SOL    HW2 4983   1.553   3.516   2.081
 1511SOL     OW 4984   0.794   2.478   3.313
 1511SOL    HW1 4985   0.767   2.454   3.402
 1511SOL    HW2 4986   0.751   2.413   3.257
 1512SOL     OW 4987   1.394   2.337   3.540
 1512SOL    HW1 4988   1.396   2.380   3.625
 1512SOL    HW2 4989   1.453   2.262   3.549
 1513SOL     OW 4990   0.955   2.749   3.444
 1513SOL    HW1 4991   1.009   2.679   3.409
 1513SOL    HW2 4992   0.907   2.784   3.369
 1514SOL     OW 4993   0.993   2.276   3.100
 1514SOL    HW1 4994   0.907   2.296   3.138
 1514SOL    HW2 4995   0.973   2.228   3.019
 1515SOL     OW 4996   1.051   2.560   2.288
 1515SOL    HW1 4997   1.067   2.553   2.382
 1515SOL    HW2 4998   0.969   2.514   2.274
 1516SOL     OW 4999   0.096   2.690   2.647
 1516SOL    HW1 5000   0.182   2.674   2.684
 1516SOL    HW2 5001   0.041   2.713   2.722
 1517SOL     OW 5002   0.124   3.716   3.438
 1517SOL    HW1 5003   0.117   3.694   3.531
 1517SOL    HW2 5004   0.044   3.681   3.399
 1518SOL     OW 5005   0.893   2.210   2.056
 1518SOL    HW1 5006   0.934   2.272   1.995
 1518SOL    HW2 5007   0.908   2.124   2.017
 1519SOL     OW 5008   1.709   2.440   3.692
 1519SOL    HW1 5009   1.671   2.513   3.644
 1519SOL    HW2 5010   1.733   2.377   3.624
 1520SOL     OW 5011   1.377   3.004   2.404
 1520SOL    HW1 5012   1.455   2.991   2.350
 1520SOL    HW2 5013   1.324   3.066   2.354
 1521SOL     OW 5014   0.552   2.044   2.755
 1521SOL    HW1 5015   0.554   2.074   2.846
 1521SOL    HW2 5016   0.552   2.124   2.703
 1522SOL     OW 5017   1.006   3.307   2.334
 1522SOL    HW1 5018   0.969   3.380   2.285
 1522SOL    HW2 5019   0.986   3.327   2.426
 1523SOL     OW 5020   0.356   3.673   2.720
 1523SOL    HW1 5021   0.398   3.587   2.731
 1523SOL    HW2 5022   0.426   3.736   2.737
 1524SOL     OW 5023   1.800   2.919   2.729
 1524SOL    HW1 5024   1.746   2.899   2.653
 1524SOL    HW2 5025   1.738   2.925   2.802
 1525SOL     OW 5026   1.228   3.400   3.375
 1525SOL    HW1 5027   1.214   3.328   3.436
 1525SOL    HW2 5028   1.164   3.386   3.305
 1526SOL     OW 5029   0.315   2.816   2.116
 1526SOL    HW1 5030   0.399   2.839   2.076
 1526SOL    HW2 5031   0.300   2.725   2.089
 1527SOL     OW 5032   1.479   2.605   2.589
 1527SOL    HW1 5033   1.469   2.561   2.673
 1527SOL    HW2 5034   1.557   2.660   2.599
 1528SOL     OW 5035   0.468   3.125   3.597
 1528SOL    HW1 5036   0.441   3.131   3.505
 1528SOL    HW2 5037   0.386   3.128   3.647
 1529SOL     OW 5038   1.122   3.640   2.093
 1529SOL    HW1 5039   1.048   3.598   2.138
 1529SOL    HW2 5040   1.145   3.578   2.023
 1530SOL     OW 5041   0.196   2.139   3.347
 1530SOL    HW1 5042   0.138   2.214   3.354
 1530SOL    HW2 5043   0.183   2.091   3.429
 1531SOL     OW 5044   1.629   3.243   1.950
 1531SOL    HW1 5045   1.587   3.327   1.935
 1531SOL    HW2 5046   1.560   3.178   1.931
 1532SOL     OW 5047   0.469   3.606   2.175
 1532SOL    HW1 5048   0.512   3.659   2.243
 1532SOL    HW2 5049   0.541   3.570   2.124
 1533SOL     OW 5050   1.400   1.970   2.295
 1533SOL    HW1 5051   1.391   1.944   2.203
 1533SOL    HW2 5052   1.495   1.977   2.308
 1534SOL     OW 5053   0.261   3.655   3.092
 1534SOL    HW1 5054   0.305   3.579   3.130
 1534SOL    HW2 5055   0.224   3.623   3.010
 1535SOL     OW 5056   0.938   3.561   2.760
 1535SOL    HW1 5057   1.015   3.508   2.782
 1535SOL    HW2 5058   0.894   3.511   2.691
 1536SOL     OW 5059   0.395   2.557   2.334
 1536SOL    HW1 5060   0.418   2.464   2.346
 1536SOL    HW2 5061   0.303   2.562   2.360
 1537SOL     OW 5062   1.535   2.089   3.589
 1537SOL    HW1 5063   1.542   2.108   3.682
 1537SOL    HW2 5064   1.470   2.020   3.583
 1538SOL     OW 5065   0.636   1.986   1.965
 1538SOL    HW1 5066   0.703   1.919   1.981
 1538SOL    HW2 5067   0.587   1.953   1.890
 1539SOL     OW 5068   0.767   2.140   3.617
 1539SOL    HW1 5069   0.843   2.082   3.616
 1539SOL    HW2 5070   0.718   2.115   3.696
 1540SOL     OW 5071   0.877   3.385   3.055
 1540SOL    HW1 5072   0.860   3.348   2.969
 1540SOL    HW2 5073   0.946   3.330   3.092
 1541SOL     OW 5074   1.340   2.451   3.294
 1541SOL    HW1 5075   1.371   2.419   3.379
 1541SOL    HW2 5076   1.377   2.539   3.287
 1542SOL     OW 5077   0.816   3.257   2.802
 1542SOL    HW1 5078   0.900   3.245   2.758
 1542SOL    HW2 5079   0.751   3.258   2.732
 1543SOL     OW 5080   0.928   2.371   2.765
 1543SOL    HW1 5081   0.904   2.363   2.673
 1543SOL    HW2 5082   0.959   2.284   2.790
 1544SOL     OW 5083   0.553   1.924   2.363
 1544SOL    HW1 5084   0.472   1.922   2.414
 1544SOL    HW2 5085   0.545   2.002   2.308
 1545SOL     OW 5086   1.428   3.061   1.903
 1545SOL    HW1 5087   1.458   2.985   1.953
 1545SOL    HW2 5088   1.343   3.081   1.940
 1546SOL     OW 5089   0.295   1.908   2.040
 1546SOL    HW1 5090   0.358   1.975   2.013
 1546SOL    HW2 5091   0.348   1.842   2.085
 1547SOL     OW 5092   0.938   2.109   2.322
 1547SOL    HW1 5093   0.912   2.150   2.240
 1547SOL    HW2 5094   1.033   2.123   2.326
 1548SOL     OW 5095   1.080   2.543   3.321
 1548SOL    HW1 5096   1.012   2.476   3.326
 1548SOL    HW2 5097   1.162   2.493   3.314
 1549SOL     OW 5098   1.224   3.432   2.656
 1549SOL    HW1 5099   1.239   3.499   2.589
 1549SOL    HW2 5100   1.292   3.447   2.721
 1550SOL     OW 5101   0.467   3.012   2.597
 1550SOL    HW1 5102   0.396   2.993   2.659
 1550SOL    HW2 5103   0.427   2.996   2.511
 1551SOL     OW 5104   1.269   3.656   2.471
 1551SOL    HW1 5105   1.315   3.717   2.413
 1551SOL    HW2 5106   1.202   3.709   2.514
 1552SOL     OW 5107   1.023   2.403   1.885
 1552SOL    HW1 5108   0.980   2.487   1.865
 1552SOL    HW2 5109   1.088   2.425   1.951
 1553SOL     OW 5110   0.084   2.389   3.273
 1553SOL    HW1 5111   0.147   2.385   3.201
 1553SOL    HW2 5112   0.068   2.482   3.286
 1554SOL     OW 5113   0.560   2.090   3.028
 1554SOL    HW1 5114   0.603   2.011   3.063
 1554SOL    HW2 5115   0.469   2.081   3.055
 1555SOL     OW 5116   0.868   2.321   2.502
 1555SOL    HW1 5117   0.822   2.375   2.438
 1555SOL    HW2 5118   0.889   2.241   2.454
 1556SOL     OW 5119   1.015   1.916   2.614
 1556SOL    HW1 5120   0.957   1.908   2.538
 1556SOL    HW2 5121   0.993   1.840   2.668
 1557SOL     OW 5122   1.437   3.024   2.719
 1557SOL    HW1 5123   1.367   2.959   2.719
 1557SOL    HW2 5124   1.460   3.035   2.626
 1558SOL     OW 5125   1.465   2.469   2.840
 1558SOL    HW1 5126   1.415   2.387   2.842
 1558SOL    HW2 5127   1.525   2.461   2.914
 1559SOL     OW 5128   1.846   2.677   2.247
 1559SOL    HW1 5129   1.902   2.625   2.304
 1559SOL    HW2 5130   1.819   2.616   2.178
 1560SOL     OW 5131   0.491   3.280   2.021
 1560SOL    HW1 5132   0.414   3.251   2.069
 1560SOL    HW2 5133   0.475   3.251   1.931
 1561SOL     OW 5134   1.670   3.127   2.507
 1561SOL    HW1 5135   1.765   3.130   2.521
 1561SOL    HW2 5136   1.640   3.215   2.528
 1562SOL     OW 5137   1.394   2.434   1.934
 1562SOL    HW1 5138   1.333   2.414   2.004
 1562SOL    HW2 5139   1.478   2.401   1.965
 1563SOL     OW 5140   0.524   2.122   2.178
 1563SOL    HW1 5141   0.571   2.076   2.109
 1563SOL    HW2 5142   0.505   2.208   2.141
 1564SOL     OW 5143   1.752   3.102   3.434
 1564SOL    HW1 5144   1.839   3.062   3.432
 1564SOL    HW2 5145   1.767   3.192   3.463
 1565SOL     OW 5146   1.058   3.216   3.196
 1565SOL    HW1 5147   0.983   3.185   3.247
 1565SOL    HW2 5148   1.134   3.174   3.237
 1566SOL     OW 5149   1.608   3.488   3.516
 1566SOL    HW1 5150   1.602   3.522   3.427
 1566SOL    HW2 5151   1.691   3.440   3.518
 1567SOL     OW 5152   1.130   3.067   2.967
 1567SOL    HW1 5153   1.070   3.103   3.032
 1567SOL    HW2 5154   1.097   3.098   2.883
 1568SOL     OW 5155   1.629   2.961   2.939
 1568SOL    HW1 5156   1.624   3.022   3.012
 1568SOL    HW2 5157   1.549   2.977   2.888
 1569SOL     OW 5158   0.917   1.960   3.258
 1569SOL    HW1 5159   0.940   1.940   3.167
 1569SOL    HW2 5160   0.997   1.998   3.295
 1570SOL     OW 5161   0.984   2.976   3.585
 1570SOL    HW1 5162   0.892   2.992   3.607
 1570SOL    HW2 5163   0.982   2.898   3.529
 1571SOL     OW 5164   0.709   2.924   2.234
 1571SOL    HW1 5165   0.695   2.907   2.327
 1571SOL    HW2 5166   0.784   2.870   2.210
 1572SOL     OW 5167   0.431   2.689   3.104
 1572SOL    HW1 5168   0.501   2.701   3.169
 1572SOL    HW2 5169   0.373   2.623   3.143
 1573SOL     OW 5170   1.266   2.239   3.137
 1573SOL    HW1 5171   1.298   2.316   3.183
 1573SOL    HW2 5172   1.175   2.261   3.114
 1574SOL     OW 5173   0.063   3.438   3.204
 1574SOL    HW1 5174   0.035   3.528   3.186
 1574SOL    HW2 5175   0.158   3.443   3.211
 1575SOL     OW 5176   0.346   2.971   2.355
 1575SOL    HW1 5177   0.355   3.044   2.294
 1575SOL    HW2 5178   0.345   2.893   2.299
 1576SOL     OW 5179   0.560   2.395   2.717
 1576SOL    HW1 5180   0.574   2.454   2.644
 1576SOL    HW2 5181   0.622   2.425   2.784
 1577SOL     OW 5182   1.248   3.210   2.251
 1577SOL    HW1 5183   1.304   3.282   2.282
 1577SOL    HW2 5184   1.161   3.232   2.285
 1578SOL     OW 5185   1.281   3.320   3.008
 1578SOL    HW1 5186   1.336   3.322   3.087
 1578SOL    HW2 5187   1.226   3.243   3.020
 1579SOL     OW 5188   1.580   2.485   2.340
 1579SOL    HW1 5189   1.533   2.537   2.404
 1579SOL    HW2 5190   1.628   2.548   2.287
 1580SOL     OW 5191   0.346   3.395   3.176
 1580SOL    HW1 5192   0.333   3.347   3.094
 1580SOL    HW2 5193   0.441   3.404   3.183
 1581SOL     OW 5194   0.481   2.619   3.529
 1581SOL    HW1 5195   0.510   2.658   3.447
 1581SOL    HW2 5196   0.528   2.536   3.535
 1582SOL     OW 5197   1.602   2.642   3.545
 1582SOL    HW1 5198   1.515   2.682   3.538
 1582SOL    HW2 5199   1.654   2.684   3.476
 1583SOL     OW 5200   0.996   1.986   3.616
 1583SOL    HW1 5201   1.053   2.058   3.589
 1583SOL    HW2 5202   1.043   1.907   3.591
 1584SOL     OW 5203   0.497   1.904   3.609
 1584SOL    HW1 5204   0.456   1.848   3.544
 1584SOL    HW2 5205   0.438   1.979   3.617
 1585SOL     OW 5206   0.590   2.735   2.887
 1585SOL    HW1 5207   0.619   2.827   2.888
 1585SOL    HW2 5208   0.534   2.727   2.963
 1586SOL     OW 5209   1.357   2.721   2.891
 1586SOL    HW1 5210   1.274   2.711   2.846
 1586SOL    HW2 5211   1.398   2.634   2.886
 1587SOL     OW 5212   1.204   2.391   2.129
 1587SOL    HW1 5213   1.212   2.312   2.183
 1587SOL    HW2 5214   1.161   2.455   2.185
 1588SOL     OW 5215   0.302   2.052   3.104
 1588SOL    HW1 5216   0.262   2.086   3.184
 1588SOL    HW2 5217   0.285   1.958   3.107
 1589SOL     OW 5218   0.037   3.175   3.148
 1589SOL    HW1 5219   0.075   3.127   3.222
 1589SOL    HW2 5220   0.044   3.267   3.172
 1590SOL     OW 5221   0.725   2.493   2.920
 1590SOL    HW1 5222   0.800   2.475   2.863
 1590SOL    HW2 5223   0.698   2.582   2.897
 1591SOL     OW 5224   1.734   2.823   3.715
 1591SOL    HW1 5225   1.689   2.760   3.658
 1591SOL    HW2 5226   1.674   2.836   3.788
 1592SOL     OW 5227   0.311   1.932   2.481
 1592SOL    HW1 5228   0.287   2.020   2.507
 1592SOL    HW2 5229   0.309   1.881   2.562
 1593SOL     OW 5230   1.616   2.236   2.229
 1593SOL    HW1 5231   1.645   2.174   2.296
 1593SOL    HW2 5232   1.594   2.315   2.278
 1594SOL     OW 5233   1.028   2.621   2.822
 1594SOL    HW1 5234   1.024   2.638   2.916
 1594SOL    HW2 5235   1.001   2.529   2.814
 1595SOL     OW 5236   0.983   3.429   3.579
 1595SOL    HW1 5237   0.967   3.473   3.495
 1595SOL    HW2 5238   1.025   3.346   3.556
 1596SOL     OW 5239   1.855   3.368   3.467
 1596SOL    HW1 5240   1.873   3.394   3.377
 1596SOL    HW2 5241   1.936   3.386   3.515
 1597SOL     OW 5242   0.347   2.796   3.680
 1597SOL    HW1 5243   0.420   2.825   3.735
 1597SOL    HW2 5244   0.385   2.728   3.624
 1598SOL     OW 5245   1.529   2.134   1.990
 1598SOL    HW1 5246   1.464   2.070   2.016
 1598SOL    HW2 5247   1.562   2.170   2.073
 1599SOL     OW 5248   1.292   2.688   1.893
 1599SOL    HW1 5249   1.334   2.602   1.897
 1599SOL    HW2 5250   1.323   2.727   1.811
 1600SOL     OW 5251   1.066   3.198   2.716
 1600SOL    HW1 5252   1.069   3.125   2.653
 1600SOL    HW2 5253   1.127   3.262   2.681
 1601SOL     OW 5254   0.318   2.673   2.809
 1601SOL    HW1 5255   0.412   2.690   2.806
 1601SOL    HW2 5256   0.311   2.582   2.837
 1602SOL     OW 5257   0.330   2.387   2.851
 1602SOL    HW1 5258   0.292   2.301   2.836
 1602SOL    HW2 5259   0.409   2.389   2.797
 1603SOL     OW 5260   1.134   2.238   3.544
 1603SOL    HW1 5261   1.087   2.293   3.607
 1603SOL    HW2 5262   1.222   2.277   3.540
 1604SOL     OW 5263   1.160   2.065   3.332
 1604SOL    HW1 5264   1.150   2.128   3.403
 1604SOL    HW2 5265   1.201   2.114   3.261
 1605SOL     OW 5266   4.491   3.184   2.068
 1605SOL    HW1 5267   4.399   3.200   2.050
 1605SOL    HW2 5268   4.496   3.090   2.089
 1606SOL     OW 5269   0.098   3.638   2.802
 1606SOL    HW1 5270   0.059   3.586   2.732
 1606SOL    HW2 5271   0.186   3.659   2.771
 1607SOL     OW 5272   0.496   3.436   2.769
 1607SOL    HW1 5273   0.564   3.498   2.793
 1607SOL    HW2 5274   0.540   3.373   2.712
 1608SOL     OW 5275   0.983   2.654   3.088
 1608SOL    HW1 5276   1.039   2.631   3.163
 1608SOL    HW2 5277   0.897   2.617   3.110
 1609SOL     OW 5278   0.033   2.425   2.965
 1609SOL    HW1 5279   0.118   2.393   2.935
 1609SOL    HW2 5280   0.018   2.379   3.047
 1610SOL     OW 5281   0.179   2.382   3.577
 1610SOL    HW1 5282   0.260   2.352   3.535
 1610SOL    HW2 5283   0.157   2.463   3.531
 1611SOL     OW 5284   1.377   2.801   3.520
 1611SOL    HW1 5285   1.398   2.894   3.518
 1611SOL    HW2 5286   1.374   2.774   3.429
 1612SOL     OW 5287   0.817   2.431   2.222
 1612SOL    HW1 5288   0.821   2.357   2.162
 1612SOL    HW2 5289   0.743   2.484   2.191
 1613SOL     OW 5290   1.648   2.465   3.045
 1613SOL    HW1 5291   1.637   2.404   3.119
 1613SOL    HW2 5292   1.735   2.445   3.010
 1614SOL     OW 5293   0.274   3.423   3.603
 1614SOL    HW1 5294   0.216   3.476   3.658
 1614SOL    HW2 5295   0.254   3.333   3.626
 1615SOL     OW 5296   0.693   2.316   3.123
 1615SOL    HW1 5297   0.646   2.239   3.091
 1615SOL    HW2 5298   0.693   2.377   3.050
 1616SOL     OW 5299   0.928   3.541   3.329
 1616SOL    HW1 5300   0.902   3.506   3.244
 1616SOL    HW2 5301   0.922   3.636   3.319
 1617SOL     OW 5302   0.472   2.352   2.046
 1617SOL    HW1 5303   0.532   2.423   2.070
 1617SOL    HW2 5304   0.388   2.396   2.031
 1618SOL     OW 5305   0.162   3.003   3.322
 1618SOL    HW1 5306   0.145   2.958   3.405
 1618SOL    HW2 5307   0.169   2.932   3.258
 1619SOL     OW 5308   1.326   2.909   3.085
 1619SOL    HW1 5309   1.349   2.845   3.017
 1619SOL    HW2 5310   1.256   2.962   3.046
 1620SOL     OW 5311   1.311   2.719   2.168
 1620SOL    HW1 5312   1.236   2.688   2.219
 1620SOL    HW2 5313   1.287   2.705   2.077
 1621SOL     OW 5314   1.772   3.605   3.013
 1621SOL    HW1 5315   1.832   3.632   2.943
 1621SOL    HW2 5316   1.748   3.515   2.991
 1622SOL     OW 5317   1.241   3.595   2.975
 1622SOL    HW1 5318   1.323   3.616   2.930
 1622SOL    HW2 5319   1.247   3.502   2.993
 1623SOL     OW 5320   0.067   3.047   2.912
 1623SOL    HW1 5321   0.064   3.078   3.002
 1623SOL    HW2 5322   0.025   3.116   2.861
 1624SOL     OW 5323   0.679   3.528   3.593
 1624SOL    HW1 5324   0.622   3.605   3.586
 1624SOL    HW2 5325   0.742   3.540   3.522
 1625SOL     OW 5326   1.719   2.006   2.373
 1625SOL    HW1 5327   1.789   1.989   2.310
 1625SOL    HW2 5328   1.701   1.921   2.413
 1626SOL     OW 5329   1.391   3.430   2.347
 1626SOL    HW1 5330   1.451   3.462   2.280
 1626SOL    HW2 5331   1.342   3.507   2.375
 1627SOL     OW 5332   0.119   3.669   3.709
 1627SOL    HW1 5333   0.078   3.597   3.757
 1627SOL    HW2 5334   0.182   3.706   3.771
 1628SOL     OW 5335   1.277   2.788   2.533
 1628SOL    HW1 5336   1.351   2.727   2.540
 1628SOL    HW2 5337   1.311   2.860   2.481
 1629SOL     OW 5338   0.813   3.136   3.291
 1629SOL    HW1 5339   0.786   3.175   3.374
 1629SOL    HW2 5340   0.743   3.157   3.230
 1630SOL     OW 5341   0.672   3.482   2.017
 1630SOL    HW1 5342   0.682   3.494   1.923
 1630SOL    HW2 5343   0.617   3.404   2.026
 1631SOL     OW 5344   1.626   3.589   3.253
 1631SOL    HW1 5345   1.676   3.595   3.172
 1631SOL    HW2 5346   1.613   3.679   3.281
 1632SOL     OW 5347   1.805   2.003   2.831
 1632SOL    HW1 5348   1.845   1.926   2.790
 1632SOL    HW2 5349   1.725   2.018   2.781
 1633SOL     OW 5350   0.264   2.181   2.580
 1633SOL    HW1 5351   0.181   2.220   2.553
 1633SOL    HW2 5352   0.254   2.169   2.675
 1634SOL     OW 5353   1.207   3.468   1.894
 1634SOL    HW1 5354   1.198   3.376   1.921
 1634SOL    HW2 5355   1.142   3.479   1.825
 1635SOL     OW 5356   0.826   2.869   3.234
 1635SOL    HW1 5357   0.868   2.865   3.149
 1635SOL    HW2 5358   0.824   2.962   3.256
 1636SOL     OW 5359   0.916   2.773   2.152
 1636SOL    HW1 5360   0.977   2.805   2.086
 1636SOL    HW2 5361   0.964   2.703   2.197
 1637SOL     OW 5362   1.491   3.488   1.905
 1637SOL    HW1 5363   1.397   3.481   1.891
 1637SOL    HW2 5364   1.528   3.494   1.817
 1638SOL     OW 5365   0.373   3.170   3.352
 1638SOL    HW1 5366   0.355   3.249   3.301
 1638SOL    HW2 5367   0.299   3.113   3.336
 1639SOL     OW 5368   1.612   3.146   3.143
 1639SOL    HW1 5369   1.669   3.133   3.219
 1639SOL    HW2 5370   1.551   3.214   3.170
 1640SOL     OW 5371   1.053   2.969   2.569
 1640SOL    HW1 5372   0.982   2.919   2.608
 1640SOL    HW2 5373   1.115   2.904   2.537
 1641SOL     OW 5374   1.021   2.102   2.828
 1641SOL    HW1 5375   1.016   2.055   2.745
 1641SOL    HW2 5376   1.016   2.034   2.895
 1642SOL     OW 5377   0.605   3.352   2.344
 1642SOL    HW1 5378   0.647   3.302   2.274
 1642SOL    HW2 5379   0.529   3.392   2.302
 1643SOL     OW 5380   1.719   2.259   3.248
 1643SOL    HW1 5381   1.794   2.318   3.241
 1643SOL    HW2 5382   1.742   2.185   3.192
 1644SOL     OW 5383   0.252   3.206   2.138
 1644SOL    HW1 5384   0.157   3.204   2.124
 1644SOL    HW2 5385   0.263   3.238   2.228
 1645SOL     OW 5386   0.116   2.869   3.556
 1645SOL    HW1 5387   0.052   2.912   3.613
 1645SOL    HW2 5388   0.194   2.859   3.610
 1646SOL     OW 5389   0.674   2.061   3.361
 1646SOL    HW1 5390   0.758   2.039   3.320
 1646SOL    HW2 5391   0.698   2.090   3.449
 1647SOL     OW 5392   0.072   2.187   1.894
 1647SOL    HW1 5393   4.477   2.200   1.902
 1647SOL    HW2 5394   0.104   2.269   1.855
 1648SOL     OW 5395   1.430   2.721   3.262
 1648SOL    HW1 5396   1.381   2.781   3.207
 1648SOL    HW2 5397   1.519   2.723   3.228
 1649SOL     OW 5398   0.086   2.038   2.166
 1649SOL    HW1 5399   0.080   2.110   2.104
 1649SOL    HW2 5400   0.162   1.987   2.136
 1650SOL     OW 5401   1.179   3.201   1.979
 1650SOL    HW1 5402   1.088   3.171   1.981
 1650SOL    HW2 5403   1.206   3.201   2.070
 1651SOL     OW 5404   0.624   2.693   3.293
 1651SOL    HW1 5405   0.680   2.769   3.280
 1651SOL    HW2 5406   0.685   2.619   3.300
 1652SOL     OW 5407   1.483   3.639   2.841
 1652SOL    HW1 5408   1.506   3.699   2.770
 1652SOL    HW2 5409   1.567   3.620   2.884
 1653SOL     OW 5410   0.714   2.425   3.566
 1653SOL    HW1 5411   0.756   2.487   3.625
 1653SOL    HW2 5412   0.743   2.339   3.597
 1654SOL     OW 5413   1.471   3.062   3.494
 1654SOL    HW1 5414   1.459   3.076   3.588
 1654SOL    HW2 5415   1.565   3.077   3.479
 1655SOL     OW 5416   0.380   3.605   3.427
 1655SOL    HW1 5417   0.295   3.646   3.409
 1655SOL    HW2 5418   0.359   3.526   3.475
 1656SOL     OW 5419   1.670   2.743   3.117
 1656SOL    HW1 5420   1.663   2.658   3.074
 1656SOL    HW2 5421   1.659   2.806   3.045
 1657SOL     OW 5422   1.217   2.181   2.320
 1657SOL    HW1 5423   1.279   2.110   2.312
 1657SOL    HW2 5424   1.246   2.230   2.397
 1658SOL     OW 5425   0.590   2.600   2.531
 1658SOL    HW1 5426   0.628   2.686   2.516
 1658SOL    HW2 5427   0.522   2.591   2.465
 1659SOL     OW 5428   1.761   2.228   3.517
 1659SOL    HW1 5429   1.742   2.245   3.425
 1659SOL    HW2 5430   1.690   2.172   3.547
 1660SOL     OW 5431   1.744   2.796   3.374
 1660SOL    HW1 5432   1.741   2.891   3.386
 1660SOL    HW2 5433   1.729   2.784   3.280
 1661SOL     OW 5434   0.864   3.229   1.897
 1661SOL    HW1 5435   0.824   3.256   1.980
 1661SOL    HW2 5436   0.880   3.311   1.850
 1662SOL     OW 5437   0.661   3.653   2.807
 1662SOL    HW1 5438   0.641   3.743   2.783
 1662SOL    HW2 5439   0.756   3.647   2.798
 1663SOL     OW 5440   0.868   2.830   2.717
 1663SOL    HW1 5441   0.917   2.757   2.756
 1663SOL    HW2 5442   0.832   2.878   2.791
 1664SOL     OW 5443   1.079   2.851   1.951
 1664SOL    HW1 5444   1.057   2.901   1.872
 1664SOL    HW2 5445   1.154   2.797   1.925
 1665SOL     OW 5446   1.853   3.416   2.706
 1665SOL    HW1 5447   1.775   3.405   2.652
 1665SOL    HW2 5448   1.844   3.351   2.775
 1666SOL     OW 5449   0.231   3.167   3.720
 1666SOL    HW1 5450   0.156   3.112   3.698
 1666SOL    HW2 5451   0.226   3.177   3.815
 1667SOL     OW 5452   0.108   3.097   2.530
 1667SOL    HW1 5453   0.122   3.051   2.614
 1667SOL    HW2 5454   0.167   3.052   2.469
 1668SOL     OW 5455   0.683   3.265   3.491
 1668SOL    HW1 5456   0.603   3.221   3.519
 1668SOL    HW2 5457   0.676   3.353   3.528
 1669SOL     OW 5458   1.777   2.042   3.105
 1669SOL    HW1 5459   1.834   1.972   3.136
 1669SOL    HW2 5460   1.784   2.038   3.009
 1670SOL     OW 5461   0.435   2.295   2.388
 1670SOL    HW1 5462   0.460   2.222   2.332
 1670SOL    HW2 5463   0.384   2.256   2.458
 1671SOL     OW 5464   1.700   3.351   2.958
 1671SOL    HW1 5465   1.619   3.329   2.911
 1671SOL    HW2 5466   1.710   3.282   3.023
 1672SOL     OW 5467   0.299   2.349   3.114
 1672SOL    HW1 5468   0.374   2.308   3.158
 1672SOL    HW2 5469   0.330   2.366   3.025
 1673SOL     OW 5470   0.828   3.440   2.539
 1673SOL    HW1 5471   0.814   3.494   2.462
 1673SOL    HW2 5472   0.751   3.382   2.543
 1674SOL     OW 5473   1.433   2.088   2.978
 1674SOL    HW1 5474   1.465   2.011   3.025
 1674SOL    HW2 5475   1.381   2.136   3.043
 1675SOL     OW 5476   1.009   1.880   3.004
 1675SOL    HW1 5477   0.954   1.813   2.964
 1675SOL    HW2 5478   1.097   1.843   3.006
 1676SOL     OW 5479   0.772   3.195   2.176
 1676SOL    HW1 5480   0.741   3.104   2.183
 1676SOL    HW2 5481   0.854   3.195   2.226
 1677SOL     OW 5482   0.621   3.418   3.148
 1677SOL    HW1 5483   0.623   3.499   3.197
 1677SOL    HW2 5484   0.708   3.411   3.109
 1678SOL     OW 5485   1.352   1.915   2.027
 1678SOL    HW1 5486   1.380   1.852   1.962
 1678SOL    HW2 5487   1.265   1.886   2.054
 1679SOL     OW 5488   1.297   2.323   2.543
 1679SOL    HW1 5489   1.243   2.402   2.550
 1679SOL    HW2 5490   1.292   2.284   2.630
 1680SOL     OW 5491   1.565   2.061   2.726
 1680SOL    HW1 5492   1.514   2.084   2.804
 1680SOL    HW2 5493   1.573   2.142   2.677
 1681SOL     OW 5494   0.041   2.913   2.151
 1681SOL    HW1 5495   0.134   2.895   2.140
 1681SOL    HW2 5496   0.021   2.882   2.239
 1682SOL     OW 5497   0.885   3.516   2.204
 1682SOL    HW1 5498   0.813   3.498   2.144
 1682SOL    HW2 5499   0.856   3.590   2.256
 1683SOL     OW 5500   0.247   2.491   3.844
 1683SOL    HW1 5501   0.173   2.469   3.901
 1683SOL    HW2 5502   0.216   2.473   3.756
 1684SOL     OW 5503   0.213   2.137   4.715
 1684SOL    HW1 5504   0.249   2.110   4.800
 1684SOL    HW2 5505   0.137   2.080   4.703
 1685SOL     OW 5506   0.008   2.254   4.364
 1685SOL    HW1 5507   4.427   2.286   4.404
 1685SOL    HW2 5508   4.482   2.174   4.318
 1686SOL     OW 5509   0.568   3.150   4.900
 1686SOL    HW1 5510   0.481   3.155   4.861
 1686SOL    HW2 5511   0.583   3.238   4.935
 1687SOL     OW 5512   1.561   3.374   4.431
 1687SOL    HW1 5513   1.517   3.354   4.514
 1687SOL    HW2 5514   1.489   3.379   4.367
 1688SOL     OW 5515   1.132   2.560   4.426
 1688SOL    HW1 5516   1.179   2.642   4.411
 1688SOL    HW2 5517   1.084   2.574   4.507
 1689SOL     OW 5518   1.772   2.466   3.952
 1689SOL    HW1 5519   1.747   2.459   3.860
 1689SOL    HW2 5520   1.734   2.388   3.993
 1690SOL     OW 5521   0.755   3.004   4.765
 1690SOL    HW1 5522   0.686   3.039   4.822
 1690SOL    HW2 5523   0.790   3.081   4.721
 1691SOL     OW 5524   0.867   2.634   5.545
 1691SOL    HW1 5525   0.853   2.704   5.608
 1691SOL    HW2 5526   0.890   2.679   5.464
 1692SOL     OW 5527   0.685   2.865   4.371
 1692SOL    HW1 5528   0.750   2.853   4.440
 1692SOL    HW2 5529   0.616   2.917   4.412
 1693SOL     OW 5530   0.711   3.012   5.537
 1693SOL    HW1 5531   0.758   3.091   5.564
 1693SOL    HW2 5532   0.629   3.044   5.501
 1694SOL     OW 5533   0.335   3.282   4.793
 1694SOL    HW1 5534   0.253   3.263   4.748
 1694SOL    HW2 5535   0.385   3.337   4.732
 1695SOL     OW 5536   1.461   3.361   5.079
 1695SOL    HW1 5537   1.511   3.442   5.088
 1695SOL    HW2 5538   1.397   3.363   5.150
 1696SOL     OW 5539   0.445   2.267   5.215
 1696SOL    HW1 5540   0.524   2.213   5.220
 1696SOL    HW2 5541   0.373   2.203   5.221
 1697SOL     OW 5542   1.610   2.307   4.460
 1697SOL    HW1 5543   1.532   2.320   4.405
 1697SOL    HW2 5544   1.616   2.387   4.512
 1698SOL     OW 5545   0.246   3.553   4.201
 1698SOL    HW1 5546   0.230   3.638   4.242
 1698SOL    HW2 5547   0.314   3.570   4.136
 1699SOL     OW 5548   1.137   3.203   5.416
 1699SOL    HW1 5549   1.176   3.199   5.504
 1699SOL    HW2 5550   1.084   3.124   5.410
 1700SOL     OW 5551   0.251   3.288   4.251
 1700SOL    HW1 5552   0.241   3.383   4.254
 1700SOL    HW2 5553   0.187   3.256   4.315
 1701SOL     OW 5554   0.249   2.944   4.609
 1701SOL    HW1 5555   0.264   2.854   4.636
 1701SOL    HW2 5556   0.188   2.979   4.674
 1702SOL     OW 5557   0.613   3.653   5.156
 1702SOL    HW1 5558   0.530   3.634   5.199
 1702SOL    HW2 5559   0.634   3.743   5.180
 1703SOL     OW 5560   0.579   2.849   3.863
 1703SOL    HW1 5561   0.627   2.892   3.792
 1703SOL    HW2 5562   0.623   2.878   3.942
 1704SOL     OW 5563   0.137   2.508   4.298
 1704SOL    HW1 5564   0.089   2.428   4.316
 1704SOL    HW2 5565   0.106   2.570   4.365
 1705SOL     OW 5566   1.842   3.621   4.058
 1705SOL    HW1 5567   1.906   3.593   4.124
 1705SOL    HW2 5568   1.866   3.712   4.039
 1706SOL     OW 5569   0.032   3.464   3.865
 1706SOL    HW1 5570   0.021   3.369   3.862
 1706SOL    HW2 5571   0.023   3.486   3.958
 1707SOL     OW 5572   1.690   2.783   4.365
 1707SOL    HW1 5573   1.769   2.737   4.338
 1707SOL    HW2 5574   1.663   2.833   4.288
 1708SOL     OW 5575   1.645   2.968   4.153
 1708SOL    HW1 5576   1.731   2.974   4.111
 1708SOL    HW2 5577   1.650   3.031   4.226
 1709SOL     OW 5578   0.112   2.626   5.306
 1709SOL    HW1 5579   0.203   2.623   5.276
 1709SOL    HW2 5580   0.095   2.718   5.326
 1710SOL     OW 5581   0.614   3.248   4.460
 1710SOL    HW1 5582   0.567   3.165   4.470
 1710SOL    HW2 5583   0.598   3.274   4.370
 1711SOL     OW 5584   1.289   3.101   5.146
 1711SOL    HW1 5585   1.320   3.032   5.087
 1711SOL    HW2 5586   1.345   3.094   5.223
 1712SOL     OW 5587   0.817   1.862   4.233
 1712SOL    HW1 5588   0.856   1.947   4.214
 1712SOL    HW2 5589   0.723   1.881   4.242
 1713SOL     OW 5590   0.179   2.802   5.003
 1713SOL    HW1 5591   0.271   2.784   4.983
 1713SOL    HW2 5592   0.133   2.789   4.920
 1714SOL     OW 5593   1.532   2.855   3.922
 1714SOL    HW1 5594   1.461   2.798   3.953
 1714SOL    HW2 5595   1.571   2.890   4.002
 1715SOL     OW 5596   1.187   3.669   5.346
 1715SOL    HW1 5597   1.195   3.727   5.271
 1715SOL    HW2 5598   1.202   3.582   5.311
 1716SOL     OW 5599   0.332   2.118   5.523
 1716SOL    HW1 5600   0.379   2.192   5.561
 1716SOL    HW2 5601   0.244   2.125   5.561
 1717SOL     OW 5602   1.467   3.281   4.676
 1717SOL    HW1 5603   1.399   3.297   4.741
 1717SOL    HW2 5604   1.453   3.190   4.648
 1718SOL     OW 5605   1.659   3.601   4.302
 1718SOL    HW1 5606   1.638   3.572   4.213
 1718SOL    HW2 5607   1.634   3.528   4.358
 1719SOL     OW 5608   0.598   2.582   3.991
 1719SOL    HW1 5609   0.599   2.664   3.940
 1719SOL    HW2 5610   0.532   2.597   4.059
 1720SOL     OW 5611   1.280   2.223   4.660
 1720SOL    HW1 5612   1.192   2.185   4.668
 1720SOL    HW2 5613   1.335   2.165   4.713
 1721SOL     OW 5614   1.581   3.532   4.033
 1721SOL    HW1 5615   1.671   3.564   4.026
 1721SOL    HW2 5616   1.554   3.516   3.943
 1722SOL     OW 5617   0.794   2.478   5.175
 1722SOL    HW1 5618   0.767   2.454   5.264
 1722SOL    HW2 5619   0.752   2.413   5.119
 1723SOL     OW 5620   1.392   2.335   5.397
 1723SOL    HW1 5621   1.396   2.380   5.481
 1723SOL    HW2 5622   1.457   2.265   5.405
 1724SOL     OW 5623   0.955   2.749   5.307
 1724SOL    HW1 5624   1.010   2.680   5.271
 1724SOL    HW2 5625   0.907   2.784   5.231
 1725SOL     OW 5626   0.993   2.275   4.962
 1725SOL    HW1 5627   0.908   2.297   5.000
 1725SOL    HW2 5628   0.972   2.228   4.881
 1726SOL     OW 5629   1.051   2.560   4.150
 1726SOL    HW1 5630   1.066   2.553   4.244
 1726SOL    HW2 5631   0.969   2.514   4.135
 1727SOL     OW 5632   0.095   2.691   4.509
 1727SOL    HW1 5633   0.182   2.674   4.546
 1727SOL    HW2 5634   0.041   2.713   4.584
 1728SOL     OW 5635   0.124   3.716   5.300
 1728SOL    HW1 5636   0.117   3.694   5.393
 1728SOL    HW2 5637   0.044   3.681   5.261
 1729SOL     OW 5638   0.894   2.210   3.919
 1729SOL    HW1 5639   0.934   2.272   3.857
 1729SOL    HW2 5640   0.908   2.124   3.879
 1730SOL     OW 5641   1.657   2.430   5.563
 1730SOL    HW1 5642   1.673   2.519   5.532
 1730SOL    HW2 5643   1.689   2.374   5.493
 1731SOL     OW 5644   1.377   3.004   4.266
 1731SOL    HW1 5645   1.455   2.991   4.211
 1731SOL    HW2 5646   1.323   3.066   4.216
 1732SOL     OW 5647   0.552   2.044   4.617
 1732SOL    HW1 5648   0.554   2.074   4.708
 1732SOL    HW2 5649   0.552   2.124   4.565
 1733SOL     OW 5650   1.006   3.307   4.196
 1733SOL    HW1 5651   0.969   3.379   4.146
 1733SOL    HW2 5652   0.985   3.327   4.287
 1734SOL     OW 5653   0.356   3.673   4.582
 1734SOL    HW1 5654   0.398   3.587   4.593
 1734SOL    HW2 5655   0.426   3.736   4.599
 1735SOL     OW 5656   1.806   2.926   4.583
 1735SOL    HW1 5657   1.748   2.902   4.511
 1735SOL    HW2 5658   1.748   2.933   4.659
 1736SOL     OW 5659   1.229   3.400   5.236
 1736SOL    HW1 5660   1.214   3.328   5.298
 1736SOL    HW2 5661   1.163   3.387   5.168
 1737SOL     OW 5662   0.315   2.816   3.978
 1737SOL    HW1 5663   0.399   2.839   3.938
 1737SOL    HW2 5664   0.300   2.725   3.951
 1738SOL     OW 5665   1.479   2.605   4.448
 1738SOL    HW1 5666   1.465   2.564   4.534
 1738SOL    HW2 5667   1.554   2.662   4.461
 1739SOL     OW 5668   0.468   3.125   5.459
 1739SOL    HW1 5669   0.441   3.131   5.367
 1739SOL    HW2 5670   0.386   3.128   5.509
 1740SOL     OW 5671   1.122   3.640   3.955
 1740SOL    HW1 5672   1.048   3.598   4.000
 1740SOL    HW2 5673   1.145   3.578   3.885
 1741SOL     OW 5674   0.196   2.139   5.209
 1741SOL    HW1 5675   0.138   2.214   5.215
 1741SOL    HW2 5676   0.182   2.091   5.291
 1742SOL     OW 5677   1.629   3.242   3.812
 1742SOL    HW1 5678   1.587   3.327   3.797
 1742SOL    HW2 5679   1.560   3.178   3.793
 1743SOL     OW 5680   0.469   3.606   4.037
 1743SOL    HW1 5681   0.512   3.659   4.105
 1743SOL    HW2 5682   0.541   3.570   3.986
 1744SOL     OW 5683   1.401   1.970   4.157
 1744SOL    HW1 5684   1.392   1.944   4.065
 1744SOL    HW2 5685   1.495   1.975   4.172
 1745SOL     OW 5686   0.261   3.655   4.954
 1745SOL    HW1 5687   0.305   3.579   4.992
 1745SOL    HW2 5688   0.224   3.623   4.872
 1746SOL     OW 5689   0.938   3.561   4.622
 1746SOL    HW1 5690   1.014   3.508   4.645
 1746SOL    HW2 5691   0.894   3.511   4.553
 1747SOL     OW 5692   0.395   2.556   4.197
 1747SOL    HW1 5693   0.418   2.464   4.208
 1747SOL    HW2 5694   0.303   2.562   4.222
 1748SOL     OW 5695   1.528   2.092   5.452
 1748SOL    HW1 5696   1.541   2.114   5.544
 1748SOL    HW2 5697   1.451   2.035   5.452
 1749SOL     OW 5698   0.636   1.986   3.827
 1749SOL    HW1 5699   0.702   1.919   3.843
 1749SOL    HW2 5700   0.587   1.953   3.752
 1750SOL     OW 5701   0.767   2.139   5.479
 1750SOL    HW1 5702   0.843   2.081   5.479
 1750SOL    HW2 5703   0.718   2.116   5.557
 1751SOL     OW 5704   0.877   3.385   4.917
 1751SOL    HW1 5705   0.860   3.348   4.831
 1751SOL    HW2 5706   0.946   3.329   4.954
 1752SOL     OW 5707   1.343   2.451   5.154
 1752SOL    HW1 5708   1.373   2.417   5.238
 1752SOL    HW2 5709   1.376   2.541   5.151
 1753SOL     OW 5710   0.816   3.257   4.664
 1753SOL    HW1 5711   0.900   3.245   4.619
 1753SOL    HW2 5712   0.751   3.258   4.594
 1754SOL     OW 5713   0.928   2.371   4.627
 1754SOL    HW1 5714   0.904   2.363   4.535
 1754SOL    HW2 5715   0.959   2.284   4.651
 1755SOL     OW 5716   0.553   1.924   4.225
 1755SOL    HW1 5717   0.472   1.922   4.276
 1755SOL    HW2 5718   0.545   2.002   4.170
 1756SOL     OW 5719   1.428   3.061   3.765
 1756SOL    HW1 5720   1.458   2.984   3.815
 1756SOL    HW2 5721   1.342   3.081   3.802
 1757SOL     OW 5722   0.295   1.908   3.902
 1757SOL    HW1 5723   0.358   1.974   3.874
 1757SOL    HW2 5724   0.348   1.842   3.947
 1758SOL     OW 5725   0.939   2.109   4.184
 1758SOL    HW1 5726   0.912   2.150   4.102
 1758SOL    HW2 5727   1.033   2.122   4.188
 1759SOL     OW 5728   1.081   2.543   5.182
 1759SOL    HW1 5729   1.012   2.477   5.189
 1759SOL    HW2 5730   1.162   2.493   5.178
 1760SOL     OW 5731   1.225   3.431   4.517
 1760SOL    HW1 5732   1.239   3.498   4.451
 1760SOL    HW2 5733   1.291   3.448   4.584
 1761SOL     OW 5734   0.467   3.012   4.459
 1761SOL    HW1 5735   0.397   2.993   4.521
 1761SOL    HW2 5736   0.428   2.996   4.373
 1762SOL     OW 5737   1.269   3.656   4.333
 1762SOL    HW1 5738   1.315   3.717   4.275
 1762SOL    HW2 5739   1.202   3.709   4.376
 1763SOL     OW 5740   1.023   2.404   3.747
 1763SOL    HW1 5741   0.980   2.487   3.727
 1763SOL    HW2 5742   1.088   2.426   3.813
 1764SOL     OW 5743   0.084   2.389   5.135
 1764SOL    HW1 5744   0.147   2.385   5.063
 1764SOL    HW2 5745   0.067   2.482   5.148
 1765SOL     OW 5746   0.560   2.090   4.890
 1765SOL    HW1 5747   0.603   2.011   4.924
 1765SOL    HW2 5748   0.469   2.081   4.917
 1766SOL     OW 5749   0.869   2.322   4.364
 1766SOL    HW1 5750   0.821   2.375   4.300
 1766SOL    HW2 5751   0.889   2.241   4.316
 1767SOL     OW 5752   1.014   1.916   4.476
 1767SOL    HW1 5753   0.957   1.908   4.400
 1767SOL    HW2 5754   0.993   1.840   4.530
 1768SOL     OW 5755   1.437   3.024   4.581
 1768SOL    HW1 5756   1.366   2.960   4.580
 1768SOL    HW2 5757   1.460   3.036   4.488
 1769SOL     OW 5758   1.461   2.460   4.698
 1769SOL    HW1 5759   1.395   2.390   4.690
 1769SOL    HW2 5760   1.536   2.417   4.740
 1770SOL     OW 5761   1.846   2.676   4.112
 1770SOL    HW1 5762   1.905   2.623   4.165
 1770SOL    HW2 5763   1.818   2.617   4.041
 1771SOL     OW 5764   0.491   3.280   3.883
 1771SOL    HW1 5765   0.414   3.251   3.932
 1771SOL    HW2 5766   0.475   3.251   3.793
 1772SOL     OW 5767   1.669   3.128   4.368
 1772SOL    HW1 5768   1.764   3.135   4.381
 1772SOL    HW2 5769   1.636   3.215   4.390
 1773SOL     OW 5770   1.394   2.433   3.796
 1773SOL    HW1 5771   1.333   2.414   3.866
 1773SOL    HW2 5772   1.478   2.399   3.827
 1774SOL     OW 5773   0.524   2.122   4.040
 1774SOL    HW1 5774   0.571   2.076   3.971
 1774SOL    HW2 5775   0.505   2.208   4.003
 1775SOL     OW 5776   1.755   3.103   5.300
 1775SOL    HW1 5777   1.843   3.065   5.302
 1775SOL    HW2 5778   1.768   3.195   5.325
 1776SOL     OW 5779   1.058   3.215   5.057
 1776SOL    HW1 5780   0.983   3.185   5.108
 1776SOL    HW2 5781   1.134   3.175   5.099
 1777SOL     OW 5782   1.608   3.488   5.378
 1777SOL    HW1 5783   1.602   3.522   5.289
 1777SOL    HW2 5784   1.691   3.440   5.380
 1778SOL     OW 5785   1.130   3.066   4.829
 1778SOL    HW1 5786   1.070   3.102   4.894
 1778SOL    HW2 5787   1.096   3.098   4.745
 1779SOL     OW 5788   1.631   2.976   4.793
 1779SOL    HW1 5789   1.623   3.039   4.864
 1779SOL    HW2 5790   1.553   2.990   4.739
 1780SOL     OW 5791   0.918   1.959   5.120
 1780SOL    HW1 5792   0.940   1.940   5.029
 1780SOL    HW2 5793   0.997   1.999   5.157
 1781SOL     OW 5794   0.984   2.977   5.446
 1781SOL    HW1 5795   0.892   2.992   5.469
 1781SOL    HW2 5796   0.983   2.899   5.391
 1782SOL     OW 5797   0.709   2.924   4.096
 1782SOL    HW1 5798   0.695   2.907   4.189
 1782SOL    HW2 5799   0.784   2.870   4.072
 1783SOL     OW 5800   0.431   2.689   4.966
 1783SOL    HW1 5801   0.501   2.701   5.031
 1783SOL    HW2 5802   0.373   2.623   5.005
 1784SOL     OW 5803   1.266   2.238   5.000
 1784SOL    HW1 5804   1.298   2.315   5.046
 1784SOL    HW2 5805   1.176   2.260   4.976
 1785SOL     OW 5806   0.062   3.438   5.066
 1785SOL    HW1 5807   0.035   3.528   5.048
 1785SOL    HW2 5808   0.158   3.443   5.073
 1786SOL     OW 5809   0.346   2.971   4.217
 1786SOL    HW1 5810   0.355   3.045   4.156
 1786SOL    HW2 5811   0.345   2.894   4.161
 1787SOL     OW 5812   0.561   2.394   4.579
 1787SOL    HW1 5813   0.574   2.454   4.506
 1787SOL    HW2 5814   0.622   2.425   4.646
 1788SOL     OW 5815   1.248   3.210   4.114
 1788SOL    HW1 5816   1.304   3.282   4.144
 1788SOL    HW2 5817   1.161   3.232   4.147
 1789SOL     OW 5818   1.281   3.319   4.871
 1789SOL    HW1 5819   1.336   3.322   4.949
 1789SOL    HW2 5820   1.225   3.244   4.883
 1790SOL     OW 5821   1.582   2.485   4.202
 1790SOL    HW1 5822   1.534   2.536   4.267
 1790SOL    HW2 5823   1.623   2.551   4.146
 1791SOL     OW 5824   0.346   3.395   5.038
 1791SOL    HW1 5825   0.332   3.347   4.956
 1791SOL    HW2 5826   0.441   3.404   5.045
 1792SOL     OW 5827   0.481   2.619   5.391
 1792SOL    HW1 5828   0.510   2.657   5.308
 1792SOL    HW2 5829   0.528   2.536   5.397
 1793SOL     OW 5830   0.997   1.986   5.479
 1793SOL    HW1 5831   1.052   2.058   5.451
 1793SOL    HW2 5832   1.045   1.907   5.453
 1794SOL     OW 5833   0.497   1.904   5.471
 1794SOL    HW1 5834   0.455   1.848   5.406
 1794SOL    HW2 5835   0.438   1.979   5.479
 1795SOL     OW 5836   0.591   2.735   4.749
 1795SOL    HW1 5837   0.619   2.827   4.750
 1795SOL    HW2 5838   0.534   2.726   4.825
 1796SOL     OW 5839   1.358   2.719   4.753
 1796SOL    HW1 5840   1.273   2.714   4.710
 1796SOL    HW2 5841   1.393   2.629   4.748
 1797SOL     OW 5842   1.205   2.391   3.991
 1797SOL    HW1 5843   1.213   2.312   4.045
 1797SOL    HW2 5844   1.161   2.455   4.047
 1798SOL     OW 5845   0.302   2.052   4.966
 1798SOL    HW1 5846   0.262   2.086   5.046
 1798SOL    HW2 5847   0.285   1.958   4.969
 1799SOL     OW 5848   0.037   3.174   5.010
 1799SOL    HW1 5849   0.075   3.127   5.084
 1799SOL    HW2 5850   0.044   3.267   5.034
 1800SOL     OW 5851   0.725   2.493   4.782
 1800SOL    HW1 5852   0.800   2.476   4.724
 1800SOL    HW2 5853   0.697   2.582   4.760
 1801SOL     OW 5854   1.728   2.809   5.568
 1801SOL    HW1 5855   1.670   2.799   5.493
 1801SOL    HW2 5856   1.669   2.821   5.643
 1802SOL     OW 5857   0.312   1.932   4.343
 1802SOL    HW1 5858   0.287   2.020   4.369
 1802SOL    HW2 5859   0.309   1.881   4.424
 1803SOL     OW 5860   1.618   2.237   4.090
 1803SOL    HW1 5861   1.645   2.172   4.155
 1803SOL    HW2 5862   1.596   2.314   4.142
 1804SOL     OW 5863   1.029   2.621   4.685
 1804SOL    HW1 5864   1.024   2.638   4.779
 1804SOL    HW2 5865   1.001   2.529   4.676
 1805SOL     OW 5866   0.984   3.429   5.441
 1805SOL    HW1 5867   0.968   3.473   5.357
 1805SOL    HW2 5868   1.025   3.346   5.418
 1806SOL     OW 5869   1.854   3.367   5.328
 1806SOL    HW1 5870   1.874   3.394   5.238
 1806SOL    HW2 5871   1.935   3.386   5.376
 1807SOL     OW 5872   0.347   2.796   5.542
 1807SOL    HW1 5873   0.419   2.825   5.597
 1807SOL    HW2 5874   0.385   2.728   5.486
 1808SOL     OW 5875   1.528   2.136   3.852
 1808SOL    HW1 5876   1.464   2.070   3.878
 1808SOL    HW2 5877   1.562   2.170   3.935
 1809SOL     OW 5878   1.292   2.688   3.756
 1809SOL    HW1 5879   1.335   2.602   3.759
 1809SOL    HW2 5880   1.323   2.727   3.674
 1810SOL     OW 5881   1.067   3.198   4.578
 1810SOL    HW1 5882   1.069   3.126   4.515
 1810SOL    HW2 5883   1.127   3.263   4.543
 1811SOL     OW 5884   0.318   2.673   4.671
 1811SOL    HW1 5885   0.412   2.690   4.668
 1811SOL    HW2 5886   0.311   2.582   4.699
 1812SOL     OW 5887   0.330   2.387   4.713
 1812SOL    HW1 5888   0.292   2.301   4.697
 1812SOL    HW2 5889   0.409   2.389   4.658
 1813SOL     OW 5890   1.134   2.237   5.407
 1813SOL    HW1 5891   1.087   2.292   5.469
 1813SOL    HW2 5892   1.222   2.275   5.402
 1814SOL     OW 5893   1.161   2.064   5.194
 1814SOL    HW1 5894   1.150   2.127   5.266
 1814SOL    HW2 5895   1.201   2.115   5.124
 1815SOL     OW 5896   4.491   3.184   3.930
 1815SOL    HW1 5897   4.399   3.200   3.912
 1815SOL    HW2 5898   4.496   3.090   3.951
 1816SOL     OW 5899   0.098   3.638   4.665
 1816SOL    HW1 5900   0.059   3.586   4.594
 1816SOL    HW2 5901   0.186   3.659   4.633
 1817SOL     OW 5902   0.496   3.436   4.631
 1817SOL    HW1 5903   0.564   3.499   4.655
 1817SOL    HW2 5904   0.540   3.373   4.574
 1818SOL     OW 5905   0.983   2.654   4.950
 1818SOL    HW1 5906   1.039   2.630   5.024
 1818SOL    HW2 5907   0.897   2.618   4.972
 1819SOL     OW 5908   0.033   2.425   4.827
 1819SOL    HW1 5909   0.118   2.393   4.797
 1819SOL    HW2 5910   0.018   2.379   4.909
 1820SOL     OW 5911   0.179   2.382   5.439
 1820SOL    HW1 5912   0.260   2.353   5.396
 1820SOL    HW2 5913   0.156   2.463   5.393
 1821SOL     OW 5914   1.383   2.803   5.389
 1821SOL    HW1 5915   1.402   2.896   5.376
 1821SOL    HW2 5916   1.391   2.764   5.302
 1822SOL     OW 5917   0.817   2.431   4.084
 1822SOL    HW1 5918   0.821   2.357   4.024
 1822SOL    HW2 5919   0.743   2.484   4.053
 1823SOL     OW 5920   0.274   3.423   5.465
 1823SOL    HW1 5921   0.216   3.476   5.520
 1823SOL    HW2 5922   0.254   3.333   5.488
 1824SOL     OW 5923   0.694   2.315   4.985
 1824SOL    HW1 5924   0.646   2.239   4.953
 1824SOL    HW2 5925   0.693   2.377   4.912
 1825SOL     OW 5926   0.929   3.541   5.191
 1825SOL    HW1 5927   0.902   3.506   5.106
 1825SOL    HW2 5928   0.922   3.636   5.181
 1826SOL     OW 5929   0.472   2.352   3.908
 1826SOL    HW1 5930   0.531   2.423   3.933
 1826SOL    HW2 5931   0.388   2.396   3.893
 1827SOL     OW 5932   0.162   3.003   5.185
 1827SOL    HW1 5933   0.145   2.958   5.268
 1827SOL    HW2 5934   0.169   2.932   5.120
 1828SOL     OW 5935   1.326   2.910   4.946
 1828SOL    HW1 5936   1.350   2.846   4.879
 1828SOL    HW2 5937   1.256   2.961   4.907
 1829SOL     OW 5938   1.312   2.719   4.031
 1829SOL    HW1 5939   1.236   2.688   4.080
 1829SOL    HW2 5940   1.287   2.705   3.939
 1830SOL     OW 5941   1.772   3.606   4.875
 1830SOL    HW1 5942   1.832   3.632   4.805
 1830SOL    HW2 5943   1.747   3.516   4.853
 1831SOL     OW 5944   1.241   3.595   4.837
 1831SOL    HW1 5945   1.323   3.616   4.792
 1831SOL    HW2 5946   1.247   3.501   4.855
 1832SOL     OW 5947   0.067   3.046   4.774
 1832SOL    HW1 5948   0.064   3.078   4.864
 1832SOL    HW2 5949   0.025   3.116   4.723
 1833SOL     OW 5950   0.679   3.528   5.455
 1833SOL    HW1 5951   0.622   3.605   5.448
 1833SOL    HW2 5952   0.742   3.540   5.384
 1834SOL     OW 5953   1.717   2.008   4.232
 1834SOL    HW1 5954   1.791   1.991   4.174
 1834SOL    HW2 5955   1.701   1.924   4.275
 1835SOL     OW 5956   1.391   3.430   4.209
 1835SOL    HW1 5957   1.451   3.462   4.142
 1835SOL    HW2 5958   1.342   3.507   4.237
 1836SOL     OW 5959   0.119   3.669   5.571
 1836SOL    HW1 5960   0.078   3.597   5.619
 1836SOL    HW2 5961   0.182   3.706   5.633
 1837SOL     OW 5962   1.277   2.788   4.395
 1837SOL    HW1 5963   1.350   2.727   4.399
 1837SOL    HW2 5964   1.310   2.861   4.343
 1838SOL     OW 5965   0.813   3.136   5.153
 1838SOL    HW1 5966   0.786   3.175   5.236
 1838SOL    HW2 5967   0.743   3.157   5.092
 1839SOL     OW 5968   0.672   3.482   3.879
 1839SOL    HW1 5969   0.682   3.494   3.785
 1839SOL    HW2 5970   0.617   3.404   3.888
 1840SOL     OW 5971   1.627   3.588   5.115
 1840SOL    HW1 5972   1.676   3.595   5.034
 1840SOL    HW2 5973   1.613   3.679   5.143
 1841SOL     OW 5974   0.264   2.182   4.442
 1841SOL    HW1 5975   0.181   2.220   4.415
 1841SOL    HW2 5976   0.254   2.169   4.537
 1842SOL     OW 5977   1.207   3.468   3.756
 1842SOL    HW1 5978   1.197   3.376   3.783
 1842SOL    HW2 5979   1.142   3.480   3.687
 1843SOL     OW 5980   0.826   2.869   5.096
 1843SOL    HW1 5981   0.868   2.866   5.010
 1843SOL    HW2 5982   0.824   2.962   5.119
 1844SOL     OW 5983   0.916   2.773   4.014
 1844SOL    HW1 5984   0.977   2.805   3.948
 1844SOL    HW2 5985   0.964   2.703   4.059
 1845SOL     OW 5986   1.491   3.487   3.767
 1845SOL    HW1 5987   1.397   3.481   3.753
 1845SOL    HW2 5988   1.528   3.494   3.679
 1846SOL     OW 5989   0.373   3.170   5.214
 1846SOL    HW1 5990   0.355   3.249   5.163
 1846SOL    HW2 5991   0.299   3.112   5.198
 1847SOL     OW 5992   1.615   3.148   5.006
 1847SOL    HW1 5993   1.669   3.136   5.084
 1847SOL    HW2 5994   1.551   3.215   5.031
 1848SOL     OW 5995   1.053   2.970   4.431
 1848SOL    HW1 5996   0.982   2.919   4.470
 1848SOL    HW2 5997   1.114   2.903   4.399
 1849SOL     OW 5998   1.022   2.103   4.691
 1849SOL    HW1 5999   1.017   2.055   4.608
 1849SOL    HW2 6000   1.017   2.034   4.758
 1850SOL     OW 6001   0.605   3.352   4.206
 1850SOL    HW1 6002   0.647   3.302   4.136
 1850SOL    HW2 6003   0.529   3.392   4.165
 1851SOL     OW 6004   0.252   3.206   4.000
 1851SOL    HW1 6005   0.157   3.204   3.986
 1851SOL    HW2 6006   0.263   3.238   4.090
 1852SOL     OW 6007   0.116   2.869   5.418
 1852SOL    HW1 6008   0.052   2.912   5.475
 1852SOL    HW2 6009   0.194   2.859   5.472
 1853SOL     OW 6010   0.674   2.061   5.223
 1853SOL    HW1 6011   0.758   2.039   5.182
 1853SOL    HW2 6012   0.698   2.090   5.311
 1854SOL     OW 6013   0.072   2.187   3.756
 1854SOL    HW1 6014   4.477   2.200   3.764
 1854SOL    HW2 6015   0.104   2.269   3.717
 1855SOL     OW 6016   1.424   2.720   5.127
 1855SOL    HW1 6017   1.372   2.780   5.075
 1855SOL    HW2 6018   1.513   2.729   5.093
 1856SOL     OW 6019   0.086   2.038   4.028
 1856SOL    HW1 6020   0.080   2.110   3.966
 1856SOL    HW2 6021   0.162   1.987   3.998
 1857SOL     OW 6022   1.179   3.201   3.841
 1857SOL    HW1 6023   1.088   3.172   3.843
 1857SOL    HW2 6024   1.206   3.201   3.933
 1858SOL     OW 6025   0.624   2.693   5.155
 1858SOL    HW1 6026   0.680   2.769   5.142
 1858SOL    HW2 6027   0.685   2.619   5.163
 1859SOL     OW 6028   1.484   3.638   4.703
 1859SOL    HW1 6029   1.506   3.699   4.632
 1859SOL    HW2 6030   1.567   3.620   4.746
 1860SOL     OW 6031   0.714   2.425   5.428
 1860SOL    HW1 6032   0.755   2.488   5.486
 1860SOL    HW2 6033   0.743   2.340   5.459
 1861SOL     OW 6034   1.472   3.064   5.355
 1861SOL    HW1 6035   1.457   3.076   5.449
 1861SOL    HW2 6036   1.565   3.083   5.344
 1862SOL     OW 6037   0.380   3.605   5.289
 1862SOL    HW1 6038   0.295   3.646   5.271
 1862SOL    HW2 6039   0.359   3.526   5.337
 1863SOL     OW 6040   1.651   2.773   4.970
 1863SOL    HW1 6041   1.654   2.698   4.910
 1863SOL    HW2 6042   1.646   2.849   4.913
 1864SOL     OW 6043   1.217   2.182   4.182
 1864SOL    HW1 6044   1.280   2.109   4.173
 1864SOL    HW2 6045   1.247   2.230   4.259
 1865SOL     OW 6046   0.590   2.600   4.393
 1865SOL    HW1 6047   0.628   2.686   4.378
 1865SOL    HW2 6048   0.522   2.591   4.327
 1866SOL     OW 6049   1.728   2.819   5.236
 1866SOL    HW1 6050   1.730   2.911   5.260
 1866SOL    HW2 6051   1.699   2.818   5.145
 1867SOL     OW 6052   0.864   3.229   3.759
 1867SOL    HW1 6053   0.824   3.256   3.842
 1867SOL    HW2 6054   0.880   3.311   3.712
 1868SOL     OW 6055   0.661   3.653   4.669
 1868SOL    HW1 6056   0.640   3.743   4.645
 1868SOL    HW2 6057   0.756   3.647   4.660
 1869SOL     OW 6058   0.868   2.830   4.579
 1869SOL    HW1 6059   0.917   2.758   4.618
 1869SOL    HW2 6060   0.832   2.878   4.653
 1870SOL     OW 6061   1.080   2.851   3.813
 1870SOL    HW1 6062   1.057   2.901   3.735
 1870SOL    HW2 6063   1.154   2.797   3.787
 1871SOL     OW 6064   1.854   3.416   4.569
 1871SOL    HW1 6065   1.775   3.404   4.516
 1871SOL    HW2 6066   1.850   3.346   4.634
 1872SOL     OW 6067   0.231   3.167   5.582
 1872SOL    HW1 6068   0.155   3.112   5.561
 1872SOL    HW2 6069   0.226   3.178   5.677
 1873SOL     OW 6070   0.108   3.097   4.392
 1873SOL    HW1 6071   0.121   3.051   4.476
 1873SOL    HW2 6072   0.167   3.052   4.331
 1874SOL     OW 6073   0.683   3.265   5.353
 1874SOL    HW1 6074   0.603   3.221   5.381
 1874SOL    HW2 6075   0.676   3.353   5.390
 1875SOL     OW 6076   0.435   2.295   4.250
 1875SOL    HW1 6077   0.460   2.222   4.194
 1875SOL    HW2 6078   0.384   2.256   4.320
 1876SOL     OW 6079   1.698   3.352   4.821
 1876SOL    HW1 6080   1.619   3.330   4.772
 1876SOL    HW2 6081   1.707   3.282   4.886
 1877SOL     OW 6082   0.299   2.349   4.976
 1877SOL    HW1 6083   0.374   2.308   5.020
 1877SOL    HW2 6084   0.330   2.366   4.887
 1878SOL     OW 6085   0.828   3.439   4.401
 1878SOL    HW1 6086   0.814   3.494   4.324
 1878SOL    HW2 6087   0.751   3.382   4.405
 1879SOL     OW 6088   1.435   2.087   4.845
 1879SOL    HW1 6089   1.439   1.998   4.881
 1879SOL    HW2 6090   1.379   2.135   4.907
 1880SOL     OW 6091   1.009   1.880   4.866
 1880SOL    HW1 6092   0.954   1.813   4.825
 1880SOL    HW2 6093   1.097   1.842   4.869
 1881SOL     OW 6094   0.772   3.195   4.038
 1881SOL    HW1 6095   0.741   3.105   4.044
 1881SOL    HW2 6096   0.854   3.195   4.088
 1882SOL     OW 6097   0.621   3.418   5.009
 1882SOL    HW1 6098   0.623   3.499   5.060
 1882SOL    HW2 6099   0.708   3.411   4.971
 1883SOL     OW 6100   1.353   1.915   3.889
 1883SOL    HW1 6101   1.381   1.851   3.824
 1883SOL    HW2 6102   1.265   1.886   3.915
 1884SOL     OW 6103   1.299   2.324   4.405
 1884SOL    HW1 6104   1.243   2.401   4.412
 1884SOL    HW2 6105   1.293   2.283   4.492
 1885SOL     OW 6106   1.560   2.048   4.587
 1885SOL    HW1 6107   1.533   2.079   4.674
 1885SOL    HW2 6108   1.585   2.128   4.541
 1886SOL     OW 6109   0.041   2.913   4.013
 1886SOL    HW1 6110   0.134   2.895   4.002
 1886SOL    HW2 6111   0.021   2.882   4.101
 1887SOL     OW 6112   0.885   3.516   4.066
 1887SOL    HW1 6113   0.813   3.498   4.006
 1887SOL    HW2 6114   0.856   3.590   4.118
 1888SOL     OW 6115   0.248   2.490   5.707
 1888SOL    HW1 6116   0.173   2.469   5.763
 1888SOL    HW2 6117   0.216   2.474   5.618
 1889SOL     OW 6118   0.213   2.137   6.577
 1889SOL    HW1 6119   0.249   2.110   6.662
 1889SOL    HW2 6120   0.137   2.080   6.565
 1890SOL     OW 6121   0.008   2.254   6.226
 1890SOL    HW1 6122   4.427   2.286   6.266
 1890SOL    HW2 6123   4.482   2.174   6.180
 1891SOL     OW 6124   0.568   3.150   6.762
 1891SOL    HW1 6125   0.480   3.155   6.723
 1891SOL    HW2 6126   0.583   3.238   6.797
 1892SOL     OW 6127   1.561   3.373   6.293
 1892SOL    HW1 6128   1.519   3.353   6.376
 1892SOL    HW2 6129   1.490   3.378   6.230
 1893SOL     OW 6130   1.128   2.561   6.286
 1893SOL    HW1 6131   1.178   2.641   6.271
 1893SOL    HW2 6132   1.083   2.575   6.369
 1894SOL     OW 6133   0.754   3.004   6.627
 1894SOL    HW1 6134   0.686   3.039   6.684
 1894SOL    HW2 6135   0.790   3.081   6.583
 1895SOL     OW 6136   0.867   2.634   7.407
 1895SOL    HW1 6137   0.853   2.705   7.470
 1895SOL    HW2 6138   0.890   2.679   7.325
 1896SOL     OW 6139   0.685   2.865   6.233
 1896SOL    HW1 6140   0.751   2.853   6.302
 1896SOL    HW2 6141   0.616   2.916   6.275
 1897SOL     OW 6142   0.711   3.012   7.399
 1897SOL    HW1 6143   0.758   3.091   7.426
 1897SOL    HW2 6144   0.629   3.044   7.363
 1898SOL     OW 6145   0.335   3.283   6.655
 1898SOL    HW1 6146   0.253   3.263   6.609
 1898SOL    HW2 6147   0.385   3.337   6.594
 1899SOL     OW 6148   1.460   3.362   6.941
 1899SOL    HW1 6149   1.511   3.442   6.951
 1899SOL    HW2 6150   1.397   3.364   7.013
 1900SOL     OW 6151   0.445   2.267   7.077
 1900SOL    HW1 6152   0.524   2.214   7.082
 1900SOL    HW2 6153   0.373   2.203   7.083
 1901SOL     OW 6154   0.246   3.553   6.063
 1901SOL    HW1 6155   0.230   3.638   6.104
 1901SOL    HW2 6156   0.314   3.570   5.998
 1902SOL     OW 6157   1.136   3.204   7.279
 1902SOL    HW1 6158   1.177   3.199   7.365
 1902SOL    HW2 6159   1.084   3.124   7.272
 1903SOL     OW 6160   0.250   3.288   6.113
 1903SOL    HW1 6161   0.241   3.383   6.116
 1903SOL    HW2 6162   0.187   3.256   6.178
 1904SOL     OW 6163   0.249   2.944   6.471
 1904SOL    HW1 6164   0.264   2.854   6.498
 1904SOL    HW2 6165   0.188   2.979   6.536
 1905SOL     OW 6166   0.613   3.653   7.017
 1905SOL    HW1 6167   0.530   3.635   7.061
 1905SOL    HW2 6168   0.633   3.743   7.041
 1906SOL     OW 6169   0.579   2.849   5.725
 1906SOL    HW1 6170   0.627   2.891   5.654
 1906SOL    HW2 6171   0.623   2.878   5.805
 1907SOL     OW 6172   1.596   1.986   7.054
 1907SOL    HW1 6173   1.602   2.067   7.003
 1907SOL    HW2 6174   1.582   2.015   7.144
 1908SOL     OW 6175   0.136   2.508   6.160
 1908SOL    HW1 6176   0.089   2.427   6.178
 1908SOL    HW2 6177   0.106   2.570   6.227
 1909SOL     OW 6178   1.843   3.621   5.921
 1909SOL    HW1 6179   1.906   3.592   5.986
 1909SOL    HW2 6180   1.867   3.712   5.902
 1910SOL     OW 6181   0.032   3.464   5.727
 1910SOL    HW1 6182   0.021   3.369   5.724
 1910SOL    HW2 6183   0.023   3.486   5.820
 1911SOL     OW 6184   1.642   2.969   6.013
 1911SOL    HW1 6185   1.728   2.980   5.973
 1911SOL    HW2 6186   1.645   3.021   6.093
 1912SOL     OW 6187   0.112   2.625   7.169
 1912SOL    HW1 6188   0.203   2.623   7.138
 1912SOL    HW2 6189   0.096   2.718   7.189
 1913SOL     OW 6190   0.614   3.248   6.322
 1913SOL    HW1 6191   0.567   3.165   6.332
 1913SOL    HW2 6192   0.598   3.274   6.232
 1914SOL     OW 6193   1.289   3.101   7.009
 1914SOL    HW1 6194   1.320   3.033   6.949
 1914SOL    HW2 6195   1.346   3.094   7.085
 1915SOL     OW 6196   0.816   1.862   6.095
 1915SOL    HW1 6197   0.856   1.947   6.075
 1915SOL    HW2 6198   0.723   1.880   6.104
 1916SOL     OW 6199   0.179   2.802   6.865
 1916SOL    HW1 6200   0.271   2.784   6.845
 1916SOL    HW2 6201   0.133   2.789   6.782
 1917SOL     OW 6202   1.536   2.851   5.784
 1917SOL    HW1 6203   1.463   2.796   5.813
 1917SOL    HW2 6204   1.570   2.890   5.865
 1918SOL     OW 6205   1.186   3.669   7.208
 1918SOL    HW1 6206   1.196   3.727   7.133
 1918SOL    HW2 6207   1.202   3.581   7.173
 1919SOL     OW 6208   0.331   2.118   7.385
 1919SOL    HW1 6209   0.380   2.192   7.422
 1919SOL    HW2 6210   0.244   2.125   7.423
 1920SOL     OW 6211   1.467   3.281   6.537
 1920SOL    HW1 6212   1.399   3.297   6.603
 1920SOL    HW2 6213   1.455   3.190   6.510
 1921SOL     OW 6214   1.659   3.601   6.164
 1921SOL    HW1 6215   1.638   3.572   6.075
 1921SOL    HW2 6216   1.634   3.528   6.220
 1922SOL     OW 6217   0.598   2.582   5.853
 1922SOL    HW1 6218   0.600   2.664   5.803
 1922SOL    HW2 6219   0.532   2.597   5.921
 1923SOL     OW 6220   1.287   2.213   6.518
 1923SOL    HW1 6221   1.198   2.179   6.533
 1923SOL    HW2 6222   1.343   2.158   6.573
 1924SOL     OW 6223   1.581   3.533   5.895
 1924SOL    HW1 6224   1.671   3.564   5.888
 1924SOL    HW2 6225   1.554   3.516   5.805
 1925SOL     OW 6226   0.793   2.478   7.037
 1925SOL    HW1 6227   0.767   2.454   7.126
 1925SOL    HW2 6228   0.751   2.413   6.981
 1926SOL     OW 6229   1.393   2.336   7.264
 1926SOL    HW1 6230   1.396   2.380   7.349
 1926SOL    HW2 6231   1.455   2.263   7.273
 1927SOL     OW 6232   0.955   2.749   7.168
 1927SOL    HW1 6233   1.009   2.679   7.133
 1927SOL    HW2 6234   0.907   2.784   7.093
 1928SOL     OW 6235   0.993   2.275   6.824
 1928SOL    HW1 6236   0.907   2.296   6.862
 1928SOL    HW2 6237   0.972   2.229   6.743
 1929SOL     OW 6238   1.051   2.560   6.011
 1929SOL    HW1 6239   1.067   2.554   6.105
 1929SOL    HW2 6240   0.969   2.514   5.998
 1930SOL     OW 6241   0.096   2.690   6.371
 1930SOL    HW1 6242   0.182   2.674   6.408
 1930SOL    HW2 6243   0.041   2.713   6.446
 1931SOL     OW 6244   0.124   3.716   7.162
 1931SOL    HW1 6245   0.117   3.694   7.255
 1931SOL    HW2 6246   0.044   3.681   7.123
 1932SOL     OW 6247   0.894   2.211   5.780
 1932SOL    HW1 6248   0.934   2.273   5.720
 1932SOL    HW2 6249   0.907   2.125   5.739
 1933SOL     OW 6250   1.705   2.438   7.416
 1933SOL    HW1 6251   1.669   2.512   7.366
 1933SOL    HW2 6252   1.734   2.376   7.349
 1934SOL     OW 6253   1.378   3.005   6.129
 1934SOL    HW1 6254   1.456   2.989   6.075
 1934SOL    HW2 6255   1.325   3.067   6.078
 1935SOL     OW 6256   0.552   2.044   6.479
 1935SOL    HW1 6257   0.554   2.074   6.570
 1935SOL    HW2 6258   0.553   2.124   6.427
 1936SOL     OW 6259   1.006   3.306   6.058
 1936SOL    HW1 6260   0.969   3.380   6.009
 1936SOL    HW2 6261   0.986   3.327   6.149
 1937SOL     OW 6262   0.356   3.673   6.444
 1937SOL    HW1 6263   0.398   3.587   6.455
 1937SOL    HW2 6264   0.426   3.736   6.461
 1938SOL     OW 6265   1.795   2.960   6.467
 1938SOL    HW1 6266   1.752   2.923   6.390
 1938SOL    HW2 6267   1.733   2.946   6.538
 1939SOL     OW 6268   1.228   3.401   7.099
 1939SOL    HW1 6269   1.214   3.328   7.160
 1939SOL    HW2 6270   1.164   3.386   7.029
 1940SOL     OW 6271   0.315   2.816   5.840
 1940SOL    HW1 6272   0.399   2.839   5.800
 1940SOL    HW2 6273   0.300   2.725   5.814
 1941SOL     OW 6274   1.469   2.614   6.329
 1941SOL    HW1 6275   1.449   2.549   6.397
 1941SOL    HW2 6276   1.563   2.603   6.313
 1942SOL     OW 6277   0.468   3.125   7.321
 1942SOL    HW1 6278   0.441   3.131   7.230
 1942SOL    HW2 6279   0.386   3.129   7.371
 1943SOL     OW 6280   1.122   3.640   5.816
 1943SOL    HW1 6281   1.049   3.599   5.862
 1943SOL    HW2 6282   1.145   3.578   5.747
 1944SOL     OW 6283   0.196   2.139   7.071
 1944SOL    HW1 6284   0.138   2.215   7.078
 1944SOL    HW2 6285   0.183   2.091   7.153
 1945SOL     OW 6286   1.626   3.243   5.669
 1945SOL    HW1 6287   1.585   3.328   5.657
 1945SOL    HW2 6288   1.556   3.179   5.654
 1946SOL     OW 6289   0.469   3.606   5.899
 1946SOL    HW1 6290   0.512   3.659   5.967
 1946SOL    HW2 6291   0.541   3.570   5.848
 1947SOL     OW 6292   1.400   1.970   6.015
 1947SOL    HW1 6293   1.378   1.945   5.925
 1947SOL    HW2 6294   1.495   1.955   6.021
 1948SOL     OW 6295   0.261   3.655   6.816
 1948SOL    HW1 6296   0.305   3.580   6.854
 1948SOL    HW2 6297   0.224   3.623   6.734
 1949SOL     OW 6298   0.938   3.561   6.484
 1949SOL    HW1 6299   1.015   3.508   6.507
 1949SOL    HW2 6300   0.894   3.511   6.415
 1950SOL     OW 6301   0.395   2.556   6.058
 1950SOL    HW1 6302   0.418   2.464   6.070
 1950SOL    HW2 6303   0.303   2.562   6.084
 1951SOL     OW 6304   1.535   2.087   7.311
 1951SOL    HW1 6305   1.544   2.108   7.404
 1951SOL    HW2 6306   1.465   2.021   7.308
 1952SOL     OW 6307   0.636   1.986   5.688
 1952SOL    HW1 6308   0.702   1.919   5.705
 1952SOL    HW2 6309   0.587   1.953   5.613
 1953SOL     OW 6310   0.766   2.139   7.340
 1953SOL    HW1 6311   0.843   2.082   7.340
 1953SOL    HW2 6312   0.719   2.116   7.420
 1954SOL     OW 6313   0.877   3.385   6.779
 1954SOL    HW1 6314   0.861   3.348   6.693
 1954SOL    HW2 6315   0.946   3.330   6.816
 1955SOL     OW 6316   1.340   2.451   7.018
 1955SOL    HW1 6317   1.371   2.419   7.103
 1955SOL    HW2 6318   1.377   2.539   7.010
 1956SOL     OW 6319   0.816   3.257   6.526
 1956SOL    HW1 6320   0.900   3.245   6.482
 1956SOL    HW2 6321   0.751   3.258   6.456
 1957SOL     OW 6322   0.927   2.371   6.490
 1957SOL    HW1 6323   0.904   2.363   6.397
 1957SOL    HW2 6324   0.961   2.284   6.513
 1958SOL     OW 6325   0.553   1.924   6.087
 1958SOL    HW1 6326   0.472   1.922   6.138
 1958SOL    HW2 6327   0.545   2.002   6.032
 1959SOL     OW 6328   1.428   3.060   5.627
 1959SOL    HW1 6329   1.456   2.983   5.678
 1959SOL    HW2 6330   1.341   3.081   5.663
 1960SOL     OW 6331   0.295   1.908   5.764
 1960SOL    HW1 6332   0.358   1.975   5.737
 1960SOL    HW2 6333   0.348   1.842   5.809
 1961SOL     OW 6334   0.938   2.108   6.045
 1961SOL    HW1 6335   0.911   2.150   5.964
 1961SOL    HW2 6336   1.032   2.124   6.050
 1962SOL     OW 6337   1.080   2.543   7.045
 1962SOL    HW1 6338   1.013   2.475   7.050
 1962SOL    HW2 6339   1.162   2.494   7.038
 1963SOL     OW 6340   1.224   3.431   6.379
 1963SOL    HW1 6341   1.240   3.499   6.313
 1963SOL    HW2 6342   1.292   3.446   6.445
 1964SOL     OW 6343   0.467   3.012   6.321
 1964SOL    HW1 6344   0.396   2.993   6.383
 1964SOL    HW2 6345   0.427   2.996   6.235
 1965SOL     OW 6346   1.269   3.656   6.195
 1965SOL    HW1 6347   1.315   3.717   6.137
 1965SOL    HW2 6348   1.202   3.709   6.238
 1966SOL     OW 6349   1.022   2.403   5.609
 1966SOL    HW1 6350   0.979   2.486   5.588
 1966SOL    HW2 6351   1.091   2.427   5.672
 1967SOL     OW 6352   0.083   2.389   6.996
 1967SOL    HW1 6353   0.147   2.385   6.925
 1967SOL    HW2 6354   0.068   2.482   7.010
 1968SOL     OW 6355   0.560   2.089   6.752
 1968SOL    HW1 6356   0.603   2.012   6.788
 1968SOL    HW2 6357   0.469   2.081   6.779
 1969SOL     OW 6358   0.867   2.321   6.226
 1969SOL    HW1 6359   0.821   2.376   6.163
 1969SOL    HW2 6360   0.888   2.241   6.178
 1970SOL     OW 6361   1.020   1.912   6.334
 1970SOL    HW1 6362   0.957   1.909   6.262
 1970SOL    HW2 6363   0.995   1.839   6.391
 1971SOL     OW 6364   1.435   3.025   6.442
 1971SOL    HW1 6365   1.368   2.957   6.444
 1971SOL    HW2 6366   1.455   3.036   6.349
 1972SOL     OW 6367   1.456   2.464   6.570
 1972SOL    HW1 6368   1.416   2.377   6.566
 1972SOL    HW2 6369   1.521   2.457   6.640
 1973SOL     OW 6370   0.491   3.280   5.745
 1973SOL    HW1 6371   0.414   3.251   5.794
 1973SOL    HW2 6372   0.475   3.251   5.655
 1974SOL     OW 6373   1.666   3.123   6.232
 1974SOL    HW1 6374   1.761   3.128   6.245
 1974SOL    HW2 6375   1.634   3.211   6.252
 1975SOL     OW 6376   1.386   2.437   5.651
 1975SOL    HW1 6377   1.339   2.412   5.730
 1975SOL    HW2 6378   1.477   2.414   5.668
 1976SOL     OW 6379   0.525   2.122   5.902
 1976SOL    HW1 6380   0.572   2.076   5.832
 1976SOL    HW2 6381   0.505   2.208   5.866
 1977SOL     OW 6382   1.752   3.102   7.158
 1977SOL    HW1 6383   1.839   3.062   7.156
 1977SOL    HW2 6384   1.767   3.192   7.187
 1978SOL     OW 6385   1.058   3.216   6.920
 1978SOL    HW1 6386   0.983   3.185   6.971
 1978SOL    HW2 6387   1.134   3.175   6.961
 1979SOL     OW 6388   1.608   3.488   7.241
 1979SOL    HW1 6389   1.602   3.522   7.151
 1979SOL    HW2 6390   1.691   3.440   7.242
 1980SOL     OW 6391   1.130   3.067   6.691
 1980SOL    HW1 6392   1.070   3.103   6.756
 1980SOL    HW2 6393   1.096   3.098   6.607
 1981SOL     OW 6394   1.620   2.956   6.670
 1981SOL    HW1 6395   1.617   3.020   6.741
 1981SOL    HW2 6396   1.541   2.973   6.619
 1982SOL     OW 6397   0.918   1.959   6.982
 1982SOL    HW1 6398   0.940   1.940   6.891
 1982SOL    HW2 6399   0.997   1.999   7.019
 1983SOL     OW 6400   0.984   2.977   7.308
 1983SOL    HW1 6401   0.892   2.992   7.330
 1983SOL    HW2 6402   0.983   2.899   7.253
 1984SOL     OW 6403   0.709   2.923   5.958
 1984SOL    HW1 6404   0.696   2.907   6.051
 1984SOL    HW2 6405   0.785   2.870   5.934
 1985SOL     OW 6406   0.431   2.689   6.828
 1985SOL    HW1 6407   0.501   2.701   6.893
 1985SOL    HW2 6408   0.373   2.624   6.868
 1986SOL     OW 6409   1.266   2.238   6.862
 1986SOL    HW1 6410   1.299   2.316   6.907
 1986SOL    HW2 6411   1.176   2.260   6.838
 1987SOL     OW 6412   0.063   3.438   6.928
 1987SOL    HW1 6413   0.036   3.528   6.910
 1987SOL    HW2 6414   0.158   3.443   6.935
 1988SOL     OW 6415   0.346   2.971   6.079
 1988SOL    HW1 6416   0.355   3.044   6.018
 1988SOL    HW2 6417   0.345   2.893   6.023
 1989SOL     OW 6418   0.560   2.394   6.441
 1989SOL    HW1 6419   0.574   2.454   6.368
 1989SOL    HW2 6420   0.622   2.424   6.508
 1990SOL     OW 6421   1.248   3.211   5.975
 1990SOL    HW1 6422   1.304   3.282   6.006
 1990SOL    HW2 6423   1.161   3.231   6.009
 1991SOL     OW 6424   1.281   3.320   6.732
 1991SOL    HW1 6425   1.336   3.322   6.811
 1991SOL    HW2 6426   1.226   3.243   6.744
 1992SOL     OW 6427   0.346   3.395   6.900
 1992SOL    HW1 6428   0.333   3.347   6.818
 1992SOL    HW2 6429   0.441   3.404   6.907
 1993SOL     OW 6430   0.480   2.618   7.253
 1993SOL    HW1 6431   0.510   2.657   7.171
 1993SOL    HW2 6432   0.529   2.536   7.260
 1994SOL     OW 6433   1.602   2.642   7.268
 1994SOL    HW1 6434   1.515   2.683   7.261
 1994SOL    HW2 6435   1.654   2.684   7.200
 1995SOL     OW 6436   0.996   1.986   7.340
 1995SOL    HW1 6437   1.053   2.058   7.313
 1995SOL    HW2 6438   1.044   1.907   7.315
 1996SOL     OW 6439   0.497   1.904   7.333
 1996SOL    HW1 6440   0.455   1.848   7.268
 1996SOL    HW2 6441   0.438   1.979   7.341
 1997SOL     OW 6442   0.590   2.736   6.610
 1997SOL    HW1 6443   0.620   2.827   6.612
 1997SOL    HW2 6444   0.534   2.727   6.687
 1998SOL     OW 6445   1.357   2.719   6.619
 1998SOL    HW1 6446   1.277   2.712   6.567
 1998SOL    HW2 6447   1.400   2.634   6.610
 1999SOL     OW 6448   1.210   2.390   5.858
 1999SOL    HW1 6449   1.211   2.311   5.912
 1999SOL    HW2 6450   1.164   2.455   5.910
 2000SOL     OW 6451   0.302   2.052   6.828
 2000SOL    HW1 6452   0.262   2.086   6.908
 2000SOL    HW2 6453   0.285   1.958   6.831
 2001SOL     OW 6454   0.037   3.175   6.872
 2001SOL    HW1 6455   0.074   3.127   6.946
 2001SOL    HW2 6456   0.044   3.267   6.896
 2002SOL     OW 6457   0.725   2.493   6.644
 2002SOL    HW1 6458   0.800   2.475   6.587
 2002SOL    HW2 6459   0.698   2.582   6.621
 2003SOL     OW 6460   1.734   2.823   7.438
 2003SOL    HW1 6461   1.689   2.759   7.382
 2003SOL    HW2 6462   1.674   2.836   7.512
 2004SOL     OW 6463   0.312   1.932   6.205
 2004SOL    HW1 6464   0.287   2.020   6.231
 2004SOL    HW2 6465   0.309   1.881   6.286
 2005SOL     OW 6466   1.026   2.621   6.546
 2005SOL    HW1 6467   1.025   2.639   6.640
 2005SOL    HW2 6468   1.001   2.529   6.538
 2006SOL     OW 6469   0.983   3.429   7.303
 2006SOL    HW1 6470   0.967   3.472   7.219
 2006SOL    HW2 6471   1.025   3.346   7.280
 2007SOL     OW 6472   1.855   3.368   7.192
 2007SOL    HW1 6473   1.873   3.394   7.101
 2007SOL    HW2 6474   1.936   3.386   7.239
 2008SOL     OW 6475   0.347   2.796   7.404
 2008SOL    HW1 6476   0.419   2.825   7.459
 2008SOL    HW2 6477   0.385   2.728   7.348
 2009SOL     OW 6478   1.525   2.135   5.718
 2009SOL    HW1 6479   1.458   2.074   5.749
 2009SOL    HW2 6480   1.569   2.165   5.798
 2010SOL     OW 6481   1.292   2.690   5.616
 2010SOL    HW1 6482   1.329   2.602   5.619
 2010SOL    HW2 6483   1.326   2.729   5.536
 2011SOL     OW 6484   1.065   3.198   6.439
 2011SOL    HW1 6485   1.069   3.125   6.377
 2011SOL    HW2 6486   1.127   3.262   6.404
 2012SOL     OW 6487   0.318   2.673   6.533
 2012SOL    HW1 6488   0.412   2.690   6.531
 2012SOL    HW2 6489   0.311   2.582   6.561
 2013SOL     OW 6490   0.330   2.387   6.575
 2013SOL    HW1 6491   0.292   2.301   6.560
 2013SOL    HW2 6492   0.409   2.389   6.521
 2014SOL     OW 6493   1.134   2.238   7.268
 2014SOL    HW1 6494   1.087   2.293   7.331
 2014SOL    HW2 6495   1.222   2.276   7.264
 2015SOL     OW 6496   1.160   2.064   7.056
 2015SOL    HW1 6497   1.150   2.127   7.127
 2015SOL    HW2 6498   1.201   2.115   6.985
 2016SOL     OW 6499   4.491   3.184   5.792
 2016SOL    HW1 6500   4.399   3.200   5.774
 2016SOL    HW2 6501   4.496   3.090   5.813
 2017SOL     OW 6502   0.098   3.638   6.526
 2017SOL    HW1 6503   0.059   3.586   6.456
 2017SOL    HW2 6504   0.186   3.659   6.495
 2018SOL     OW 6505   0.496   3.436   6.493
 2018SOL    HW1 6506   0.564   3.498   6.517
 2018SOL    HW2 6507   0.540   3.373   6.436
 2019SOL     OW 6508   0.983   2.655   6.812
 2019SOL    HW1 6509   1.039   2.631   6.886
 2019SOL    HW2 6510   0.898   2.617   6.835
 2020SOL     OW 6511   0.033   2.425   6.688
 2020SOL    HW1 6512   0.119   2.393   6.659
 2020SOL    HW2 6513   0.018   2.379   6.771
 2021SOL     OW 6514   0.179   2.382   7.301
 2021SOL    HW1 6515   0.260   2.353   7.259
 2021SOL    HW2 6516   0.157   2.463   7.255
 2022SOL     OW 6517   1.376   2.801   7.244
 2022SOL    HW1 6518   1.398   2.894   7.242
 2022SOL    HW2 6519   1.374   2.774   7.152
 2023SOL     OW 6520   0.817   2.431   5.947
 2023SOL    HW1 6521   0.820   2.357   5.886
 2023SOL    HW2 6522   0.743   2.484   5.915
 2024SOL     OW 6523   1.646   2.465   6.771
 2024SOL    HW1 6524   1.636   2.404   6.844
 2024SOL    HW2 6525   1.732   2.445   6.735
 2025SOL     OW 6526   0.274   3.424   7.327
 2025SOL    HW1 6527   0.216   3.476   7.382
 2025SOL    HW2 6528   0.254   3.333   7.350
 2026SOL     OW 6529   0.693   2.315   6.847
 2026SOL    HW1 6530   0.646   2.239   6.814
 2026SOL    HW2 6531   0.693   2.377   6.774
 2027SOL     OW 6532   0.928   3.541   7.053
 2027SOL    HW1 6533   0.902   3.506   6.969
 2027SOL    HW2 6534   0.922   3.636   7.043
 2028SOL     OW 6535   0.472   2.352   5.770
 2028SOL    HW1 6536   0.532   2.423   5.795
 2028SOL    HW2 6537   0.388   2.395   5.755
 2029SOL     OW 6538   0.162   3.003   7.046
 2029SOL    HW1 6539   0.145   2.958   7.129
 2029SOL    HW2 6540   0.169   2.932   6.982
 2030SOL     OW 6541   1.326   2.909   6.809
 2030SOL    HW1 6542   1.347   2.844   6.743
 2030SOL    HW2 6543   1.256   2.961   6.770
 2031SOL     OW 6544   1.313   2.719   5.890
 2031SOL    HW1 6545   1.238   2.690   5.943
 2031SOL    HW2 6546   1.286   2.705   5.800
 2032SOL     OW 6547   1.773   3.606   6.737
 2032SOL    HW1 6548   1.832   3.632   6.667
 2032SOL    HW2 6549   1.748   3.516   6.716
 2033SOL     OW 6550   1.241   3.595   6.699
 2033SOL    HW1 6551   1.323   3.616   6.654
 2033SOL    HW2 6552   1.247   3.502   6.717
 2034SOL     OW 6553   0.067   3.047   6.636
 2034SOL    HW1 6554   0.064   3.078   6.726
 2034SOL    HW2 6555   0.025   3.116   6.585
 2035SOL     OW 6556   0.679   3.528   7.317
 2035SOL    HW1 6557   0.622   3.605   7.310
 2035SOL    HW2 6558   0.743   3.539   7.246
 2036SOL     OW 6559   1.391   3.430   6.071
 2036SOL    HW1 6560   1.451   3.463   6.004
 2036SOL    HW2 6561   1.342   3.507   6.100
 2037SOL     OW 6562   0.119   3.669   7.433
 2037SOL    HW1 6563   0.078   3.597   7.481
 2037SOL    HW2 6564   0.182   3.706   7.495
 2038SOL     OW 6565   1.273   2.790   6.257
 2038SOL    HW1 6566   1.347   2.732   6.274
 2038SOL    HW2 6567   1.310   2.860   6.204
 2039SOL     OW 6568   0.813   3.136   7.015
 2039SOL    HW1 6569   0.786   3.175   7.098
 2039SOL    HW2 6570   0.743   3.157   6.954
 2040SOL     OW 6571   0.672   3.482   5.741
 2040SOL    HW1 6572   0.682   3.494   5.647
 2040SOL    HW2 6573   0.617   3.404   5.750
 2041SOL     OW 6574   1.626   3.589   6.977
 2041SOL    HW1 6575   1.676   3.595   6.896
 2041SOL    HW2 6576   1.613   3.679   7.005
 2042SOL     OW 6577   1.837   2.048   6.558
 2042SOL    HW1 6578   1.871   1.959   6.548
 2042SOL    HW2 6579   1.743   2.037   6.567
 2043SOL     OW 6580   0.264   2.181   6.304
 2043SOL    HW1 6581   0.181   2.220   6.277
 2043SOL    HW2 6582   0.254   2.169   6.399
 2044SOL     OW 6583   1.208   3.467   5.617
 2044SOL    HW1 6584   1.197   3.376   5.645
 2044SOL    HW2 6585   1.142   3.479   5.549
 2045SOL     OW 6586   0.825   2.869   6.958
 2045SOL    HW1 6587   0.869   2.864   6.873
 2045SOL    HW2 6588   0.824   2.962   6.980
 2046SOL     OW 6589   0.916   2.772   5.875
 2046SOL    HW1 6590   0.977   2.805   5.809
 2046SOL    HW2 6591   0.964   2.703   5.921
 2047SOL     OW 6592   1.491   3.487   5.629
 2047SOL    HW1 6593   1.397   3.481   5.615
 2047SOL    HW2 6594   1.528   3.494   5.540
 2048SOL     OW 6595   0.373   3.170   7.076
 2048SOL    HW1 6596   0.355   3.248   7.025
 2048SOL    HW2 6597   0.298   3.113   7.060
 2049SOL     OW 6598   1.611   3.146   6.867
 2049SOL    HW1 6599   1.669   3.134   6.942
 2049SOL    HW2 6600   1.550   3.215   6.895
 2050SOL     OW 6601   1.052   2.970   6.292
 2050SOL    HW1 6602   0.981   2.919   6.331
 2050SOL    HW2 6603   1.116   2.904   6.264
 2051SOL     OW 6604   1.022   2.102   6.553
 2051SOL    HW1 6605   1.019   2.055   6.470
 2051SOL    HW2 6606   1.017   2.034   6.620
 2052SOL     OW 6607   0.605   3.352   6.068
 2052SOL    HW1 6608   0.647   3.302   5.998
 2052SOL    HW2 6609   0.529   3.392   6.027
 2053SOL     OW 6610   1.723   2.257   6.969
 2053SOL    HW1 6611   1.796   2.320   6.968
 2053SOL    HW2 6612   1.754   2.183   6.917
 2054SOL     OW 6613   0.252   3.206   5.862
 2054SOL    HW1 6614   0.157   3.204   5.848
 2054SOL    HW2 6615   0.263   3.238   5.952
 2055SOL     OW 6616   0.116   2.870   7.280
 2055SOL    HW1 6617   0.052   2.912   7.337
 2055SOL    HW2 6618   0.194   2.859   7.334
 2056SOL     OW 6619   0.674   2.061   7.085
 2056SOL    HW1 6620   0.758   2.039   7.044
 2056SOL    HW2 6621   0.698   2.089   7.173
 2057SOL     OW 6622   0.072   2.187   5.617
 2057SOL    HW1 6623   4.477   2.200   5.626
 2057SOL    HW2 6624   0.104   2.269   5.579
 2058SOL     OW 6625   1.430   2.721   6.987
 2058SOL    HW1 6626   1.381   2.781   6.930
 2058SOL    HW2 6627   1.519   2.722   6.952
 2059SOL     OW 6628   0.086   2.038   5.890
 2059SOL    HW1 6629   0.079   2.111   5.828
 2059SOL    HW2 6630   0.162   1.988   5.860
 2060SOL     OW 6631   1.179   3.201   5.702
 2060SOL    HW1 6632   1.088   3.171   5.705
 2060SOL    HW2 6633   1.207   3.201   5.794
 2061SOL     OW 6634   0.624   2.693   7.018
 2061SOL    HW1 6635   0.680   2.769   7.004
 2061SOL    HW2 6636   0.685   2.619   7.025
 2062SOL     OW 6637   1.483   3.639   6.565
 2062SOL    HW1 6638   1.507   3.699   6.494
 2062SOL    HW2 6639   1.566   3.619   6.608
 2063SOL     OW 6640   0.713   2.425   7.290
 2063SOL    HW1 6641   0.756   2.488   7.348
 2063SOL    HW2 6642   0.743   2.340   7.321
 2064SOL     OW 6643   1.471   3.062   7.218
 2064SOL    HW1 6644   1.459   3.075   7.312
 2064SOL    HW2 6645   1.565   3.076   7.204
 2065SOL     OW 6646   0.380   3.606   7.151
 2065SOL    HW1 6647   0.295   3.646   7.133
 2065SOL    HW2 6648   0.359   3.526   7.199
 2066SOL     OW 6649   1.671   2.742   6.842
 2066SOL    HW1 6650   1.661   2.657   6.800
 2066SOL    HW2 6651   1.656   2.805   6.772
 2067SOL     OW 6652   1.214   2.179   6.041
 2067SOL    HW1 6653   1.278   2.108   6.038
 2067SOL    HW2 6654   1.238   2.229   6.120
 2068SOL     OW 6655   0.590   2.599   6.255
 2068SOL    HW1 6656   0.628   2.686   6.240
 2068SOL    HW2 6657   0.522   2.591   6.188
 2069SOL     OW 6658   1.763   2.226   7.245
 2069SOL    HW1 6659   1.755   2.238   7.150
 2069SOL    HW2 6660   1.690   2.169   7.268
 2070SOL     OW 6661   1.745   2.796   7.098
 2070SOL    HW1 6662   1.740   2.891   7.110
 2070SOL    HW2 6663   1.730   2.783   7.005
 2071SOL     OW 6664   0.864   3.229   5.621
 2071SOL    HW1 6665   0.824   3.255   5.704
 2071SOL    HW2 6666   0.880   3.312   5.575
 2072SOL     OW 6667   0.661   3.653   6.531
 2072SOL    HW1 6668   0.641   3.743   6.507
 2072SOL    HW2 6669   0.756   3.647   6.522
 2073SOL     OW 6670   0.868   2.830   6.440
 2073SOL    HW1 6671   0.917   2.758   6.479
 2073SOL    HW2 6672   0.832   2.878   6.515
 2074SOL     OW 6673   1.080   2.851   5.674
 2074SOL    HW1 6674   1.057   2.901   5.596
 2074SOL    HW2 6675   1.154   2.797   5.648
 2075SOL     OW 6676   1.854   3.416   6.430
 2075SOL    HW1 6677   1.774   3.403   6.378
 2075SOL    HW2 6678   1.849   3.348   6.498
 2076SOL     OW 6679   0.231   3.167   7.444
 2076SOL    HW1 6680   0.156   3.112   7.423
 2076SOL    HW2 6681   0.226   3.178   7.539
 2077SOL     OW 6682   0.108   3.097   6.254
 2077SOL    HW1 6683   0.121   3.051   6.338
 2077SOL    HW2 6684   0.167   3.052   6.193
 2078SOL     OW 6685   0.683   3.265   7.214
 2078SOL    HW1 6686   0.603   3.221   7.243
 2078SOL    HW2 6687   0.676   3.353   7.252
 2079SOL     OW 6688   1.822   2.053   6.829
 2079SOL    HW1 6689   1.837   1.959   6.846
 2079SOL    HW2 6690   1.843   2.064   6.737
 2080SOL     OW 6691   0.435   2.295   6.111
 2080SOL    HW1 6692   0.460   2.221   6.056
 2080SOL    HW2 6693   0.384   2.256   6.182
 2081SOL     OW 6694   1.699   3.352   6.683
 2081SOL    HW1 6695   1.619   3.329   6.636
 2081SOL    HW2 6696   1.710   3.282   6.748
 2082SOL     OW 6697   0.299   2.349   6.838
 2082SOL    HW1 6698   0.374   2.308   6.882
 2082SOL    HW2 6699   0.330   2.366   6.749
 2083SOL     OW 6700   0.828   3.440   6.263
 2083SOL    HW1 6701   0.813   3.493   6.185
 2083SOL    HW2 6702   0.752   3.382   6.267
 2084SOL     OW 6703   1.435   2.084   6.710
 2084SOL    HW1 6704   1.453   2.003   6.758
 2084SOL    HW2 6705   1.381   2.136   6.769
 2085SOL     OW 6706   1.008   1.880   6.728
 2085SOL    HW1 6707   0.953   1.812   6.689
 2085SOL    HW2 6708   1.096   1.843   6.730
 2086SOL     OW 6709   0.773   3.195   5.900
 2086SOL    HW1 6710   0.741   3.104   5.907
 2086SOL    HW2 6711   0.854   3.196   5.950
 2087SOL     OW 6712   0.621   3.418   6.871
 2087SOL    HW1 6713   0.623   3.500   6.921
 2087SOL    HW2 6714   0.708   3.411   6.833
 2088SOL     OW 6715   1.351   1.912   5.754
 2088SOL    HW1 6716   1.377   1.858   5.679
 2088SOL    HW2 6717   1.264   1.880   5.778
 2089SOL     OW 6718   1.283   2.318   6.262
 2089SOL    HW1 6719   1.236   2.400   6.275
 2089SOL    HW2 6720   1.293   2.283   6.351
 2090SOL     OW 6721   0.041   2.913   5.875
 2090SOL    HW1 6722   0.134   2.895   5.864
 2090SOL    HW2 6723   0.020   2.882   5.963
 2091SOL     OW 6724   0.885   3.516   5.928
 2091SOL    HW1 6725   0.813   3.498   5.868
 2091SOL    HW2 6726   0.856   3.590   5.980
 2092SOL     OW 6727   0.247   2.491   7.568
 2092SOL    HW1 6728   0.173   2.469   7.625
 2092SOL    HW2 6729   0.216   2.473   7.480
 2093SOL     OW 6730   0.213   2.137   8.439
 2093SOL    HW1 6731   0.249   2.110   8.524
 2093SOL    HW2 6732   0.137   2.080   8.427
 2094SOL     OW 6733   0.008   2.254   8.088
 2094SOL    HW1 6734   4.427   2.286   8.127
 2094SOL    HW2 6735   4.483   2.174   8.042
 2095SOL     OW 6736   0.568   3.150   8.624
 2095SOL    HW1 6737   0.481   3.155   8.585
 2095SOL    HW2 6738   0.583   3.238   8.659
 2096SOL     OW 6739   1.561   3.374   8.155
 2096SOL    HW1 6740   1.518   3.353   8.238
 2096SOL    HW2 6741   1.490   3.378   8.092
 2097SOL     OW 6742   1.130   2.560   8.149
 2097SOL    HW1 6743   1.179   2.641   8.135
 2097SOL    HW2 6744   1.084   2.574   8.231
 2098SOL     OW 6745   1.769   2.468   7.676
 2098SOL    HW1 6746   1.746   2.460   7.583
 2098SOL    HW2 6747   1.735   2.388   7.716
 2099SOL     OW 6748   0.755   3.004   8.489
 2099SOL    HW1 6749   0.686   3.039   8.546
 2099SOL    HW2 6750   0.790   3.081   8.445
 2100SOL     OW 6751   0.867   2.634   9.269
 2100SOL    HW1 6752   0.853   2.705   9.332
 2100SOL    HW2 6753   0.890   2.679   9.187
 2101SOL     OW 6754   0.685   2.865   8.095
 2101SOL    HW1 6755   0.751   2.853   8.164
 2101SOL    HW2 6756   0.616   2.917   8.137
 2102SOL     OW 6757   0.711   3.012   9.261
 2102SOL    HW1 6758   0.758   3.091   9.288
 2102SOL    HW2 6759   0.629   3.044   9.225
 2103SOL     OW 6760   0.335   3.283   8.517
 2103SOL    HW1 6761   0.254   3.263   8.471
 2103SOL    HW2 6762   0.385   3.337   8.456
 2104SOL     OW 6763   1.461   3.361   8.803
 2104SOL    HW1 6764   1.511   3.442   8.813
 2104SOL    HW2 6765   1.397   3.363   8.875
 2105SOL     OW 6766   0.445   2.267   8.939
 2105SOL    HW1 6767   0.524   2.214   8.944
 2105SOL    HW2 6768   0.373   2.203   8.945
 2106SOL     OW 6769   1.610   2.308   8.190
 2106SOL    HW1 6770   1.536   2.330   8.134
 2106SOL    HW2 6771   1.628   2.388   8.239
 2107SOL     OW 6772   0.246   3.553   7.925
 2107SOL    HW1 6773   0.230   3.638   7.966
 2107SOL    HW2 6774   0.314   3.570   7.860
 2108SOL     OW 6775   1.136   3.204   9.141
 2108SOL    HW1 6776   1.177   3.199   9.227
 2108SOL    HW2 6777   1.084   3.124   9.134
 2109SOL     OW 6778   0.250   3.288   7.975
 2109SOL    HW1 6779   0.240   3.383   7.978
 2109SOL    HW2 6780   0.187   3.256   8.040
 2110SOL     OW 6781   0.249   2.944   8.333
 2110SOL    HW1 6782   0.264   2.854   8.360
 2110SOL    HW2 6783   0.188   2.979   8.398
 2111SOL     OW 6784   0.613   3.653   8.879
 2111SOL    HW1 6785   0.530   3.635   8.923
 2111SOL    HW2 6786   0.634   3.743   8.903
 2112SOL     OW 6787   0.578   2.849   7.587
 2112SOL    HW1 6788   0.627   2.891   7.516
 2112SOL    HW2 6789   0.623   2.878   7.666
 2113SOL     OW 6790   1.590   1.985   8.915
 2113SOL    HW1 6791   1.609   2.063   8.863
 2113SOL    HW2 6792   1.580   2.016   9.004
 2114SOL     OW 6793   0.136   2.508   8.021
 2114SOL    HW1 6794   0.089   2.427   8.040
 2114SOL    HW2 6795   0.106   2.570   8.089
 2115SOL     OW 6796   1.842   3.621   7.782
 2115SOL    HW1 6797   1.906   3.592   7.848
 2115SOL    HW2 6798   1.866   3.712   7.763
 2116SOL     OW 6799   0.032   3.464   7.590
 2116SOL    HW1 6800   0.021   3.369   7.586
 2116SOL    HW2 6801   0.023   3.486   7.682
 2117SOL     OW 6802   1.692   2.782   8.090
 2117SOL    HW1 6803   1.772   2.735   8.065
 2117SOL    HW2 6804   1.667   2.831   8.011
 2118SOL     OW 6805   1.645   2.968   7.877
 2118SOL    HW1 6806   1.731   2.973   7.835
 2118SOL    HW2 6807   1.651   3.030   7.950
 2119SOL     OW 6808   0.112   2.626   9.031
 2119SOL    HW1 6809   0.203   2.623   9.000
 2119SOL    HW2 6810   0.096   2.718   9.050
 2120SOL     OW 6811   0.614   3.248   8.184
 2120SOL    HW1 6812   0.567   3.165   8.194
 2120SOL    HW2 6813   0.598   3.274   8.094
 2121SOL     OW 6814   1.289   3.101   8.871
 2121SOL    HW1 6815   1.321   3.033   8.811
 2121SOL    HW2 6816   1.346   3.094   8.947
 2122SOL     OW 6817   0.817   1.862   7.956
 2122SOL    HW1 6818   0.856   1.947   7.937
 2122SOL    HW2 6819   0.723   1.881   7.966
 2123SOL     OW 6820   0.179   2.802   8.727
 2123SOL    HW1 6821   0.271   2.784   8.707
 2123SOL    HW2 6822   0.133   2.789   8.644
 2124SOL     OW 6823   1.532   2.856   7.646
 2124SOL    HW1 6824   1.462   2.798   7.678
 2124SOL    HW2 6825   1.572   2.890   7.726
 2125SOL     OW 6826   1.186   3.669   9.070
 2125SOL    HW1 6827   1.196   3.727   8.995
 2125SOL    HW2 6828   1.202   3.581   9.035
 2126SOL     OW 6829   0.331   2.118   9.247
 2126SOL    HW1 6830   0.380   2.192   9.284
 2126SOL    HW2 6831   0.244   2.125   9.285
 2127SOL     OW 6832   1.467   3.281   8.400
 2127SOL    HW1 6833   1.399   3.297   8.465
 2127SOL    HW2 6834   1.454   3.190   8.372
 2128SOL     OW 6835   1.659   3.602   8.026
 2128SOL    HW1 6836   1.638   3.572   7.937
 2128SOL    HW2 6837   1.633   3.528   8.082
 2129SOL     OW 6838   0.598   2.582   7.715
 2129SOL    HW1 6839   0.600   2.664   7.664
 2129SOL    HW2 6840   0.532   2.598   7.783
 2130SOL     OW 6841   1.279   2.216   8.381
 2130SOL    HW1 6842   1.189   2.182   8.389
 2130SOL    HW2 6843   1.331   2.162   8.441
 2131SOL     OW 6844   1.580   3.533   7.757
 2131SOL    HW1 6845   1.671   3.564   7.750
 2131SOL    HW2 6846   1.553   3.516   7.667
 2132SOL     OW 6847   0.793   2.478   8.899
 2132SOL    HW1 6848   0.767   2.454   8.988
 2132SOL    HW2 6849   0.751   2.413   8.843
 2133SOL     OW 6850   1.393   2.336   9.126
 2133SOL    HW1 6851   1.396   2.380   9.211
 2133SOL    HW2 6852   1.455   2.264   9.133
 2134SOL     OW 6853   0.955   2.749   9.031
 2134SOL    HW1 6854   1.009   2.679   8.995
 2134SOL    HW2 6855   0.907   2.784   8.955
 2135SOL     OW 6856   0.993   2.276   8.686
 2135SOL    HW1 6857   0.907   2.296   8.724
 2135SOL    HW2 6858   0.973   2.229   8.605
 2136SOL     OW 6859   1.051   2.561   7.874
 2136SOL    HW1 6860   1.067   2.553   7.968
 2136SOL    HW2 6861   0.969   2.514   7.860
 2137SOL     OW 6862   0.096   2.690   8.233
 2137SOL    HW1 6863   0.183   2.674   8.270
 2137SOL    HW2 6864   0.042   2.714   8.308
 2138SOL     OW 6865   0.124   3.716   9.024
 2138SOL    HW1 6866   0.117   3.694   9.117
 2138SOL    HW2 6867   0.044   3.681   8.985
 2139SOL     OW 6868   0.893   2.210   7.642
 2139SOL    HW1 6869   0.934   2.272   7.581
 2139SOL    HW2 6870   0.909   2.125   7.603
 2140SOL     OW 6871   1.713   2.445   9.278
 2140SOL    HW1 6872   1.673   2.517   9.229
 2140SOL    HW2 6873   1.727   2.377   9.212
 2141SOL     OW 6874   1.377   3.004   7.990
 2141SOL    HW1 6875   1.456   2.991   7.936
 2141SOL    HW2 6876   1.324   3.066   7.939
 2142SOL     OW 6877   0.552   2.044   8.341
 2142SOL    HW1 6878   0.554   2.074   8.432
 2142SOL    HW2 6879   0.553   2.124   8.289
 2143SOL     OW 6880   1.006   3.306   7.920
 2143SOL    HW1 6881   0.969   3.380   7.871
 2143SOL    HW2 6882   0.986   3.327   8.012
 2144SOL     OW 6883   0.356   3.673   8.306
 2144SOL    HW1 6884   0.398   3.587   8.317
 2144SOL    HW2 6885   0.426   3.736   8.323
 2145SOL     OW 6886   1.800   2.919   8.315
 2145SOL    HW1 6887   1.746   2.898   8.239
 2145SOL    HW2 6888   1.738   2.925   8.388
 2146SOL     OW 6889   1.228   3.401   8.961
 2146SOL    HW1 6890   1.214   3.328   9.022
 2146SOL    HW2 6891   1.164   3.386   8.891
 2147SOL     OW 6892   0.315   2.816   7.702
 2147SOL    HW1 6893   0.399   2.839   7.662
 2147SOL    HW2 6894   0.300   2.725   7.676
 2148SOL     OW 6895   1.479   2.605   8.175
 2148SOL    HW1 6896   1.469   2.561   8.259
 2148SOL    HW2 6897   1.557   2.660   8.185
 2149SOL     OW 6898   0.468   3.125   9.183
 2149SOL    HW1 6899   0.441   3.131   9.092
 2149SOL    HW2 6900   0.386   3.128   9.233
 2150SOL     OW 6901   1.122   3.640   7.679
 2150SOL    HW1 6902   1.049   3.598   7.724
 2150SOL    HW2 6903   1.145   3.578   7.609
 2151SOL     OW 6904   0.196   2.139   8.933
 2151SOL    HW1 6905   0.138   2.214   8.940
 2151SOL    HW2 6906   0.183   2.091   9.015
 2152SOL     OW 6907   1.629   3.243   7.536
 2152SOL    HW1 6908   1.587   3.327   7.521
 2152SOL    HW2 6909   1.561   3.178   7.517
 2153SOL     OW 6910   0.469   3.606   7.761
 2153SOL    HW1 6911   0.512   3.659   7.829
 2153SOL    HW2 6912   0.541   3.570   7.710
 2154SOL     OW 6913   1.401   1.969   7.881
 2154SOL    HW1 6914   1.391   1.945   7.789
 2154SOL    HW2 6915   1.495   1.978   7.894
 2155SOL     OW 6916   0.261   3.655   8.678
 2155SOL    HW1 6917   0.305   3.580   8.716
 2155SOL    HW2 6918   0.224   3.623   8.596
 2156SOL     OW 6919   0.938   3.561   8.346
 2156SOL    HW1 6920   1.015   3.508   8.369
 2156SOL    HW2 6921   0.894   3.511   8.277
 2157SOL     OW 6922   0.395   2.557   7.920
 2157SOL    HW1 6923   0.418   2.464   7.932
 2157SOL    HW2 6924   0.303   2.562   7.946
 2158SOL     OW 6925   1.533   2.084   9.174
 2158SOL    HW1 6926   1.540   2.105   9.267
 2158SOL    HW2 6927   1.465   2.017   9.170
 2159SOL     OW 6928   0.635   1.986   7.551
 2159SOL    HW1 6929   0.703   1.920   7.567
 2159SOL    HW2 6930   0.587   1.953   7.476
 2160SOL     OW 6931   0.766   2.140   9.202
 2160SOL    HW1 6932   0.843   2.082   9.202
 2160SOL    HW2 6933   0.719   2.116   9.282
 2161SOL     OW 6934   0.877   3.385   8.641
 2161SOL    HW1 6935   0.860   3.348   8.555
 2161SOL    HW2 6936   0.946   3.330   8.678
 2162SOL     OW 6937   1.339   2.451   8.880
 2162SOL    HW1 6938   1.371   2.418   8.965
 2162SOL    HW2 6939   1.377   2.539   8.873
 2163SOL     OW 6940   0.816   3.257   8.388
 2163SOL    HW1 6941   0.900   3.245   8.344
 2163SOL    HW2 6942   0.751   3.258   8.318
 2164SOL     OW 6943   0.927   2.371   8.351
 2164SOL    HW1 6944   0.904   2.363   8.259
 2164SOL    HW2 6945   0.959   2.284   8.376
 2165SOL     OW 6946   0.553   1.924   7.949
 2165SOL    HW1 6947   0.472   1.922   8.000
 2165SOL    HW2 6948   0.545   2.002   7.894
 2166SOL     OW 6949   1.429   3.061   7.489
 2166SOL    HW1 6950   1.459   2.985   7.539
 2166SOL    HW2 6951   1.343   3.081   7.526
 2167SOL     OW 6952   0.295   1.908   7.626
 2167SOL    HW1 6953   0.358   1.975   7.599
 2167SOL    HW2 6954   0.348   1.842   7.671
 2168SOL     OW 6955   0.939   2.109   7.908
 2168SOL    HW1 6956   0.912   2.150   7.826
 2168SOL    HW2 6957   1.033   2.123   7.912
 2169SOL     OW 6958   1.080   2.543   8.907
 2169SOL    HW1 6959   1.012   2.476   8.912
 2169SOL    HW2 6960   1.162   2.494   8.901
 2170SOL     OW 6961   1.224   3.432   8.242
 2170SOL    HW1 6962   1.240   3.499   8.175
 2170SOL    HW2 6963   1.292   3.446   8.307
 2171SOL     OW 6964   0.467   3.012   8.183
 2171SOL    HW1 6965   0.396   2.993   8.245
 2171SOL    HW2 6966   0.427   2.996   8.097
 2172SOL     OW 6967   1.269   3.656   8.057
 2172SOL    HW1 6968   1.315   3.717   7.999
 2172SOL    HW2 6969   1.202   3.709   8.100
 2173SOL     OW 6970   1.023   2.403   7.471
 2173SOL    HW1 6971   0.980   2.487   7.451
 2173SOL    HW2 6972   1.089   2.425   7.537
 2174SOL     OW 6973   0.083   2.389   8.858
 2174SOL    HW1 6974   0.147   2.385   8.787
 2174SOL    HW2 6975   0.068   2.482   8.872
 2175SOL     OW 6976   0.560   2.090   8.614
 2175SOL    HW1 6977   0.603   2.012   8.649
 2175SOL    HW2 6978   0.469   2.080   8.641
 2176SOL     OW 6979   0.868   2.321   8.088
 2176SOL    HW1 6980   0.822   2.375   8.024
 2176SOL    HW2 6981   0.889   2.241   8.041
 2177SOL     OW 6982   1.015   1.916   8.200
 2177SOL    HW1 6983   0.957   1.908   8.124
 2177SOL    HW2 6984   0.993   1.840   8.254
 2178SOL     OW 6985   1.437   3.025   8.305
 2178SOL    HW1 6986   1.368   2.959   8.305
 2178SOL    HW2 6987   1.460   3.035   8.212
 2179SOL     OW 6988   1.465   2.468   8.425
 2179SOL    HW1 6989   1.415   2.386   8.427
 2179SOL    HW2 6990   1.524   2.461   8.500
 2180SOL     OW 6991   1.846   2.677   7.833
 2180SOL    HW1 6992   1.902   2.624   7.890
 2180SOL    HW2 6993   1.818   2.616   7.764
 2181SOL     OW 6994   0.491   3.280   7.607
 2181SOL    HW1 6995   0.414   3.251   7.655
 2181SOL    HW2 6996   0.476   3.251   7.517
 2182SOL     OW 6997   1.670   3.127   8.093
 2182SOL    HW1 6998   1.765   3.130   8.107
 2182SOL    HW2 6999   1.640   3.215   8.114
 2183SOL     OW 7000   1.394   2.434   7.519
 2183SOL    HW1 7001   1.333   2.414   7.591
 2183SOL    HW2 7002   1.479   2.403   7.550
 2184SOL     OW 7003   0.524   2.122   7.764
 2184SOL    HW1 7004   0.571   2.076   7.695
 2184SOL    HW2 7005   0.504   2.208   7.727
 2185SOL     OW 7006   1.752   3.102   9.020
 2185SOL    HW1 7007   1.839   3.062   9.017
 2185SOL    HW2 7008   1.767   3.191   9.049
 2186SOL     OW 7009   1.058   3.216   8.782
 2186SOL    HW1 7010   0.983   3.185   8.833
 2186SOL    HW2 7011   1.134   3.174   8.823
 2187SOL     OW 7012   1.608   3.488   9.102
 2187SOL    HW1 7013   1.602   3.522   9.013
 2187SOL    HW2 7014   1.691   3.440   9.104
 2188SOL     OW 7015   1.130   3.067   8.553
 2188SOL    HW1 7016   1.070   3.103   8.618
 2188SOL    HW2 7017   1.097   3.098   8.469
 2189SOL     OW 7018   1.629   2.961   8.525
 2189SOL    HW1 7019   1.624   3.022   8.598
 2189SOL    HW2 7020   1.549   2.977   8.474
 2190SOL     OW 7021   0.917   1.960   8.844
 2190SOL    HW1 7022   0.940   1.940   8.753
 2190SOL    HW2 7023   0.997   1.998   8.881
 2191SOL     OW 7024   0.984   2.977   9.171
 2191SOL    HW1 7025   0.892   2.992   9.193
 2191SOL    HW2 7026   0.983   2.899   9.115
 2192SOL     OW 7027   0.709   2.924   7.820
 2192SOL    HW1 7028   0.696   2.907   7.913
 2192SOL    HW2 7029   0.784   2.870   7.796
 2193SOL     OW 7030   0.431   2.689   8.690
 2193SOL    HW1 7031   0.501   2.701   8.755
 2193SOL    HW2 7032   0.373   2.623   8.729
 2194SOL     OW 7033   1.265   2.239   8.724
 2194SOL    HW1 7034   1.298   2.316   8.769
 2194SOL    HW2 7035   1.175   2.261   8.701
 2195SOL     OW 7036   0.063   3.438   8.790
 2195SOL    HW1 7037   0.035   3.528   8.772
 2195SOL    HW2 7038   0.158   3.443   8.797
 2196SOL     OW 7039   0.346   2.971   7.941
 2196SOL    HW1 7040   0.355   3.044   7.880
 2196SOL    HW2 7041   0.345   2.893   7.885
 2197SOL     OW 7042   0.560   2.395   8.303
 2197SOL    HW1 7043   0.574   2.455   8.230
 2197SOL    HW2 7044   0.622   2.424   8.370
 2198SOL     OW 7045   1.248   3.210   7.837
 2198SOL    HW1 7046   1.304   3.282   7.868
 2198SOL    HW2 7047   1.161   3.232   7.871
 2199SOL     OW 7048   1.281   3.320   8.594
 2199SOL    HW1 7049   1.336   3.322   8.673
 2199SOL    HW2 7050   1.226   3.243   8.606
 2200SOL     OW 7051   1.580   2.484   7.926
 2200SOL    HW1 7052   1.533   2.538   7.990
 2200SOL    HW2 7053   1.628   2.547   7.872
 2201SOL     OW 7054   0.346   3.395   8.762
 2201SOL    HW1 7055   0.333   3.347   8.680
 2201SOL    HW2 7056   0.441   3.404   8.769
 2202SOL     OW 7057   0.480   2.619   9.115
 2202SOL    HW1 7058   0.510   2.657   9.033
 2202SOL    HW2 7059   0.529   2.536   9.122
 2203SOL     OW 7060   1.601   2.643   9.131
 2203SOL    HW1 7061   1.515   2.684   9.123
 2203SOL    HW2 7062   1.653   2.684   9.062
 2204SOL     OW 7063   0.996   1.986   9.202
 2204SOL    HW1 7064   1.053   2.058   9.175
 2204SOL    HW2 7065   1.044   1.907   9.177
 2205SOL     OW 7066   0.497   1.904   9.195
 2205SOL    HW1 7067   0.456   1.848   9.130
 2205SOL    HW2 7068   0.438   1.979   9.203
 2206SOL     OW 7069   0.590   2.736   8.472
 2206SOL    HW1 7070   0.619   2.827   8.474
 2206SOL    HW2 7071   0.534   2.727   8.549
 2207SOL     OW 7072   1.357   2.721   8.477
 2207SOL    HW1 7073   1.274   2.711   8.431
 2207SOL    HW2 7074   1.398   2.634   8.472
 2208SOL     OW 7075   1.204   2.390   7.714
 2208SOL    HW1 7076   1.213   2.312   7.769
 2208SOL    HW2 7077   1.161   2.455   7.771
 2209SOL     OW 7078   0.302   2.052   8.690
 2209SOL    HW1 7079   0.262   2.086   8.770
 2209SOL    HW2 7080   0.285   1.958   8.693
 2210SOL     OW 7081   0.037   3.175   8.734
 2210SOL    HW1 7082   0.074   3.127   8.808
 2210SOL    HW2 7083   0.043   3.267   8.758
 2211SOL     OW 7084   0.725   2.493   8.506
 2211SOL    HW1 7085   0.800   2.475   8.449
 2211SOL    HW2 7086   0.698   2.582   8.483
 2212SOL     OW 7087   1.734   2.823   9.300
 2212SOL    HW1 7088   1.689   2.760   9.244
 2212SOL    HW2 7089   1.675   2.836   9.374
 2213SOL     OW 7090   0.311   1.932   8.067
 2213SOL    HW1 7091   0.287   2.020   8.093
 2213SOL    HW2 7092   0.309   1.881   8.148
 2214SOL     OW 7093   1.615   2.235   7.815
 2214SOL    HW1 7094   1.645   2.173   7.881
 2214SOL    HW2 7095   1.594   2.314   7.865
 2215SOL     OW 7096   1.028   2.621   8.408
 2215SOL    HW1 7097   1.024   2.638   8.502
 2215SOL    HW2 7098   1.001   2.529   8.400
 2216SOL     OW 7099   0.983   3.429   9.165
 2216SOL    HW1 7100   0.967   3.472   9.081
 2216SOL    HW2 7101   1.025   3.346   9.142
 2217SOL     OW 7102   1.855   3.368   9.054
 2217SOL    HW1 7103   1.873   3.394   8.963
 2217SOL    HW2 7104   1.936   3.386   9.101
 2218SOL     OW 7105   0.347   2.796   9.266
 2218SOL    HW1 7106   0.420   2.825   9.321
 2218SOL    HW2 7107   0.385   2.728   9.210
 2219SOL     OW 7108   1.529   2.135   7.575
 2219SOL    HW1 7109   1.464   2.070   7.602
 2219SOL    HW2 7110   1.562   2.171   7.657
 2220SOL     OW 7111   1.291   2.688   7.479
 2220SOL    HW1 7112   1.334   2.603   7.483
 2220SOL    HW2 7113   1.323   2.727   7.397
 2221SOL     OW 7114   1.066   3.198   8.302
 2221SOL    HW1 7115   1.069   3.125   8.239
 2221SOL    HW2 7116   1.127   3.262   8.267
 2222SOL     OW 7117   0.318   2.673   8.395
 2222SOL    HW1 7118   0.412   2.690   8.392
 2222SOL    HW2 7119   0.311   2.582   8.423
 2223SOL     OW 7120   0.330   2.387   8.437
 2223SOL    HW1 7121   0.292   2.301   8.422
 2223SOL    HW2 7122   0.409   2.389   8.383
 2224SOL     OW 7123   1.134   2.238   9.130
 2224SOL    HW1 7124   1.087   2.293   9.193
 2224SOL    HW2 7125   1.222   2.276   9.126
 2225SOL     OW 7126   1.159   2.065   8.918
 2225SOL    HW1 7127   1.150   2.128   8.989
 2225SOL    HW2 7128   1.201   2.114   8.848
 2226SOL     OW 7129   4.491   3.184   7.654
 2226SOL    HW1 7130   4.399   3.200   7.636
 2226SOL    HW2 7131   4.496   3.090   7.675
 2227SOL     OW 7132   0.098   3.638   8.388
 2227SOL    HW1 7133   0.059   3.586   8.318
 2227SOL    HW2 7134   0.186   3.659   8.357
 2228SOL     OW 7135   0.496   3.436   8.355
 2228SOL    HW1 7136   0.564   3.498   8.379
 2228SOL    HW2 7137   0.540   3.373   8.298
 2229SOL     OW 7138   0.983   2.654   8.674
 2229SOL    HW1 7139   1.039   2.631   8.748
 2229SOL    HW2 7140   0.897   2.617   8.696
 2230SOL     OW 7141   0.033   2.424   8.550
 2230SOL    HW1 7142   0.118   2.393   8.521
 2230SOL    HW2 7143   0.018   2.379   8.633
 2231SOL     OW 7144   0.179   2.382   9.163
 2231SOL    HW1 7145   0.260   2.352   9.121
 2231SOL    HW2 7146   0.157   2.463   9.117
 2232SOL     OW 7147   1.376   2.801   9.106
 2232SOL    HW1 7148   1.397   2.894   9.104
 2232SOL    HW2 7149   1.374   2.775   9.014
 2233SOL     OW 7150   0.817   2.431   7.808
 2233SOL    HW1 7151   0.821   2.357   7.748
 2233SOL    HW2 7152   0.743   2.484   7.777
 2234SOL     OW 7153   1.641   2.465   8.635
 2234SOL    HW1 7154   1.634   2.403   8.707
 2234SOL    HW2 7155   1.730   2.451   8.600
 2235SOL     OW 7156   0.274   3.423   9.189
 2235SOL    HW1 7157   0.216   3.476   9.244
 2235SOL    HW2 7158   0.254   3.333   9.212
 2236SOL     OW 7159   0.693   2.316   8.709
 2236SOL    HW1 7160   0.646   2.239   8.676
 2236SOL    HW2 7161   0.693   2.377   8.636
 2237SOL     OW 7162   0.928   3.541   8.915
 2237SOL    HW1 7163   0.902   3.506   8.831
 2237SOL    HW2 7164   0.922   3.636   8.905
 2238SOL     OW 7165   0.472   2.352   7.632
 2238SOL    HW1 7166   0.532   2.422   7.656
 2238SOL    HW2 7167   0.388   2.396   7.617
 2239SOL     OW 7168   0.162   3.003   8.908
 2239SOL    HW1 7169   0.145   2.958   8.991
 2239SOL    HW2 7170   0.169   2.932   8.844
 2240SOL     OW 7171   1.326   2.909   8.671
 2240SOL    HW1 7172   1.349   2.845   8.603
 2240SOL    HW2 7173   1.256   2.962   8.632
 2241SOL     OW 7174   1.311   2.720   7.754
 2241SOL    HW1 7175   1.236   2.688   7.805
 2241SOL    HW2 7176   1.287   2.705   7.663
 2242SOL     OW 7177   1.772   3.605   8.599
 2242SOL    HW1 7178   1.832   3.632   8.529
 2242SOL    HW2 7179   1.748   3.515   8.577
 2243SOL     OW 7180   1.241   3.595   8.561
 2243SOL    HW1 7181   1.323   3.616   8.516
 2243SOL    HW2 7182   1.247   3.502   8.579
 2244SOL     OW 7183   0.067   3.047   8.498
 2244SOL    HW1 7184   0.064   3.078   8.588
 2244SOL    HW2 7185   0.025   3.116   8.447
 2245SOL     OW 7186   0.679   3.528   9.179
 2245SOL    HW1 7187   0.622   3.605   9.172
 2245SOL    HW2 7188   0.742   3.540   9.108
 2246SOL     OW 7189   1.718   2.007   7.957
 2246SOL    HW1 7190   1.791   1.993   7.897
 2246SOL    HW2 7191   1.702   1.922   7.997
 2247SOL     OW 7192   1.391   3.430   7.933
 2247SOL    HW1 7193   1.451   3.462   7.866
 2247SOL    HW2 7194   1.342   3.507   7.961
 2248SOL     OW 7195   0.119   3.669   9.295
 2248SOL    HW1 7196   0.078   3.597   9.343
 2248SOL    HW2 7197   0.182   3.706   9.357
 2249SOL     OW 7198   1.277   2.788   8.119
 2249SOL    HW1 7199   1.351   2.727   8.126
 2249SOL    HW2 7200   1.311   2.860   8.067
 2250SOL     OW 7201   0.813   3.136   8.877
 2250SOL    HW1 7202   0.786   3.175   8.960
 2250SOL    HW2 7203   0.743   3.157   8.816
 2251SOL     OW 7204   0.672   3.482   7.603
 2251SOL    HW1 7205   0.682   3.494   7.509
 2251SOL    HW2 7206   0.617   3.404   7.612
 2252SOL     OW 7207   1.626   3.589   8.839
 2252SOL    HW1 7208   1.676   3.595   8.758
 2252SOL    HW2 7209   1.613   3.679   8.867
 2253SOL     OW 7210   1.848   2.045   8.414
 2253SOL    HW1 7211   1.881   1.958   8.390
 2253SOL    HW2 7212   1.762   2.049   8.373
 2254SOL     OW 7213   0.264   2.181   8.166
 2254SOL    HW1 7214   0.181   2.220   8.139
 2254SOL    HW2 7215   0.255   2.169   8.261
 2255SOL     OW 7216   1.207   3.468   7.480
 2255SOL    HW1 7217   1.198   3.376   7.507
 2255SOL    HW2 7218   1.142   3.479   7.411
 2256SOL     OW 7219   0.826   2.869   8.820
 2256SOL    HW1 7220   0.869   2.865   8.735
 2256SOL    HW2 7221   0.824   2.962   8.842
 2257SOL     OW 7222   0.916   2.773   7.738
 2257SOL    HW1 7223   0.977   2.805   7.671
 2257SOL    HW2 7224   0.964   2.703   7.783
 2258SOL     OW 7225   1.491   3.488   7.491
 2258SOL    HW1 7226   1.397   3.481   7.477
 2258SOL    HW2 7227   1.528   3.494   7.403
 2259SOL     OW 7228   0.373   3.170   8.938
 2259SOL    HW1 7229   0.355   3.248   8.887
 2259SOL    HW2 7230   0.298   3.113   8.922
 2260SOL     OW 7231   1.612   3.146   8.729
 2260SOL    HW1 7232   1.669   3.133   8.805
 2260SOL    HW2 7233   1.551   3.214   8.756
 2261SOL     OW 7234   1.053   2.969   8.155
 2261SOL    HW1 7235   0.982   2.919   8.194
 2261SOL    HW2 7236   1.115   2.904   8.124
 2262SOL     OW 7237   1.021   2.102   8.414
 2262SOL    HW1 7238   1.017   2.055   8.332
 2262SOL    HW2 7239   1.016   2.034   8.482
 2263SOL     OW 7240   0.605   3.352   7.930
 2263SOL    HW1 7241   0.647   3.302   7.860
 2263SOL    HW2 7242   0.529   3.392   7.888
 2264SOL     OW 7243   1.718   2.260   8.824
 2264SOL    HW1 7244   1.796   2.315   8.831
 2264SOL    HW2 7245   1.747   2.184   8.772
 2265SOL     OW 7246   0.252   3.206   7.724
 2265SOL    HW1 7247   0.157   3.204   7.710
 2265SOL    HW2 7248   0.263   3.238   7.814
 2266SOL     OW 7249   0.116   2.869   9.142
 2266SOL    HW1 7250   0.052   2.912   9.199
 2266SOL    HW2 7251   0.194   2.859   9.196
 2267SOL     OW 7252   0.674   2.061   8.947
 2267SOL    HW1 7253   0.758   2.039   8.906
 2267SOL    HW2 7254   0.698   2.089   9.035
 2268SOL     OW 7255   0.072   2.187   7.480
 2268SOL    HW1 7256   4.477   2.200   7.488
 2268SOL    HW2 7257   0.104   2.269   7.441
 2269SOL     OW 7258   1.430   2.721   8.849
 2269SOL    HW1 7259   1.381   2.781   8.792
 2269SOL    HW2 7260   1.519   2.722   8.814
 2270SOL     OW 7261   0.086   2.038   7.752
 2270SOL    HW1 7262   0.080   2.111   7.690
 2270SOL    HW2 7263   0.162   1.987   7.722
 2271SOL     OW 7264   1.179   3.202   7.565
 2271SOL    HW1 7265   1.088   3.171   7.567
 2271SOL    HW2 7266   1.206   3.201   7.656
 2272SOL     OW 7267   0.624   2.693   8.879
 2272SOL    HW1 7268   0.680   2.769   8.866
 2272SOL    HW2 7269   0.685   2.619   8.886
 2273SOL     OW 7270   1.483   3.639   8.427
 2273SOL    HW1 7271   1.507   3.699   8.356
 2273SOL    HW2 7272   1.567   3.620   8.470
 2274SOL     OW 7273   0.713   2.425   9.152
 2274SOL    HW1 7274   0.756   2.488   9.210
 2274SOL    HW2 7275   0.743   2.340   9.183
 2275SOL     OW 7276   1.471   3.062   9.080
 2275SOL    HW1 7277   1.459   3.075   9.174
 2275SOL    HW2 7278   1.565   3.077   9.066
 2276SOL     OW 7279   0.380   3.605   9.013
 2276SOL    HW1 7280   0.295   3.646   8.995
 2276SOL    HW2 7281   0.359   3.526   9.061
 2277SOL     OW 7282   1.670   2.744   8.703
 2277SOL    HW1 7283   1.662   2.658   8.661
 2277SOL    HW2 7284   1.659   2.806   8.631
 2278SOL     OW 7285   1.217   2.181   7.906
 2278SOL    HW1 7286   1.280   2.110   7.897
 2278SOL    HW2 7287   1.246   2.230   7.983
 2279SOL     OW 7288   0.590   2.600   8.117
 2279SOL    HW1 7289   0.628   2.686   8.102
 2279SOL    HW2 7290   0.522   2.591   8.050
 2280SOL     OW 7291   1.745   2.240   9.108
 2280SOL    HW1 7292   1.758   2.234   9.013
 2280SOL    HW2 7293   1.677   2.175   9.127
 2281SOL     OW 7294   1.746   2.795   8.959
 2281SOL    HW1 7295   1.741   2.890   8.973
 2281SOL    HW2 7296   1.730   2.783   8.866
 2282SOL     OW 7297   0.863   3.229   7.483
 2282SOL    HW1 7298   0.824   3.256   7.566
 2282SOL    HW2 7299   0.880   3.311   7.436
 2283SOL     OW 7300   0.661   3.653   8.393
 2283SOL    HW1 7301   0.641   3.743   8.369
 2283SOL    HW2 7302   0.756   3.647   8.384
 2284SOL     OW 7303   0.868   2.830   8.303
 2284SOL    HW1 7304   0.917   2.757   8.342
 2284SOL    HW2 7305   0.832   2.878   8.377
 2285SOL     OW 7306   1.079   2.851   7.537
 2285SOL    HW1 7307   1.057   2.901   7.458
 2285SOL    HW2 7308   1.154   2.797   7.511
 2286SOL     OW 7309   1.853   3.416   8.292
 2286SOL    HW1 7310   1.775   3.405   8.238
 2286SOL    HW2 7311   1.844   3.350   8.361
 2287SOL     OW 7312   0.231   3.167   9.306
 2287SOL    HW1 7313   0.156   3.112   9.285
 2287SOL    HW2 7314   0.226   3.178   9.401
 2288SOL     OW 7315   0.108   3.096   8.116
 2288SOL    HW1 7316   0.122   3.051   8.200
 2288SOL    HW2 7317   0.167   3.052   8.055
 2289SOL     OW 7318   0.683   3.265   9.077
 2289SOL    HW1 7319   0.603   3.221   9.105
 2289SOL    HW2 7320   0.676   3.353   9.114
 2290SOL     OW 7321   1.805   2.055   8.679
 2290SOL    HW1 7322   1.843   1.972   8.709
 2290SOL    HW2 7323   1.819   2.055   8.585
 2291SOL     OW 7324   0.435   2.295   7.973
 2291SOL    HW1 7325   0.460   2.222   7.918
 2291SOL    HW2 7326   0.384   2.256   8.044
 2292SOL     OW 7327   1.700   3.351   8.544
 2292SOL    HW1 7328   1.619   3.329   8.497
 2292SOL    HW2 7329   1.710   3.282   8.609
 2293SOL     OW 7330   0.299   2.349   8.700
 2293SOL    HW1 7331   0.374   2.308   8.744
 2293SOL    HW2 7332   0.330   2.366   8.611
 2294SOL     OW 7333   0.828   3.440   8.125
 2294SOL    HW1 7334   0.814   3.493   8.047
 2294SOL    HW2 7335   0.751   3.382   8.129
 2295SOL     OW 7336   1.432   2.087   8.565
 2295SOL    HW1 7337   1.465   2.011   8.613
 2295SOL    HW2 7338   1.380   2.135   8.629
 2296SOL     OW 7339   1.008   1.880   8.590
 2296SOL    HW1 7340   0.955   1.812   8.549
 2296SOL    HW2 7341   1.097   1.843   8.592
 2297SOL     OW 7342   0.772   3.195   7.762
 2297SOL    HW1 7343   0.741   3.104   7.769
 2297SOL    HW2 7344   0.854   3.195   7.812
 2298SOL     OW 7345   0.621   3.418   8.733
 2298SOL    HW1 7346   0.623   3.500   8.783
 2298SOL    HW2 7347   0.708   3.411   8.695
 2299SOL     OW 7348   1.352   1.915   7.614
 2299SOL    HW1 7349   1.380   1.852   7.548
 2299SOL    HW2 7350   1.265   1.886   7.640
 2300SOL     OW 7351   1.296   2.323   8.129
 2300SOL    HW1 7352   1.242   2.402   8.136
 2300SOL    HW2 7353   1.292   2.284   8.216
 2301SOL     OW 7354   1.589   2.062   8.327
 2301SOL    HW1 7355   1.529   2.082   8.398
 2301SOL    HW2 7356   1.587   2.140   8.272
 2302SOL     OW 7357   0.041   2.913   7.737
 2302SOL    HW1 7358   0.134   2.895   7.726
 2302SOL    HW2 7359   0.021   2.882   7.825
 2303SOL     OW 7360   0.885   3.516   7.790
 2303SOL    HW1 7361   0.813   3.498   7.730
 2303SOL    HW2 7362   0.856   3.590   7.842
 2304SOL     OW 7363   0.247   2.491   9.430
 2304SOL    HW1 7364   0.173   2.469   9.487
 2304SOL    HW2 7365   0.216   2.473   9.342
 2305SOL     OW 7366   0.214   2.137  10.301
 2305SOL    HW1 7367   0.249   2.111  10.386
 2305SOL    HW2 7368   0.137   2.081  10.289
 2306SOL     OW 7369   0.008   2.254   9.950
 2306SOL    HW1 7370   4.427   2.286   9.990
 2306SOL    HW2 7371   4.482   2.174   9.904
 2307SOL     OW 7372   0.568   3.150  10.487
 2307SOL    HW1 7373   0.481   3.154  10.447
 2307SOL    HW2 7374   0.583   3.238  10.521
 2308SOL     OW 7375   1.562   3.374  10.017
 2308SOL    HW1 7376   1.519   3.354  10.100
 2308SOL    HW2 7377   1.490   3.378   9.954
 2309SOL     OW 7378   1.130   2.560  10.011
 2309SOL    HW1 7379   1.179   2.641   9.997
 2309SOL    HW2 7380   1.084   2.574  10.093
 2310SOL     OW 7381   1.770   2.467   9.539
 2310SOL    HW1 7382   1.747   2.461   9.446
 2310SOL    HW2 7383   1.734   2.387   9.578
 2311SOL     OW 7384   0.756   3.005  10.352
 2311SOL    HW1 7385   0.686   3.039  10.408
 2311SOL    HW2 7386   0.790   3.081  10.306
 2312SOL     OW 7387   0.852   2.640   0.021
 2312SOL    HW1 7388   0.862   2.695   0.099
 2312SOL    HW2 7389   0.887   2.694  11.050
 2313SOL     OW 7390   0.685   2.865   9.957
 2313SOL    HW1 7391   0.750   2.853  10.026
 2313SOL    HW2 7392   0.616   2.916   9.998
 2314SOL     OW 7393   0.336   3.282  10.378
 2314SOL    HW1 7394   0.254   3.263  10.333
 2314SOL    HW2 7395   0.385   3.336  10.317
 2315SOL     OW 7396   1.464   3.361  10.660
 2315SOL    HW1 7397   1.520   3.438  10.669
 2315SOL    HW2 7398   1.406   3.365  10.737
 2316SOL     OW 7399   0.450   2.264  10.786
 2316SOL    HW1 7400   0.527   2.209  10.797
 2316SOL    HW2 7401   0.377   2.207  10.812
 2317SOL     OW 7402   1.609   2.308  10.053
 2317SOL    HW1 7403   1.535   2.331   9.996
 2317SOL    HW2 7404   1.628   2.389  10.101
 2318SOL     OW 7405   0.246   3.553   9.787
 2318SOL    HW1 7406   0.230   3.638   9.828
 2318SOL    HW2 7407   0.314   3.570   9.722
 2319SOL     OW 7408   0.250   3.288   9.837
 2319SOL    HW1 7409   0.241   3.383   9.840
 2319SOL    HW2 7410   0.187   3.256   9.902
 2320SOL     OW 7411   0.249   2.944  10.195
 2320SOL    HW1 7412   0.264   2.854  10.222
 2320SOL    HW2 7413   0.188   2.979  10.260
 2321SOL     OW 7414   0.611   3.652  10.739
 2321SOL    HW1 7415   0.531   3.632  10.787
 2321SOL    HW2 7416   0.633   3.742  10.763
 2322SOL     OW 7417   0.578   2.849   9.449
 2322SOL    HW1 7418   0.627   2.891   9.378
 2322SOL    HW2 7419   0.623   2.878   9.528
 2323SOL     OW 7420   1.588   1.980  10.779
 2323SOL    HW1 7421   1.604   2.059  10.728
 2323SOL    HW2 7422   1.602   2.007  10.870
 2324SOL     OW 7423   0.136   2.508   9.883
 2324SOL    HW1 7424   0.089   2.427   9.902
 2324SOL    HW2 7425   0.106   2.570   9.951
 2325SOL     OW 7426   1.842   3.621   9.644
 2325SOL    HW1 7427   1.906   3.592   9.710
 2325SOL    HW2 7428   1.866   3.712   9.625
 2326SOL     OW 7429   0.032   3.464   9.452
 2326SOL    HW1 7430   0.021   3.369   9.448
 2326SOL    HW2 7431   0.023   3.486   9.544
 2327SOL     OW 7432   1.691   2.781   9.951
 2327SOL    HW1 7433   1.772   2.736   9.928
 2327SOL    HW2 7434   1.667   2.831   9.873
 2328SOL     OW 7435   1.645   2.968   9.739
 2328SOL    HW1 7436   1.731   2.973   9.698
 2328SOL    HW2 7437   1.650   3.030   9.812
 2329SOL     OW 7438   0.103   2.623  10.912
 2329SOL    HW1 7439   0.192   2.608  10.879
 2329SOL    HW2 7440   0.093   2.718  10.911
 2330SOL     OW 7441   0.614   3.248  10.046
 2330SOL    HW1 7442   0.567   3.165  10.056
 2330SOL    HW2 7443   0.598   3.274   9.956
 2331SOL     OW 7444   1.293   3.099  10.752
 2331SOL    HW1 7445   1.319   3.038  10.682
 2331SOL    HW2 7446   1.349   3.075  10.826
 2332SOL     OW 7447   0.817   1.862   9.819
 2332SOL    HW1 7448   0.856   1.947   9.800
 2332SOL    HW2 7449   0.723   1.881   9.828
 2333SOL     OW 7450   0.177   2.801  10.590
 2333SOL    HW1 7451   0.269   2.783  10.570
 2333SOL    HW2 7452   0.132   2.787  10.506
 2334SOL     OW 7453   1.532   2.856   9.508
 2334SOL    HW1 7454   1.462   2.798   9.539
 2334SOL    HW2 7455   1.572   2.890   9.588
 2335SOL     OW 7456   1.197   3.669  10.927
 2335SOL    HW1 7457   1.194   3.732  10.856
 2335SOL    HW2 7458   1.206   3.584  10.884
 2336SOL     OW 7459   0.340   2.126   0.006
 2336SOL    HW1 7460   0.387   2.200   0.046
 2336SOL    HW2 7461   0.248   2.147   0.017
 2337SOL     OW 7462   1.467   3.281  10.261
 2337SOL    HW1 7463   1.398   3.297  10.325
 2337SOL    HW2 7464   1.454   3.190  10.234
 2338SOL     OW 7465   1.659   3.602   9.888
 2338SOL    HW1 7466   1.638   3.572   9.799
 2338SOL    HW2 7467   1.634   3.528   9.944
 2339SOL     OW 7468   0.598   2.582   9.577
 2339SOL    HW1 7469   0.600   2.664   9.526
 2339SOL    HW2 7470   0.532   2.597   9.645
 2340SOL     OW 7471   1.279   2.216  10.243
 2340SOL    HW1 7472   1.190   2.182  10.251
 2340SOL    HW2 7473   1.330   2.162  10.303
 2341SOL     OW 7474   1.580   3.532   9.619
 2341SOL    HW1 7475   1.671   3.564   9.612
 2341SOL    HW2 7476   1.553   3.516   9.529
 2342SOL     OW 7477   0.795   2.477  10.761
 2342SOL    HW1 7478   0.767   2.453  10.850
 2342SOL    HW2 7479   0.753   2.412  10.704
 2343SOL     OW 7480   0.966   2.762  10.902
 2343SOL    HW1 7481   1.015   2.690  10.862
 2343SOL    HW2 7482   0.916   2.800  10.830
 2344SOL     OW 7483   0.992   2.275  10.549
 2344SOL    HW1 7484   0.906   2.296  10.584
 2344SOL    HW2 7485   0.974   2.229  10.467
 2345SOL     OW 7486   1.051   2.560   9.736
 2345SOL    HW1 7487   1.067   2.553   9.830
 2345SOL    HW2 7488   0.969   2.514   9.722
 2346SOL     OW 7489   0.096   2.691  10.095
 2346SOL    HW1 7490   0.182   2.674  10.132
 2346SOL    HW2 7491   0.041   2.713  10.170
 2347SOL     OW 7492   0.119   3.711  10.900
 2347SOL    HW1 7493   0.113   3.651  10.974
 2347SOL    HW2 7494   0.051   3.680  10.839
 2348SOL     OW 7495   0.893   2.210   9.504
 2348SOL    HW1 7496   0.934   2.272   9.443
 2348SOL    HW2 7497   0.909   2.125   9.465
 2349SOL     OW 7498   1.377   3.004   9.852
 2349SOL    HW1 7499   1.455   2.991   9.798
 2349SOL    HW2 7500   1.324   3.066   9.801
 2350SOL     OW 7501   0.552   2.043  10.204
 2350SOL    HW1 7502   0.554   2.074  10.294
 2350SOL    HW2 7503   0.552   2.123  10.151
 2351SOL     OW 7504   1.006   3.306   9.782
 2351SOL    HW1 7505   0.969   3.379   9.732
 2351SOL    HW2 7506   0.986   3.327   9.873
 2352SOL     OW 7507   0.356   3.673  10.169
 2352SOL    HW1 7508   0.398   3.587  10.179
 2352SOL    HW2 7509   0.425   3.736  10.185
 2353SOL     OW 7510   1.800   2.918  10.177
 2353SOL    HW1 7511   1.745   2.898  10.101
 2353SOL    HW2 7512   1.738   2.924  10.250
 2354SOL     OW 7513   1.229   3.399  10.823
 2354SOL    HW1 7514   1.236   3.311  10.860
 2354SOL    HW2 7515   1.165   3.391  10.753
 2355SOL     OW 7516   0.315   2.816   9.564
 2355SOL    HW1 7517   0.399   2.839   9.524
 2355SOL    HW2 7518   0.300   2.725   9.538
 2356SOL     OW 7519   1.478   2.605  10.037
 2356SOL    HW1 7520   1.469   2.561  10.122
 2356SOL    HW2 7521   1.557   2.660  10.046
 2357SOL     OW 7522   0.455   3.129  11.052
 2357SOL    HW1 7523   0.426   3.143  10.962
 2357SOL    HW2 7524   0.389   3.072  11.090
 2358SOL     OW 7525   1.122   3.640   9.541
 2358SOL    HW1 7526   1.048   3.598   9.586
 2358SOL    HW2 7527   1.145   3.578   9.471
 2359SOL     OW 7528   0.194   2.138  10.796
 2359SOL    HW1 7529   0.139   2.217  10.804
 2359SOL    HW2 7530   0.188   2.096  10.882
 2360SOL     OW 7531   1.629   3.243   9.397
 2360SOL    HW1 7532   1.587   3.327   9.383
 2360SOL    HW2 7533   1.560   3.178   9.379
 2361SOL     OW 7534   0.469   3.605   9.623
 2361SOL    HW1 7535   0.512   3.659   9.691
 2361SOL    HW2 7536   0.541   3.570   9.572
 2362SOL     OW 7537   1.401   1.969   9.743
 2362SOL    HW1 7538   1.391   1.944   9.651
 2362SOL    HW2 7539   1.495   1.977   9.756
 2363SOL     OW 7540   0.256   3.654  10.543
 2363SOL    HW1 7541   0.304   3.580  10.582
 2363SOL    HW2 7542   0.226   3.621  10.458
 2364SOL     OW 7543   0.938   3.561  10.209
 2364SOL    HW1 7544   1.016   3.509  10.229
 2364SOL    HW2 7545   0.894   3.511  10.140
 2365SOL     OW 7546   0.395   2.557   9.783
 2365SOL    HW1 7547   0.418   2.464   9.794
 2365SOL    HW2 7548   0.303   2.562   9.808
 2366SOL     OW 7549   0.636   1.986   9.413
 2366SOL    HW1 7550   0.703   1.920   9.429
 2366SOL    HW2 7551   0.587   1.953   9.338
 2367SOL     OW 7552   0.769   2.137  11.046
 2367SOL    HW1 7553   0.833   2.079  11.087
 2367SOL    HW2 7554   0.707   2.156   0.016
 2368SOL     OW 7555   0.876   3.384  10.503
 2368SOL    HW1 7556   0.860   3.348  10.416
 2368SOL    HW2 7557   0.948   3.332  10.538
 2369SOL     OW 7558   1.343   2.452  10.754
 2369SOL    HW1 7559   1.395   2.432  10.832
 2369SOL    HW2 7560   1.370   2.541  10.730
 2370SOL     OW 7561   0.816   3.257  10.250
 2370SOL    HW1 7562   0.900   3.245  10.205
 2370SOL    HW2 7563   0.751   3.258  10.179
 2371SOL     OW 7564   0.928   2.371  10.213
 2371SOL    HW1 7565   0.904   2.363  10.121
 2371SOL    HW2 7566   0.959   2.284  10.238
 2372SOL     OW 7567   0.553   1.924   9.811
 2372SOL    HW1 7568   0.472   1.922   9.862
 2372SOL    HW2 7569   0.545   2.002   9.756
 2373SOL     OW 7570   1.428   3.061   9.351
 2373SOL    HW1 7571   1.458   2.985   9.401
 2373SOL    HW2 7572   1.342   3.081   9.388
 2374SOL     OW 7573   0.295   1.908   9.488
 2374SOL    HW1 7574   0.358   1.974   9.461
 2374SOL    HW2 7575   0.348   1.842   9.533
 2375SOL     OW 7576   0.939   2.109   9.770
 2375SOL    HW1 7577   0.912   2.150   9.688
 2375SOL    HW2 7578   1.033   2.123   9.774
 2376SOL     OW 7579   1.079   2.548  10.771
 2376SOL    HW1 7580   1.009   2.483  10.775
 2376SOL    HW2 7581   1.159   2.497  10.770
 2377SOL     OW 7582   1.223   3.432  10.104
 2377SOL    HW1 7583   1.239   3.498  10.037
 2377SOL    HW2 7584   1.292   3.447  10.169
 2378SOL     OW 7585   0.467   3.012  10.045
 2378SOL    HW1 7586   0.396   2.993  10.107
 2378SOL    HW2 7587   0.428   2.996   9.959
 2379SOL     OW 7588   1.269   3.656   9.918
 2379SOL    HW1 7589   1.315   3.717   9.861
 2379SOL    HW2 7590   1.202   3.709   9.962
 2380SOL     OW 7591   1.023   2.403   9.333
 2380SOL    HW1 7592   0.980   2.487   9.313
 2380SOL    HW2 7593   1.088   2.425   9.399
 2381SOL     OW 7594   0.075   2.388  10.717
 2381SOL    HW1 7595   0.146   2.387  10.652
 2381SOL    HW2 7596   0.070   2.480  10.745
 2382SOL     OW 7597   0.560   2.090  10.476
 2382SOL    HW1 7598   0.602   2.012  10.513
 2382SOL    HW2 7599   0.468   2.083  10.504
 2383SOL     OW 7600   0.868   2.321   9.950
 2383SOL    HW1 7601   0.822   2.375   9.886
 2383SOL    HW2 7602   0.889   2.241   9.902
 2384SOL     OW 7603   1.015   1.916  10.062
 2384SOL    HW1 7604   0.957   1.909   9.986
 2384SOL    HW2 7605   0.993   1.840  10.116
 2385SOL     OW 7606   1.436   3.025  10.167
 2385SOL    HW1 7607   1.368   2.958  10.166
 2385SOL    HW2 7608   1.460   3.035  10.075
 2386SOL     OW 7609   1.464   2.469  10.287
 2386SOL    HW1 7610   1.415   2.387  10.288
 2386SOL    HW2 7611   1.525   2.462  10.361
 2387SOL     OW 7612   1.847   2.677   9.693
 2387SOL    HW1 7613   1.901   2.625   9.752
 2387SOL    HW2 7614   1.818   2.616   9.626
 2388SOL     OW 7615   0.491   3.280   9.469
 2388SOL    HW1 7616   0.414   3.251   9.518
 2388SOL    HW2 7617   0.475   3.251   9.379
 2389SOL     OW 7618   1.670   3.127   9.955
 2389SOL    HW1 7619   1.765   3.130   9.969
 2389SOL    HW2 7620   1.640   3.215   9.977
 2390SOL     OW 7621   1.394   2.434   9.382
 2390SOL    HW1 7622   1.333   2.414   9.452
 2390SOL    HW2 7623   1.478   2.400   9.413
 2391SOL     OW 7624   0.524   2.122   9.626
 2391SOL    HW1 7625   0.571   2.076   9.557
 2391SOL    HW2 7626   0.505   2.208   9.589
 2392SOL     OW 7627   1.759   3.092  10.864
 2392SOL    HW1 7628   1.849   3.062  10.871
 2392SOL    HW2 7629   1.759   3.179  10.906
 2393SOL     OW 7630   1.063   3.216  10.649
 2393SOL    HW1 7631   0.985   3.183  10.694
 2393SOL    HW2 7632   1.135   3.168  10.689
 2394SOL     OW 7633   1.130   3.069  10.415
 2394SOL    HW1 7634   1.064   3.103  10.476
 2394SOL    HW2 7635   1.099   3.098  10.329
 2395SOL     OW 7636   1.630   2.961  10.387
 2395SOL    HW1 7637   1.626   3.022  10.460
 2395SOL    HW2 7638   1.550   2.978  10.337
 2396SOL     OW 7639   0.918   1.961  10.705
 2396SOL    HW1 7640   0.942   1.941  10.614
 2396SOL    HW2 7641   0.996   2.002  10.742
 2397SOL     OW 7642   0.709   2.924   9.682
 2397SOL    HW1 7643   0.696   2.907   9.775
 2397SOL    HW2 7644   0.784   2.870   9.658
 2398SOL     OW 7645   0.429   2.687  10.553
 2398SOL    HW1 7646   0.499   2.696  10.618
 2398SOL    HW2 7647   0.369   2.622  10.591
 2399SOL     OW 7648   1.266   2.240  10.589
 2399SOL    HW1 7649   1.298   2.318  10.634
 2399SOL    HW2 7650   1.176   2.263  10.563
 2400SOL     OW 7651   0.064   3.441  10.658
 2400SOL    HW1 7652   0.039   3.527  10.625
 2400SOL    HW2 7653   0.160   3.441  10.659
 2401SOL     OW 7654   0.346   2.971   9.803
 2401SOL    HW1 7655   0.355   3.045   9.742
 2401SOL    HW2 7656   0.346   2.893   9.747
 2402SOL     OW 7657   0.561   2.394  10.165
 2402SOL    HW1 7658   0.574   2.454  10.092
 2402SOL    HW2 7659   0.622   2.424  10.232
 2403SOL     OW 7660   1.248   3.210   9.699
 2403SOL    HW1 7661   1.304   3.282   9.730
 2403SOL    HW2 7662   1.161   3.232   9.733
 2404SOL     OW 7663   1.280   3.321  10.455
 2404SOL    HW1 7664   1.337   3.324  10.532
 2404SOL    HW2 7665   1.227   3.243  10.467
 2405SOL     OW 7666   1.580   2.484   9.789
 2405SOL    HW1 7667   1.533   2.538   9.853
 2405SOL    HW2 7668   1.628   2.547   9.734
 2406SOL     OW 7669   0.345   3.391  10.623
 2406SOL    HW1 7670   0.333   3.345  10.541
 2406SOL    HW2 7671   0.440   3.404  10.630
 2407SOL     OW 7672   0.487   2.606  10.970
 2407SOL    HW1 7673   0.523   2.644  10.889
 2407SOL    HW2 7674   0.531   2.522  10.979
 2408SOL     OW 7675   1.594   2.621  10.966
 2408SOL    HW1 7676   1.517   2.679  10.961
 2408SOL    HW2 7677   1.665   2.671  10.926
 2409SOL     OW 7678   0.590   2.735  10.335
 2409SOL    HW1 7679   0.618   2.827  10.337
 2409SOL    HW2 7680   0.533   2.726  10.412
 2410SOL     OW 7681   1.357   2.723  10.343
 2410SOL    HW1 7682   1.275   2.714  10.296
 2410SOL    HW2 7683   1.399   2.637  10.337
 2411SOL     OW 7684   1.204   2.391   9.576
 2411SOL    HW1 7685   1.212   2.312   9.631
 2411SOL    HW2 7686   1.161   2.455   9.633
 2412SOL     OW 7687   0.301   2.053  10.551
 2412SOL    HW1 7688   0.264   2.087  10.633
 2412SOL    HW2 7689   0.283   1.959  10.555
 2413SOL     OW 7690   0.038   3.177  10.595
 2413SOL    HW1 7691   0.074   3.128  10.669
 2413SOL    HW2 7692   0.042   3.269  10.623
 2414SOL     OW 7693   0.725   2.494  10.368
 2414SOL    HW1 7694   0.799   2.476  10.310
 2414SOL    HW2 7695   0.697   2.582  10.345
 2415SOL     OW 7696   0.311   1.932   9.929
 2415SOL    HW1 7697   0.287   2.020   9.955
 2415SOL    HW2 7698   0.309   1.881  10.010
 2416SOL     OW 7699   1.615   2.236   9.677
 2416SOL    HW1 7700   1.645   2.173   9.743
 2416SOL    HW2 7701   1.594   2.315   9.727
 2417SOL     OW 7702   1.027   2.621  10.270
 2417SOL    HW1 7703   1.024   2.638  10.364
 2417SOL    HW2 7704   1.001   2.529  10.262
 2418SOL     OW 7705   0.974   3.435  11.004
 2418SOL    HW1 7706   0.960   3.484  10.923
 2418SOL    HW2 7707   1.002   3.348  10.974
 2419SOL     OW 7708   1.856   3.355  10.911
 2419SOL    HW1 7709   1.873   3.390  10.824
 2419SOL    HW2 7710   1.922   3.395  10.967
 2420SOL     OW 7711   0.349   2.796  11.092
 2420SOL    HW1 7712   0.421   2.825   0.047
 2420SOL    HW2 7713   0.384   2.723  11.042
 2421SOL     OW 7714   1.528   2.135   9.438
 2421SOL    HW1 7715   1.463   2.070   9.464
 2421SOL    HW2 7716   1.562   2.171   9.520
 2422SOL     OW 7717   1.292   2.688   9.341
 2422SOL    HW1 7718   1.335   2.602   9.345
 2422SOL    HW2 7719   1.323   2.727   9.259
 2423SOL     OW 7720   1.067   3.197  10.164
 2423SOL    HW1 7721   1.069   3.125  10.101
 2423SOL    HW2 7722   1.127   3.262  10.129
 2424SOL     OW 7723   0.318   2.673  10.257
 2424SOL    HW1 7724   0.412   2.689  10.254
 2424SOL    HW2 7725   0.311   2.581  10.285
 2425SOL     OW 7726   0.330   2.387  10.300
 2425SOL    HW1 7727   0.292   2.301  10.285
 2425SOL    HW2 7728   0.409   2.389  10.245
 2426SOL     OW 7729   1.156   2.070  10.782
 2426SOL    HW1 7730   1.171   2.125  10.859
 2426SOL    HW2 7731   1.197   2.117  10.710
 2427SOL     OW 7732   4.491   3.184   9.516
 2427SOL    HW1 7733   4.399   3.200   9.498
 2427SOL    HW2 7734   4.496   3.090   9.537
 2428SOL     OW 7735   0.098   3.636  10.250
 2428SOL    HW1 7736   0.059   3.585  10.179
 2428SOL    HW2 7737   0.185   3.659  10.219
 2429SOL     OW 7738   0.496   3.436  10.217
 2429SOL    HW1 7739   0.565   3.499  10.240
 2429SOL    HW2 7740   0.540   3.373  10.159
 2430SOL     OW 7741   0.982   2.656  10.536
 2430SOL    HW1 7742   1.038   2.634  10.611
 2430SOL    HW2 7743   0.897   2.617  10.557
 2431SOL     OW 7744   0.031   2.422  10.410
 2431SOL    HW1 7745   0.119   2.393  10.384
 2431SOL    HW2 7746   0.020   2.386  10.498
 2432SOL     OW 7747   0.817   2.431   9.670
 2432SOL    HW1 7748   0.821   2.357   9.610
 2432SOL    HW2 7749   0.743   2.484   9.639
 2433SOL     OW 7750   1.644   2.465  10.494
 2433SOL    HW1 7751   1.637   2.405  10.568
 2433SOL    HW2 7752   1.732   2.450  10.459
 2434SOL     OW 7753   0.263   3.436  11.055
 2434SOL    HW1 7754   0.209   3.460   0.030
 2434SOL    HW2 7755   0.246   3.343  11.041
 2435SOL     OW 7756   0.699   2.314  10.570
 2435SOL    HW1 7757   0.647   2.239  10.540
 2435SOL    HW2 7758   0.696   2.376  10.497
 2436SOL     OW 7759   0.940   3.544  10.757
 2436SOL    HW1 7760   0.903   3.510  10.676
 2436SOL    HW2 7761   0.923   3.638  10.753
 2437SOL     OW 7762   0.472   2.352   9.494
 2437SOL    HW1 7763   0.532   2.422   9.518
 2437SOL    HW2 7764   0.388   2.396   9.479
 2438SOL     OW 7765   0.163   3.004  10.768
 2438SOL    HW1 7766   0.138   2.965  10.851
 2438SOL    HW2 7767   0.168   2.931  10.707
 2439SOL     OW 7768   1.324   2.915  10.538
 2439SOL    HW1 7769   1.350   2.849  10.473
 2439SOL    HW2 7770   1.255   2.965  10.495
 2440SOL     OW 7771   1.311   2.719   9.616
 2440SOL    HW1 7772   1.236   2.688   9.666
 2440SOL    HW2 7773   1.287   2.705   9.525
 2441SOL     OW 7774   1.774   3.606  10.461
 2441SOL    HW1 7775   1.833   3.632  10.390
 2441SOL    HW2 7776   1.749   3.516  10.440
 2442SOL     OW 7777   1.240   3.596  10.422
 2442SOL    HW1 7778   1.323   3.617  10.378
 2442SOL    HW2 7779   1.246   3.502  10.440
 2443SOL     OW 7780   0.067   3.047  10.360
 2443SOL    HW1 7781   0.065   3.079  10.450
 2443SOL    HW2 7782   0.025   3.116  10.309
 2444SOL     OW 7783   1.720   2.008   9.821
 2444SOL    HW1 7784   1.791   1.993   9.758
 2444SOL    HW2 7785   1.703   1.922   9.859
 2445SOL     OW 7786   1.391   3.430   9.795
 2445SOL    HW1 7787   1.451   3.462   9.728
 2445SOL    HW2 7788   1.342   3.507   9.823
 2446SOL     OW 7789   1.277   2.788   9.981
 2446SOL    HW1 7790   1.351   2.727   9.988
 2446SOL    HW2 7791   1.311   2.860   9.929
 2447SOL     OW 7792   0.817   3.136  10.737
 2447SOL    HW1 7793   0.786   3.171  10.821
 2447SOL    HW2 7794   0.747   3.158  10.676
 2448SOL     OW 7795   0.672   3.482   9.465
 2448SOL    HW1 7796   0.682   3.494   9.371
 2448SOL    HW2 7797   0.617   3.404   9.474
 2449SOL     OW 7798   1.621   3.582  10.695
 2449SOL    HW1 7799   1.677   3.596  10.618
 2449SOL    HW2 7800   1.606   3.670  10.730
 2450SOL     OW 7801   1.844   2.045  10.279
 2450SOL    HW1 7802   1.879   1.959  10.254
 2450SOL    HW2 7803   1.758   2.049  10.236
 2451SOL     OW 7804   0.264   2.181  10.028
 2451SOL    HW1 7805   0.181   2.220  10.001
 2451SOL    HW2 7806   0.255   2.169  10.123
 2452SOL     OW 7807   1.207   3.468   9.342
 2452SOL    HW1 7808   1.198   3.376   9.369
 2452SOL    HW2 7809   1.142   3.479   9.273
 2453SOL     OW 7810   0.826   2.868  10.686
 2453SOL    HW1 7811   0.869   2.861  10.601
 2453SOL    HW2 7812   0.826   2.962  10.705
 2454SOL     OW 7813   0.916   2.773   9.600
 2454SOL    HW1 7814   0.977   2.805   9.534
 2454SOL    HW2 7815   0.964   2.703   9.645
 2455SOL     OW 7816   1.491   3.488   9.353
 2455SOL    HW1 7817   1.397   3.481   9.339
 2455SOL    HW2 7818   1.528   3.494   9.265
 2456SOL     OW 7819   0.367   3.175  10.806
 2456SOL    HW1 7820   0.354   3.249  10.747
 2456SOL    HW2 7821   0.297   3.114  10.785
 2457SOL     OW 7822   1.614   3.144  10.593
 2457SOL    HW1 7823   1.669   3.129  10.671
 2457SOL    HW2 7824   1.556   3.216  10.618
 2458SOL     OW 7825   1.053   2.969  10.017
 2458SOL    HW1 7826   0.982   2.919  10.055
 2458SOL    HW2 7827   1.115   2.904   9.985
 2459SOL     OW 7828   1.021   2.102  10.277
 2459SOL    HW1 7829   1.017   2.055  10.194
 2459SOL    HW2 7830   1.016   2.034  10.344
 2460SOL     OW 7831   0.605   3.351   9.792
 2460SOL    HW1 7832   0.647   3.302   9.722
 2460SOL    HW2 7833   0.529   3.392   9.751
 2461SOL     OW 7834   1.720   2.257  10.690
 2461SOL    HW1 7835   1.795   2.317  10.694
 2461SOL    HW2 7836   1.751   2.185  10.636
 2462SOL     OW 7837   0.252   3.206   9.586
 2462SOL    HW1 7838   0.157   3.204   9.572
 2462SOL    HW2 7839   0.263   3.238   9.676
 2463SOL     OW 7840   0.111   2.882  11.002
 2463SOL    HW1 7841   0.053   2.887  11.079
 2463SOL    HW2 7842   0.197   2.863  11.038
 2464SOL     OW 7843   0.675   2.058  10.802
 2464SOL    HW1 7844   0.757   2.035  10.758
 2464SOL    HW2 7845   0.702   2.092  10.888
 2465SOL     OW 7846   0.072   2.187   9.342
 2465SOL    HW1 7847   4.477   2.200   9.350
 2465SOL    HW2 7848   0.104   2.269   9.303
 2466SOL     OW 7849   1.428   2.711  10.709
 2466SOL    HW1 7850   1.381   2.780  10.662
 2466SOL    HW2 7851   1.519   2.720  10.680
 2467SOL     OW 7852   0.086   2.038   9.614
 2467SOL    HW1 7853   0.080   2.111   9.552
 2467SOL    HW2 7854   0.162   1.987   9.584
 2468SOL     OW 7855   1.179   3.201   9.427
 2468SOL    HW1 7856   1.088   3.171   9.429
 2468SOL    HW2 7857   1.206   3.201   9.518
 2469SOL     OW 7858   0.625   2.690  10.741
 2469SOL    HW1 7859   0.680   2.767  10.727
 2469SOL    HW2 7860   0.686   2.617  10.747
 2470SOL     OW 7861   1.483   3.639  10.289
 2470SOL    HW1 7862   1.507   3.699  10.218
 2470SOL    HW2 7863   1.566   3.620  10.333
 2471SOL     OW 7864   0.715   2.427  11.014
 2471SOL    HW1 7865   0.750   2.499  11.066
 2471SOL    HW2 7866   0.764   2.350  11.042
 2472SOL     OW 7867   0.383   3.601  10.873
 2472SOL    HW1 7868   0.306   3.657  10.865
 2472SOL    HW2 7869   0.355   3.532  10.934
 2473SOL     OW 7870   1.672   2.745  10.567
 2473SOL    HW1 7871   1.662   2.659  10.525
 2473SOL    HW2 7872   1.661   2.807  10.495
 2474SOL     OW 7873   1.217   2.181   9.768
 2474SOL    HW1 7874   1.280   2.110   9.759
 2474SOL    HW2 7875   1.246   2.230   9.845
 2475SOL     OW 7876   0.590   2.600   9.979
 2475SOL    HW1 7877   0.628   2.686   9.964
 2475SOL    HW2 7878   0.522   2.591   9.913
 2476SOL     OW 7879   1.747   2.177  10.960
 2476SOL    HW1 7880   1.735   2.216  10.873
 2476SOL    HW2 7881   1.668   2.201  11.008
 2477SOL     OW 7882   1.747   2.801  10.826
 2477SOL    HW1 7883   1.739   2.895  10.838
 2477SOL    HW2 7884   1.731   2.787  10.732
 2478SOL     OW 7885   0.864   3.229   9.345
 2478SOL    HW1 7886   0.824   3.256   9.428
 2478SOL    HW2 7887   0.880   3.311   9.298
 2479SOL     OW 7888   0.661   3.653  10.255
 2479SOL    HW1 7889   0.640   3.743  10.231
 2479SOL    HW2 7890   0.756   3.647  10.246
 2480SOL     OW 7891   0.868   2.830  10.165
 2480SOL    HW1 7892   0.917   2.757  10.203
 2480SOL    HW2 7893   0.832   2.877  10.240
 2481SOL     OW 7894   1.079   2.851   9.399
 2481SOL    HW1 7895   1.057   2.901   9.320
 2481SOL    HW2 7896   1.154   2.797   9.373
 2482SOL     OW 7897   1.854   3.416  10.154
 2482SOL    HW1 7898   1.775   3.405  10.100
 2482SOL    HW2 7899   1.844   3.351  10.224
 2483SOL     OW 7900   0.108   3.097   9.978
 2483SOL    HW1 7901   0.121   3.051  10.062
 2483SOL    HW2 7902   0.167   3.052   9.917
 2484SOL     OW 7903   0.681   3.258  10.940
 2484SOL    HW1 7904   0.609   3.206  10.977
 2484SOL    HW2 7905   0.643   3.346  10.929
 2485SOL     OW 7906   1.815   2.051  10.547
 2485SOL    HW1 7907   1.831   1.958  10.564
 2485SOL    HW2 7908   1.827   2.061  10.453
 2486SOL     OW 7909   0.435   2.295   9.836
 2486SOL    HW1 7910   0.460   2.222   9.780
 2486SOL    HW2 7911   0.384   2.256   9.906
 2487SOL     OW 7912   1.701   3.351  10.405
 2487SOL    HW1 7913   1.620   3.328  10.361
 2487SOL    HW2 7914   1.713   3.283  10.472
 2488SOL     OW 7915   0.297   2.350  10.564
 2488SOL    HW1 7916   0.369   2.311  10.613
 2488SOL    HW2 7917   0.332   2.364  10.476
 2489SOL     OW 7918   0.828   3.440   9.988
 2489SOL    HW1 7919   0.814   3.494   9.910
 2489SOL    HW2 7920   0.751   3.382   9.990
 2490SOL     OW 7921   1.432   2.088  10.428
 2490SOL    HW1 7922   1.460   2.008  10.473
 2490SOL    HW2 7923   1.381   2.136  10.493
 2491SOL     OW 7924   1.009   1.880  10.452
 2491SOL    HW1 7925   0.955   1.813  10.410
 2491SOL    HW2 7926   1.096   1.843  10.454
 2492SOL     OW 7927   0.772   3.195   9.624
 2492SOL    HW1 7928   0.741   3.104   9.631
 2492SOL    HW2 7929   0.854   3.195   9.674
 2493SOL     OW 7930   0.620   3.416  10.598
 2493SOL    HW1 7931   0.621   3.500  10.644
 2493SOL    HW2 7932   0.707   3.411  10.557
 2494SOL     OW 7933   1.352   1.915   9.476
 2494SOL    HW1 7934   1.381   1.852   9.410
 2494SOL    HW2 7935   1.265   1.886   9.502
 2495SOL     OW 7936   1.296   2.323   9.991
 2495SOL    HW1 7937   1.243   2.402   9.998
 2495SOL    HW2 7938   1.292   2.284  10.078
 2496SOL     OW 7939   1.587   2.062  10.187
 2496SOL    HW1 7940   1.527   2.082  10.260
 2496SOL    HW2 7941   1.586   2.140  10.133
 2497SOL     OW 7942   0.041   2.913   9.599
 2497SOL    HW1 7943   0.134   2.895   9.588
 2497SOL    HW2 7944   0.021   2.882   9.687
 2498SOL     OW 7945   0.885   3.516   9.652
 2498SOL    HW1 7946   0.813   3.498   9.592
 2498SOL    HW2 7947   0.856   3.590   9.704
 2499SOL     OW 7948   0.204   4.283   0.086
 2499SOL    HW1 7949   0.149   4.310   0.159
 2499SOL    HW2 7950   0.229   4.364   0.043
 2500SOL     OW 7951   0.208   3.995   0.991
 2500SOL    HW1 7952   0.244   3.968   1.076
 2500SOL    HW2 7953   0.134   3.936   0.977
 2501SOL     OW 7954   4.499   4.101   0.629
 2501SOL    HW1 7955   4.417   4.128   0.671
 2501SOL    HW2 7956   4.481   4.015   0.592
 2502SOL     OW 7957   1.730   4.331   0.231
 2502SOL    HW1 7958   1.750   4.308   0.140
 2502SOL    HW2 7959   1.724   4.248   0.277
 2503SOL     OW 7960   0.736   0.271   0.686
 2503SOL    HW1 7961   0.721   0.204   0.753
 2503SOL    HW2 7962   0.648   0.289   0.650
 2504SOL     OW 7963   0.446   4.119   1.488
 2504SOL    HW1 7964   0.527   4.068   1.489
 2504SOL    HW2 7965   0.376   4.054   1.498
 2505SOL     OW 7966   1.615   4.171   0.741
 2505SOL    HW1 7967   1.549   4.197   0.676
 2505SOL    HW2 7968   1.612   4.241   0.807
 2506SOL     OW 7969   1.596   3.847   1.468
 2506SOL    HW1 7970   1.603   3.928   1.417
 2506SOL    HW2 7971   1.581   3.877   1.558
 2507SOL     OW 7972   0.163   4.320   0.634
 2507SOL    HW1 7973   0.101   4.248   0.622
 2507SOL    HW2 7974   0.117   4.397   0.599
 2508SOL     OW 7975   0.124   0.003   1.588
 2508SOL    HW1 7976   0.218   4.485   1.585
 2508SOL    HW2 7977   0.115   0.090   1.548
 2509SOL     OW 7978   0.817   3.726   0.509
 2509SOL    HW1 7979   0.855   3.812   0.492
 2509SOL    HW2 7980   0.723   3.742   0.517
 2510SOL     OW 7981   0.330   3.979   1.799
 2510SOL    HW1 7982   0.373   4.059   1.832
 2510SOL    HW2 7983   0.240   3.986   1.833
 2511SOL     OW 7984   1.277   4.074   0.933
 2511SOL    HW1 7985   1.188   4.041   0.943
 2511SOL    HW2 7986   1.329   4.022   0.994
 2512SOL     OW 7987   0.829   4.303   1.446
 2512SOL    HW1 7988   0.789   4.308   1.533
 2512SOL    HW2 7989   0.760   4.266   1.391
 2513SOL     OW 7990   1.395   4.199   1.676
 2513SOL    HW1 7991   1.398   4.244   1.761
 2513SOL    HW2 7992   1.453   4.124   1.687
 2514SOL     OW 7993   0.998   4.151   1.233
 2514SOL    HW1 7994   0.927   4.172   1.293
 2514SOL    HW2 7995   0.959   4.092   1.169
 2515SOL     OW 7996   1.060   4.403   0.422
 2515SOL    HW1 7997   1.056   4.460   0.499
 2515SOL    HW2 7998   0.968   4.382   0.403
 2516SOL     OW 7999   0.053   0.058   0.849
 2516SOL    HW1 8000   0.142   0.025   0.859
 2516SOL    HW2 8001   0.053   0.102   0.764
 2517SOL     OW 8002   0.888   4.073   0.210
 2517SOL    HW1 8003   0.932   4.132   0.148
 2517SOL    HW2 8004   0.902   3.986   0.173
 2518SOL     OW 8005   1.708   4.299   1.830
 2518SOL    HW1 8006   1.723   4.387   1.794
 2518SOL    HW2 8007   1.730   4.240   1.757
 2519SOL     OW 8008   0.552   3.904   0.893
 2519SOL    HW1 8009   0.554   3.935   0.984
 2519SOL    HW2 8010   0.547   3.984   0.840
 2520SOL     OW 8011   1.488   4.465   0.740
 2520SOL    HW1 8012   1.473   4.410   0.817
 2520SOL    HW2 8013   1.529   0.044   0.774
 2521SOL     OW 8014   0.189   4.001   1.485
 2521SOL    HW1 8015   0.140   4.082   1.495
 2521SOL    HW2 8016   0.183   3.958   1.570
 2522SOL     OW 8017   1.402   3.830   0.432
 2522SOL    HW1 8018   1.394   3.808   0.339
 2522SOL    HW2 8019   1.496   3.839   0.446
 2523SOL     OW 8020   0.347   4.377   0.402
 2523SOL    HW1 8021   0.392   4.303   0.444
 2523SOL    HW2 8022   0.300   4.420   0.474
 2524SOL     OW 8023   1.534   3.950   1.725
 2524SOL    HW1 8024   1.543   3.971   1.818
 2524SOL    HW2 8025   1.466   3.882   1.722
 2525SOL     OW 8026   0.617   3.833   0.122
 2525SOL    HW1 8027   0.706   3.796   0.120
 2525SOL    HW2 8028   0.580   3.811   0.037
 2526SOL     OW 8029   0.766   4.002   1.755
 2526SOL    HW1 8030   0.843   3.945   1.754
 2526SOL    HW2 8031   0.717   3.976   1.833
 2527SOL     OW 8032   1.342   4.312   1.430
 2527SOL    HW1 8033   1.364   4.275   1.515
 2527SOL    HW2 8034   1.386   4.397   1.428
 2528SOL     OW 8035   0.924   4.235   0.899
 2528SOL    HW1 8036   0.901   4.220   0.807
 2528SOL    HW2 8037   0.963   4.153   0.928
 2529SOL     OW 8038   0.554   3.786   0.503
 2529SOL    HW1 8039   0.472   3.783   0.552
 2529SOL    HW2 8040   0.546   3.864   0.448
 2530SOL     OW 8041   0.285   3.772   0.192
 2530SOL    HW1 8042   0.332   3.824   0.126
 2530SOL    HW2 8043   0.349   3.708   0.223
 2531SOL     OW 8044   0.940   3.974   0.464
 2531SOL    HW1 8045   0.913   4.013   0.381
 2531SOL    HW2 8046   1.034   3.987   0.468
 2532SOL     OW 8047   1.074   4.396   1.524
 2532SOL    HW1 8048   0.992   4.366   1.486
 2532SOL    HW2 8049   1.142   4.358   1.469
 2533SOL     OW 8050   1.008   4.263   0.041
 2533SOL    HW1 8051   1.023   4.318  11.065
 2533SOL    HW2 8052   1.089   4.272   0.093
 2534SOL     OW 8053   0.084   4.256   1.408
 2534SOL    HW1 8054   0.159   4.269   1.350
 2534SOL    HW2 8055   0.051   4.345   1.426
 2535SOL     OW 8056   0.560   3.951   1.166
 2535SOL    HW1 8057   0.601   3.872   1.201
 2535SOL    HW2 8058   0.469   3.945   1.194
 2536SOL     OW 8059   0.868   4.189   0.640
 2536SOL    HW1 8060   0.840   4.253   0.574
 2536SOL    HW2 8061   0.887   4.110   0.589
 2537SOL     OW 8062   1.014   3.778   0.751
 2537SOL    HW1 8063   0.956   3.770   0.676
 2537SOL    HW2 8064   0.993   3.702   0.806
 2538SOL     OW 8065   1.477   4.311   0.965
 2538SOL    HW1 8066   1.417   4.239   0.984
 2538SOL    HW2 8067   1.527   4.322   1.046
 2539SOL     OW 8068   1.402   4.292   0.072
 2539SOL    HW1 8069   1.335   4.276   0.140
 2539SOL    HW2 8070   1.466   4.223   0.085
 2540SOL     OW 8071   0.527   3.990   0.325
 2540SOL    HW1 8072   0.555   3.929   0.256
 2540SOL    HW2 8073   0.510   4.072   0.280
 2541SOL     OW 8074   0.917   3.822   1.395
 2541SOL    HW1 8075   0.941   3.801   1.305
 2541SOL    HW2 8076   0.997   3.860   1.433
 2542SOL     OW 8077   0.444   0.003   1.264
 2542SOL    HW1 8078   0.500   4.499   1.342
 2542SOL    HW2 8079   0.406   4.416   1.257
 2543SOL     OW 8080   1.265   4.099   1.276
 2543SOL    HW1 8081   1.299   4.177   1.321
 2543SOL    HW2 8082   1.176   4.123   1.250
 2544SOL     OW 8083   0.555   4.253   0.864
 2544SOL    HW1 8084   0.576   4.290   0.778
 2544SOL    HW2 8085   0.621   4.289   0.923
 2545SOL     OW 8086   1.577   4.337   0.482
 2545SOL    HW1 8087   1.536   4.403   0.538
 2545SOL    HW2 8088   1.622   4.388   0.414
 2546SOL     OW 8089   0.996   3.849   1.755
 2546SOL    HW1 8090   1.053   3.920   1.729
 2546SOL    HW2 8091   1.043   3.769   1.730
 2547SOL     OW 8092   0.497   3.767   1.747
 2547SOL    HW1 8093   0.455   3.710   1.683
 2547SOL    HW2 8094   0.437   3.841   1.756
 2548SOL     OW 8095   1.210   4.250   0.263
 2548SOL    HW1 8096   1.221   4.171   0.316
 2548SOL    HW2 8097   1.162   4.310   0.319
 2549SOL     OW 8098   0.299   3.922   1.244
 2549SOL    HW1 8099   0.258   3.950   1.326
 2549SOL    HW2 8100   0.286   3.827   1.242
 2550SOL     OW 8101   0.734   4.360   1.044
 2550SOL    HW1 8102   0.807   4.322   0.995
 2550SOL    HW2 8103   0.744   4.454   1.032
 2551SOL     OW 8104   1.752   0.132   1.853
 2551SOL    HW1 8105   1.685   0.148   1.786
 2551SOL    HW2 8106   1.709   0.156   1.936
 2552SOL     OW 8107   0.312   3.793   0.619
 2552SOL    HW1 8108   0.287   3.882   0.646
 2552SOL    HW2 8109   0.308   3.742   0.700
 2553SOL     OW 8110   1.616   4.092   0.367
 2553SOL    HW1 8111   1.645   4.029   0.433
 2553SOL    HW2 8112   1.592   4.170   0.417
 2554SOL     OW 8113   1.533   4.015   0.115
 2554SOL    HW1 8114   1.474   3.942   0.130
 2554SOL    HW2 8115   1.567   4.038   0.202
 2555SOL     OW 8116   0.318   0.016   0.912
 2555SOL    HW1 8117   0.399   0.067   0.921
 2555SOL    HW2 8118   0.333   4.438   0.966
 2556SOL     OW 8119   0.333   4.237   1.011
 2556SOL    HW1 8120   0.289   4.155   0.988
 2556SOL    HW2 8121   0.408   4.242   0.952
 2557SOL     OW 8122   1.137   4.093   1.686
 2557SOL    HW1 8123   1.085   4.152   1.740
 2557SOL    HW2 8124   1.222   4.137   1.677
 2558SOL     OW 8125   1.160   3.926   1.469
 2558SOL    HW1 8126   1.150   3.987   1.542
 2558SOL    HW2 8127   1.201   3.978   1.400
 2559SOL     OW 8128   0.022   4.278   1.105
 2559SOL    HW1 8129   0.109   4.261   1.068
 2559SOL    HW2 8130   0.024   4.237   1.191
 2560SOL     OW 8131   0.175   4.236   1.692
 2560SOL    HW1 8132   0.263   4.218   1.660
 2560SOL    HW2 8133   0.149   4.317   1.647
 2561SOL     OW 8134   0.814   4.310   0.327
 2561SOL    HW1 8135   0.825   4.224   0.288
 2561SOL    HW2 8136   0.720   4.315   0.348
 2562SOL     OW 8137   1.636   4.317   1.186
 2562SOL    HW1 8138   1.632   4.259   1.262
 2562SOL    HW2 8139   1.724   4.305   1.151
 2563SOL     OW 8140   0.674   4.188   1.257
 2563SOL    HW1 8141   0.637   4.106   1.223
 2563SOL    HW2 8142   0.684   4.243   1.179
 2564SOL     OW 8143   0.474   4.217   0.181
 2564SOL    HW1 8144   0.519   4.300   0.191
 2564SOL    HW2 8145   0.381   4.239   0.184
 2565SOL     OW 8146   0.919   3.814   0.104
 2565SOL    HW1 8147   0.968   3.777   0.031
 2565SOL    HW2 8148   0.956   3.772   0.182
 2566SOL     OW 8149   1.720   3.871   0.511
 2566SOL    HW1 8150   1.792   3.857   0.449
 2566SOL    HW2 8151   1.705   3.784   0.549
 2567SOL     OW 8152   1.278   0.136   0.682
 2567SOL    HW1 8153   1.334   0.060   0.694
 2567SOL    HW2 8154   1.327   0.193   0.622
 2568SOL     OW 8155   1.840   3.896   0.967
 2568SOL    HW1 8156   1.868   3.809   0.939
 2568SOL    HW2 8157   1.754   3.907   0.926
 2569SOL     OW 8158   0.268   4.041   0.721
 2569SOL    HW1 8159   0.192   4.091   0.692
 2569SOL    HW2 8160   0.254   4.028   0.815
 2570SOL     OW 8161   1.061   0.298   0.732
 2570SOL    HW1 8162   0.982   0.268   0.688
 2570SOL    HW2 8163   1.128   0.235   0.706
 2571SOL     OW 8164   1.020   3.964   0.965
 2571SOL    HW1 8165   1.016   3.916   0.882
 2571SOL    HW2 8166   1.016   3.896   1.033
 2572SOL     OW 8167   1.722   4.114   1.380
 2572SOL    HW1 8168   1.793   4.178   1.378
 2572SOL    HW2 8169   1.752   4.043   1.323
 2573SOL     OW 8170   0.674   3.923   1.499
 2573SOL    HW1 8171   0.758   3.901   1.458
 2573SOL    HW2 8172   0.698   3.952   1.587
 2574SOL     OW 8173   0.060   4.062   0.003
 2574SOL    HW1 8174   4.470   4.073   0.032
 2574SOL    HW2 8175   0.102   4.146   0.022
 2575SOL     OW 8176   0.081   3.896   0.310
 2575SOL    HW1 8177   0.078   3.972   0.251
 2575SOL    HW2 8178   0.155   3.845   0.279
 2576SOL     OW 8179   0.726   4.281   1.699
 2576SOL    HW1 8180   0.728   4.330   1.781
 2576SOL    HW2 8181   0.747   4.191   1.723
 2577SOL     OW 8182   1.217   4.039   0.456
 2577SOL    HW1 8183   1.281   3.968   0.447
 2577SOL    HW2 8184   1.246   4.088   0.533
 2578SOL     OW 8185   1.758   4.091   1.649
 2578SOL    HW1 8186   1.743   4.102   1.555
 2578SOL    HW2 8187   1.689   4.032   1.679
 2579SOL     OW 8188   1.100   0.204   0.051
 2579SOL    HW1 8189   1.095   0.291   0.011
 2579SOL    HW2 8190   1.191   0.176   0.037
 2580SOL     OW 8191   1.815   3.908   1.238
 2580SOL    HW1 8192   1.822   3.813   1.251
 2580SOL    HW2 8193   1.822   3.919   1.143
 2581SOL     OW 8194   0.450   4.157   0.536
 2581SOL    HW1 8195   0.470   4.082   0.479
 2581SOL    HW2 8196   0.392   4.120   0.603
 2582SOL     OW 8197   0.322   4.261   1.277
 2582SOL    HW1 8198   0.375   4.194   1.320
 2582SOL    HW2 8199   0.331   4.243   1.184
 2583SOL     OW 8200   1.432   3.949   1.117
 2583SOL    HW1 8201   1.455   3.868   1.162
 2583SOL    HW2 8202   1.380   3.998   1.181
 2584SOL     OW 8203   1.009   3.743   1.143
 2584SOL    HW1 8204   0.954   3.675   1.102
 2584SOL    HW2 8205   1.097   3.705   1.144
 2585SOL     OW 8206   1.350   3.779   0.164
 2585SOL    HW1 8207   1.373   3.726   0.087
 2585SOL    HW2 8208   1.264   3.748   0.190
 2586SOL     OW 8209   1.300   4.174   0.680
 2586SOL    HW1 8210   1.264   4.262   0.693
 2586SOL    HW2 8211   1.298   4.135   0.767
 2587SOL     OW 8212   1.586   3.926   0.878
 2587SOL    HW1 8213   1.526   3.948   0.949
 2587SOL    HW2 8214   1.587   4.004   0.823
 2588SOL     OW 8215   0.228   4.279   1.972
 2588SOL    HW1 8216   0.163   4.310   2.034
 2588SOL    HW2 8217   0.213   4.330   1.893
 2589SOL     OW 8218   0.209   3.995   2.853
 2589SOL    HW1 8219   0.244   3.967   2.938
 2589SOL    HW2 8220   0.133   3.938   2.839
 2590SOL     OW 8221   4.499   4.101   2.493
 2590SOL    HW1 8222   4.417   4.130   2.532
 2590SOL    HW2 8223   4.477   4.018   2.451
 2591SOL     OW 8224   1.728   4.335   2.100
 2591SOL    HW1 8225   1.729   4.323   2.005
 2591SOL    HW2 8226   1.731   4.246   2.135
 2592SOL     OW 8227   0.730   0.271   2.547
 2592SOL    HW1 8228   0.717   0.208   2.618
 2592SOL    HW2 8229   0.641   0.289   2.515
 2593SOL     OW 8230   0.446   4.119   3.350
 2593SOL    HW1 8231   0.527   4.068   3.351
 2593SOL    HW2 8232   0.376   4.054   3.360
 2594SOL     OW 8233   1.615   4.172   2.602
 2594SOL    HW1 8234   1.547   4.197   2.539
 2594SOL    HW2 8235   1.612   4.240   2.669
 2595SOL     OW 8236   1.596   3.847   3.330
 2595SOL    HW1 8237   1.603   3.928   3.279
 2595SOL    HW2 8238   1.581   3.877   3.420
 2596SOL     OW 8239   0.162   4.323   2.498
 2596SOL    HW1 8240   0.103   4.250   2.482
 2596SOL    HW2 8241   0.117   4.399   2.460
 2597SOL     OW 8242   0.124   0.003   3.450
 2597SOL    HW1 8243   0.218   4.485   3.448
 2597SOL    HW2 8244   0.115   0.090   3.410
 2598SOL     OW 8245   0.817   3.725   2.371
 2598SOL    HW1 8246   0.856   3.810   2.352
 2598SOL    HW2 8247   0.723   3.743   2.380
 2599SOL     OW 8248   0.330   3.979   3.662
 2599SOL    HW1 8249   0.373   4.059   3.693
 2599SOL    HW2 8250   0.240   3.986   3.695
 2600SOL     OW 8251   1.277   4.073   2.795
 2600SOL    HW1 8252   1.188   4.040   2.805
 2600SOL    HW2 8253   1.329   4.021   2.856
 2601SOL     OW 8254   0.829   4.302   3.308
 2601SOL    HW1 8255   0.789   4.307   3.395
 2601SOL    HW2 8256   0.760   4.266   3.253
 2602SOL     OW 8257   1.395   4.199   3.538
 2602SOL    HW1 8258   1.398   4.244   3.623
 2602SOL    HW2 8259   1.453   4.124   3.549
 2603SOL     OW 8260   0.998   4.151   3.095
 2603SOL    HW1 8261   0.927   4.173   3.155
 2603SOL    HW2 8262   0.958   4.092   3.031
 2604SOL     OW 8263   1.056   4.411   2.278
 2604SOL    HW1 8264   1.053   4.453   2.364
 2604SOL    HW2 8265   0.970   4.371   2.267
 2605SOL     OW 8266   0.056   0.069   2.715
 2605SOL    HW1 8267   0.141   0.027   2.722
 2605SOL    HW2 8268   0.048   0.093   2.623
 2606SOL     OW 8269   0.892   4.064   2.052
 2606SOL    HW1 8270   0.933   4.127   1.992
 2606SOL    HW2 8271   0.908   3.979   2.012
 2607SOL     OW 8272   1.708   4.299   3.692
 2607SOL    HW1 8273   1.723   4.387   3.657
 2607SOL    HW2 8274   1.731   4.240   3.619
 2608SOL     OW 8275   0.552   3.904   2.755
 2608SOL    HW1 8276   0.554   3.935   2.846
 2608SOL    HW2 8277   0.547   3.984   2.703
 2609SOL     OW 8278   1.491   4.466   2.601
 2609SOL    HW1 8279   1.474   4.411   2.677
 2609SOL    HW2 8280   1.531   0.045   2.637
 2610SOL     OW 8281   0.189   4.001   3.347
 2610SOL    HW1 8282   0.140   4.082   3.357
 2610SOL    HW2 8283   0.183   3.959   3.433
 2611SOL     OW 8284   1.401   3.830   2.295
 2611SOL    HW1 8285   1.391   3.805   2.203
 2611SOL    HW2 8286   1.495   3.839   2.307
 2612SOL     OW 8287   0.348   4.380   2.265
 2612SOL    HW1 8288   0.392   4.305   2.306
 2612SOL    HW2 8289   0.300   4.422   2.336
 2613SOL     OW 8290   1.534   3.950   3.587
 2613SOL    HW1 8291   1.543   3.971   3.680
 2613SOL    HW2 8292   1.466   3.883   3.584
 2614SOL     OW 8293   0.636   3.848   1.964
 2614SOL    HW1 8294   0.702   3.780   1.981
 2614SOL    HW2 8295   0.587   3.815   1.889
 2615SOL     OW 8296   0.766   4.002   3.617
 2615SOL    HW1 8297   0.843   3.945   3.616
 2615SOL    HW2 8298   0.717   3.976   3.695
 2616SOL     OW 8299   1.342   4.312   3.292
 2616SOL    HW1 8300   1.364   4.275   3.377
 2616SOL    HW2 8301   1.386   4.397   3.290
 2617SOL     OW 8302   0.924   4.235   2.760
 2617SOL    HW1 8303   0.901   4.219   2.668
 2617SOL    HW2 8304   0.963   4.153   2.789
 2618SOL     OW 8305   0.553   3.787   2.362
 2618SOL    HW1 8306   0.472   3.784   2.414
 2618SOL    HW2 8307   0.544   3.865   2.307
 2619SOL     OW 8308   0.294   3.770   2.040
 2619SOL    HW1 8309   0.356   3.837   2.011
 2619SOL    HW2 8310   0.348   3.704   2.084
 2620SOL     OW 8311   0.938   3.973   2.322
 2620SOL    HW1 8312   0.912   4.010   2.238
 2620SOL    HW2 8313   1.033   3.986   2.326
 2621SOL     OW 8314   1.074   4.396   3.387
 2621SOL    HW1 8315   0.992   4.366   3.349
 2621SOL    HW2 8316   1.142   4.358   3.330
 2622SOL     OW 8317   1.025   4.265   1.889
 2622SOL    HW1 8318   1.009   4.353   1.854
 2622SOL    HW2 8319   1.089   4.278   1.959
 2623SOL     OW 8320   0.084   4.256   3.270
 2623SOL    HW1 8321   0.159   4.269   3.212
 2623SOL    HW2 8322   0.051   4.345   3.287
 2624SOL     OW 8323   0.560   3.951   3.027
 2624SOL    HW1 8324   0.601   3.872   3.063
 2624SOL    HW2 8325   0.469   3.945   3.056
 2625SOL     OW 8326   0.870   4.190   2.499
 2625SOL    HW1 8327   0.836   4.249   2.432
 2625SOL    HW2 8328   0.888   4.109   2.451
 2626SOL     OW 8329   1.015   3.778   2.613
 2626SOL    HW1 8330   0.956   3.769   2.537
 2626SOL    HW2 8331   0.993   3.702   2.668
 2627SOL     OW 8332   1.478   4.310   2.826
 2627SOL    HW1 8333   1.416   4.240   2.845
 2627SOL    HW2 8334   1.528   4.322   2.906
 2628SOL     OW 8335   1.403   4.296   1.935
 2628SOL    HW1 8336   1.341   4.268   2.002
 2628SOL    HW2 8337   1.486   4.255   1.961
 2629SOL     OW 8338   0.524   3.985   2.177
 2629SOL    HW1 8339   0.569   3.938   2.107
 2629SOL    HW2 8340   0.510   4.073   2.141
 2630SOL     OW 8341   0.917   3.822   3.257
 2630SOL    HW1 8342   0.941   3.801   3.167
 2630SOL    HW2 8343   0.997   3.860   3.295
 2631SOL     OW 8344   0.444   0.003   3.126
 2631SOL    HW1 8345   0.500   4.500   3.204
 2631SOL    HW2 8346   0.406   4.416   3.119
 2632SOL     OW 8347   1.265   4.100   3.137
 2632SOL    HW1 8348   1.299   4.177   3.182
 2632SOL    HW2 8349   1.176   4.123   3.112
 2633SOL     OW 8350   0.555   4.252   2.726
 2633SOL    HW1 8351   0.574   4.291   2.641
 2633SOL    HW2 8352   0.621   4.289   2.785
 2634SOL     OW 8353   1.568   4.337   2.341
 2634SOL    HW1 8354   1.542   4.403   2.405
 2634SOL    HW2 8355   1.628   4.383   2.282
 2635SOL     OW 8356   0.996   3.849   3.617
 2635SOL    HW1 8357   1.053   3.921   3.591
 2635SOL    HW2 8358   1.043   3.769   3.592
 2636SOL     OW 8359   0.497   3.767   3.609
 2636SOL    HW1 8360   0.455   3.710   3.545
 2636SOL    HW2 8361   0.438   3.841   3.618
 2637SOL     OW 8362   1.210   4.253   2.125
 2637SOL    HW1 8363   1.220   4.174   2.177
 2637SOL    HW2 8364   1.161   4.313   2.181
 2638SOL     OW 8365   0.299   3.922   3.106
 2638SOL    HW1 8366   0.258   3.950   3.188
 2638SOL    HW2 8367   0.286   3.827   3.105
 2639SOL     OW 8368   0.734   4.360   2.906
 2639SOL    HW1 8369   0.807   4.322   2.857
 2639SOL    HW2 8370   0.744   4.454   2.894
 2640SOL     OW 8371   1.752   0.131   3.715
 2640SOL    HW1 8372   1.686   0.148   3.648
 2640SOL    HW2 8373   1.709   0.156   3.798
 2641SOL     OW 8374   0.311   3.793   2.480
 2641SOL    HW1 8375   0.286   3.881   2.507
 2641SOL    HW2 8376   0.309   3.742   2.561
 2642SOL     OW 8377   1.614   4.091   2.230
 2642SOL    HW1 8378   1.644   4.030   2.298
 2642SOL    HW2 8379   1.590   4.170   2.278
 2643SOL     OW 8380   1.526   3.999   1.989
 2643SOL    HW1 8381   1.463   3.932   2.015
 2643SOL    HW2 8382   1.561   4.032   2.071
 2644SOL     OW 8383   0.320   0.014   2.774
 2644SOL    HW1 8384   0.400   0.066   2.783
 2644SOL    HW2 8385   0.335   4.438   2.830
 2645SOL     OW 8386   0.333   4.237   2.874
 2645SOL    HW1 8387   0.289   4.155   2.850
 2645SOL    HW2 8388   0.408   4.242   2.814
 2646SOL     OW 8389   1.137   4.093   3.548
 2646SOL    HW1 8390   1.084   4.152   3.602
 2646SOL    HW2 8391   1.222   4.137   3.539
 2647SOL     OW 8392   1.160   3.926   3.331
 2647SOL    HW1 8393   1.150   3.987   3.404
 2647SOL    HW2 8394   1.201   3.978   3.262
 2648SOL     OW 8395   0.022   4.277   2.966
 2648SOL    HW1 8396   0.109   4.261   2.930
 2648SOL    HW2 8397   0.024   4.237   3.053
 2649SOL     OW 8398   0.175   4.236   3.553
 2649SOL    HW1 8399   0.264   4.219   3.522
 2649SOL    HW2 8400   0.149   4.317   3.509
 2650SOL     OW 8401   0.820   4.282   2.212
 2650SOL    HW1 8402   0.822   4.208   2.152
 2650SOL    HW2 8403   0.731   4.317   2.205
 2651SOL     OW 8404   1.636   4.317   3.048
 2651SOL    HW1 8405   1.632   4.259   3.124
 2651SOL    HW2 8406   1.724   4.304   3.013
 2652SOL     OW 8407   0.674   4.188   3.118
 2652SOL    HW1 8408   0.637   4.106   3.085
 2652SOL    HW2 8409   0.684   4.243   3.041
 2653SOL     OW 8410   0.485   4.224   2.049
 2653SOL    HW1 8411   0.514   4.309   2.081
 2653SOL    HW2 8412   0.392   4.235   2.031
 2654SOL     OW 8413   1.721   3.870   2.373
 2654SOL    HW1 8414   1.792   3.855   2.311
 2654SOL    HW2 8415   1.705   3.784   2.412
 2655SOL     OW 8416   1.279   0.136   2.541
 2655SOL    HW1 8417   1.337   0.061   2.554
 2655SOL    HW2 8418   1.330   0.197   2.487
 2656SOL     OW 8419   1.840   3.896   2.829
 2656SOL    HW1 8420   1.868   3.809   2.801
 2656SOL    HW2 8421   1.754   3.907   2.789
 2657SOL     OW 8422   0.268   4.041   2.582
 2657SOL    HW1 8423   0.190   4.088   2.554
 2657SOL    HW2 8424   0.255   4.028   2.676
 2658SOL     OW 8425   0.905   0.091   2.078
 2658SOL    HW1 8426   0.987   0.129   2.046
 2658SOL    HW2 8427   0.927   0.054   2.163
 2659SOL     OW 8428   1.066   0.297   2.606
 2659SOL    HW1 8429   0.991   0.287   2.546
 2659SOL    HW2 8430   1.130   0.234   2.575
 2660SOL     OW 8431   1.020   3.964   2.827
 2660SOL    HW1 8432   1.016   3.915   2.744
 2660SOL    HW2 8433   1.016   3.896   2.895
 2661SOL     OW 8434   1.722   4.114   3.242
 2661SOL    HW1 8435   1.793   4.178   3.240
 2661SOL    HW2 8436   1.752   4.043   3.185
 2662SOL     OW 8437   0.674   3.923   3.361
 2662SOL    HW1 8438   0.758   3.901   3.320
 2662SOL    HW2 8439   0.697   3.952   3.449
 2663SOL     OW 8440   0.067   4.045   1.899
 2663SOL    HW1 8441   4.474   4.065   1.889
 2663SOL    HW2 8442   0.111   4.129   1.890
 2664SOL     OW 8443   0.087   3.901   2.167
 2664SOL    HW1 8444   0.076   3.968   2.099
 2664SOL    HW2 8445   0.162   3.849   2.137
 2665SOL     OW 8446   0.726   4.281   3.561
 2665SOL    HW1 8447   0.728   4.330   3.643
 2665SOL    HW2 8448   0.747   4.191   3.585
 2666SOL     OW 8449   1.218   4.042   2.316
 2666SOL    HW1 8450   1.280   3.970   2.308
 2666SOL    HW2 8451   1.247   4.090   2.394
 2667SOL     OW 8452   1.759   4.091   3.511
 2667SOL    HW1 8453   1.743   4.102   3.417
 2667SOL    HW2 8454   1.689   4.032   3.541
 2668SOL     OW 8455   1.111   0.226   1.964
 2668SOL    HW1 8456   1.099   0.269   1.880
 2668SOL    HW2 8457   1.197   0.184   1.958
 2669SOL     OW 8458   1.814   3.908   3.100
 2669SOL    HW1 8459   1.822   3.813   3.114
 2669SOL    HW2 8460   1.822   3.919   3.005
 2670SOL     OW 8461   0.450   4.155   2.397
 2670SOL    HW1 8462   0.465   4.080   2.339
 2670SOL    HW2 8463   0.392   4.121   2.465
 2671SOL     OW 8464   0.322   4.261   3.139
 2671SOL    HW1 8465   0.375   4.194   3.182
 2671SOL    HW2 8466   0.331   4.243   3.046
 2672SOL     OW 8467   1.432   3.949   2.980
 2672SOL    HW1 8468   1.455   3.868   3.025
 2672SOL    HW2 8469   1.380   3.998   3.043
 2673SOL     OW 8470   1.009   3.743   3.004
 2673SOL    HW1 8471   0.954   3.675   2.964
 2673SOL    HW2 8472   1.097   3.705   3.006
 2674SOL     OW 8473   1.353   3.777   2.027
 2674SOL    HW1 8474   1.381   3.712   1.962
 2674SOL    HW2 8475   1.265   3.748   2.053
 2675SOL     OW 8476   1.299   4.175   2.543
 2675SOL    HW1 8477   1.263   4.262   2.557
 2675SOL    HW2 8478   1.298   4.134   2.629
 2676SOL     OW 8479   1.586   3.926   2.740
 2676SOL    HW1 8480   1.527   3.948   2.811
 2676SOL    HW2 8481   1.587   4.004   2.684
 2677SOL     OW 8482   0.228   4.279   3.834
 2677SOL    HW1 8483   0.163   4.310   3.896
 2677SOL    HW2 8484   0.213   4.330   3.755
 2678SOL     OW 8485   0.209   3.995   4.715
 2678SOL    HW1 8486   0.244   3.967   4.800
 2678SOL    HW2 8487   0.133   3.938   4.701
 2679SOL     OW 8488   4.499   4.101   4.355
 2679SOL    HW1 8489   4.417   4.131   4.394
 2679SOL    HW2 8490   4.477   4.018   4.313
 2680SOL     OW 8491   1.728   4.335   3.962
 2680SOL    HW1 8492   1.729   4.323   3.867
 2680SOL    HW2 8493   1.731   4.246   3.997
 2681SOL     OW 8494   0.730   0.272   4.409
 2681SOL    HW1 8495   0.717   0.208   4.480
 2681SOL    HW2 8496   0.641   0.289   4.377
 2682SOL     OW 8497   0.446   4.119   5.212
 2682SOL    HW1 8498   0.527   4.068   5.213
 2682SOL    HW2 8499   0.376   4.054   5.222
 2683SOL     OW 8500   1.615   4.172   4.464
 2683SOL    HW1 8501   1.547   4.197   4.401
 2683SOL    HW2 8502   1.612   4.240   4.531
 2684SOL     OW 8503   1.596   3.847   5.192
 2684SOL    HW1 8504   1.603   3.928   5.141
 2684SOL    HW2 8505   1.581   3.877   5.282
 2685SOL     OW 8506   0.162   4.323   4.360
 2685SOL    HW1 8507   0.103   4.250   4.344
 2685SOL    HW2 8508   0.117   4.399   4.322
 2686SOL     OW 8509   0.124   0.003   5.312
 2686SOL    HW1 8510   0.218   4.485   5.310
 2686SOL    HW2 8511   0.115   0.090   5.272
 2687SOL     OW 8512   0.817   3.725   4.233
 2687SOL    HW1 8513   0.856   3.810   4.214
 2687SOL    HW2 8514   0.723   3.743   4.242
 2688SOL     OW 8515   0.330   3.979   5.523
 2688SOL    HW1 8516   0.373   4.059   5.556
 2688SOL    HW2 8517   0.240   3.986   5.557
 2689SOL     OW 8518   1.277   4.074   4.657
 2689SOL    HW1 8519   1.188   4.041   4.667
 2689SOL    HW2 8520   1.329   4.021   4.718
 2690SOL     OW 8521   0.829   4.303   5.170
 2690SOL    HW1 8522   0.789   4.307   5.257
 2690SOL    HW2 8523   0.760   4.266   5.115
 2691SOL     OW 8524   1.395   4.200   5.400
 2691SOL    HW1 8525   1.398   4.244   5.485
 2691SOL    HW2 8526   1.453   4.124   5.411
 2692SOL     OW 8527   0.998   4.151   4.957
 2692SOL    HW1 8528   0.927   4.173   5.017
 2692SOL    HW2 8529   0.958   4.092   4.893
 2693SOL     OW 8530   1.056   4.410   4.140
 2693SOL    HW1 8531   1.053   4.453   4.226
 2693SOL    HW2 8532   0.970   4.371   4.129
 2694SOL     OW 8533   0.056   0.070   4.577
 2694SOL    HW1 8534   0.141   0.027   4.584
 2694SOL    HW2 8535   0.048   0.093   4.485
 2695SOL     OW 8536   0.892   4.064   3.914
 2695SOL    HW1 8537   0.933   4.127   3.854
 2695SOL    HW2 8538   0.908   3.979   3.874
 2696SOL     OW 8539   1.708   4.299   5.553
 2696SOL    HW1 8540   1.723   4.386   5.518
 2696SOL    HW2 8541   1.731   4.240   5.481
 2697SOL     OW 8542   0.552   3.904   4.617
 2697SOL    HW1 8543   0.554   3.935   4.708
 2697SOL    HW2 8544   0.547   3.984   4.565
 2698SOL     OW 8545   1.491   4.466   4.463
 2698SOL    HW1 8546   1.474   4.411   4.539
 2698SOL    HW2 8547   1.531   0.045   4.499
 2699SOL     OW 8548   0.189   4.001   5.209
 2699SOL    HW1 8549   0.140   4.082   5.219
 2699SOL    HW2 8550   0.183   3.958   5.295
 2700SOL     OW 8551   1.401   3.830   4.157
 2700SOL    HW1 8552   1.391   3.805   4.065
 2700SOL    HW2 8553   1.495   3.840   4.169
 2701SOL     OW 8554   0.348   4.380   4.127
 2701SOL    HW1 8555   0.392   4.305   4.168
 2701SOL    HW2 8556   0.300   4.422   4.198
 2702SOL     OW 8557   1.534   3.950   5.449
 2702SOL    HW1 8558   1.543   3.971   5.542
 2702SOL    HW2 8559   1.466   3.883   5.446
 2703SOL     OW 8560   0.636   3.848   3.826
 2703SOL    HW1 8561   0.702   3.780   3.843
 2703SOL    HW2 8562   0.587   3.815   3.751
 2704SOL     OW 8563   0.766   4.002   5.479
 2704SOL    HW1 8564   0.843   3.945   5.478
 2704SOL    HW2 8565   0.717   3.976   5.557
 2705SOL     OW 8566   1.342   4.312   5.154
 2705SOL    HW1 8567   1.364   4.275   5.239
 2705SOL    HW2 8568   1.386   4.397   5.152
 2706SOL     OW 8569   0.924   4.235   4.622
 2706SOL    HW1 8570   0.901   4.219   4.530
 2706SOL    HW2 8571   0.963   4.153   4.651
 2707SOL     OW 8572   0.553   3.787   4.224
 2707SOL    HW1 8573   0.472   3.784   4.276
 2707SOL    HW2 8574   0.544   3.865   4.169
 2708SOL     OW 8575   0.294   3.770   3.902
 2708SOL    HW1 8576   0.356   3.837   3.873
 2708SOL    HW2 8577   0.348   3.704   3.946
 2709SOL     OW 8578   0.938   3.973   4.184
 2709SOL    HW1 8579   0.912   4.010   4.100
 2709SOL    HW2 8580   1.033   3.986   4.188
 2710SOL     OW 8581   1.074   4.396   5.249
 2710SOL    HW1 8582   0.992   4.366   5.211
 2710SOL    HW2 8583   1.142   4.358   5.192
 2711SOL     OW 8584   1.025   4.265   3.751
 2711SOL    HW1 8585   1.009   4.353   3.716
 2711SOL    HW2 8586   1.089   4.278   3.821
 2712SOL     OW 8587   0.084   4.256   5.133
 2712SOL    HW1 8588   0.159   4.269   5.074
 2712SOL    HW2 8589   0.051   4.345   5.149
 2713SOL     OW 8590   0.560   3.951   4.889
 2713SOL    HW1 8591   0.601   3.872   4.925
 2713SOL    HW2 8592   0.469   3.946   4.918
 2714SOL     OW 8593   0.870   4.190   4.361
 2714SOL    HW1 8594   0.836   4.249   4.294
 2714SOL    HW2 8595   0.888   4.109   4.313
 2715SOL     OW 8596   1.015   3.777   4.475
 2715SOL    HW1 8597   0.957   3.770   4.399
 2715SOL    HW2 8598   0.993   3.702   4.530
 2716SOL     OW 8599   1.478   4.311   4.688
 2716SOL    HW1 8600   1.416   4.240   4.707
 2716SOL    HW2 8601   1.528   4.322   4.768
 2717SOL     OW 8602   1.403   4.296   3.797
 2717SOL    HW1 8603   1.341   4.268   3.864
 2717SOL    HW2 8604   1.486   4.255   3.823
 2718SOL     OW 8605   0.524   3.985   4.039
 2718SOL    HW1 8606   0.569   3.938   3.969
 2718SOL    HW2 8607   0.510   4.073   4.003
 2719SOL     OW 8608   0.917   3.822   5.119
 2719SOL    HW1 8609   0.941   3.801   5.029
 2719SOL    HW2 8610   0.997   3.860   5.157
 2720SOL     OW 8611   0.444   0.003   4.988
 2720SOL    HW1 8612   0.500   4.500   5.066
 2720SOL    HW2 8613   0.406   4.416   4.981
 2721SOL     OW 8614   1.265   4.100   4.999
 2721SOL    HW1 8615   1.299   4.177   5.044
 2721SOL    HW2 8616   1.176   4.123   4.974
 2722SOL     OW 8617   0.555   4.251   4.588
 2722SOL    HW1 8618   0.574   4.291   4.503
 2722SOL    HW2 8619   0.621   4.289   4.647
 2723SOL     OW 8620   1.568   4.337   4.203
 2723SOL    HW1 8621   1.542   4.403   4.267
 2723SOL    HW2 8622   1.628   4.383   4.144
 2724SOL     OW 8623   0.995   3.849   5.478
 2724SOL    HW1 8624   1.053   3.921   5.453
 2724SOL    HW2 8625   1.043   3.770   5.454
 2725SOL     OW 8626   0.497   3.767   5.471
 2725SOL    HW1 8627   0.455   3.710   5.407
 2725SOL    HW2 8628   0.438   3.841   5.480
 2726SOL     OW 8629   1.210   4.253   3.987
 2726SOL    HW1 8630   1.220   4.174   4.039
 2726SOL    HW2 8631   1.161   4.313   4.043
 2727SOL     OW 8632   0.299   3.922   4.968
 2727SOL    HW1 8633   0.258   3.950   5.050
 2727SOL    HW2 8634   0.286   3.827   4.966
 2728SOL     OW 8635   0.734   4.360   4.768
 2728SOL    HW1 8636   0.807   4.322   4.719
 2728SOL    HW2 8637   0.743   4.454   4.756
 2729SOL     OW 8638   1.752   0.133   5.578
 2729SOL    HW1 8639   1.685   0.148   5.511
 2729SOL    HW2 8640   1.709   0.157   5.660
 2730SOL     OW 8641   0.311   3.793   4.342
 2730SOL    HW1 8642   0.286   3.881   4.369
 2730SOL    HW2 8643   0.309   3.742   4.423
 2731SOL     OW 8644   1.614   4.091   4.092
 2731SOL    HW1 8645   1.644   4.030   4.160
 2731SOL    HW2 8646   1.590   4.170   4.140
 2732SOL     OW 8647   1.526   3.999   3.851
 2732SOL    HW1 8648   1.463   3.932   3.877
 2732SOL    HW2 8649   1.561   4.032   3.933
 2733SOL     OW 8650   0.320   0.014   4.636
 2733SOL    HW1 8651   0.400   0.066   4.645
 2733SOL    HW2 8652   0.335   4.438   4.692
 2734SOL     OW 8653   0.333   4.237   4.735
 2734SOL    HW1 8654   0.289   4.155   4.712
 2734SOL    HW2 8655   0.408   4.242   4.676
 2735SOL     OW 8656   1.137   4.093   5.410
 2735SOL    HW1 8657   1.084   4.152   5.464
 2735SOL    HW2 8658   1.222   4.137   5.401
 2736SOL     OW 8659   1.160   3.926   5.193
 2736SOL    HW1 8660   1.150   3.987   5.266
 2736SOL    HW2 8661   1.201   3.978   5.123
 2737SOL     OW 8662   0.022   4.277   4.828
 2737SOL    HW1 8663   0.109   4.261   4.792
 2737SOL    HW2 8664   0.024   4.236   4.915
 2738SOL     OW 8665   0.175   4.236   5.416
 2738SOL    HW1 8666   0.264   4.219   5.384
 2738SOL    HW2 8667   0.149   4.317   5.371
 2739SOL     OW 8668   0.820   4.282   4.074
 2739SOL    HW1 8669   0.821   4.208   4.014
 2739SOL    HW2 8670   0.731   4.317   4.066
 2740SOL     OW 8671   1.636   4.317   4.910
 2740SOL    HW1 8672   1.632   4.259   4.986
 2740SOL    HW2 8673   1.724   4.305   4.875
 2741SOL     OW 8674   0.674   4.188   4.980
 2741SOL    HW1 8675   0.637   4.106   4.947
 2741SOL    HW2 8676   0.684   4.243   4.903
 2742SOL     OW 8677   0.485   4.224   3.912
 2742SOL    HW1 8678   0.514   4.309   3.943
 2742SOL    HW2 8679   0.392   4.235   3.893
 2743SOL     OW 8680   1.721   3.870   4.235
 2743SOL    HW1 8681   1.792   3.855   4.173
 2743SOL    HW2 8682   1.705   3.784   4.274
 2744SOL     OW 8683   1.279   0.136   4.403
 2744SOL    HW1 8684   1.337   0.061   4.416
 2744SOL    HW2 8685   1.330   0.197   4.349
 2745SOL     OW 8686   1.840   3.896   4.691
 2745SOL    HW1 8687   1.868   3.809   4.663
 2745SOL    HW2 8688   1.754   3.907   4.651
 2746SOL     OW 8689   0.268   4.041   4.444
 2746SOL    HW1 8690   0.190   4.088   4.416
 2746SOL    HW2 8691   0.255   4.028   4.538
 2747SOL     OW 8692   0.905   0.091   3.940
 2747SOL    HW1 8693   0.987   0.129   3.908
 2747SOL    HW2 8694   0.927   0.054   4.025
 2748SOL     OW 8695   1.065   0.297   4.468
 2748SOL    HW1 8696   0.991   0.287   4.408
 2748SOL    HW2 8697   1.130   0.234   4.437
 2749SOL     OW 8698   1.020   3.964   4.689
 2749SOL    HW1 8699   1.016   3.916   4.606
 2749SOL    HW2 8700   1.016   3.896   4.757
 2750SOL     OW 8701   1.722   4.114   5.104
 2750SOL    HW1 8702   1.793   4.178   5.102
 2750SOL    HW2 8703   1.752   4.043   5.047
 2751SOL     OW 8704   0.674   3.923   5.223
 2751SOL    HW1 8705   0.758   3.901   5.182
 2751SOL    HW2 8706   0.697   3.952   5.311
 2752SOL     OW 8707   0.067   4.045   3.761
 2752SOL    HW1 8708   4.474   4.066   3.751
 2752SOL    HW2 8709   0.111   4.129   3.752
 2753SOL     OW 8710   0.087   3.901   4.029
 2753SOL    HW1 8711   0.076   3.968   3.961
 2753SOL    HW2 8712   0.162   3.849   3.999
 2754SOL     OW 8713   0.726   4.281   5.423
 2754SOL    HW1 8714   0.728   4.330   5.505
 2754SOL    HW2 8715   0.747   4.191   5.447
 2755SOL     OW 8716   1.218   4.042   4.178
 2755SOL    HW1 8717   1.280   3.970   4.170
 2755SOL    HW2 8718   1.247   4.090   4.256
 2756SOL     OW 8719   1.759   4.091   5.373
 2756SOL    HW1 8720   1.743   4.102   5.279
 2756SOL    HW2 8721   1.689   4.032   5.403
 2757SOL     OW 8722   1.111   0.226   3.826
 2757SOL    HW1 8723   1.099   0.270   3.742
 2757SOL    HW2 8724   1.197   0.184   3.820
 2758SOL     OW 8725   1.814   3.908   4.962
 2758SOL    HW1 8726   1.823   3.813   4.975
 2758SOL    HW2 8727   1.822   3.919   4.867
 2759SOL     OW 8728   0.450   4.155   4.259
 2759SOL    HW1 8729   0.465   4.080   4.201
 2759SOL    HW2 8730   0.392   4.121   4.327
 2760SOL     OW 8731   0.322   4.261   5.001
 2760SOL    HW1 8732   0.375   4.194   5.044
 2760SOL    HW2 8733   0.331   4.243   4.908
 2761SOL     OW 8734   1.432   3.949   4.842
 2761SOL    HW1 8735   1.456   3.868   4.888
 2761SOL    HW2 8736   1.380   3.998   4.905
 2762SOL     OW 8737   1.009   3.743   4.866
 2762SOL    HW1 8738   0.954   3.675   4.826
 2762SOL    HW2 8739   1.097   3.705   4.868
 2763SOL     OW 8740   1.353   3.777   3.889
 2763SOL    HW1 8741   1.381   3.713   3.824
 2763SOL    HW2 8742   1.265   3.748   3.915
 2764SOL     OW 8743   1.299   4.175   4.405
 2764SOL    HW1 8744   1.263   4.262   4.419
 2764SOL    HW2 8745   1.298   4.134   4.491
 2765SOL     OW 8746   1.586   3.926   4.602
 2765SOL    HW1 8747   1.527   3.948   4.673
 2765SOL    HW2 8748   1.587   4.004   4.546
 2766SOL     OW 8749   0.228   4.279   5.696
 2766SOL    HW1 8750   0.163   4.310   5.758
 2766SOL    HW2 8751   0.213   4.330   5.617
 2767SOL     OW 8752   0.209   3.995   6.577
 2767SOL    HW1 8753   0.244   3.968   6.662
 2767SOL    HW2 8754   0.133   3.938   6.563
 2768SOL     OW 8755   4.499   4.101   6.217
 2768SOL    HW1 8756   4.417   4.130   6.256
 2768SOL    HW2 8757   4.477   4.018   6.175
 2769SOL     OW 8758   1.729   4.335   5.824
 2769SOL    HW1 8759   1.729   4.323   5.729
 2769SOL    HW2 8760   1.731   4.246   5.859
 2770SOL     OW 8761   0.730   0.272   6.271
 2770SOL    HW1 8762   0.718   0.208   6.342
 2770SOL    HW2 8763   0.641   0.289   6.239
 2771SOL     OW 8764   0.446   4.119   7.074
 2771SOL    HW1 8765   0.527   4.068   7.076
 2771SOL    HW2 8766   0.376   4.054   7.084
 2772SOL     OW 8767   1.615   4.172   6.326
 2772SOL    HW1 8768   1.547   4.196   6.264
 2772SOL    HW2 8769   1.612   4.240   6.393
 2773SOL     OW 8770   1.596   3.848   7.054
 2773SOL    HW1 8771   1.603   3.928   7.003
 2773SOL    HW2 8772   1.581   3.877   7.144
 2774SOL     OW 8773   0.162   4.323   6.221
 2774SOL    HW1 8774   0.103   4.250   6.206
 2774SOL    HW2 8775   0.117   4.399   6.184
 2775SOL     OW 8776   0.124   0.003   7.174
 2775SOL    HW1 8777   0.218   4.485   7.172
 2775SOL    HW2 8778   0.115   0.090   7.134
 2776SOL     OW 8779   0.817   3.725   6.095
 2776SOL    HW1 8780   0.856   3.810   6.076
 2776SOL    HW2 8781   0.723   3.743   6.104
 2777SOL     OW 8782   0.329   3.979   7.385
 2777SOL    HW1 8783   0.373   4.058   7.418
 2777SOL    HW2 8784   0.240   3.986   7.419
 2778SOL     OW 8785   1.277   4.073   6.519
 2778SOL    HW1 8786   1.188   4.040   6.529
 2778SOL    HW2 8787   1.329   4.021   6.580
 2779SOL     OW 8788   0.829   4.303   7.032
 2779SOL    HW1 8789   0.789   4.307   7.119
 2779SOL    HW2 8790   0.760   4.266   6.977
 2780SOL     OW 8791   1.395   4.199   7.262
 2780SOL    HW1 8792   1.398   4.244   7.347
 2780SOL    HW2 8793   1.453   4.124   7.273
 2781SOL     OW 8794   0.998   4.152   6.818
 2781SOL    HW1 8795   0.927   4.173   6.879
 2781SOL    HW2 8796   0.959   4.091   6.755
 2782SOL     OW 8797   1.056   4.411   6.002
 2782SOL    HW1 8798   1.053   4.453   6.088
 2782SOL    HW2 8799   0.970   4.371   5.991
 2783SOL     OW 8800   0.056   0.069   6.439
 2783SOL    HW1 8801   0.141   0.027   6.446
 2783SOL    HW2 8802   0.048   0.093   6.347
 2784SOL     OW 8803   0.892   4.064   5.776
 2784SOL    HW1 8804   0.933   4.127   5.716
 2784SOL    HW2 8805   0.908   3.979   5.736
 2785SOL     OW 8806   1.708   4.299   7.416
 2785SOL    HW1 8807   1.723   4.387   7.380
 2785SOL    HW2 8808   1.730   4.240   7.343
 2786SOL     OW 8809   0.552   3.904   6.479
 2786SOL    HW1 8810   0.554   3.935   6.570
 2786SOL    HW2 8811   0.547   3.984   6.427
 2787SOL     OW 8812   1.491   4.466   6.325
 2787SOL    HW1 8813   1.474   4.411   6.401
 2787SOL    HW2 8814   1.531   0.045   6.361
 2788SOL     OW 8815   0.189   4.001   7.071
 2788SOL    HW1 8816   0.140   4.082   7.081
 2788SOL    HW2 8817   0.183   3.958   7.156
 2789SOL     OW 8818   1.401   3.831   6.019
 2789SOL    HW1 8819   1.391   3.805   5.927
 2789SOL    HW2 8820   1.495   3.839   6.032
 2790SOL     OW 8821   0.348   4.380   5.989
 2790SOL    HW1 8822   0.392   4.305   6.030
 2790SOL    HW2 8823   0.300   4.422   6.060
 2791SOL     OW 8824   1.534   3.950   7.311
 2791SOL    HW1 8825   1.543   3.971   7.404
 2791SOL    HW2 8826   1.466   3.882   7.308
 2792SOL     OW 8827   0.637   3.848   5.688
 2792SOL    HW1 8828   0.701   3.780   5.706
 2792SOL    HW2 8829   0.587   3.815   5.613
 2793SOL     OW 8830   0.766   4.002   7.341
 2793SOL    HW1 8831   0.843   3.945   7.340
 2793SOL    HW2 8832   0.717   3.976   7.419
 2794SOL     OW 8833   1.342   4.312   7.016
 2794SOL    HW1 8834   1.364   4.275   7.101
 2794SOL    HW2 8835   1.386   4.397   7.014
 2795SOL     OW 8836   0.924   4.235   6.484
 2795SOL    HW1 8837   0.901   4.219   6.392
 2795SOL    HW2 8838   0.963   4.153   6.513
 2796SOL     OW 8839   0.553   3.787   6.086
 2796SOL    HW1 8840   0.472   3.784   6.138
 2796SOL    HW2 8841   0.544   3.865   6.031
 2797SOL     OW 8842   0.294   3.770   5.764
 2797SOL    HW1 8843   0.356   3.837   5.735
 2797SOL    HW2 8844   0.348   3.704   5.808
 2798SOL     OW 8845   0.938   3.973   6.046
 2798SOL    HW1 8846   0.912   4.010   5.962
 2798SOL    HW2 8847   1.033   3.985   6.050
 2799SOL     OW 8848   1.074   4.396   7.110
 2799SOL    HW1 8849   0.992   4.366   7.073
 2799SOL    HW2 8850   1.142   4.358   7.055
 2800SOL     OW 8851   1.025   4.265   5.613
 2800SOL    HW1 8852   1.009   4.353   5.578
 2800SOL    HW2 8853   1.088   4.278   5.683
 2801SOL     OW 8854   0.084   4.256   6.995
 2801SOL    HW1 8855   0.159   4.269   6.936
 2801SOL    HW2 8856   0.051   4.345   7.011
 2802SOL     OW 8857   0.560   3.951   6.751
 2802SOL    HW1 8858   0.601   3.872   6.787
 2802SOL    HW2 8859   0.469   3.945   6.780
 2803SOL     OW 8860   0.870   4.190   6.223
 2803SOL    HW1 8861   0.835   4.249   6.156
 2803SOL    HW2 8862   0.888   4.109   6.175
 2804SOL     OW 8863   1.015   3.777   6.337
 2804SOL    HW1 8864   0.956   3.769   6.261
 2804SOL    HW2 8865   0.994   3.702   6.392
 2805SOL     OW 8866   1.478   4.310   6.549
 2805SOL    HW1 8867   1.416   4.240   6.569
 2805SOL    HW2 8868   1.528   4.322   6.630
 2806SOL     OW 8869   1.403   4.296   5.659
 2806SOL    HW1 8870   1.341   4.268   5.726
 2806SOL    HW2 8871   1.486   4.255   5.685
 2807SOL     OW 8872   0.524   3.985   5.901
 2807SOL    HW1 8873   0.570   3.938   5.831
 2807SOL    HW2 8874   0.510   4.073   5.865
 2808SOL     OW 8875   0.917   3.823   6.981
 2808SOL    HW1 8876   0.941   3.801   6.891
 2808SOL    HW2 8877   0.997   3.860   7.019
 2809SOL     OW 8878   0.444   0.003   6.850
 2809SOL    HW1 8879   0.500   4.500   6.928
 2809SOL    HW2 8880   0.406   4.416   6.843
 2810SOL     OW 8881   1.265   4.100   6.861
 2810SOL    HW1 8882   1.299   4.177   6.906
 2810SOL    HW2 8883   1.176   4.123   6.836
 2811SOL     OW 8884   0.555   4.251   6.450
 2811SOL    HW1 8885   0.574   4.291   6.365
 2811SOL    HW2 8886   0.621   4.289   6.509
 2812SOL     OW 8887   1.568   4.337   6.064
 2812SOL    HW1 8888   1.542   4.403   6.129
 2812SOL    HW2 8889   1.628   4.383   6.006
 2813SOL     OW 8890   0.995   3.849   7.340
 2813SOL    HW1 8891   1.053   3.920   7.315
 2813SOL    HW2 8892   1.043   3.769   7.316
 2814SOL     OW 8893   0.497   3.767   7.333
 2814SOL    HW1 8894   0.455   3.710   7.269
 2814SOL    HW2 8895   0.437   3.841   7.342
 2815SOL     OW 8896   1.210   4.253   5.849
 2815SOL    HW1 8897   1.220   4.174   5.901
 2815SOL    HW2 8898   1.161   4.313   5.905
 2816SOL     OW 8899   0.299   3.922   6.830
 2816SOL    HW1 8900   0.258   3.950   6.912
 2816SOL    HW2 8901   0.286   3.827   6.828
 2817SOL     OW 8902   0.734   4.360   6.630
 2817SOL    HW1 8903   0.807   4.322   6.581
 2817SOL    HW2 8904   0.744   4.454   6.619
 2818SOL     OW 8905   1.752   0.132   7.439
 2818SOL    HW1 8906   1.685   0.148   7.372
 2818SOL    HW2 8907   1.709   0.156   7.522
 2819SOL     OW 8908   0.311   3.793   6.204
 2819SOL    HW1 8909   0.286   3.881   6.231
 2819SOL    HW2 8910   0.309   3.742   6.285
 2820SOL     OW 8911   1.614   4.091   5.954
 2820SOL    HW1 8912   1.644   4.030   6.021
 2820SOL    HW2 8913   1.590   4.170   6.002
 2821SOL     OW 8914   1.526   3.999   5.713
 2821SOL    HW1 8915   1.463   3.932   5.739
 2821SOL    HW2 8916   1.561   4.032   5.795
 2822SOL     OW 8917   0.320   0.014   6.498
 2822SOL    HW1 8918   0.400   0.066   6.507
 2822SOL    HW2 8919   0.335   4.438   6.554
 2823SOL     OW 8920   0.333   4.237   6.597
 2823SOL    HW1 8921   0.289   4.155   6.574
 2823SOL    HW2 8922   0.408   4.242   6.538
 2824SOL     OW 8923   1.137   4.093   7.272
 2824SOL    HW1 8924   1.085   4.152   7.326
 2824SOL    HW2 8925   1.222   4.137   7.264
 2825SOL     OW 8926   1.160   3.926   7.055
 2825SOL    HW1 8927   1.150   3.987   7.128
 2825SOL    HW2 8928   1.201   3.978   6.985
 2826SOL     OW 8929   0.022   4.277   6.690
 2826SOL    HW1 8930   0.109   4.261   6.654
 2826SOL    HW2 8931   0.024   4.236   6.777
 2827SOL     OW 8932   0.175   4.236   7.278
 2827SOL    HW1 8933   0.264   4.219   7.247
 2827SOL    HW2 8934   0.149   4.317   7.233
 2828SOL     OW 8935   0.820   4.283   5.936
 2828SOL    HW1 8936   0.822   4.208   5.876
 2828SOL    HW2 8937   0.731   4.317   5.929
 2829SOL     OW 8938   1.636   4.317   6.772
 2829SOL    HW1 8939   1.632   4.259   6.848
 2829SOL    HW2 8940   1.724   4.305   6.737
 2830SOL     OW 8941   0.674   4.188   6.842
 2830SOL    HW1 8942   0.637   4.106   6.809
 2830SOL    HW2 8943   0.684   4.243   6.765
 2831SOL     OW 8944   0.485   4.224   5.773
 2831SOL    HW1 8945   0.514   4.309   5.806
 2831SOL    HW2 8946   0.392   4.235   5.755
 2832SOL     OW 8947   1.721   3.870   6.097
 2832SOL    HW1 8948   1.792   3.855   6.035
 2832SOL    HW2 8949   1.704   3.784   6.136
 2833SOL     OW 8950   1.279   0.136   6.265
 2833SOL    HW1 8951   1.337   0.061   6.278
 2833SOL    HW2 8952   1.330   0.196   6.210
 2834SOL     OW 8953   1.840   3.896   6.553
 2834SOL    HW1 8954   1.868   3.809   6.525
 2834SOL    HW2 8955   1.754   3.907   6.513
 2835SOL     OW 8956   0.268   4.041   6.306
 2835SOL    HW1 8957   0.190   4.088   6.278
 2835SOL    HW2 8958   0.255   4.028   6.400
 2836SOL     OW 8959   0.905   0.091   5.801
 2836SOL    HW1 8960   0.987   0.130   5.770
 2836SOL    HW2 8961   0.927   0.054   5.887
 2837SOL     OW 8962   1.066   0.297   6.330
 2837SOL    HW1 8963   0.991   0.287   6.271
 2837SOL    HW2 8964   1.130   0.234   6.299
 2838SOL     OW 8965   1.020   3.964   6.551
 2838SOL    HW1 8966   1.016   3.915   6.468
 2838SOL    HW2 8967   1.016   3.896   6.619
 2839SOL     OW 8968   1.722   4.114   6.966
 2839SOL    HW1 8969   1.793   4.178   6.964
 2839SOL    HW2 8970   1.752   4.043   6.909
 2840SOL     OW 8971   0.674   3.923   7.085
 2840SOL    HW1 8972   0.758   3.901   7.044
 2840SOL    HW2 8973   0.698   3.952   7.173
 2841SOL     OW 8974   0.067   4.045   5.623
 2841SOL    HW1 8975   4.474   4.065   5.613
 2841SOL    HW2 8976   0.111   4.129   5.613
 2842SOL     OW 8977   0.087   3.901   5.891
 2842SOL    HW1 8978   0.076   3.968   5.823
 2842SOL    HW2 8979   0.162   3.849   5.861
 2843SOL     OW 8980   0.726   4.281   7.285
 2843SOL    HW1 8981   0.728   4.330   7.367
 2843SOL    HW2 8982   0.747   4.191   7.309
 2844SOL     OW 8983   1.218   4.042   6.040
 2844SOL    HW1 8984   1.280   3.970   6.032
 2844SOL    HW2 8985   1.247   4.090   6.118
 2845SOL     OW 8986   1.758   4.091   7.235
 2845SOL    HW1 8987   1.742   4.102   7.141
 2845SOL    HW2 8988   1.689   4.032   7.265
 2846SOL     OW 8989   1.112   0.227   5.688
 2846SOL    HW1 8990   1.099   0.269   5.603
 2846SOL    HW2 8991   1.197   0.184   5.682
 2847SOL     OW 8992   1.815   3.908   6.824
 2847SOL    HW1 8993   1.822   3.813   6.838
 2847SOL    HW2 8994   1.822   3.919   6.729
 2848SOL     OW 8995   0.450   4.155   6.121
 2848SOL    HW1 8996   0.465   4.080   6.063
 2848SOL    HW2 8997   0.392   4.122   6.189
 2849SOL     OW 8998   0.322   4.261   6.863
 2849SOL    HW1 8999   0.375   4.194   6.906
 2849SOL    HW2 9000   0.331   4.243   6.770
 2850SOL     OW 9001   1.432   3.949   6.703
 2850SOL    HW1 9002   1.455   3.868   6.749
 2850SOL    HW2 9003   1.380   3.998   6.767
 2851SOL     OW 9004   1.009   3.743   6.728
 2851SOL    HW1 9005   0.954   3.675   6.688
 2851SOL    HW2 9006   1.097   3.705   6.730
 2852SOL     OW 9007   1.353   3.777   5.751
 2852SOL    HW1 9008   1.381   3.712   5.686
 2852SOL    HW2 9009   1.265   3.748   5.777
 2853SOL     OW 9010   1.300   4.175   6.267
 2853SOL    HW1 9011   1.263   4.262   6.281
 2853SOL    HW2 9012   1.298   4.134   6.353
 2854SOL     OW 9013   1.586   3.926   6.464
 2854SOL    HW1 9014   1.527   3.947   6.536
 2854SOL    HW2 9015   1.587   4.004   6.408
 2855SOL     OW 9016   0.228   4.279   7.558
 2855SOL    HW1 9017   0.163   4.310   7.620
 2855SOL    HW2 9018   0.213   4.330   7.479
 2856SOL     OW 9019   0.209   3.995   8.439
 2856SOL    HW1 9020   0.245   3.968   8.524
 2856SOL    HW2 9021   0.133   3.938   8.425
 2857SOL     OW 9022   4.499   4.101   8.079
 2857SOL    HW1 9023   4.417   4.130   8.118
 2857SOL    HW2 9024   4.477   4.018   8.037
 2858SOL     OW 9025   1.729   4.335   7.686
 2858SOL    HW1 9026   1.729   4.323   7.591
 2858SOL    HW2 9027   1.731   4.246   7.721
 2859SOL     OW 9028   0.730   0.271   8.133
 2859SOL    HW1 9029   0.718   0.208   8.204
 2859SOL    HW2 9030   0.641   0.289   8.101
 2860SOL     OW 9031   0.446   4.119   8.936
 2860SOL    HW1 9032   0.527   4.068   8.937
 2860SOL    HW2 9033   0.376   4.054   8.946
 2861SOL     OW 9034   1.615   4.172   8.188
 2861SOL    HW1 9035   1.547   4.197   8.125
 2861SOL    HW2 9036   1.612   4.240   8.255
 2862SOL     OW 9037   1.596   3.848   8.916
 2862SOL    HW1 9038   1.603   3.928   8.865
 2862SOL    HW2 9039   1.581   3.877   9.006
 2863SOL     OW 9040   0.162   4.323   8.084
 2863SOL    HW1 9041   0.103   4.250   8.068
 2863SOL    HW2 9042   0.117   4.399   8.046
 2864SOL     OW 9043   0.124   0.003   9.036
 2864SOL    HW1 9044   0.218   4.485   9.034
 2864SOL    HW2 9045   0.115   0.090   8.996
 2865SOL     OW 9046   0.817   3.725   7.957
 2865SOL    HW1 9047   0.856   3.810   7.938
 2865SOL    HW2 9048   0.723   3.743   7.966
 2866SOL     OW 9049   0.330   3.979   9.247
 2866SOL    HW1 9050   0.373   4.058   9.280
 2866SOL    HW2 9051   0.240   3.986   9.280
 2867SOL     OW 9052   1.277   4.073   8.381
 2867SOL    HW1 9053   1.188   4.040   8.391
 2867SOL    HW2 9054   1.329   4.021   8.442
 2868SOL     OW 9055   0.829   4.303   8.894
 2868SOL    HW1 9056   0.789   4.307   8.981
 2868SOL    HW2 9057   0.760   4.266   8.839
 2869SOL     OW 9058   1.395   4.199   9.124
 2869SOL    HW1 9059   1.398   4.244   9.209
 2869SOL    HW2 9060   1.453   4.124   9.135
 2870SOL     OW 9061   0.998   4.151   8.681
 2870SOL    HW1 9062   0.927   4.173   8.741
 2870SOL    HW2 9063   0.958   4.092   8.617
 2871SOL     OW 9064   1.056   4.411   7.864
 2871SOL    HW1 9065   1.053   4.453   7.950
 2871SOL    HW2 9066   0.970   4.371   7.853
 2872SOL     OW 9067   0.056   0.069   8.301
 2872SOL    HW1 9068   0.141   0.027   8.308
 2872SOL    HW2 9069   0.048   0.093   8.209
 2873SOL     OW 9070   0.892   4.064   7.638
 2873SOL    HW1 9071   0.933   4.127   7.578
 2873SOL    HW2 9072   0.908   3.979   7.598
 2874SOL     OW 9073   1.708   4.299   9.278
 2874SOL    HW1 9074   1.723   4.387   9.243
 2874SOL    HW2 9075   1.731   4.240   9.205
 2875SOL     OW 9076   0.552   3.904   8.341
 2875SOL    HW1 9077   0.554   3.935   8.432
 2875SOL    HW2 9078   0.547   3.984   8.289
 2876SOL     OW 9079   1.491   4.466   8.187
 2876SOL    HW1 9080   1.474   4.411   8.263
 2876SOL    HW2 9081   1.531   0.045   8.223
 2877SOL     OW 9082   0.189   4.001   8.933
 2877SOL    HW1 9083   0.140   4.082   8.943
 2877SOL    HW2 9084   0.183   3.959   9.019
 2878SOL     OW 9085   1.401   3.830   7.881
 2878SOL    HW1 9086   1.391   3.805   7.789
 2878SOL    HW2 9087   1.495   3.839   7.894
 2879SOL     OW 9088   0.348   4.380   7.851
 2879SOL    HW1 9089   0.392   4.305   7.892
 2879SOL    HW2 9090   0.300   4.422   7.922
 2880SOL     OW 9091   1.534   3.950   9.173
 2880SOL    HW1 9092   1.543   3.971   9.266
 2880SOL    HW2 9093   1.466   3.882   9.170
 2881SOL     OW 9094   0.636   3.848   7.550
 2881SOL    HW1 9095   0.702   3.780   7.567
 2881SOL    HW2 9096   0.587   3.815   7.475
 2882SOL     OW 9097   0.765   4.002   9.203
 2882SOL    HW1 9098   0.843   3.945   9.202
 2882SOL    HW2 9099   0.717   3.976   9.281
 2883SOL     OW 9100   1.342   4.312   8.878
 2883SOL    HW1 9101   1.364   4.275   8.963
 2883SOL    HW2 9102   1.386   4.397   8.876
 2884SOL     OW 9103   0.924   4.235   8.346
 2884SOL    HW1 9104   0.901   4.219   8.254
 2884SOL    HW2 9105   0.963   4.153   8.375
 2885SOL     OW 9106   0.553   3.787   7.948
 2885SOL    HW1 9107   0.472   3.784   8.000
 2885SOL    HW2 9108   0.544   3.865   7.893
 2886SOL     OW 9109   0.294   3.770   7.626
 2886SOL    HW1 9110   0.356   3.837   7.597
 2886SOL    HW2 9111   0.348   3.704   7.670
 2887SOL     OW 9112   0.938   3.973   7.908
 2887SOL    HW1 9113   0.912   4.010   7.824
 2887SOL    HW2 9114   1.033   3.986   7.912
 2888SOL     OW 9115   1.074   4.396   8.973
 2888SOL    HW1 9116   0.992   4.366   8.935
 2888SOL    HW2 9117   1.142   4.358   8.916
 2889SOL     OW 9118   1.025   4.265   7.475
 2889SOL    HW1 9119   1.009   4.353   7.441
 2889SOL    HW2 9120   1.089   4.278   7.545
 2890SOL     OW 9121   0.084   4.256   8.856
 2890SOL    HW1 9122   0.159   4.269   8.798
 2890SOL    HW2 9123   0.051   4.345   8.873
 2891SOL     OW 9124   0.560   3.951   8.613
 2891SOL    HW1 9125   0.601   3.872   8.649
 2891SOL    HW2 9126   0.469   3.945   8.642
 2892SOL     OW 9127   0.870   4.190   8.085
 2892SOL    HW1 9128   0.836   4.249   8.018
 2892SOL    HW2 9129   0.888   4.109   8.037
 2893SOL     OW 9130   1.014   3.778   8.199
 2893SOL    HW1 9131   0.956   3.769   8.123
 2893SOL    HW2 9132   0.994   3.702   8.254
 2894SOL     OW 9133   1.478   4.310   8.411
 2894SOL    HW1 9134   1.416   4.240   8.431
 2894SOL    HW2 9135   1.528   4.322   8.492
 2895SOL     OW 9136   1.403   4.296   7.521
 2895SOL    HW1 9137   1.341   4.268   7.588
 2895SOL    HW2 9138   1.486   4.255   7.547
 2896SOL     OW 9139   0.524   3.985   7.763
 2896SOL    HW1 9140   0.569   3.938   7.693
 2896SOL    HW2 9141   0.510   4.073   7.727
 2897SOL     OW 9142   0.917   3.822   8.843
 2897SOL    HW1 9143   0.941   3.801   8.753
 2897SOL    HW2 9144   0.997   3.860   8.881
 2898SOL     OW 9145   0.444   0.003   8.712
 2898SOL    HW1 9146   0.500   4.500   8.790
 2898SOL    HW2 9147   0.406   4.416   8.705
 2899SOL     OW 9148   1.265   4.100   8.723
 2899SOL    HW1 9149   1.299   4.177   8.768
 2899SOL    HW2 9150   1.176   4.123   8.698
 2900SOL     OW 9151   0.555   4.252   8.312
 2900SOL    HW1 9152   0.574   4.291   8.227
 2900SOL    HW2 9153   0.621   4.289   8.371
 2901SOL     OW 9154   1.568   4.337   7.927
 2901SOL    HW1 9155   1.542   4.403   7.991
 2901SOL    HW2 9156   1.628   4.383   7.868
 2902SOL     OW 9157   0.996   3.849   9.202
 2902SOL    HW1 9158   1.053   3.921   9.177
 2902SOL    HW2 9159   1.043   3.769   9.178
 2903SOL     OW 9160   0.497   3.767   9.195
 2903SOL    HW1 9161   0.455   3.710   9.131
 2903SOL    HW2 9162   0.438   3.841   9.204
 2904SOL     OW 9163   1.210   4.253   7.711
 2904SOL    HW1 9164   1.220   4.174   7.763
 2904SOL    HW2 9165   1.161   4.313   7.767
 2905SOL     OW 9166   0.299   3.922   8.692
 2905SOL    HW1 9167   0.258   3.950   8.774
 2905SOL    HW2 9168   0.286   3.827   8.691
 2906SOL     OW 9169   0.734   4.360   8.492
 2906SOL    HW1 9170   0.807   4.322   8.443
 2906SOL    HW2 9171   0.744   4.454   8.481
 2907SOL     OW 9172   1.752   0.132   9.301
 2907SOL    HW1 9173   1.685   0.148   9.234
 2907SOL    HW2 9174   1.709   0.156   9.384
 2908SOL     OW 9175   0.311   3.793   8.066
 2908SOL    HW1 9176   0.286   3.881   8.093
 2908SOL    HW2 9177   0.309   3.742   8.147
 2909SOL     OW 9178   1.614   4.091   7.816
 2909SOL    HW1 9179   1.644   4.030   7.884
 2909SOL    HW2 9180   1.590   4.170   7.864
 2910SOL     OW 9181   1.526   3.999   7.575
 2910SOL    HW1 9182   1.463   3.932   7.601
 2910SOL    HW2 9183   1.561   4.032   7.657
 2911SOL     OW 9184   0.320   0.014   8.360
 2911SOL    HW1 9185   0.400   0.066   8.369
 2911SOL    HW2 9186   0.335   4.438   8.416
 2912SOL     OW 9187   0.333   4.237   8.460
 2912SOL    HW1 9188   0.289   4.155   8.436
 2912SOL    HW2 9189   0.408   4.242   8.400
 2913SOL     OW 9190   1.137   4.093   9.134
 2913SOL    HW1 9191   1.084   4.152   9.188
 2913SOL    HW2 9192   1.222   4.137   9.126
 2914SOL     OW 9193   1.160   3.926   8.917
 2914SOL    HW1 9194   1.150   3.987   8.990
 2914SOL    HW2 9195   1.201   3.978   8.848
 2915SOL     OW 9196   0.022   4.277   8.552
 2915SOL    HW1 9197   0.109   4.261   8.516
 2915SOL    HW2 9198   0.024   4.237   8.639
 2916SOL     OW 9199   0.175   4.236   9.139
 2916SOL    HW1 9200   0.264   4.219   9.109
 2916SOL    HW2 9201   0.149   4.317   9.095
 2917SOL     OW 9202   0.820   4.282   7.798
 2917SOL    HW1 9203   0.822   4.208   7.738
 2917SOL    HW2 9204   0.731   4.317   7.791
 2918SOL     OW 9205   1.636   4.317   8.634
 2918SOL    HW1 9206   1.632   4.259   8.710
 2918SOL    HW2 9207   1.724   4.305   8.599
 2919SOL     OW 9208   0.674   4.188   8.704
 2919SOL    HW1 9209   0.637   4.106   8.671
 2919SOL    HW2 9210   0.684   4.243   8.627
 2920SOL     OW 9211   0.485   4.224   7.635
 2920SOL    HW1 9212   0.514   4.309   7.667
 2920SOL    HW2 9213   0.392   4.235   7.617
 2921SOL     OW 9214   1.721   3.870   7.959
 2921SOL    HW1 9215   1.792   3.855   7.897
 2921SOL    HW2 9216   1.705   3.784   7.998
 2922SOL     OW 9217   1.279   0.136   8.127
 2922SOL    HW1 9218   1.337   0.061   8.140
 2922SOL    HW2 9219   1.330   0.197   8.073
 2923SOL     OW 9220   1.840   3.896   8.415
 2923SOL    HW1 9221   1.868   3.809   8.387
 2923SOL    HW2 9222   1.754   3.907   8.375
 2924SOL     OW 9223   0.268   4.041   8.168
 2924SOL    HW1 9224   0.190   4.088   8.140
 2924SOL    HW2 9225   0.255   4.028   8.262
 2925SOL     OW 9226   0.905   0.091   7.663
 2925SOL    HW1 9227   0.987   0.130   7.632
 2925SOL    HW2 9228   0.927   0.054   7.749
 2926SOL     OW 9229   1.066   0.297   8.192
 2926SOL    HW1 9230   0.991   0.287   8.133
 2926SOL    HW2 9231   1.130   0.234   8.161
 2927SOL     OW 9232   1.020   3.964   8.413
 2927SOL    HW1 9233   1.016   3.915   8.330
 2927SOL    HW2 9234   1.016   3.896   8.481
 2928SOL     OW 9235   1.722   4.114   8.828
 2928SOL    HW1 9236   1.793   4.178   8.826
 2928SOL    HW2 9237   1.752   4.043   8.771
 2929SOL     OW 9238   0.674   3.923   8.947
 2929SOL    HW1 9239   0.758   3.901   8.906
 2929SOL    HW2 9240   0.697   3.952   9.035
 2930SOL     OW 9241   0.067   4.045   7.485
 2930SOL    HW1 9242   4.474   4.065   7.475
 2930SOL    HW2 9243   0.111   4.129   7.476
 2931SOL     OW 9244   0.087   3.901   7.753
 2931SOL    HW1 9245   0.076   3.968   7.685
 2931SOL    HW2 9246   0.162   3.849   7.723
 2932SOL     OW 9247   0.726   4.281   9.147
 2932SOL    HW1 9248   0.728   4.330   9.229
 2932SOL    HW2 9249   0.747   4.191   9.171
 2933SOL     OW 9250   1.218   4.042   7.902
 2933SOL    HW1 9251   1.280   3.970   7.894
 2933SOL    HW2 9252   1.247   4.090   7.980
 2934SOL     OW 9253   1.759   4.091   9.097
 2934SOL    HW1 9254   1.743   4.102   9.003
 2934SOL    HW2 9255   1.689   4.032   9.127
 2935SOL     OW 9256   1.112   0.226   7.550
 2935SOL    HW1 9257   1.099   0.269   7.465
 2935SOL    HW2 9258   1.197   0.184   7.544
 2936SOL     OW 9259   1.815   3.908   8.686
 2936SOL    HW1 9260   1.822   3.813   8.700
 2936SOL    HW2 9261   1.822   3.919   8.591
 2937SOL     OW 9262   0.450   4.155   7.983
 2937SOL    HW1 9263   0.465   4.080   7.925
 2937SOL    HW2 9264   0.392   4.121   8.051
 2938SOL     OW 9265   0.322   4.261   8.725
 2938SOL    HW1 9266   0.375   4.194   8.768
 2938SOL    HW2 9267   0.331   4.243   8.632
 2939SOL     OW 9268   1.432   3.949   8.566
 2939SOL    HW1 9269   1.455   3.868   8.611
 2939SOL    HW2 9270   1.380   3.998   8.629
 2940SOL     OW 9271   1.009   3.743   8.590
 2940SOL    HW1 9272   0.954   3.675   8.550
 2940SOL    HW2 9273   1.097   3.705   8.592
 2941SOL     OW 9274   1.353   3.777   7.613
 2941SOL    HW1 9275   1.381   3.712   7.549
 2941SOL    HW2 9276   1.265   3.748   7.639
 2942SOL     OW 9277   1.299   4.175   8.129
 2942SOL    HW1 9278   1.263   4.262   8.143
 2942SOL    HW2 9279   1.298   4.134   8.215
 2943SOL     OW 9280   1.586   3.926   8.326
 2943SOL    HW1 9281   1.527   3.948   8.397
 2943SOL    HW2 9282   1.587   4.004   8.270
 2944SOL     OW 9283   0.228   4.278   9.420
 2944SOL    HW1 9284   0.163   4.310   9.482
 2944SOL    HW2 9285   0.213   4.330   9.341
 2945SOL     OW 9286   0.211   3.994  10.300
 2945SOL    HW1 9287   0.246   3.969  10.386
 2945SOL    HW2 9288   0.134   3.939  10.288
 2946SOL     OW 9289   4.499   4.101   9.941
 2946SOL    HW1 9290   4.417   4.131   9.980
 2946SOL    HW2 9291   4.477   4.018   9.899
 2947SOL     OW 9292   1.729   4.335   9.548
 2947SOL    HW1 9293   1.729   4.323   9.453
 2947SOL    HW2 9294   1.731   4.246   9.583
 2948SOL     OW 9295   0.730   0.271   9.995
 2948SOL    HW1 9296   0.718   0.209  10.066
 2948SOL    HW2 9297   0.641   0.289   9.963
 2949SOL     OW 9298   0.448   4.123  10.788
 2949SOL    HW1 9299   0.527   4.070  10.796
 2949SOL    HW2 9300   0.376   4.065  10.814
 2950SOL     OW 9301   1.615   4.172  10.050
 2950SOL    HW1 9302   1.547   4.197   9.987
 2950SOL    HW2 9303   1.612   4.240  10.117
 2951SOL     OW 9304   1.589   3.841  10.778
 2951SOL    HW1 9305   1.605   3.921  10.729
 2951SOL    HW2 9306   1.591   3.868  10.870
 2952SOL     OW 9307   0.162   4.323   9.945
 2952SOL    HW1 9308   0.102   4.250   9.929
 2952SOL    HW2 9309   0.117   4.399   9.909
 2953SOL     OW 9310   0.101   4.492  10.934
 2953SOL    HW1 9311   0.195   4.478  10.944
 2953SOL    HW2 9312   0.095   0.077  10.890
 2954SOL     OW 9313   0.817   3.725   9.819
 2954SOL    HW1 9314   0.856   3.810   9.800
 2954SOL    HW2 9315   0.723   3.743   9.828
 2955SOL     OW 9316   0.340   3.985   0.008
 2955SOL    HW1 9317   0.384   4.065   0.037
 2955SOL    HW2 9318   0.247   4.005   0.014
 2956SOL     OW 9319   1.277   4.074  10.243
 2956SOL    HW1 9320   1.188   4.041  10.253
 2956SOL    HW2 9321   1.329   4.021  10.304
 2957SOL     OW 9322   0.825   4.299  10.762
 2957SOL    HW1 9323   0.780   4.312  10.845
 2957SOL    HW2 9324   0.759   4.263  10.703
 2958SOL     OW 9325   0.998   4.151  10.545
 2958SOL    HW1 9326   0.924   4.172  10.602
 2958SOL    HW2 9327   0.961   4.093  10.478
 2959SOL     OW 9328   1.056   4.410   9.726
 2959SOL    HW1 9329   1.053   4.453   9.812
 2959SOL    HW2 9330   0.970   4.371   9.715
 2960SOL     OW 9331   0.055   0.068  10.163
 2960SOL    HW1 9332   0.141   0.027  10.171
 2960SOL    HW2 9333   0.050   0.095  10.071
 2961SOL     OW 9334   0.892   4.064   9.500
 2961SOL    HW1 9335   0.933   4.127   9.440
 2961SOL    HW2 9336   0.909   3.979   9.460
 2962SOL     OW 9337   0.553   3.904  10.203
 2962SOL    HW1 9338   0.554   3.935  10.294
 2962SOL    HW2 9339   0.549   3.985  10.151
 2963SOL     OW 9340   1.491   4.466  10.048
 2963SOL    HW1 9341   1.474   4.411  10.125
 2963SOL    HW2 9342   1.531   0.045  10.085
 2964SOL     OW 9343   0.191   4.001  10.797
 2964SOL    HW1 9344   0.143   4.083  10.804
 2964SOL    HW2 9345   0.183   3.960  10.883
 2965SOL     OW 9346   1.401   3.830   9.743
 2965SOL    HW1 9347   1.391   3.805   9.651
 2965SOL    HW2 9348   1.495   3.839   9.756
 2966SOL     OW 9349   0.348   4.380   9.713
 2966SOL    HW1 9350   0.392   4.305   9.754
 2966SOL    HW2 9351   0.300   4.422   9.784
 2967SOL     OW 9352   0.636   3.848   9.412
 2967SOL    HW1 9353   0.702   3.781   9.429
 2967SOL    HW2 9354   0.587   3.815   9.337
 2968SOL     OW 9355   0.769   4.003  11.045
 2968SOL    HW1 9356   0.834   3.943  11.082
 2968SOL    HW2 9357   0.705   4.014   0.016
 2969SOL     OW 9358   1.352   4.308  10.743
 2969SOL    HW1 9359   1.370   4.290  10.835
 2969SOL    HW2 9360   1.378   4.400  10.731
 2970SOL     OW 9361   0.925   4.236  10.207
 2970SOL    HW1 9362   0.902   4.220  10.116
 2970SOL    HW2 9363   0.963   4.153  10.237
 2971SOL     OW 9364   0.553   3.787   9.810
 2971SOL    HW1 9365   0.472   3.784   9.862
 2971SOL    HW2 9366   0.544   3.865   9.756
 2972SOL     OW 9367   0.294   3.770   9.488
 2972SOL    HW1 9368   0.356   3.837   9.459
 2972SOL    HW2 9369   0.348   3.704   9.532
 2973SOL     OW 9370   0.938   3.973   9.770
 2973SOL    HW1 9371   0.912   4.010   9.686
 2973SOL    HW2 9372   1.033   3.986   9.774
 2974SOL     OW 9373   1.079   4.376  10.828
 2974SOL    HW1 9374   0.991   4.363  10.792
 2974SOL    HW2 9375   1.138   4.346  10.760
 2975SOL     OW 9376   1.025   4.265   9.337
 2975SOL    HW1 9377   1.009   4.353   9.302
 2975SOL    HW2 9378   1.088   4.278   9.408
 2976SOL     OW 9379   0.085   4.254  10.723
 2976SOL    HW1 9380   0.157   4.261  10.661
 2976SOL    HW2 9381   0.051   4.343  10.732
 2977SOL     OW 9382   0.559   3.950  10.475
 2977SOL    HW1 9383   0.600   3.873  10.513
 2977SOL    HW2 9384   0.468   3.945  10.504
 2978SOL     OW 9385   0.870   4.190   9.947
 2978SOL    HW1 9386   0.835   4.249   9.880
 2978SOL    HW2 9387   0.888   4.109   9.899
 2979SOL     OW 9388   1.014   3.778  10.061
 2979SOL    HW1 9389   0.956   3.770   9.985
 2979SOL    HW2 9390   0.993   3.702  10.116
 2980SOL     OW 9391   1.478   4.310  10.273
 2980SOL    HW1 9392   1.417   4.239  10.293
 2980SOL    HW2 9393   1.528   4.322  10.354
 2981SOL     OW 9394   1.403   4.296   9.383
 2981SOL    HW1 9395   1.341   4.268   9.450
 2981SOL    HW2 9396   1.486   4.255   9.409
 2982SOL     OW 9397   0.524   3.985   9.624
 2982SOL    HW1 9398   0.569   3.938   9.555
 2982SOL    HW2 9399   0.510   4.073   9.589
 2983SOL     OW 9400   0.918   3.823  10.704
 2983SOL    HW1 9401   0.942   3.802  10.614
 2983SOL    HW2 9402   0.996   3.863  10.742
 2984SOL     OW 9403   0.447   4.497  10.560
 2984SOL    HW1 9404   0.498   0.003  10.641
 2984SOL    HW2 9405   0.395   4.417  10.571
 2985SOL     OW 9406   1.266   4.099  10.587
 2985SOL    HW1 9407   1.302   4.176  10.631
 2985SOL    HW2 9408   1.178   4.125  10.561
 2986SOL     OW 9409   0.560   4.248  10.171
 2986SOL    HW1 9410   0.577   4.292  10.088
 2986SOL    HW2 9411   0.622   4.287  10.232
 2987SOL     OW 9412   1.568   4.337   9.789
 2987SOL    HW1 9413   1.542   4.403   9.853
 2987SOL    HW2 9414   1.628   4.383   9.730
 2988SOL     OW 9415   0.492   0.001  11.004
 2988SOL    HW1 9416   0.481   0.051  10.922
 2988SOL    HW2 9417   0.494   4.410  10.976
 2989SOL     OW 9418   1.210   4.253   9.573
 2989SOL    HW1 9419   1.220   4.174   9.625
 2989SOL    HW2 9420   1.161   4.313   9.629
 2990SOL     OW 9421   0.299   3.920  10.554
 2990SOL    HW1 9422   0.262   3.951  10.637
 2990SOL    HW2 9423   0.284   3.826  10.554
 2991SOL     OW 9424   0.734   4.359  10.353
 2991SOL    HW1 9425   0.807   4.323  10.304
 2991SOL    HW2 9426   0.742   4.454  10.343
 2992SOL     OW 9427   0.311   3.793   9.928
 2992SOL    HW1 9428   0.287   3.881   9.954
 2992SOL    HW2 9429   0.308   3.742  10.009
 2993SOL     OW 9430   1.614   4.091   9.678
 2993SOL    HW1 9431   1.644   4.030   9.746
 2993SOL    HW2 9432   1.590   4.170   9.725
 2994SOL     OW 9433   1.526   3.999   9.437
 2994SOL    HW1 9434   1.463   3.932   9.463
 2994SOL    HW2 9435   1.561   4.032   9.519
 2995SOL     OW 9436   0.319   0.015  10.222
 2995SOL    HW1 9437   0.399   0.066  10.233
 2995SOL    HW2 9438   0.334   4.437  10.276
 2996SOL     OW 9439   0.333   4.238  10.310
 2996SOL    HW1 9440   0.290   4.156  10.289
 2996SOL    HW2 9441   0.410   4.241  10.253
 2997SOL     OW 9442   1.157   3.931  10.782
 2997SOL    HW1 9443   1.166   3.990  10.857
 2997SOL    HW2 9444   1.198   3.978  10.709
 2998SOL     OW 9445   0.022   4.274  10.411
 2998SOL    HW1 9446   0.111   4.265  10.377
 2998SOL    HW2 9447   0.026   4.238  10.500
 2999SOL     OW 9448   1.344   0.197  10.985
 2999SOL    HW1 9449   1.417   0.254  11.011
 2999SOL    HW2 9450   1.374   0.155  10.904
 3000SOL     OW 9451   0.820   4.283   9.660
 3000SOL    HW1 9452   0.821   4.208   9.600
 3000SOL    HW2 9453   0.731   4.317   9.653
 3001SOL     OW 9454   1.636   4.317  10.496
 3001SOL    HW1 9455   1.633   4.258  10.571
 3001SOL    HW2 9456   1.724   4.306  10.461
 3002SOL     OW 9457   0.682   4.184  10.565
 3002SOL    HW1 9458   0.639   4.105  10.532
 3002SOL    HW2 9459   0.685   4.243  10.489
 3003SOL     OW 9460   0.485   4.224   9.497
 3003SOL    HW1 9461   0.514   4.309   9.530
 3003SOL    HW2 9462   0.392   4.235   9.479
 3004SOL     OW 9463   1.721   3.870   9.821
 3004SOL    HW1 9464   1.792   3.855   9.759
 3004SOL    HW2 9465   1.704   3.784   9.860
 3005SOL     OW 9466   1.279   0.136   9.989
 3005SOL    HW1 9467   1.337   0.061  10.002
 3005SOL    HW2 9468   1.330   0.197   9.935
 3006SOL     OW 9469   1.840   3.896  10.277
 3006SOL    HW1 9470   1.868   3.809  10.250
 3006SOL    HW2 9471   1.754   3.907  10.237
 3007SOL     OW 9472   0.268   4.041  10.030
 3007SOL    HW1 9473   0.191   4.089  10.002
 3007SOL    HW2 9474   0.255   4.027  10.124
 3008SOL     OW 9475   0.905   0.091   9.525
 3008SOL    HW1 9476   0.987   0.130   9.494
 3008SOL    HW2 9477   0.926   0.054   9.611
 3009SOL     OW 9478   1.066   0.297  10.053
 3009SOL    HW1 9479   0.991   0.286   9.995
 3009SOL    HW2 9480   1.130   0.234  10.023
 3010SOL     OW 9481   1.020   3.964  10.275
 3010SOL    HW1 9482   1.016   3.916  10.193
 3010SOL    HW2 9483   1.016   3.897  10.343
 3011SOL     OW 9484   1.718   4.116  10.691
 3011SOL    HW1 9485   1.790   4.179  10.693
 3011SOL    HW2 9486   1.748   4.046  10.634
 3012SOL     OW 9487   0.674   3.920  10.803
 3012SOL    HW1 9488   0.756   3.898  10.758
 3012SOL    HW2 9489   0.702   3.956  10.887
 3013SOL     OW 9490   0.067   4.045   9.347
 3013SOL    HW1 9491   4.474   4.066   9.337
 3013SOL    HW2 9492   0.111   4.129   9.338
 3014SOL     OW 9493   0.087   3.901   9.614
 3014SOL    HW1 9494   0.076   3.969   9.547
 3014SOL    HW2 9495   0.162   3.849   9.585
 3015SOL     OW 9496   0.721   4.290  11.021
 3015SOL    HW1 9497   0.759   4.343  11.091
 3015SOL    HW2 9498   0.764   4.205  11.029
 3016SOL     OW 9499   1.218   4.042   9.764
 3016SOL    HW1 9500   1.280   3.970   9.756
 3016SOL    HW2 9501   1.247   4.090   9.842
 3017SOL     OW 9502   1.752   4.052  10.958
 3017SOL    HW1 9503   1.731   4.082  10.869
 3017SOL    HW2 9504   1.670   4.058  11.006
 3018SOL     OW 9505   1.112   0.226   9.412
 3018SOL    HW1 9506   1.099   0.269   9.328
 3018SOL    HW2 9507   1.197   0.184   9.406
 3019SOL     OW 9508   1.809   3.908  10.548
 3019SOL    HW1 9509   1.821   3.814  10.561
 3019SOL    HW2 9510   1.820   3.920  10.453
 3020SOL     OW 9511   0.450   4.155   9.844
 3020SOL    HW1 9512   0.465   4.080   9.786
 3020SOL    HW2 9513   0.392   4.122   9.913
 3021SOL     OW 9514   0.313   4.241  10.574
 3021SOL    HW1 9515   0.371   4.179  10.617
 3021SOL    HW2 9516   0.332   4.232  10.480
 3022SOL     OW 9517   1.431   3.948  10.427
 3022SOL    HW1 9518   1.459   3.869  10.473
 3022SOL    HW2 9519   1.381   3.997  10.492
 3023SOL     OW 9520   1.009   3.743  10.453
 3023SOL    HW1 9521   0.954   3.676  10.411
 3023SOL    HW2 9522   1.096   3.705  10.454
 3024SOL     OW 9523   1.353   3.777   9.475
 3024SOL    HW1 9524   1.381   3.712   9.410
 3024SOL    HW2 9525   1.265   3.748   9.501
 3025SOL     OW 9526   1.299   4.175   9.991
 3025SOL    HW1 9527   1.263   4.262  10.005
 3025SOL    HW2 9528   1.298   4.135  10.078
 3026SOL     OW 9529   1.586   3.926  10.188
 3026SOL    HW1 9530   1.527   3.947  10.259
 3026SOL    HW2 9531   1.587   4.004  10.132
 3027SOL     OW 9532   2.084   0.613   0.116
 3027SOL    HW1 9533   2.000   0.619   0.160
 3027SOL    HW2 9534   2.068   0.646   0.028
 3028SOL     OW 9535   2.070   0.299   0.989
 3028SOL    HW1 9536   2.100   0.270   1.075
 3028SOL    HW2 9537   1.988   0.251   0.976
 3029SOL     OW 9538   1.868   0.386   0.637
 3029SOL    HW1 9539   1.783   0.406   0.675
 3029SOL    HW2 9540   1.853   0.311   0.580
 3030SOL     OW 9541   2.430   1.288   1.175
 3030SOL    HW1 9542   2.341   1.290   1.138
 3030SOL    HW2 9543   2.443   1.377   1.209
 3031SOL     OW 9544   3.424   1.512   0.707
 3031SOL    HW1 9545   3.381   1.491   0.790
 3031SOL    HW2 9546   3.352   1.515   0.643
 3032SOL     OW 9547   2.997   0.699   0.697
 3032SOL    HW1 9548   3.043   0.782   0.689
 3032SOL    HW2 9549   2.946   0.708   0.778
 3033SOL     OW 9550   3.640   0.601   0.215
 3033SOL    HW1 9551   3.582   0.608   0.140
 3033SOL    HW2 9552   3.601   0.532   0.269
 3034SOL     OW 9553   2.618   1.143   1.041
 3034SOL    HW1 9554   2.549   1.177   1.098
 3034SOL    HW2 9555   2.653   1.219   0.997
 3035SOL     OW 9556   2.729   0.774   1.822
 3035SOL    HW1 9557   2.715   0.844   1.885
 3035SOL    HW2 9558   2.752   0.818   1.741
 3036SOL     OW 9559   2.549   1.003   0.646
 3036SOL    HW1 9560   2.613   0.990   0.715
 3036SOL    HW2 9561   2.479   1.054   0.687
 3037SOL     OW 9562   2.573   1.151   1.812
 3037SOL    HW1 9563   2.620   1.229   1.839
 3037SOL    HW2 9564   2.490   1.183   1.777
 3038SOL     OW 9565   2.192   1.424   1.069
 3038SOL    HW1 9566   2.119   1.386   1.021
 3038SOL    HW2 9567   2.242   1.472   1.003
 3039SOL     OW 9568   3.323   1.499   1.355
 3039SOL    HW1 9569   3.373   1.580   1.365
 3039SOL    HW2 9570   3.260   1.502   1.427
 3040SOL     OW 9571   2.305   0.395   1.488
 3040SOL    HW1 9572   2.386   0.345   1.490
 3040SOL    HW2 9573   2.236   0.329   1.502
 3041SOL     OW 9574   3.472   0.446   0.739
 3041SOL    HW1 9575   3.390   0.465   0.694
 3041SOL    HW2 9576   3.489   0.524   0.792
 3042SOL     OW 9577   2.079   1.712   0.471
 3042SOL    HW1 9578   2.102   1.786   0.527
 3042SOL    HW2 9579   2.152   1.704   0.410
 3043SOL     OW 9580   2.999   1.342   1.693
 3043SOL    HW1 9581   3.039   1.337   1.780
 3043SOL    HW2 9582   2.946   1.262   1.686
 3044SOL     OW 9583   2.091   1.440   0.535
 3044SOL    HW1 9584   2.071   1.534   0.536
 3044SOL    HW2 9585   2.030   1.403   0.598
 3045SOL     OW 9586   2.121   1.090   0.892
 3045SOL    HW1 9587   2.116   1.003   0.932
 3045SOL    HW2 9588   2.062   1.144   0.944
 3046SOL     OW 9589   2.471   1.790   1.423
 3046SOL    HW1 9590   2.391   1.771   1.471
 3046SOL    HW2 9591   2.498   1.877   1.453
 3047SOL     OW 9592   2.445   0.988   0.143
 3047SOL    HW1 9593   2.488   1.040   0.075
 3047SOL    HW2 9594   2.487   1.015   0.224
 3048SOL     OW 9595   3.443   0.116   1.471
 3048SOL    HW1 9596   3.467   0.184   1.408
 3048SOL    HW2 9597   3.432   0.162   1.554
 3049SOL     OW 9598   1.978   0.653   0.560
 3049SOL    HW1 9599   1.948   0.565   0.582
 3049SOL    HW2 9600   1.970   0.702   0.641
 3050SOL     OW 9601   3.704   1.759   0.333
 3050SOL    HW1 9602   3.768   1.729   0.398
 3050SOL    HW2 9603   3.729   1.849   0.315
 3051SOL     OW 9604   1.911   1.601   0.120
 3051SOL    HW1 9605   1.881   1.513   0.143
 3051SOL    HW2 9606   1.881   1.656   0.192
 3052SOL     OW 9607   3.552   0.919   0.642
 3052SOL    HW1 9608   3.636   0.879   0.622
 3052SOL    HW2 9609   3.530   0.970   0.564
 3053SOL     OW 9610   3.509   1.105   0.431
 3053SOL    HW1 9611   3.591   1.116   0.384
 3053SOL    HW2 9612   3.514   1.167   0.504
 3054SOL     OW 9613   1.984   0.745   1.584
 3054SOL    HW1 9614   2.076   0.772   1.592
 3054SOL    HW2 9615   1.934   0.826   1.592
 3055SOL     OW 9616   2.477   1.385   0.735
 3055SOL    HW1 9617   2.431   1.302   0.744
 3055SOL    HW2 9618   2.459   1.412   0.644
 3056SOL     OW 9619   3.151   1.239   1.423
 3056SOL    HW1 9620   3.183   1.171   1.363
 3056SOL    HW2 9621   3.208   1.232   1.499
 3057SOL     OW 9622   2.680   0.011   0.553
 3057SOL    HW1 9623   2.719   0.088   0.511
 3057SOL    HW2 9624   2.586   0.025   0.546
 3058SOL     OW 9625   2.052   0.965   1.273
 3058SOL    HW1 9626   2.137   0.924   1.257
 3058SOL    HW2 9627   1.990   0.913   1.223
 3059SOL     OW 9628   3.378   1.002   0.204
 3059SOL    HW1 9629   3.314   0.941   0.240
 3059SOL    HW2 9630   3.428   1.032   0.279
 3060SOL     OW 9631   3.048   1.807   1.622
 3060SOL    HW1 9632   3.058   1.865   1.547
 3060SOL    HW2 9633   3.064   1.719   1.587
 3061SOL     OW 9634   2.177   0.254   1.780
 3061SOL    HW1 9635   2.241   0.317   1.813
 3061SOL    HW2 9636   2.104   0.259   1.841
 3062SOL     OW 9637   3.328   1.420   0.951
 3062SOL    HW1 9638   3.260   1.435   1.017
 3062SOL    HW2 9639   3.316   1.329   0.924
 3063SOL     OW 9640   3.519   1.741   0.579
 3063SOL    HW1 9641   3.501   1.711   0.490
 3063SOL    HW2 9642   3.495   1.667   0.634
 3064SOL     OW 9643   2.453   0.718   0.263
 3064SOL    HW1 9644   2.462   0.801   0.217
 3064SOL    HW2 9645   2.390   0.735   0.333
 3065SOL     OW 9646   3.151   0.363   0.934
 3065SOL    HW1 9647   3.061   0.333   0.924
 3065SOL    HW2 9648   3.191   0.301   0.995
 3066SOL     OW 9649   3.444   1.671   0.312
 3066SOL    HW1 9650   3.534   1.700   0.305
 3066SOL    HW2 9651   3.417   1.652   0.222
 3067SOL     OW 9652   2.657   0.620   1.454
 3067SOL    HW1 9653   2.629   0.594   1.542
 3067SOL    HW2 9654   2.618   0.554   1.396
 3068SOL     OW 9655   3.250   0.480   1.676
 3068SOL    HW1 9656   3.254   0.524   1.761
 3068SOL    HW2 9657   3.317   0.411   1.682
 3069SOL     OW 9658   2.817   0.888   1.583
 3069SOL    HW1 9659   2.871   0.817   1.548
 3069SOL    HW2 9660   2.768   0.921   1.507
 3070SOL     OW 9661   2.858   0.417   1.236
 3070SOL    HW1 9662   2.771   0.427   1.273
 3070SOL    HW2 9663   2.845   0.367   1.155
 3071SOL     OW 9664   2.911   0.701   0.427
 3071SOL    HW1 9665   2.929   0.692   0.521
 3071SOL    HW2 9666   2.829   0.654   0.414
 3072SOL     OW 9667   1.951   0.821   0.775
 3072SOL    HW1 9668   2.032   0.815   0.827
 3072SOL    HW2 9669   1.906   0.898   0.811
 3073SOL     OW 9670   1.986   1.815   1.572
 3073SOL    HW1 9671   1.977   1.811   1.667
 3073SOL    HW2 9672   1.930   1.889   1.545
 3074SOL     OW 9673   2.736   0.361   0.197
 3074SOL    HW1 9674   2.793   0.415   0.142
 3074SOL    HW2 9675   2.772   0.273   0.189
 3075SOL     OW 9676   3.566   0.573   1.828
 3075SOL    HW1 9677   3.530   0.647   1.780
 3075SOL    HW2 9678   3.602   0.516   1.760
 3076SOL     OW 9679   3.240   1.142   0.541
 3076SOL    HW1 9680   3.318   1.129   0.487
 3076SOL    HW2 9681   3.187   1.204   0.491
 3077SOL     OW 9682   2.401   0.204   0.901
 3077SOL    HW1 9683   2.421   0.222   0.992
 3077SOL    HW2 9684   2.394   0.291   0.860
 3078SOL     OW 9685   2.867   1.444   0.473
 3078SOL    HW1 9686   2.830   1.517   0.424
 3078SOL    HW2 9687   2.849   1.465   0.565
 3079SOL     OW 9688   2.218   1.797   0.869
 3079SOL    HW1 9689   2.249   1.706   0.873
 3079SOL    HW2 9690   2.295   1.849   0.891
 3080SOL     OW 9691   3.660   1.058   0.869
 3080SOL    HW1 9692   3.606   1.039   0.792
 3080SOL    HW2 9693   3.598   1.063   0.942
 3081SOL     OW 9694   3.090   1.539   1.513
 3081SOL    HW1 9695   3.076   1.466   1.574
 3081SOL    HW2 9696   3.026   1.523   1.443
 3082SOL     OW 9697   2.177   0.958   0.276
 3082SOL    HW1 9698   2.256   0.982   0.226
 3082SOL    HW2 9699   2.150   0.874   0.238
 3083SOL     OW 9700   3.342   0.741   0.723
 3083SOL    HW1 9701   3.331   0.699   0.808
 3083SOL    HW2 9702   3.418   0.798   0.734
 3084SOL     OW 9703   2.328   1.264   1.737
 3084SOL    HW1 9704   2.301   1.269   1.646
 3084SOL    HW2 9705   2.247   1.262   1.787
 3085SOL     OW 9706   2.969   1.779   0.227
 3085SOL    HW1 9707   2.910   1.727   0.281
 3085SOL    HW2 9708   3.011   1.715   0.169
 3086SOL     OW 9709   2.050   0.268   1.512
 3086SOL    HW1 9710   1.983   0.335   1.498
 3086SOL    HW2 9711   2.065   0.270   1.607
 3087SOL     OW 9712   3.490   1.374   0.089
 3087SOL    HW1 9713   3.447   1.459   0.077
 3087SOL    HW2 9714   3.424   1.310   0.060
 3088SOL     OW 9715   2.326   1.733   0.326
 3088SOL    HW1 9716   2.368   1.796   0.385
 3088SOL    HW2 9717   2.397   1.705   0.268
 3089SOL     OW 9718   3.283   0.138   0.424
 3089SOL    HW1 9719   3.262   0.102   0.338
 3089SOL    HW2 9720   3.378   0.134   0.430
 3090SOL     OW 9721   2.116   1.786   1.234
 3090SOL    HW1 9722   2.168   1.717   1.277
 3090SOL    HW2 9723   2.106   1.755   1.144
 3091SOL     OW 9724   2.796   1.698   0.900
 3091SOL    HW1 9725   2.875   1.648   0.922
 3091SOL    HW2 9726   2.755   1.649   0.829
 3092SOL     OW 9727   2.255   0.693   0.473
 3092SOL    HW1 9728   2.277   0.601   0.488
 3092SOL    HW2 9729   2.162   0.699   0.495
 3093SOL     OW 9730   3.387   0.233   1.723
 3093SOL    HW1 9731   3.386   0.255   1.816
 3093SOL    HW2 9732   3.308   0.179   1.711
 3094SOL     OW 9733   2.464   0.093   0.124
 3094SOL    HW1 9734   2.558   0.079   0.130
 3094SOL    HW2 9735   2.447   0.101   0.030
 3095SOL     OW 9736   2.630   0.271   1.754
 3095SOL    HW1 9737   2.696   0.202   1.762
 3095SOL    HW2 9738   2.588   0.273   1.840
 3096SOL     OW 9739   2.739   1.523   1.193
 3096SOL    HW1 9740   2.723   1.485   1.107
 3096SOL    HW2 9741   2.808   1.468   1.231
 3097SOL     OW 9742   3.203   0.589   1.429
 3097SOL    HW1 9743   3.231   0.560   1.516
 3097SOL    HW2 9744   3.237   0.678   1.421
 3098SOL     OW 9745   2.677   1.396   0.940
 3098SOL    HW1 9746   2.762   1.383   0.896
 3098SOL    HW2 9747   2.613   1.395   0.869
 3099SOL     OW 9748   2.787   0.518   0.899
 3099SOL    HW1 9749   2.770   0.518   0.805
 3099SOL    HW2 9750   2.824   0.431   0.917
 3100SOL     OW 9751   2.418   0.076   0.524
 3100SOL    HW1 9752   2.330   0.050   0.551
 3100SOL    HW2 9753   2.404   0.139   0.454
 3101SOL     OW 9754   3.287   1.196   0.030
 3101SOL    HW1 9755   3.318   1.124   0.084
 3101SOL    HW2 9756   3.204   1.222   0.069
 3102SOL     OW 9757   2.147   0.055   0.200
 3102SOL    HW1 9758   2.218   0.101   0.155
 3102SOL    HW2 9759   2.192   0.005   0.268
 3103SOL     OW 9760   2.814   0.225   0.442
 3103SOL    HW1 9761   2.766   0.293   0.395
 3103SOL    HW2 9762   2.902   0.260   0.451
 3104SOL     OW 9763   2.942   0.681   1.460
 3104SOL    HW1 9764   2.871   0.617   1.461
 3104SOL    HW2 9765   3.022   0.629   1.449
 3105SOL     OW 9766   3.084   1.571   0.794
 3105SOL    HW1 9767   3.102   1.636   0.727
 3105SOL    HW2 9768   3.153   1.583   0.859
 3106SOL     OW 9769   2.333   1.150   0.736
 3106SOL    HW1 9770   2.264   1.130   0.799
 3106SOL    HW2 9771   2.292   1.136   0.651
 3107SOL     OW 9772   3.131   1.794   0.606
 3107SOL    HW1 9773   3.178   1.856   0.550
 3107SOL    HW2 9774   3.066   1.848   0.652
 3108SOL     OW 9775   2.883   0.530   0.037
 3108SOL    HW1 9776   2.846   0.616   0.014
 3108SOL    HW2 9777   2.956   0.551   0.095
 3109SOL     OW 9778   1.945   0.550   1.395
 3109SOL    HW1 9779   2.035   0.554   1.365
 3109SOL    HW2 9780   1.937   0.622   1.458
 3110SOL     OW 9781   2.424   0.244   1.167
 3110SOL    HW1 9782   2.450   0.162   1.208
 3110SOL    HW2 9783   2.332   0.255   1.191
 3111SOL     OW 9784   2.723   0.511   0.629
 3111SOL    HW1 9785   2.683   0.544   0.548
 3111SOL    HW2 9786   2.692   0.421   0.637
 3112SOL     OW 9787   2.821   0.031   0.784
 3112SOL    HW1 9788   2.773   0.025   0.702
 3112SOL    HW2 9789   2.843   4.440   0.806
 3113SOL     OW 9790   3.299   1.163   0.857
 3113SOL    HW1 9791   3.230   1.096   0.856
 3113SOL    HW2 9792   3.323   1.173   0.765
 3114SOL     OW 9793   3.328   0.605   0.974
 3114SOL    HW1 9794   3.273   0.526   0.976
 3114SOL    HW2 9795   3.385   0.597   1.050
 3115SOL     OW 9796   3.711   0.813   0.378
 3115SOL    HW1 9797   3.764   0.763   0.440
 3115SOL    HW2 9798   3.683   0.748   0.313
 3116SOL     OW 9799   2.356   1.424   0.173
 3116SOL    HW1 9800   2.278   1.398   0.223
 3116SOL    HW2 9801   2.351   1.371   0.093
 3117SOL     OW 9802   3.533   1.264   0.646
 3117SOL    HW1 9803   3.627   1.267   0.660
 3117SOL    HW2 9804   3.503   1.353   0.667
 3118SOL     OW 9805   3.253   0.573   0.078
 3118SOL    HW1 9806   3.190   0.556   0.148
 3118SOL    HW2 9807   3.320   0.506   0.088
 3119SOL     OW 9808   2.385   0.262   0.325
 3119SOL    HW1 9809   2.418   0.203   0.257
 3119SOL    HW2 9810   2.368   0.344   0.279
 3120SOL     OW 9811   3.614   1.239   1.572
 3120SOL    HW1 9812   3.701   1.200   1.569
 3120SOL    HW2 9813   3.629   1.329   1.602
 3121SOL     OW 9814   2.920   1.355   1.334
 3121SOL    HW1 9815   2.845   1.323   1.385
 3121SOL    HW2 9816   2.996   1.313   1.375
 3122SOL     OW 9817   3.470   1.626   1.654
 3122SOL    HW1 9818   3.464   1.660   1.565
 3122SOL    HW2 9819   3.553   1.578   1.656
 3123SOL     OW 9820   2.992   1.205   1.106
 3123SOL    HW1 9821   2.931   1.241   1.170
 3123SOL    HW2 9822   2.958   1.235   1.021
 3124SOL     OW 9823   3.489   1.098   1.078
 3124SOL    HW1 9824   3.485   1.160   1.150
 3124SOL    HW2 9825   3.410   1.115   1.027
 3125SOL     OW 9826   2.764   0.134   1.387
 3125SOL    HW1 9827   2.786   0.089   1.306
 3125SOL    HW2 9828   2.848   0.149   1.430
 3126SOL     OW 9829   2.846   1.115   1.723
 3126SOL    HW1 9830   2.754   1.131   1.745
 3126SOL    HW2 9831   2.844   1.037   1.667
 3127SOL     OW 9832   2.573   1.060   0.373
 3127SOL    HW1 9833   2.558   1.044   0.466
 3127SOL    HW2 9834   2.648   1.006   0.351
 3128SOL     OW 9835   2.282   0.816   1.251
 3128SOL    HW1 9836   2.350   0.825   1.317
 3128SOL    HW2 9837   2.246   0.728   1.265
 3129SOL     OW 9838   3.130   0.375   1.274
 3129SOL    HW1 9839   3.162   0.454   1.318
 3129SOL    HW2 9840   3.041   0.397   1.248
 3130SOL     OW 9841   1.929   1.570   1.348
 3130SOL    HW1 9842   1.897   1.650   1.306
 3130SOL    HW2 9843   2.024   1.581   1.352
 3131SOL     OW 9844   2.211   1.118   0.497
 3131SOL    HW1 9845   2.210   1.191   0.435
 3131SOL    HW2 9846   2.204   1.040   0.441
 3132SOL     OW 9847   2.418   0.529   0.858
 3132SOL    HW1 9848   2.431   0.588   0.784
 3132SOL    HW2 9849   2.482   0.557   0.923
 3133SOL     OW 9850   3.109   1.346   0.395
 3133SOL    HW1 9851   3.165   1.419   0.422
 3133SOL    HW2 9852   3.022   1.369   0.427
 3134SOL     OW 9853   3.143   1.458   1.147
 3134SOL    HW1 9854   3.199   1.460   1.225
 3134SOL    HW2 9855   3.088   1.380   1.158
 3135SOL     OW 9856   3.446   0.628   0.476
 3135SOL    HW1 9857   3.396   0.668   0.546
 3135SOL    HW2 9858   3.481   0.702   0.426
 3136SOL     OW 9859   2.211   1.525   1.316
 3136SOL    HW1 9860   2.196   1.483   1.232
 3136SOL    HW2 9861   2.306   1.537   1.321
 3137SOL     OW 9862   2.277   0.743   1.603
 3137SOL    HW1 9863   2.337   0.789   1.544
 3137SOL    HW2 9864   2.322   0.660   1.621
 3138SOL     OW 9865   3.464   0.778   1.681
 3138SOL    HW1 9866   3.378   0.820   1.675
 3138SOL    HW2 9867   3.516   0.821   1.613
 3139SOL     OW 9868   2.866   0.085   1.719
 3139SOL    HW1 9869   2.897   0.167   1.681
 3139SOL    HW2 9870   2.890   0.018   1.654
 3140SOL     OW 9871   2.361   0.045   1.760
 3140SOL    HW1 9872   2.360   0.006   1.673
 3140SOL    HW2 9873   2.294   0.113   1.756
 3141SOL     OW 9874   2.444   0.874   1.030
 3141SOL    HW1 9875   2.475   0.964   1.031
 3141SOL    HW2 9876   2.389   0.867   1.108
 3142SOL     OW 9877   3.219   0.858   1.029
 3142SOL    HW1 9878   3.135   0.848   0.984
 3142SOL    HW2 9879   3.260   0.772   1.022
 3143SOL     OW 9880   3.060   0.532   0.265
 3143SOL    HW1 9881   3.070   0.454   0.319
 3143SOL    HW2 9882   3.019   0.596   0.322
 3144SOL     OW 9883   2.152   0.233   1.241
 3144SOL    HW1 9884   2.107   0.249   1.324
 3144SOL    HW2 9885   2.188   0.145   1.250
 3145SOL     OW 9886   1.908   1.309   1.276
 3145SOL    HW1 9887   1.941   1.257   1.349
 3145SOL    HW2 9888   1.914   1.400   1.306
 3146SOL     OW 9889   2.585   0.631   1.056
 3146SOL    HW1 9890   2.659   0.613   0.999
 3146SOL    HW2 9891   2.558   0.720   1.033
 3147SOL     OW 9892   3.597   0.959   1.852
 3147SOL    HW1 9893   3.550   0.898   1.796
 3147SOL    HW2 9894   3.537   0.973   1.926
 3148SOL     OW 9895   2.163   0.056   0.653
 3148SOL    HW1 9896   2.150   0.151   0.656
 3148SOL    HW2 9897   2.172   0.031   0.745
 3149SOL     OW 9898   3.482   0.379   0.362
 3149SOL    HW1 9899   3.507   0.313   0.426
 3149SOL    HW2 9900   3.456   0.455   0.414
 3150SOL     OW 9901   2.891   0.762   0.961
 3150SOL    HW1 9902   2.887   0.778   1.055
 3150SOL    HW2 9903   2.862   0.671   0.951
 3151SOL     OW 9904   2.845   1.567   1.717
 3151SOL    HW1 9905   2.829   1.610   1.633
 3151SOL    HW2 9906   2.887   1.484   1.694
 3152SOL     OW 9907   3.717   1.506   1.605
 3152SOL    HW1 9908   3.735   1.532   1.515
 3152SOL    HW2 9909   3.798   1.524   1.653
 3153SOL     OW 9910   2.216   0.917   1.808
 3153SOL    HW1 9911   2.298   0.935   1.854
 3153SOL    HW2 9912   2.240   0.853   1.741
 3154SOL     OW 9913   3.395   0.298   0.110
 3154SOL    HW1 9914   3.337   0.223   0.124
 3154SOL    HW2 9915   3.429   0.319   0.196
 3155SOL     OW 9916   3.148   0.821   0.032
 3155SOL    HW1 9917   3.193   0.737   0.042
 3155SOL    HW2 9918   3.183   0.857  11.050
 3156SOL     OW 9919   2.926   1.336   0.853
 3156SOL    HW1 9920   2.930   1.263   0.791
 3156SOL    HW2 9921   2.989   1.400   0.819
 3157SOL     OW 9922   2.171   0.809   0.947
 3157SOL    HW1 9923   2.264   0.832   0.941
 3157SOL    HW2 9924   2.170   0.720   0.980
 3158SOL     OW 9925   2.198   0.532   1.013
 3158SOL    HW1 9926   2.155   0.449   0.995
 3158SOL    HW2 9927   2.274   0.534   0.955
 3159SOL     OW 9928   2.998   0.373   1.697
 3159SOL    HW1 9929   2.947   0.437   1.747
 3159SOL    HW2 9930   3.083   0.415   1.683
 3160SOL     OW 9931   3.019   0.213   1.473
 3160SOL    HW1 9932   3.013   0.277   1.544
 3160SOL    HW2 9933   3.059   0.261   1.401
 3161SOL     OW 9934   1.870   1.327   0.195
 3161SOL    HW1 9935   1.784   1.340   0.156
 3161SOL    HW2 9936   1.870   1.237   0.226
 3162SOL     OW 9937   1.949   1.790   0.936
 3162SOL    HW1 9938   1.918   1.710   0.894
 3162SOL    HW2 9939   2.041   1.797   0.910
 3163SOL     OW 9940   2.361   1.569   0.905
 3163SOL    HW1 9941   2.429   1.633   0.925
 3163SOL    HW2 9942   2.404   1.505   0.848
 3164SOL     OW 9943   2.844   0.793   1.227
 3164SOL    HW1 9944   2.900   0.770   1.301
 3164SOL    HW2 9945   2.760   0.753   1.247
 3165SOL     OW 9946   1.895   0.544   1.119
 3165SOL    HW1 9947   1.973   0.525   1.066
 3165SOL    HW2 9948   1.928   0.548   1.208
 3166SOL     OW 9949   2.047   0.520   1.721
 3166SOL    HW1 9950   2.122   0.500   1.666
 3166SOL    HW2 9951   2.006   0.596   1.680
 3167SOL     OW 9952   3.240   0.938   1.658
 3167SOL    HW1 9953   3.260   1.032   1.656
 3167SOL    HW2 9954   3.236   0.913   1.566
 3168SOL     OW 9955   2.673   0.576   0.359
 3168SOL    HW1 9956   2.680   0.501   0.300
 3168SOL    HW2 9957   2.599   0.626   0.325
 3169SOL     OW 9958   3.502   0.602   1.186
 3169SOL    HW1 9959   3.492   0.542   1.260
 3169SOL    HW2 9960   3.589   0.583   1.152
 3170SOL     OW 9961   2.110   1.549   1.730
 3170SOL    HW1 9962   2.083   1.612   1.797
 3170SOL    HW2 9963   2.108   1.464   1.775
 3171SOL     OW 9964   2.563   0.458   1.263
 3171SOL    HW1 9965   2.515   0.382   1.232
 3171SOL    HW2 9966   2.562   0.519   1.189
 3172SOL     OW 9967   2.789   1.679   1.468
 3172SOL    HW1 9968   2.764   1.644   1.383
 3172SOL    HW2 9969   2.787   1.774   1.457
 3173SOL     OW 9970   2.324   0.485   0.179
 3173SOL    HW1 9971   2.384   0.557   0.200
 3173SOL    HW2 9972   2.239   0.527   0.169
 3174SOL     OW 9973   2.008   1.141   1.473
 3174SOL    HW1 9974   2.009   1.089   1.554
 3174SOL    HW2 9975   2.025   1.077   1.404
 3175SOL     OW 9976   3.188   1.047   1.223
 3175SOL    HW1 9977   3.211   0.983   1.155
 3175SOL    HW2 9978   3.118   1.099   1.184
 3176SOL     OW 9979   3.171   0.852   0.310
 3176SOL    HW1 9980   3.095   0.821   0.359
 3176SOL    HW2 9981   3.147   0.838   0.218
 3177SOL     OW 9982   3.635   1.743   1.151
 3177SOL    HW1 9983   3.695   1.770   1.081
 3177SOL    HW2 9984   3.610   1.654   1.129
 3178SOL     OW 9985   3.103   1.733   1.112
 3178SOL    HW1 9986   3.185   1.754   1.068
 3178SOL    HW2 9987   3.109   1.639   1.131
 3179SOL     OW 9988   1.948   1.265   1.013
 3179SOL    HW1 9989   1.933   1.279   1.106
 3179SOL    HW2 9990   1.873   1.214   0.984
 3180SOL     OW 9991   2.541   1.664   1.728
 3180SOL    HW1 9992   2.489   1.744   1.728
 3180SOL    HW2 9993   2.607   1.677   1.660
 3181SOL     OW 9994   2.741   0.065   0.128
 3181SOL    HW1 9995   2.826   0.094   0.095
 3181SOL    HW2 9996   2.761   0.010   0.204
 3182SOL     OW 9997   3.581   0.133   0.495
 3182SOL    HW1 9998   3.653   0.140   0.432
 3182SOL    HW2 9999   3.603   0.058   0.549
 3183SOL     OW10000   3.252   1.568   0.486
 3183SOL    HW110001   3.313   1.600   0.419
 3183SOL    HW210002   3.205   1.646   0.514
 3184SOL     OW10003   2.000   1.800   1.847
 3184SOL    HW110004   1.948   1.731   1.888
 3184SOL    HW210005   2.039   1.848   1.921
 3185SOL     OW10006   3.141   0.928   0.673
 3185SOL    HW110007   3.213   0.866   0.678
 3185SOL    HW210008   3.174   1.000   0.620
 3186SOL     OW10009   2.676   1.274   1.429
 3186SOL    HW110010   2.648   1.313   1.512
 3186SOL    HW210011   2.605   1.294   1.368
 3187SOL     OW10012   2.533   1.624   0.169
 3187SOL    HW110013   2.553   1.628   0.075
 3187SOL    HW210014   2.477   1.546   0.177
 3188SOL     OW10015   3.488   1.727   1.391
 3188SOL    HW110016   3.538   1.733   1.310
 3188SOL    HW210017   3.474   1.817   1.419
 3189SOL     OW10018   3.701   0.154   0.966
 3189SOL    HW110019   3.731   0.076   0.920
 3189SOL    HW210020   3.614   0.171   0.929
 3190SOL     OW10021   2.125   0.323   0.717
 3190SOL    HW110022   2.039   0.356   0.690
 3190SOL    HW210023   2.119   0.314   0.812
 3191SOL     OW10024   3.085   1.602   0.053
 3191SOL    HW110025   3.072   1.509   0.073
 3191SOL    HW210026   3.020   1.621  11.085
 3192SOL     OW10027   2.685   1.006   1.373
 3192SOL    HW110028   2.729   1.000   1.288
 3192SOL    HW210029   2.686   1.099   1.394
 3193SOL     OW10030   2.776   0.906   0.281
 3193SOL    HW110031   2.843   0.946   0.225
 3193SOL    HW210032   2.824   0.842   0.334
 3194SOL     OW10033   3.360   1.622   0.047
 3194SOL    HW110034   3.265   1.617   0.045
 3194SOL    HW210035   3.386   1.636  11.056
 3195SOL     OW10036   2.232   1.302   1.491
 3195SOL    HW110037   2.217   1.380   1.438
 3195SOL    HW210038   2.154   1.248   1.476
 3196SOL     OW10039   3.473   1.283   1.281
 3196SOL    HW110040   3.531   1.271   1.355
 3196SOL    HW210041   3.412   1.352   1.308
 3197SOL     OW10042   2.914   1.107   0.706
 3197SOL    HW110043   2.844   1.056   0.746
 3197SOL    HW210044   2.978   1.042   0.677
 3198SOL     OW10045   2.874   0.241   0.998
 3198SOL    HW110046   2.873   0.211   0.907
 3198SOL    HW210047   2.863   0.162   1.050
 3199SOL     OW10048   2.466   1.491   0.481
 3199SOL    HW110049   2.508   1.438   0.414
 3199SOL    HW210050   2.393   1.534   0.436
 3200SOL     OW10051   3.584   0.394   1.376
 3200SOL    HW110052   3.657   0.456   1.376
 3200SOL    HW210053   3.613   0.322   1.320
 3201SOL     OW10054   2.128   1.336   0.292
 3201SOL    HW110055   2.041   1.339   0.253
 3201SOL    HW210056   2.117   1.376   0.379
 3202SOL     OW10057   1.975   1.022   1.719
 3202SOL    HW110058   1.898   0.999   1.773
 3202SOL    HW210059   2.049   0.984   1.767
 3203SOL     OW10060   2.519   0.204   1.499
 3203SOL    HW110061   2.599   0.180   1.452
 3203SOL    HW210062   2.550   0.226   1.587
 3204SOL     OW10063   1.939   0.341   0.054
 3204SOL    HW110064   1.864   0.310   0.002
 3204SOL    HW210065   1.956   0.429   0.021
 3205SOL     OW10066   3.291   0.858   1.400
 3205SOL    HW110067   3.243   0.919   1.344
 3205SOL    HW210068   3.381   0.860   1.365
 3206SOL     OW10069   1.928   0.182   0.323
 3206SOL    HW110070   1.922   0.248   0.254
 3206SOL    HW210071   1.999   0.125   0.296
 3207SOL     OW10072   3.045   1.340   0.122
 3207SOL    HW110073   2.951   1.322   0.114
 3207SOL    HW210074   3.064   1.331   0.215
 3208SOL     OW10075   2.481   0.830   1.434
 3208SOL    HW110076   2.537   0.907   1.419
 3208SOL    HW210077   2.542   0.757   1.442
 3209SOL     OW10078   3.345   1.778   0.979
 3209SOL    HW110079   3.370   1.837   0.908
 3209SOL    HW210080   3.428   1.757   1.022
 3210SOL     OW10081   2.578   0.563   1.705
 3210SOL    HW110082   2.618   0.627   1.765
 3210SOL    HW210083   2.609   0.478   1.738
 3211SOL     OW10084   3.333   1.200   1.632
 3211SOL    HW110085   3.321   1.214   1.726
 3211SOL    HW210086   3.427   1.215   1.618
 3212SOL     OW10087   2.244   1.736   1.566
 3212SOL    HW110088   2.157   1.771   1.546
 3212SOL    HW210089   2.227   1.652   1.608
 3213SOL     OW10090   3.531   0.881   1.255
 3213SOL    HW110091   3.524   0.796   1.212
 3213SOL    HW210092   3.521   0.945   1.185
 3214SOL     OW10093   3.080   0.328   0.447
 3214SOL    HW110094   3.147   0.260   0.436
 3214SOL    HW210095   3.104   0.374   0.527
 3215SOL     OW10096   2.447   0.738   0.671
 3215SOL    HW110097   2.490   0.822   0.656
 3215SOL    HW210098   2.381   0.731   0.602
 3216SOL     OW10099   3.624   0.367   1.643
 3216SOL    HW110100   3.607   0.380   1.550
 3216SOL    HW210101   3.547   0.320   1.675
 3217SOL     OW10102   3.608   0.933   1.512
 3217SOL    HW110103   3.603   1.028   1.525
 3217SOL    HW210104   3.592   0.921   1.418
 3218SOL     OW10105   2.767   1.356   0.071
 3218SOL    HW110106   2.696   1.354   0.135
 3218SOL    HW210107   2.753   1.436   0.020
 3219SOL     OW10108   2.519   1.806   0.940
 3219SOL    HW110109   2.520   1.891   0.983
 3219SOL    HW210110   2.611   1.780   0.936
 3220SOL     OW10111   2.729   0.967   0.855
 3220SOL    HW110112   2.779   0.895   0.893
 3220SOL    HW210113   2.694   1.015   0.930
 3221SOL     OW10114   2.941   0.990   0.084
 3221SOL    HW110115   2.915   1.021  11.098
 3221SOL    HW210116   3.017   0.934   0.068
 3222SOL     OW10117   3.716   1.555   0.845
 3222SOL    HW110118   3.638   1.543   0.790
 3222SOL    HW210119   3.709   1.487   0.912
 3223SOL     OW10120   2.087   1.301   1.856
 3223SOL    HW110121   2.019   1.241   1.826
 3223SOL    HW210122   2.069   1.313   1.949
 3224SOL     OW10123   1.946   1.233   0.665
 3224SOL    HW110124   1.949   1.185   0.748
 3224SOL    HW210125   2.017   1.195   0.613
 3225SOL     OW10126   2.543   1.403   1.627
 3225SOL    HW110127   2.464   1.359   1.658
 3225SOL    HW210128   2.539   1.491   1.665
 3226SOL     OW10129   3.669   0.181   1.238
 3226SOL    HW110130   3.668   0.087   1.259
 3226SOL    HW210131   3.686   0.185   1.144
 3227SOL     OW10132   2.298   0.433   0.529
 3227SOL    HW110133   2.320   0.362   0.468
 3227SOL    HW210134   2.242   0.391   0.595
 3228SOL     OW10135   3.561   1.490   1.097
 3228SOL    HW110136   3.481   1.466   1.050
 3228SOL    HW210137   3.572   1.420   1.161
 3229SOL     OW10138   2.192   0.558   1.292
 3229SOL    HW110139   2.247   0.501   1.346
 3229SOL    HW210140   2.211   0.531   1.202
 3230SOL     OW10141   2.688   1.578   0.678
 3230SOL    HW110142   2.674   1.628   0.597
 3230SOL    HW210143   2.613   1.519   0.683
 3231SOL     OW10144   3.294   0.217   1.117
 3231SOL    HW110145   3.329   0.145   1.169
 3231SOL    HW210146   3.243   0.269   1.179
 3232SOL     OW10147   2.858   0.009   1.150
 3232SOL    HW110148   2.815   4.423   1.144
 3232SOL    HW210149   2.950   4.488   1.163
 3233SOL     OW10150   2.629   1.328   0.318
 3233SOL    HW110151   2.601   1.238   0.331
 3233SOL    HW210152   2.714   1.333   0.362
 3234SOL     OW10153   2.483   1.555   1.283
 3234SOL    HW110154   2.484   1.637   1.333
 3234SOL    HW210155   2.572   1.548   1.247
 3235SOL     OW10156   3.212   0.058   0.170
 3235SOL    HW110157   3.248   4.498   0.104
 3235SOL    HW210158   3.133   0.015   0.201
 3236SOL     OW10159   3.178   0.463   0.677
 3236SOL    HW110160   3.117   0.537   0.677
 3236SOL    HW210161   3.164   0.421   0.762
 3237SOL     OW10162   3.448   0.199   0.868
 3237SOL    HW110163   3.389   0.214   0.941
 3237SOL    HW210164   3.450   0.283   0.821
 3238SOL     OW10165   1.904   1.070   0.301
 3238SOL    HW110166   2.000   1.064   0.296
 3238SOL    HW210167   1.876   0.982   0.327
 3239SOL     OW10168   2.747   1.653   0.347
 3239SOL    HW110169   2.674   1.634   0.288
 3239SOL    HW210170   2.716   1.728   0.399
 3240SOL     OW10171   2.091   0.626   1.983
 3240SOL    HW110172   2.003   0.619   2.022
 3240SOL    HW210173   2.079   0.596   1.893
 3241SOL     OW10174   2.069   0.299   2.852
 3241SOL    HW110175   2.100   0.270   2.937
 3241SOL    HW210176   1.988   0.251   2.838
 3242SOL     OW10177   1.869   0.387   2.500
 3242SOL    HW110178   1.783   0.406   2.537
 3242SOL    HW210179   1.855   0.313   2.440
 3243SOL     OW10180   2.429   1.288   3.037
 3243SOL    HW110181   2.342   1.291   2.999
 3243SOL    HW210182   2.444   1.377   3.071
 3244SOL     OW10183   3.424   1.512   2.569
 3244SOL    HW110184   3.381   1.491   2.652
 3244SOL    HW210185   3.352   1.516   2.506
 3245SOL     OW10186   2.997   0.698   2.560
 3245SOL    HW110187   3.043   0.782   2.550
 3245SOL    HW210188   2.947   0.708   2.640
 3246SOL     OW10189   3.630   0.606   2.089
 3246SOL    HW110190   3.609   0.597   1.997
 3246SOL    HW210191   3.596   0.527   2.130
 3247SOL     OW10192   2.618   1.142   2.904
 3247SOL    HW110193   2.548   1.177   2.960
 3247SOL    HW210194   2.653   1.219   2.859
 3248SOL     OW10195   2.729   0.773   3.684
 3248SOL    HW110196   2.715   0.844   3.747
 3248SOL    HW210197   2.752   0.818   3.603
 3249SOL     OW10198   2.548   1.003   2.508
 3249SOL    HW110199   2.613   0.991   2.578
 3249SOL    HW210200   2.479   1.054   2.549
 3250SOL     OW10201   2.572   1.151   3.674
 3250SOL    HW110202   2.620   1.229   3.701
 3250SOL    HW210203   2.490   1.183   3.639
 3251SOL     OW10204   2.193   1.424   2.930
 3251SOL    HW110205   2.119   1.387   2.882
 3251SOL    HW210206   2.241   1.475   2.865
 3252SOL     OW10207   3.323   1.499   3.217
 3252SOL    HW110208   3.373   1.580   3.227
 3252SOL    HW210209   3.260   1.502   3.289
 3253SOL     OW10210   2.304   0.395   3.351
 3253SOL    HW110211   2.386   0.346   3.352
 3253SOL    HW210212   2.237   0.329   3.364
 3254SOL     OW10213   3.472   0.445   2.601
 3254SOL    HW110214   3.392   0.466   2.553
 3254SOL    HW210215   3.490   0.523   2.653
 3255SOL     OW10216   2.083   1.724   2.338
 3255SOL    HW110217   2.121   1.765   2.416
 3255SOL    HW210218   2.157   1.710   2.280
 3256SOL     OW10219   2.998   1.342   3.555
 3256SOL    HW110220   3.039   1.337   3.642
 3256SOL    HW210221   2.946   1.262   3.548
 3257SOL     OW10222   2.088   1.443   2.397
 3257SOL    HW110223   2.065   1.536   2.406
 3257SOL    HW210224   2.032   1.398   2.459
 3258SOL     OW10225   2.121   1.090   2.753
 3258SOL    HW110226   2.117   1.004   2.794
 3258SOL    HW210227   2.062   1.144   2.806
 3259SOL     OW10228   2.473   1.791   3.289
 3259SOL    HW110229   2.391   1.773   3.335
 3259SOL    HW210230   2.496   1.881   3.314
 3260SOL     OW10231   2.447   0.982   1.996
 3260SOL    HW110232   2.493   1.031   1.928
 3260SOL    HW210233   2.487   1.013   2.078
 3261SOL     OW10234   3.443   0.116   3.333
 3261SOL    HW110235   3.467   0.184   3.270
 3261SOL    HW210236   3.432   0.162   3.416
 3262SOL     OW10237   1.978   0.653   2.422
 3262SOL    HW110238   1.948   0.565   2.444
 3262SOL    HW210239   1.970   0.702   2.504
 3263SOL     OW10240   3.704   1.759   2.196
 3263SOL    HW110241   3.768   1.730   2.262
 3263SOL    HW210242   3.728   1.850   2.178
 3264SOL     OW10243   1.897   1.595   1.984
 3264SOL    HW110244   1.878   1.503   2.002
 3264SOL    HW210245   1.870   1.640   2.064
 3265SOL     OW10246   3.553   0.921   2.504
 3265SOL    HW110247   3.636   0.877   2.483
 3265SOL    HW210248   3.530   0.970   2.425
 3266SOL     OW10249   3.508   1.107   2.291
 3266SOL    HW110250   3.594   1.112   2.249
 3266SOL    HW210251   3.513   1.168   2.364
 3267SOL     OW10252   1.984   0.745   3.446
 3267SOL    HW110253   2.076   0.772   3.454
 3267SOL    HW210254   1.934   0.826   3.454
 3268SOL     OW10255   2.476   1.386   2.597
 3268SOL    HW110256   2.430   1.303   2.606
 3268SOL    HW210257   2.459   1.413   2.506
 3269SOL     OW10258   3.151   1.238   3.285
 3269SOL    HW110259   3.182   1.171   3.225
 3269SOL    HW210260   3.208   1.232   3.361
 3270SOL     OW10261   2.679   0.015   2.414
 3270SOL    HW110262   2.715   0.100   2.388
 3270SOL    HW210263   2.585   0.026   2.406
 3271SOL     OW10264   2.052   0.965   3.135
 3271SOL    HW110265   2.137   0.924   3.119
 3271SOL    HW210266   1.990   0.913   3.084
 3272SOL     OW10267   3.394   0.993   2.061
 3272SOL    HW110268   3.323   0.937   2.092
 3272SOL    HW210269   3.434   1.028   2.140
 3273SOL     OW10270   3.048   1.807   3.484
 3273SOL    HW110271   3.058   1.865   3.409
 3273SOL    HW210272   3.064   1.719   3.449
 3274SOL     OW10273   2.177   0.253   3.642
 3274SOL    HW110274   2.241   0.318   3.674
 3274SOL    HW210275   2.104   0.260   3.703
 3275SOL     OW10276   3.329   1.419   2.813
 3275SOL    HW110277   3.261   1.435   2.879
 3275SOL    HW210278   3.316   1.328   2.786
 3276SOL     OW10279   3.520   1.740   2.440
 3276SOL    HW110280   3.500   1.710   2.351
 3276SOL    HW210281   3.496   1.667   2.496
 3277SOL     OW10282   2.455   0.723   2.127
 3277SOL    HW110283   2.460   0.805   2.079
 3277SOL    HW210284   2.389   0.739   2.196
 3278SOL     OW10285   3.154   0.365   2.795
 3278SOL    HW110286   3.064   0.335   2.779
 3278SOL    HW210287   3.190   0.301   2.857
 3279SOL     OW10288   3.442   1.671   2.171
 3279SOL    HW110289   3.533   1.702   2.164
 3279SOL    HW210290   3.415   1.654   2.081
 3280SOL     OW10291   2.657   0.620   3.316
 3280SOL    HW110292   2.629   0.594   3.404
 3280SOL    HW210293   2.618   0.554   3.258
 3281SOL     OW10294   3.250   0.480   3.538
 3281SOL    HW110295   3.254   0.524   3.623
 3281SOL    HW210296   3.317   0.411   3.544
 3282SOL     OW10297   2.817   0.888   3.445
 3282SOL    HW110298   2.870   0.817   3.410
 3282SOL    HW210299   2.769   0.921   3.369
 3283SOL     OW10300   2.858   0.417   3.098
 3283SOL    HW110301   2.770   0.426   3.133
 3283SOL    HW210302   2.847   0.365   3.018
 3284SOL     OW10303   2.912   0.697   2.289
 3284SOL    HW110304   2.929   0.690   2.383
 3284SOL    HW210305   2.829   0.652   2.275
 3285SOL     OW10306   1.951   0.821   2.638
 3285SOL    HW110307   2.031   0.814   2.689
 3285SOL    HW210308   1.907   0.899   2.673
 3286SOL     OW10309   1.988   1.809   3.434
 3286SOL    HW110310   1.974   1.806   3.529
 3286SOL    HW210311   1.923   1.872   3.402
 3287SOL     OW10312   2.717   0.369   2.046
 3287SOL    HW110313   2.789   0.403   1.992
 3287SOL    HW210314   2.731   0.275   2.048
 3288SOL     OW10315   3.566   0.573   3.690
 3288SOL    HW110316   3.530   0.648   3.642
 3288SOL    HW210317   3.602   0.516   3.622
 3289SOL     OW10318   3.240   1.143   2.403
 3289SOL    HW110319   3.318   1.130   2.350
 3289SOL    HW210320   3.186   1.204   2.353
 3290SOL     OW10321   2.399   0.204   2.763
 3290SOL    HW110322   2.421   0.223   2.855
 3290SOL    HW210323   2.392   0.291   2.723
 3291SOL     OW10324   2.868   1.445   2.334
 3291SOL    HW110325   2.830   1.518   2.284
 3291SOL    HW210326   2.849   1.465   2.425
 3292SOL     OW10327   2.220   1.809   2.699
 3292SOL    HW110328   2.260   1.724   2.717
 3292SOL    HW210329   2.287   1.873   2.720
 3293SOL     OW10330   3.660   1.059   2.730
 3293SOL    HW110331   3.607   1.038   2.654
 3293SOL    HW210332   3.598   1.064   2.803
 3294SOL     OW10333   3.090   1.539   3.375
 3294SOL    HW110334   3.076   1.466   3.436
 3294SOL    HW210335   3.026   1.524   3.305
 3295SOL     OW10336   2.181   0.957   2.112
 3295SOL    HW110337   2.263   0.976   2.067
 3295SOL    HW210338   2.151   0.875   2.074
 3296SOL     OW10339   3.342   0.743   2.586
 3296SOL    HW110340   3.330   0.699   2.670
 3296SOL    HW210341   3.419   0.799   2.598
 3297SOL     OW10342   2.328   1.265   3.600
 3297SOL    HW110343   2.301   1.269   3.508
 3297SOL    HW210344   2.246   1.262   3.649
 3298SOL     OW10345   2.984   1.777   2.093
 3298SOL    HW110346   2.910   1.736   2.138
 3298SOL    HW210347   3.007   1.716   2.024
 3299SOL     OW10348   2.049   0.268   3.374
 3299SOL    HW110349   1.984   0.336   3.359
 3299SOL    HW210350   2.065   0.270   3.469
 3300SOL     OW10351   3.491   1.380   1.949
 3300SOL    HW110352   3.449   1.465   1.935
 3300SOL    HW210353   3.422   1.316   1.931
 3301SOL     OW10354   2.329   1.720   2.204
 3301SOL    HW110355   2.366   1.795   2.250
 3301SOL    HW210356   2.389   1.705   2.130
 3302SOL     OW10357   3.284   0.140   2.279
 3302SOL    HW110358   3.268   0.087   2.201
 3302SOL    HW210359   3.378   0.132   2.295
 3303SOL     OW10360   2.110   1.787   3.091
 3303SOL    HW110361   2.166   1.724   3.136
 3303SOL    HW210362   2.106   1.755   3.001
 3304SOL     OW10363   2.802   1.698   2.761
 3304SOL    HW110364   2.879   1.645   2.782
 3304SOL    HW210365   2.757   1.649   2.692
 3305SOL     OW10366   2.255   0.694   2.337
 3305SOL    HW110367   2.277   0.602   2.350
 3305SOL    HW210368   2.161   0.699   2.355
 3306SOL     OW10369   3.387   0.233   3.585
 3306SOL    HW110370   3.386   0.255   3.678
 3306SOL    HW210371   3.308   0.179   3.573
 3307SOL     OW10372   2.491   0.122   1.985
 3307SOL    HW110373   2.579   0.085   1.994
 3307SOL    HW210374   2.457   0.085   1.903
 3308SOL     OW10375   2.630   0.271   3.616
 3308SOL    HW110376   2.697   0.202   3.624
 3308SOL    HW210377   2.588   0.273   3.702
 3309SOL     OW10378   2.739   1.522   3.056
 3309SOL    HW110379   2.722   1.486   2.969
 3309SOL    HW210380   2.808   1.467   3.092
 3310SOL     OW10381   3.203   0.589   3.290
 3310SOL    HW110382   3.230   0.560   3.378
 3310SOL    HW210383   3.237   0.678   3.283
 3311SOL     OW10384   2.678   1.395   2.802
 3311SOL    HW110385   2.762   1.383   2.758
 3311SOL    HW210386   2.613   1.396   2.731
 3312SOL     OW10387   2.786   0.519   2.761
 3312SOL    HW110388   2.769   0.517   2.667
 3312SOL    HW210389   2.822   0.433   2.781
 3313SOL     OW10390   2.417   0.077   2.384
 3313SOL    HW110391   2.329   0.047   2.407
 3313SOL    HW210392   2.403   0.141   2.314
 3314SOL     OW10393   3.290   1.198   1.903
 3314SOL    HW110394   3.320   1.123   1.953
 3314SOL    HW210395   3.204   1.219   1.940
 3315SOL     OW10396   2.157   0.068   2.062
 3315SOL    HW110397   2.235   0.121   2.044
 3315SOL    HW210398   2.187   0.000   2.122
 3316SOL     OW10399   2.815   0.240   2.329
 3316SOL    HW110400   2.763   0.298   2.273
 3316SOL    HW210401   2.904   0.275   2.324
 3317SOL     OW10402   2.942   0.681   3.322
 3317SOL    HW110403   2.871   0.617   3.322
 3317SOL    HW210404   3.021   0.629   3.311
 3318SOL     OW10405   3.086   1.570   2.656
 3318SOL    HW110406   3.101   1.637   2.589
 3318SOL    HW210407   3.154   1.585   2.721
 3319SOL     OW10408   2.331   1.150   2.595
 3319SOL    HW110409   2.262   1.131   2.659
 3319SOL    HW210410   2.291   1.134   2.510
 3320SOL     OW10411   3.131   1.794   2.471
 3320SOL    HW110412   3.176   1.855   2.413
 3320SOL    HW210413   3.064   1.847   2.514
 3321SOL     OW10414   2.891   0.547   1.879
 3321SOL    HW110415   2.843   0.628   1.864
 3321SOL    HW210416   2.949   0.567   1.953
 3322SOL     OW10417   1.945   0.550   3.258
 3322SOL    HW110418   2.035   0.554   3.227
 3322SOL    HW210419   1.937   0.622   3.320
 3323SOL     OW10420   2.424   0.244   3.029
 3323SOL    HW110421   2.451   0.162   3.070
 3323SOL    HW210422   2.332   0.255   3.053
 3324SOL     OW10423   2.727   0.504   2.489
 3324SOL    HW110424   2.684   0.544   2.413
 3324SOL    HW210425   2.690   0.416   2.494
 3325SOL     OW10426   2.823   0.023   2.647
 3325SOL    HW110427   2.775   0.022   2.564
 3325SOL    HW210428   2.837   4.431   2.667
 3326SOL     OW10429   3.299   1.162   2.719
 3326SOL    HW110430   3.230   1.096   2.719
 3326SOL    HW210431   3.322   1.173   2.627
 3327SOL     OW10432   3.327   0.605   2.836
 3327SOL    HW110433   3.274   0.526   2.838
 3327SOL    HW210434   3.385   0.597   2.912
 3328SOL     OW10435   3.707   0.816   2.245
 3328SOL    HW110436   3.764   0.765   2.303
 3328SOL    HW210437   3.679   0.754   2.178
 3329SOL     OW10438   2.353   1.419   2.017
 3329SOL    HW110439   2.279   1.390   2.071
 3329SOL    HW210440   2.338   1.378   1.932
 3330SOL     OW10441   3.533   1.265   2.506
 3330SOL    HW110442   3.627   1.267   2.521
 3330SOL    HW210443   3.503   1.353   2.529
 3331SOL     OW10444   3.257   0.571   1.932
 3331SOL    HW110445   3.194   0.555   2.003
 3331SOL    HW210446   3.342   0.552   1.970
 3332SOL     OW10447   2.383   0.265   2.185
 3332SOL    HW110448   2.431   0.215   2.120
 3332SOL    HW210449   2.365   0.349   2.142
 3333SOL     OW10450   3.614   1.239   3.434
 3333SOL    HW110451   3.701   1.200   3.431
 3333SOL    HW210452   3.629   1.329   3.464
 3334SOL     OW10453   2.920   1.355   3.197
 3334SOL    HW110454   2.845   1.323   3.247
 3334SOL    HW210455   2.996   1.312   3.237
 3335SOL     OW10456   3.470   1.626   3.516
 3335SOL    HW110457   3.464   1.660   3.427
 3335SOL    HW210458   3.553   1.578   3.518
 3336SOL     OW10459   2.992   1.205   2.967
 3336SOL    HW110460   2.931   1.241   3.032
 3336SOL    HW210461   2.959   1.235   2.883
 3337SOL     OW10462   3.489   1.098   2.940
 3337SOL    HW110463   3.485   1.160   3.012
 3337SOL    HW210464   3.410   1.115   2.888
 3338SOL     OW10465   2.764   0.133   3.249
 3338SOL    HW110466   2.786   0.089   3.167
 3338SOL    HW210467   2.848   0.149   3.291
 3339SOL     OW10468   2.846   1.115   3.585
 3339SOL    HW110469   2.754   1.131   3.606
 3339SOL    HW210470   2.845   1.037   3.529
 3340SOL     OW10471   2.571   1.062   2.233
 3340SOL    HW110472   2.557   1.045   2.326
 3340SOL    HW210473   2.646   1.008   2.210
 3341SOL     OW10474   2.281   0.816   3.113
 3341SOL    HW110475   2.350   0.825   3.179
 3341SOL    HW210476   2.246   0.728   3.127
 3342SOL     OW10477   3.130   0.375   3.136
 3342SOL    HW110478   3.162   0.454   3.180
 3342SOL    HW210479   3.041   0.397   3.109
 3343SOL     OW10480   1.930   1.570   3.211
 3343SOL    HW110481   1.898   1.649   3.166
 3343SOL    HW210482   2.025   1.581   3.213
 3344SOL     OW10483   2.210   1.110   2.352
 3344SOL    HW110484   2.215   1.183   2.291
 3344SOL    HW210485   2.208   1.032   2.297
 3345SOL     OW10486   2.417   0.529   2.720
 3345SOL    HW110487   2.431   0.588   2.646
 3345SOL    HW210488   2.482   0.557   2.785
 3346SOL     OW10489   3.110   1.349   2.251
 3346SOL    HW110490   3.166   1.420   2.282
 3346SOL    HW210491   3.023   1.370   2.285
 3347SOL     OW10492   3.143   1.458   3.008
 3347SOL    HW110493   3.198   1.459   3.087
 3347SOL    HW210494   3.088   1.380   3.020
 3348SOL     OW10495   3.443   0.623   2.340
 3348SOL    HW110496   3.396   0.672   2.407
 3348SOL    HW210497   3.487   0.690   2.287
 3349SOL     OW10498   2.211   1.525   3.178
 3349SOL    HW110499   2.196   1.483   3.094
 3349SOL    HW210500   2.306   1.537   3.183
 3350SOL     OW10501   2.277   0.743   3.465
 3350SOL    HW110502   2.336   0.789   3.406
 3350SOL    HW210503   2.322   0.660   3.483
 3351SOL     OW10504   3.464   0.778   3.543
 3351SOL    HW110505   3.378   0.820   3.537
 3351SOL    HW210506   3.516   0.820   3.475
 3352SOL     OW10507   2.866   0.085   3.581
 3352SOL    HW110508   2.897   0.167   3.543
 3352SOL    HW210509   2.890   0.018   3.516
 3353SOL     OW10510   2.361   0.045   3.622
 3353SOL    HW110511   2.361   0.006   3.535
 3353SOL    HW210512   2.294   0.113   3.618
 3354SOL     OW10513   2.445   0.874   2.893
 3354SOL    HW110514   2.475   0.964   2.893
 3354SOL    HW210515   2.389   0.867   2.970
 3355SOL     OW10516   3.219   0.858   2.891
 3355SOL    HW110517   3.135   0.848   2.846
 3355SOL    HW210518   3.260   0.772   2.884
 3356SOL     OW10519   3.065   0.536   2.124
 3356SOL    HW110520   3.071   0.455   2.176
 3356SOL    HW210521   3.022   0.598   2.182
 3357SOL     OW10522   2.152   0.233   3.103
 3357SOL    HW110523   2.107   0.249   3.187
 3357SOL    HW210524   2.188   0.145   3.112
 3358SOL     OW10525   1.907   1.310   3.138
 3358SOL    HW110526   1.941   1.257   3.210
 3358SOL    HW210527   1.914   1.400   3.168
 3359SOL     OW10528   2.585   0.631   2.919
 3359SOL    HW110529   2.659   0.613   2.862
 3359SOL    HW210530   2.558   0.720   2.895
 3360SOL     OW10531   3.597   0.959   3.714
 3360SOL    HW110532   3.550   0.898   3.658
 3360SOL    HW210533   3.537   0.973   3.788
 3361SOL     OW10534   2.158   0.053   2.516
 3361SOL    HW110535   2.148   0.149   2.517
 3361SOL    HW210536   2.170   0.029   2.608
 3362SOL     OW10537   3.478   0.379   2.223
 3362SOL    HW110538   3.506   0.315   2.289
 3362SOL    HW210539   3.455   0.456   2.274
 3363SOL     OW10540   2.892   0.762   2.823
 3363SOL    HW110541   2.887   0.778   2.917
 3363SOL    HW210542   2.862   0.672   2.812
 3364SOL     OW10543   2.844   1.567   3.579
 3364SOL    HW110544   2.829   1.610   3.495
 3364SOL    HW210545   2.887   1.484   3.556
 3365SOL     OW10546   3.717   1.506   3.468
 3365SOL    HW110547   3.734   1.532   3.377
 3365SOL    HW210548   3.798   1.524   3.515
 3366SOL     OW10549   2.216   0.916   3.670
 3366SOL    HW110550   2.298   0.935   3.716
 3366SOL    HW210551   2.240   0.853   3.603
 3367SOL     OW10552   3.392   0.264   1.990
 3367SOL    HW110553   3.320   0.208   2.020
 3367SOL    HW210554   3.422   0.309   2.069
 3368SOL     OW10555   3.153   0.826   1.892
 3368SOL    HW110556   3.195   0.740   1.895
 3368SOL    HW210557   3.184   0.865   1.811
 3369SOL     OW10558   2.928   1.336   2.716
 3369SOL    HW110559   2.931   1.263   2.653
 3369SOL    HW210560   2.989   1.400   2.681
 3370SOL     OW10561   2.171   0.810   2.809
 3370SOL    HW110562   2.264   0.832   2.802
 3370SOL    HW210563   2.170   0.720   2.842
 3371SOL     OW10564   2.198   0.532   2.876
 3371SOL    HW110565   2.155   0.449   2.856
 3371SOL    HW210566   2.274   0.534   2.818
 3372SOL     OW10567   2.998   0.373   3.559
 3372SOL    HW110568   2.947   0.437   3.609
 3372SOL    HW210569   3.083   0.415   3.545
 3373SOL     OW10570   3.019   0.213   3.335
 3373SOL    HW110571   3.013   0.277   3.406
 3373SOL    HW210572   3.059   0.261   3.263
 3374SOL     OW10573   1.867   1.321   2.056
 3374SOL    HW110574   1.780   1.335   2.019
 3374SOL    HW210575   1.864   1.232   2.090
 3375SOL     OW10576   1.960   1.782   2.792
 3375SOL    HW110577   1.930   1.700   2.752
 3375SOL    HW210578   2.047   1.796   2.755
 3376SOL     OW10579   2.355   1.573   2.765
 3376SOL    HW110580   2.424   1.635   2.791
 3376SOL    HW210581   2.400   1.509   2.710
 3377SOL     OW10582   2.845   0.793   3.089
 3377SOL    HW110583   2.900   0.770   3.164
 3377SOL    HW210584   2.760   0.753   3.109
 3378SOL     OW10585   1.895   0.543   2.981
 3378SOL    HW110586   1.973   0.525   2.927
 3378SOL    HW210587   1.928   0.547   3.070
 3379SOL     OW10588   2.047   0.520   3.583
 3379SOL    HW110589   2.122   0.500   3.528
 3379SOL    HW210590   2.006   0.596   3.542
 3380SOL     OW10591   3.240   0.938   3.520
 3380SOL    HW110592   3.260   1.032   3.518
 3380SOL    HW210593   3.236   0.913   3.428
 3381SOL     OW10594   2.672   0.576   2.218
 3381SOL    HW110595   2.677   0.504   2.155
 3381SOL    HW210596   2.599   0.630   2.188
 3382SOL     OW10597   3.502   0.602   3.048
 3382SOL    HW110598   3.492   0.542   3.122
 3382SOL    HW210599   3.589   0.583   3.014
 3383SOL     OW10600   2.111   1.550   3.595
 3383SOL    HW110601   2.081   1.611   3.662
 3383SOL    HW210602   2.109   1.465   3.638
 3384SOL     OW10603   2.563   0.459   3.125
 3384SOL    HW110604   2.515   0.382   3.094
 3384SOL    HW210605   2.562   0.519   3.051
 3385SOL     OW10606   2.789   1.679   3.330
 3385SOL    HW110607   2.764   1.643   3.245
 3385SOL    HW210608   2.786   1.774   3.318
 3386SOL     OW10609   2.326   0.492   2.046
 3386SOL    HW110610   2.385   0.564   2.068
 3386SOL    HW210611   2.241   0.534   2.034
 3387SOL     OW10612   2.008   1.141   3.335
 3387SOL    HW110613   2.009   1.089   3.416
 3387SOL    HW210614   2.025   1.077   3.266
 3388SOL     OW10615   3.188   1.047   3.085
 3388SOL    HW110616   3.210   0.983   3.017
 3388SOL    HW210617   3.118   1.099   3.046
 3389SOL     OW10618   3.174   0.857   2.168
 3389SOL    HW110619   3.100   0.827   2.220
 3389SOL    HW210620   3.147   0.843   2.077
 3390SOL     OW10621   3.635   1.743   3.013
 3390SOL    HW110622   3.695   1.769   2.943
 3390SOL    HW210623   3.610   1.654   2.991
 3391SOL     OW10624   3.103   1.733   2.975
 3391SOL    HW110625   3.185   1.754   2.930
 3391SOL    HW210626   3.109   1.639   2.993
 3392SOL     OW10627   1.948   1.265   2.875
 3392SOL    HW110628   1.932   1.279   2.968
 3392SOL    HW210629   1.873   1.213   2.846
 3393SOL     OW10630   2.541   1.665   3.592
 3393SOL    HW110631   2.487   1.744   3.584
 3393SOL    HW210632   2.607   1.675   3.523
 3394SOL     OW10633   3.580   0.129   2.353
 3394SOL    HW110634   3.651   0.139   2.290
 3394SOL    HW210635   3.609   0.058   2.411
 3395SOL     OW10636   3.253   1.568   2.347
 3395SOL    HW110637   3.313   1.600   2.280
 3395SOL    HW210638   3.204   1.645   2.376
 3396SOL     OW10639   1.991   1.804   3.707
 3396SOL    HW110640   1.943   1.734   3.751
 3396SOL    HW210641   2.044   1.844   3.775
 3397SOL     OW10642   3.141   0.928   2.535
 3397SOL    HW110643   3.213   0.866   2.540
 3397SOL    HW210644   3.174   1.000   2.482
 3398SOL     OW10645   2.676   1.274   3.291
 3398SOL    HW110646   2.647   1.313   3.374
 3398SOL    HW210647   2.606   1.295   3.229
 3399SOL     OW10648   2.533   1.621   2.015
 3399SOL    HW110649   2.544   1.631   1.921
 3399SOL    HW210650   2.478   1.543   2.025
 3400SOL     OW10651   3.488   1.727   3.253
 3400SOL    HW110652   3.538   1.733   3.172
 3400SOL    HW210653   3.475   1.817   3.281
 3401SOL     OW10654   3.701   0.154   2.828
 3401SOL    HW110655   3.732   0.077   2.781
 3401SOL    HW210656   3.614   0.171   2.791
 3402SOL     OW10657   2.126   0.321   2.579
 3402SOL    HW110658   2.040   0.356   2.552
 3402SOL    HW210659   2.120   0.314   2.674
 3403SOL     OW10660   3.070   1.606   1.893
 3403SOL    HW110661   3.060   1.514   1.921
 3403SOL    HW210662   3.004   1.618   1.825
 3404SOL     OW10663   2.685   1.006   3.235
 3404SOL    HW110664   2.729   1.000   3.150
 3404SOL    HW210665   2.685   1.099   3.256
 3405SOL     OW10666   2.778   0.910   2.152
 3405SOL    HW110667   2.840   0.942   2.086
 3405SOL    HW210668   2.825   0.841   2.197
 3406SOL     OW10669   3.354   1.625   1.905
 3406SOL    HW110670   3.259   1.619   1.891
 3406SOL    HW210671   3.390   1.631   1.816
 3407SOL     OW10672   2.231   1.302   3.354
 3407SOL    HW110673   2.218   1.380   3.299
 3407SOL    HW210674   2.154   1.248   3.338
 3408SOL     OW10675   3.473   1.283   3.143
 3408SOL    HW110676   3.531   1.271   3.218
 3408SOL    HW210677   3.412   1.352   3.170
 3409SOL     OW10678   2.915   1.107   2.569
 3409SOL    HW110679   2.843   1.057   2.607
 3409SOL    HW210680   2.977   1.042   2.539
 3410SOL     OW10681   2.867   0.244   2.868
 3410SOL    HW110682   2.872   0.223   2.775
 3410SOL    HW210683   2.859   0.160   2.912
 3411SOL     OW10684   2.464   1.490   2.343
 3411SOL    HW110685   2.507   1.439   2.274
 3411SOL    HW210686   2.400   1.544   2.296
 3412SOL     OW10687   3.584   0.394   3.239
 3412SOL    HW110688   3.657   0.456   3.238
 3412SOL    HW210689   3.613   0.322   3.182
 3413SOL     OW10690   2.122   1.345   2.151
 3413SOL    HW110691   2.029   1.342   2.128
 3413SOL    HW210692   2.124   1.383   2.239
 3414SOL     OW10693   1.975   1.022   3.581
 3414SOL    HW110694   1.898   0.999   3.635
 3414SOL    HW210695   2.049   0.984   3.629
 3415SOL     OW10696   2.519   0.204   3.361
 3415SOL    HW110697   2.599   0.179   3.314
 3415SOL    HW210698   2.550   0.226   3.449
 3416SOL     OW10699   1.944   0.337   1.909
 3416SOL    HW110700   1.873   0.284   1.873
 3416SOL    HW210701   1.956   0.407   1.845
 3417SOL     OW10702   3.291   0.858   3.262
 3417SOL    HW110703   3.242   0.919   3.206
 3417SOL    HW210704   3.381   0.860   3.227
 3418SOL     OW10705   1.926   0.184   2.180
 3418SOL    HW110706   1.925   0.251   2.112
 3418SOL    HW210707   2.001   0.128   2.158
 3419SOL     OW10708   3.041   1.339   1.979
 3419SOL    HW110709   2.950   1.308   1.981
 3419SOL    HW210710   3.069   1.339   2.070
 3420SOL     OW10711   2.481   0.830   3.296
 3420SOL    HW110712   2.537   0.907   3.281
 3420SOL    HW210713   2.542   0.757   3.304
 3421SOL     OW10714   3.345   1.777   2.841
 3421SOL    HW110715   3.368   1.837   2.770
 3421SOL    HW210716   3.429   1.758   2.884
 3422SOL     OW10717   2.578   0.563   3.567
 3422SOL    HW110718   2.618   0.627   3.626
 3422SOL    HW210719   2.609   0.478   3.600
 3423SOL     OW10720   3.333   1.200   3.494
 3423SOL    HW110721   3.321   1.214   3.588
 3423SOL    HW210722   3.427   1.215   3.480
 3424SOL     OW10723   2.246   1.736   3.429
 3424SOL    HW110724   2.159   1.771   3.409
 3424SOL    HW210725   2.230   1.652   3.471
 3425SOL     OW10726   3.531   0.881   3.117
 3425SOL    HW110727   3.524   0.796   3.074
 3425SOL    HW210728   3.521   0.945   3.047
 3426SOL     OW10729   3.080   0.330   2.309
 3426SOL    HW110730   3.146   0.262   2.298
 3426SOL    HW210731   3.108   0.378   2.388
 3427SOL     OW10732   2.449   0.738   2.534
 3427SOL    HW110733   2.490   0.822   2.518
 3427SOL    HW210734   2.382   0.730   2.465
 3428SOL     OW10735   3.624   0.367   3.506
 3428SOL    HW110736   3.608   0.380   3.412
 3428SOL    HW210737   3.546   0.320   3.537
 3429SOL     OW10738   3.608   0.933   3.374
 3429SOL    HW110739   3.603   1.028   3.387
 3429SOL    HW210740   3.592   0.921   3.280
 3430SOL     OW10741   2.724   1.367   1.896
 3430SOL    HW110742   2.686   1.394   1.980
 3430SOL    HW210743   2.742   1.450   1.851
 3431SOL     OW10744   2.528   1.777   2.803
 3431SOL    HW110745   2.510   1.868   2.782
 3431SOL    HW210746   2.624   1.772   2.803
 3432SOL     OW10747   2.729   0.968   2.717
 3432SOL    HW110748   2.780   0.896   2.755
 3432SOL    HW210749   2.694   1.015   2.792
 3433SOL     OW10750   2.942   0.989   1.951
 3433SOL    HW110751   2.919   1.039   1.873
 3433SOL    HW210752   3.016   0.935   1.924
 3434SOL     OW10753   3.716   1.555   2.707
 3434SOL    HW110754   3.638   1.543   2.652
 3434SOL    HW210755   3.709   1.487   2.774
 3435SOL     OW10756   2.087   1.301   3.718
 3435SOL    HW110757   2.020   1.241   3.686
 3435SOL    HW210758   2.065   1.314   3.811
 3436SOL     OW10759   1.948   1.233   2.526
 3436SOL    HW110760   1.951   1.187   2.609
 3436SOL    HW210761   2.015   1.191   2.472
 3437SOL     OW10762   2.543   1.403   3.490
 3437SOL    HW110763   2.464   1.359   3.520
 3437SOL    HW210764   2.538   1.491   3.528
 3438SOL     OW10765   3.669   0.181   3.101
 3438SOL    HW110766   3.668   0.087   3.120
 3438SOL    HW210767   3.686   0.185   3.006
 3439SOL     OW10768   2.299   0.433   2.393
 3439SOL    HW110769   2.320   0.364   2.329
 3439SOL    HW210770   2.242   0.390   2.457
 3440SOL     OW10771   3.561   1.490   2.959
 3440SOL    HW110772   3.481   1.467   2.912
 3440SOL    HW210773   3.572   1.420   3.023
 3441SOL     OW10774   2.192   0.558   3.154
 3441SOL    HW110775   2.248   0.501   3.208
 3441SOL    HW210776   2.211   0.531   3.064
 3442SOL     OW10777   2.690   1.577   2.539
 3442SOL    HW110778   2.675   1.629   2.460
 3442SOL    HW210779   2.614   1.520   2.545
 3443SOL     OW10780   3.294   0.216   2.979
 3443SOL    HW110781   3.329   0.145   3.032
 3443SOL    HW210782   3.243   0.269   3.041
 3444SOL     OW10783   2.858   0.006   3.013
 3444SOL    HW110784   2.816   4.420   3.006
 3444SOL    HW210785   2.951   4.487   3.024
 3445SOL     OW10786   2.635   1.333   2.176
 3445SOL    HW110787   2.603   1.243   2.183
 3445SOL    HW210788   2.716   1.333   2.227
 3446SOL     OW10789   2.483   1.556   3.147
 3446SOL    HW110790   2.485   1.638   3.196
 3446SOL    HW210791   2.570   1.549   3.109
 3447SOL     OW10792   3.202   0.052   2.016
 3447SOL    HW110793   3.240   4.476   1.972
 3447SOL    HW210794   3.126   0.017   2.063
 3448SOL     OW10795   3.177   0.463   2.538
 3448SOL    HW110796   3.118   0.539   2.538
 3448SOL    HW210797   3.165   0.423   2.624
 3449SOL     OW10798   3.447   0.199   2.729
 3449SOL    HW110799   3.388   0.215   2.803
 3449SOL    HW210800   3.450   0.283   2.683
 3450SOL     OW10801   1.906   1.071   2.168
 3450SOL    HW110802   1.999   1.062   2.150
 3450SOL    HW210803   1.877   0.982   2.191
 3451SOL     OW10804   2.746   1.654   2.204
 3451SOL    HW110805   2.674   1.635   2.144
 3451SOL    HW210806   2.715   1.728   2.256
 3452SOL     OW10807   2.091   0.626   3.845
 3452SOL    HW110808   2.003   0.619   3.884
 3452SOL    HW210809   2.079   0.596   3.755
 3453SOL     OW10810   2.069   0.300   4.714
 3453SOL    HW110811   2.100   0.270   4.799
 3453SOL    HW210812   1.988   0.251   4.700
 3454SOL     OW10813   1.869   0.387   4.362
 3454SOL    HW110814   1.783   0.405   4.398
 3454SOL    HW210815   1.855   0.313   4.302
 3455SOL     OW10816   2.424   1.269   4.892
 3455SOL    HW110817   2.338   1.276   4.851
 3455SOL    HW210818   2.445   1.359   4.919
 3456SOL     OW10819   3.423   1.512   4.431
 3456SOL    HW110820   3.380   1.492   4.515
 3456SOL    HW210821   3.351   1.516   4.368
 3457SOL     OW10822   2.997   0.698   4.422
 3457SOL    HW110823   3.043   0.782   4.412
 3457SOL    HW210824   2.947   0.708   4.502
 3458SOL     OW10825   3.630   0.606   3.951
 3458SOL    HW110826   3.609   0.597   3.859
 3458SOL    HW210827   3.596   0.527   3.992
 3459SOL     OW10828   2.623   1.140   4.764
 3459SOL    HW110829   2.550   1.171   4.818
 3459SOL    HW210830   2.655   1.219   4.721
 3460SOL     OW10831   2.729   0.774   5.546
 3460SOL    HW110832   2.718   0.845   5.609
 3460SOL    HW210833   2.752   0.818   5.464
 3461SOL     OW10834   2.548   1.003   4.370
 3461SOL    HW110835   2.613   0.990   4.439
 3461SOL    HW210836   2.479   1.054   4.411
 3462SOL     OW10837   2.574   1.150   5.537
 3462SOL    HW110838   2.622   1.228   5.565
 3462SOL    HW210839   2.490   1.184   5.504
 3463SOL     OW10840   2.199   1.404   4.773
 3463SOL    HW110841   2.116   1.371   4.739
 3463SOL    HW210842   2.232   1.462   4.705
 3464SOL     OW10843   3.323   1.499   5.078
 3464SOL    HW110844   3.372   1.581   5.085
 3464SOL    HW210845   3.262   1.500   5.152
 3465SOL     OW10846   2.304   0.395   5.213
 3465SOL    HW110847   2.386   0.346   5.214
 3465SOL    HW210848   2.237   0.329   5.226
 3466SOL     OW10849   3.472   0.445   4.463
 3466SOL    HW110850   3.392   0.466   4.415
 3466SOL    HW210851   3.490   0.523   4.515
 3467SOL     OW10852   2.081   1.715   4.194
 3467SOL    HW110853   2.099   1.791   4.249
 3467SOL    HW210854   2.157   1.707   4.136
 3468SOL     OW10855   2.999   1.341   5.417
 3468SOL    HW110856   3.040   1.336   5.503
 3468SOL    HW210857   2.947   1.261   5.410
 3469SOL     OW10858   2.092   1.442   4.263
 3469SOL    HW110859   2.071   1.536   4.266
 3469SOL    HW210860   2.030   1.403   4.325
 3470SOL     OW10861   2.121   1.090   4.616
 3470SOL    HW110862   2.117   1.002   4.654
 3470SOL    HW210863   2.062   1.142   4.671
 3471SOL     OW10864   2.447   0.982   3.858
 3471SOL    HW110865   2.493   1.030   3.790
 3471SOL    HW210866   2.487   1.013   3.940
 3472SOL     OW10867   3.443   0.116   5.195
 3472SOL    HW110868   3.467   0.184   5.132
 3472SOL    HW210869   3.432   0.162   5.278
 3473SOL     OW10870   1.978   0.653   4.284
 3473SOL    HW110871   1.948   0.565   4.306
 3473SOL    HW210872   1.970   0.702   4.365
 3474SOL     OW10873   3.704   1.759   4.058
 3474SOL    HW110874   3.767   1.730   4.124
 3474SOL    HW210875   3.728   1.850   4.040
 3475SOL     OW10876   1.897   1.595   3.847
 3475SOL    HW110877   1.878   1.503   3.865
 3475SOL    HW210878   1.871   1.642   3.926
 3476SOL     OW10879   3.553   0.920   4.366
 3476SOL    HW110880   3.636   0.877   4.344
 3476SOL    HW210881   3.530   0.970   4.287
 3477SOL     OW10882   3.508   1.107   4.153
 3477SOL    HW110883   3.594   1.112   4.111
 3477SOL    HW210884   3.513   1.168   4.226
 3478SOL     OW10885   1.984   0.745   5.308
 3478SOL    HW110886   2.075   0.772   5.316
 3478SOL    HW210887   1.934   0.826   5.314
 3479SOL     OW10888   2.470   1.385   4.458
 3479SOL    HW110889   2.426   1.300   4.467
 3479SOL    HW210890   2.455   1.410   4.367
 3480SOL     OW10891   3.152   1.237   5.148
 3480SOL    HW110892   3.184   1.170   5.087
 3480SOL    HW210893   3.210   1.230   5.224
 3481SOL     OW10894   2.679   0.015   4.276
 3481SOL    HW110895   2.715   0.100   4.250
 3481SOL    HW210896   2.585   0.026   4.268
 3482SOL     OW10897   2.051   0.965   4.996
 3482SOL    HW110898   2.136   0.924   4.980
 3482SOL    HW210899   1.990   0.913   4.943
 3483SOL     OW10900   3.394   0.993   3.923
 3483SOL    HW110901   3.323   0.937   3.954
 3483SOL    HW210902   3.434   1.028   4.002
 3484SOL     OW10903   3.025   1.802   5.328
 3484SOL    HW110904   3.061   1.870   5.271
 3484SOL    HW210905   3.069   1.721   5.299
 3485SOL     OW10906   2.177   0.253   5.504
 3485SOL    HW110907   2.241   0.317   5.536
 3485SOL    HW210908   2.104   0.259   5.565
 3486SOL     OW10909   3.332   1.418   4.677
 3486SOL    HW110910   3.262   1.434   4.740
 3486SOL    HW210911   3.318   1.327   4.648
 3487SOL     OW10912   3.520   1.740   4.302
 3487SOL    HW110913   3.500   1.710   4.213
 3487SOL    HW210914   3.495   1.667   4.358
 3488SOL     OW10915   2.455   0.723   3.989
 3488SOL    HW110916   2.460   0.805   3.940
 3488SOL    HW210917   2.389   0.740   4.057
 3489SOL     OW10918   3.154   0.365   4.657
 3489SOL    HW110919   3.064   0.335   4.641
 3489SOL    HW210920   3.190   0.301   4.719
 3490SOL     OW10921   3.442   1.671   4.033
 3490SOL    HW110922   3.533   1.702   4.026
 3490SOL    HW210923   3.416   1.654   3.943
 3491SOL     OW10924   2.657   0.620   5.178
 3491SOL    HW110925   2.629   0.594   5.266
 3491SOL    HW210926   2.618   0.554   5.120
 3492SOL     OW10927   3.250   0.480   5.400
 3492SOL    HW110928   3.254   0.524   5.485
 3492SOL    HW210929   3.317   0.411   5.406
 3493SOL     OW10930   2.817   0.888   5.307
 3493SOL    HW110931   2.871   0.817   5.272
 3493SOL    HW210932   2.768   0.920   5.231
 3494SOL     OW10933   2.858   0.417   4.959
 3494SOL    HW110934   2.770   0.426   4.995
 3494SOL    HW210935   2.848   0.365   4.880
 3495SOL     OW10936   2.912   0.697   4.151
 3495SOL    HW110937   2.929   0.690   4.245
 3495SOL    HW210938   2.829   0.652   4.137
 3496SOL     OW10939   1.950   0.820   4.501
 3496SOL    HW110940   2.031   0.814   4.552
 3496SOL    HW210941   1.906   0.898   4.534
 3497SOL     OW10942   2.717   0.370   3.908
 3497SOL    HW110943   2.788   0.403   3.853
 3497SOL    HW210944   2.731   0.275   3.910
 3498SOL     OW10945   3.566   0.573   5.552
 3498SOL    HW110946   3.530   0.648   5.504
 3498SOL    HW210947   3.602   0.516   5.484
 3499SOL     OW10948   3.239   1.142   4.265
 3499SOL    HW110949   3.318   1.130   4.212
 3499SOL    HW210950   3.186   1.205   4.215
 3500SOL     OW10951   2.399   0.204   4.626
 3500SOL    HW110952   2.421   0.223   4.717
 3500SOL    HW210953   2.392   0.290   4.585
 3501SOL     OW10954   2.868   1.443   4.195
 3501SOL    HW110955   2.831   1.517   4.147
 3501SOL    HW210956   2.851   1.465   4.287
 3502SOL     OW10957   2.242   1.809   4.557
 3502SOL    HW110958   2.262   1.716   4.565
 3502SOL    HW210959   2.309   1.853   4.609
 3503SOL     OW10960   3.660   1.059   4.592
 3503SOL    HW110961   3.607   1.038   4.516
 3503SOL    HW210962   3.598   1.064   4.665
 3504SOL     OW10963   3.089   1.537   5.236
 3504SOL    HW110964   3.076   1.467   5.299
 3504SOL    HW210965   3.036   1.511   5.160
 3505SOL     OW10966   2.182   0.957   3.975
 3505SOL    HW110967   2.263   0.976   3.929
 3505SOL    HW210968   2.150   0.875   3.936
 3506SOL     OW10969   3.342   0.743   4.448
 3506SOL    HW110970   3.331   0.699   4.533
 3506SOL    HW210971   3.419   0.799   4.460
 3507SOL     OW10972   2.329   1.267   5.474
 3507SOL    HW110973   2.304   1.264   5.382
 3507SOL    HW210974   2.246   1.265   5.522
 3508SOL     OW10975   2.983   1.778   3.954
 3508SOL    HW110976   2.911   1.736   4.000
 3508SOL    HW210977   3.007   1.716   3.885
 3509SOL     OW10978   2.049   0.268   5.236
 3509SOL    HW110979   1.983   0.335   5.222
 3509SOL    HW210980   2.065   0.270   5.331
 3510SOL     OW10981   3.491   1.380   3.811
 3510SOL    HW110982   3.449   1.465   3.797
 3510SOL    HW210983   3.422   1.316   3.793
 3511SOL     OW10984   2.328   1.737   4.044
 3511SOL    HW110985   2.373   1.794   4.107
 3511SOL    HW210986   2.399   1.702   3.990
 3512SOL     OW10987   3.284   0.140   4.142
 3512SOL    HW110988   3.268   0.087   4.063
 3512SOL    HW210989   3.378   0.132   4.157
 3513SOL     OW10990   2.809   1.696   4.613
 3513SOL    HW110991   2.879   1.638   4.643
 3513SOL    HW210992   2.762   1.644   4.547
 3514SOL     OW10993   2.255   0.694   4.199
 3514SOL    HW110994   2.277   0.602   4.212
 3514SOL    HW210995   2.161   0.699   4.217
 3515SOL     OW10996   3.387   0.233   5.447
 3515SOL    HW110997   3.386   0.255   5.540
 3515SOL    HW210998   3.308   0.179   5.435
 3516SOL     OW10999   2.491   0.121   3.847
 3516SOL    HW111000   2.579   0.085   3.856
 3516SOL    HW211001   2.457   0.085   3.765
 3517SOL     OW11002   2.630   0.271   5.478
 3517SOL    HW111003   2.697   0.203   5.486
 3517SOL    HW211004   2.588   0.273   5.564
 3518SOL     OW11005   2.734   1.519   4.937
 3518SOL    HW111006   2.719   1.500   4.845
 3518SOL    HW211007   2.808   1.464   4.961
 3519SOL     OW11008   3.203   0.589   5.153
 3519SOL    HW111009   3.230   0.560   5.240
 3519SOL    HW211010   3.237   0.678   5.145
 3520SOL     OW11011   2.673   1.394   4.662
 3520SOL    HW111012   2.759   1.385   4.622
 3520SOL    HW211013   2.612   1.395   4.588
 3521SOL     OW11014   2.786   0.519   4.623
 3521SOL    HW111015   2.769   0.518   4.529
 3521SOL    HW211016   2.822   0.433   4.643
 3522SOL     OW11017   2.417   0.077   4.246
 3522SOL    HW111018   2.329   0.047   4.269
 3522SOL    HW211019   2.403   0.141   4.176
 3523SOL     OW11020   3.290   1.198   3.765
 3523SOL    HW111021   3.320   1.122   3.815
 3523SOL    HW211022   3.205   1.219   3.802
 3524SOL     OW11023   2.157   0.067   3.924
 3524SOL    HW111024   2.235   0.120   3.906
 3524SOL    HW211025   2.187   0.000   3.985
 3525SOL     OW11026   2.815   0.240   4.191
 3525SOL    HW111027   2.763   0.298   4.135
 3525SOL    HW211028   2.904   0.275   4.186
 3526SOL     OW11029   2.942   0.681   5.185
 3526SOL    HW111030   2.871   0.616   5.184
 3526SOL    HW211031   3.022   0.629   5.173
 3527SOL     OW11032   3.090   1.564   4.515
 3527SOL    HW111033   3.100   1.635   4.451
 3527SOL    HW211034   3.153   1.586   4.584
 3528SOL     OW11035   2.331   1.149   4.457
 3528SOL    HW111036   2.261   1.129   4.521
 3528SOL    HW211037   2.291   1.132   4.372
 3529SOL     OW11038   3.129   1.793   4.333
 3529SOL    HW111039   3.173   1.857   4.277
 3529SOL    HW211040   3.059   1.842   4.376
 3530SOL     OW11041   2.891   0.547   3.742
 3530SOL    HW111042   2.843   0.628   3.726
 3530SOL    HW211043   2.949   0.567   3.815
 3531SOL     OW11044   1.945   0.550   5.120
 3531SOL    HW111045   2.036   0.554   5.089
 3531SOL    HW211046   1.937   0.622   5.182
 3532SOL     OW11047   2.425   0.244   4.891
 3532SOL    HW111048   2.451   0.162   4.932
 3532SOL    HW211049   2.332   0.254   4.916
 3533SOL     OW11050   2.727   0.504   4.351
 3533SOL    HW111051   2.684   0.544   4.275
 3533SOL    HW211052   2.690   0.416   4.356
 3534SOL     OW11053   2.823   0.023   4.509
 3534SOL    HW111054   2.775   0.022   4.426
 3534SOL    HW211055   2.837   4.431   4.529
 3535SOL     OW11056   3.299   1.162   4.581
 3535SOL    HW111057   3.230   1.096   4.580
 3535SOL    HW211058   3.322   1.173   4.489
 3536SOL     OW11059   3.327   0.605   4.698
 3536SOL    HW111060   3.274   0.526   4.700
 3536SOL    HW211061   3.385   0.597   4.774
 3537SOL     OW11062   3.708   0.816   4.107
 3537SOL    HW111063   3.764   0.765   4.165
 3537SOL    HW211064   3.679   0.754   4.040
 3538SOL     OW11065   2.351   1.419   3.881
 3538SOL    HW111066   2.276   1.390   3.933
 3538SOL    HW211067   2.338   1.379   3.795
 3539SOL     OW11068   3.532   1.265   4.368
 3539SOL    HW111069   3.627   1.268   4.383
 3539SOL    HW211070   3.502   1.353   4.391
 3540SOL     OW11071   3.257   0.571   3.794
 3540SOL    HW111072   3.194   0.555   3.865
 3540SOL    HW211073   3.342   0.552   3.832
 3541SOL     OW11074   2.383   0.265   4.047
 3541SOL    HW111075   2.431   0.215   3.982
 3541SOL    HW211076   2.365   0.349   4.004
 3542SOL     OW11077   3.614   1.239   5.297
 3542SOL    HW111078   3.701   1.200   5.293
 3542SOL    HW211079   3.629   1.329   5.326
 3543SOL     OW11080   2.924   1.354   5.062
 3543SOL    HW111081   2.849   1.321   5.112
 3543SOL    HW211082   2.999   1.309   5.100
 3544SOL     OW11083   3.469   1.625   5.377
 3544SOL    HW111084   3.464   1.660   5.288
 3544SOL    HW211085   3.552   1.577   5.380
 3545SOL     OW11086   2.992   1.205   4.830
 3545SOL    HW111087   2.929   1.240   4.893
 3545SOL    HW211088   2.959   1.235   4.745
 3546SOL     OW11089   3.489   1.098   4.802
 3546SOL    HW111090   3.485   1.160   4.874
 3546SOL    HW211091   3.411   1.115   4.750
 3547SOL     OW11092   2.764   0.134   5.111
 3547SOL    HW111093   2.786   0.089   5.029
 3547SOL    HW211094   2.848   0.149   5.153
 3548SOL     OW11095   2.846   1.115   5.447
 3548SOL    HW111096   2.754   1.130   5.468
 3548SOL    HW211097   2.846   1.037   5.391
 3549SOL     OW11098   2.571   1.062   4.095
 3549SOL    HW111099   2.557   1.045   4.188
 3549SOL    HW211100   2.647   1.008   4.072
 3550SOL     OW11101   2.281   0.817   4.976
 3550SOL    HW111102   2.350   0.825   5.042
 3550SOL    HW211103   2.246   0.728   4.989
 3551SOL     OW11104   3.130   0.375   4.998
 3551SOL    HW111105   3.162   0.454   5.042
 3551SOL    HW211106   3.041   0.397   4.971
 3552SOL     OW11107   2.211   1.110   4.214
 3552SOL    HW111108   2.213   1.183   4.153
 3552SOL    HW211109   2.209   1.032   4.159
 3553SOL     OW11110   2.417   0.529   4.582
 3553SOL    HW111111   2.430   0.588   4.508
 3553SOL    HW211112   2.482   0.557   4.647
 3554SOL     OW11113   3.110   1.348   4.113
 3554SOL    HW111114   3.166   1.420   4.144
 3554SOL    HW211115   3.023   1.369   4.147
 3555SOL     OW11116   3.144   1.454   4.869
 3555SOL    HW111117   3.199   1.458   4.947
 3555SOL    HW211118   3.089   1.377   4.881
 3556SOL     OW11119   3.443   0.623   4.202
 3556SOL    HW111120   3.396   0.673   4.269
 3556SOL    HW211121   3.487   0.690   4.149
 3557SOL     OW11122   2.204   1.458   5.034
 3557SOL    HW111123   2.197   1.442   4.940
 3557SOL    HW211124   2.273   1.523   5.043
 3558SOL     OW11125   2.277   0.743   5.327
 3558SOL    HW111126   2.337   0.789   5.268
 3558SOL    HW211127   2.321   0.659   5.344
 3559SOL     OW11128   3.464   0.779   5.406
 3559SOL    HW111129   3.378   0.820   5.399
 3559SOL    HW211130   3.516   0.821   5.337
 3560SOL     OW11131   2.866   0.085   5.443
 3560SOL    HW111132   2.898   0.167   5.405
 3560SOL    HW211133   2.890   0.018   5.379
 3561SOL     OW11134   2.361   0.045   5.484
 3561SOL    HW111135   2.361   0.006   5.397
 3561SOL    HW211136   2.294   0.113   5.480
 3562SOL     OW11137   2.444   0.873   4.755
 3562SOL    HW111138   2.475   0.964   4.754
 3562SOL    HW211139   2.388   0.867   4.832
 3563SOL     OW11140   3.219   0.858   4.754
 3563SOL    HW111141   3.135   0.849   4.708
 3563SOL    HW211142   3.260   0.772   4.746
 3564SOL     OW11143   3.065   0.536   3.986
 3564SOL    HW111144   3.071   0.455   4.038
 3564SOL    HW211145   3.022   0.598   4.044
 3565SOL     OW11146   2.152   0.233   4.966
 3565SOL    HW111147   2.107   0.249   5.049
 3565SOL    HW211148   2.188   0.145   4.974
 3566SOL     OW11149   1.909   1.329   5.015
 3566SOL    HW111150   1.935   1.260   5.076
 3566SOL    HW211151   1.977   1.396   5.022
 3567SOL     OW11152   2.585   0.631   4.781
 3567SOL    HW111153   2.659   0.612   4.724
 3567SOL    HW211154   2.558   0.720   4.757
 3568SOL     OW11155   3.597   0.959   5.576
 3568SOL    HW111156   3.550   0.898   5.520
 3568SOL    HW211157   3.537   0.973   5.651
 3569SOL     OW11158   2.158   0.053   4.378
 3569SOL    HW111159   2.148   0.149   4.379
 3569SOL    HW211160   2.170   0.029   4.470
 3570SOL     OW11161   3.478   0.379   4.085
 3570SOL    HW111162   3.506   0.315   4.151
 3570SOL    HW211163   3.455   0.456   4.137
 3571SOL     OW11164   2.892   0.762   4.685
 3571SOL    HW111165   2.887   0.778   4.780
 3571SOL    HW211166   2.862   0.671   4.675
 3572SOL     OW11167   2.838   1.559   5.445
 3572SOL    HW111168   2.826   1.606   5.363
 3572SOL    HW211169   2.887   1.480   5.421
 3573SOL     OW11170   3.716   1.505   5.330
 3573SOL    HW111171   3.734   1.532   5.239
 3573SOL    HW211172   3.798   1.524   5.377
 3574SOL     OW11173   2.216   0.918   5.530
 3574SOL    HW111174   2.298   0.934   5.578
 3574SOL    HW211175   2.240   0.854   5.463
 3575SOL     OW11176   3.392   0.264   3.852
 3575SOL    HW111177   3.321   0.208   3.882
 3575SOL    HW211178   3.422   0.309   3.931
 3576SOL     OW11179   3.153   0.826   3.754
 3576SOL    HW111180   3.195   0.740   3.757
 3576SOL    HW211181   3.184   0.865   3.673
 3577SOL     OW11182   2.926   1.337   4.579
 3577SOL    HW111183   2.929   1.264   4.516
 3577SOL    HW211184   2.989   1.400   4.544
 3578SOL     OW11185   2.171   0.810   4.671
 3578SOL    HW111186   2.264   0.832   4.664
 3578SOL    HW211187   2.170   0.720   4.704
 3579SOL     OW11188   2.198   0.533   4.738
 3579SOL    HW111189   2.155   0.449   4.719
 3579SOL    HW211190   2.274   0.534   4.680
 3580SOL     OW11191   2.998   0.373   5.421
 3580SOL    HW111192   2.947   0.437   5.471
 3580SOL    HW211193   3.083   0.415   5.407
 3581SOL     OW11194   3.019   0.213   5.197
 3581SOL    HW111195   3.013   0.277   5.268
 3581SOL    HW211196   3.059   0.261   5.125
 3582SOL     OW11197   1.868   1.321   3.918
 3582SOL    HW111198   1.781   1.335   3.881
 3582SOL    HW211199   1.865   1.232   3.952
 3583SOL     OW11200   2.375   1.578   4.628
 3583SOL    HW111201   2.457   1.613   4.663
 3583SOL    HW211202   2.403   1.509   4.567
 3584SOL     OW11203   2.844   0.794   4.952
 3584SOL    HW111204   2.900   0.770   5.026
 3584SOL    HW211205   2.760   0.752   4.970
 3585SOL     OW11206   1.895   0.543   4.843
 3585SOL    HW111207   1.972   0.525   4.789
 3585SOL    HW211208   1.928   0.547   4.932
 3586SOL     OW11209   2.047   0.520   5.446
 3586SOL    HW111210   2.122   0.499   5.390
 3586SOL    HW211211   2.006   0.596   5.404
 3587SOL     OW11212   3.239   0.939   5.382
 3587SOL    HW111213   3.261   1.032   5.380
 3587SOL    HW211214   3.236   0.913   5.290
 3588SOL     OW11215   2.672   0.576   4.080
 3588SOL    HW111216   2.677   0.504   4.017
 3588SOL    HW211217   2.599   0.630   4.050
 3589SOL     OW11218   3.502   0.602   4.910
 3589SOL    HW111219   3.492   0.542   4.984
 3589SOL    HW211220   3.589   0.583   4.876
 3590SOL     OW11221   2.097   1.548   5.448
 3590SOL    HW111222   2.073   1.618   5.509
 3590SOL    HW211223   2.107   1.470   5.503
 3591SOL     OW11224   2.562   0.459   4.988
 3591SOL    HW111225   2.515   0.382   4.956
 3591SOL    HW211226   2.562   0.519   4.914
 3592SOL     OW11227   2.793   1.674   5.201
 3592SOL    HW111228   2.790   1.637   5.112
 3592SOL    HW211229   2.863   1.739   5.197
 3593SOL     OW11230   2.326   0.492   3.908
 3593SOL    HW111231   2.385   0.564   3.930
 3593SOL    HW211232   2.241   0.534   3.896
 3594SOL     OW11233   2.001   1.137   5.195
 3594SOL    HW111234   2.003   1.085   5.276
 3594SOL    HW211235   2.020   1.073   5.126
 3595SOL     OW11236   3.187   1.047   4.947
 3595SOL    HW111237   3.211   0.983   4.879
 3595SOL    HW211238   3.118   1.099   4.908
 3596SOL     OW11239   3.174   0.857   4.030
 3596SOL    HW111240   3.099   0.827   4.082
 3596SOL    HW211241   3.148   0.843   3.939
 3597SOL     OW11242   3.635   1.743   4.875
 3597SOL    HW111243   3.695   1.769   4.805
 3597SOL    HW211244   3.610   1.654   4.853
 3598SOL     OW11245   3.121   1.732   4.851
 3598SOL    HW111246   3.197   1.749   4.794
 3598SOL    HW211247   3.117   1.637   4.857
 3599SOL     OW11248   1.951   1.256   4.750
 3599SOL    HW111249   1.923   1.275   4.839
 3599SOL    HW211250   1.874   1.219   4.707
 3600SOL     OW11251   2.540   1.666   5.447
 3600SOL    HW111252   2.490   1.743   5.420
 3600SOL    HW211253   2.619   1.668   5.394
 3601SOL     OW11254   3.580   0.129   4.215
 3601SOL    HW111255   3.651   0.139   4.152
 3601SOL    HW211256   3.609   0.058   4.273
 3602SOL     OW11257   3.252   1.568   4.209
 3602SOL    HW111258   3.312   1.602   4.142
 3602SOL    HW211259   3.204   1.645   4.238
 3603SOL     OW11260   1.981   1.787   5.555
 3603SOL    HW111261   1.931   1.724   5.606
 3603SOL    HW211262   2.040   1.829   5.618
 3604SOL     OW11263   3.141   0.928   4.397
 3604SOL    HW111264   3.213   0.866   4.402
 3604SOL    HW211265   3.174   1.000   4.344
 3605SOL     OW11266   2.681   1.271   5.157
 3605SOL    HW111267   2.650   1.311   5.238
 3605SOL    HW211268   2.615   1.292   5.092
 3606SOL     OW11269   2.531   1.621   3.880
 3606SOL    HW111270   2.544   1.633   3.786
 3606SOL    HW211271   2.477   1.543   3.887
 3607SOL     OW11272   3.489   1.727   5.115
 3607SOL    HW111273   3.538   1.734   5.033
 3607SOL    HW211274   3.476   1.817   5.143
 3608SOL     OW11275   3.701   0.154   4.690
 3608SOL    HW111276   3.732   0.076   4.643
 3608SOL    HW211277   3.614   0.171   4.653
 3609SOL     OW11278   2.126   0.321   4.441
 3609SOL    HW111279   2.040   0.356   4.414
 3609SOL    HW211280   2.120   0.314   4.536
 3610SOL     OW11281   3.069   1.606   3.756
 3610SOL    HW111282   3.060   1.514   3.783
 3610SOL    HW211283   3.004   1.617   3.687
 3611SOL     OW11284   2.685   1.004   5.096
 3611SOL    HW111285   2.730   0.998   5.012
 3611SOL    HW211286   2.688   1.097   5.119
 3612SOL     OW11287   2.778   0.910   4.014
 3612SOL    HW111288   2.840   0.942   3.948
 3612SOL    HW211289   2.825   0.841   4.059
 3613SOL     OW11290   3.354   1.625   3.767
 3613SOL    HW111291   3.259   1.618   3.753
 3613SOL    HW211292   3.390   1.631   3.678
 3614SOL     OW11293   2.233   1.277   5.229
 3614SOL    HW111294   2.229   1.346   5.162
 3614SOL    HW211295   2.154   1.225   5.215
 3615SOL     OW11296   3.473   1.283   5.005
 3615SOL    HW111297   3.532   1.272   5.080
 3615SOL    HW211298   3.413   1.352   5.032
 3616SOL     OW11299   2.914   1.108   4.431
 3616SOL    HW111300   2.843   1.056   4.469
 3616SOL    HW211301   2.977   1.042   4.401
 3617SOL     OW11302   2.867   0.244   4.730
 3617SOL    HW111303   2.872   0.223   4.637
 3617SOL    HW211304   2.859   0.160   4.774
 3618SOL     OW11305   2.465   1.489   4.204
 3618SOL    HW111306   2.511   1.438   4.137
 3618SOL    HW211307   2.392   1.530   4.158
 3619SOL     OW11308   3.584   0.394   5.101
 3619SOL    HW111309   3.657   0.456   5.100
 3619SOL    HW211310   3.613   0.322   5.044
 3620SOL     OW11311   2.121   1.346   4.016
 3620SOL    HW111312   2.029   1.343   3.992
 3620SOL    HW211313   2.122   1.382   4.104
 3621SOL     OW11314   1.975   1.026   5.446
 3621SOL    HW111315   1.899   1.000   5.497
 3621SOL    HW211316   2.049   0.985   5.491
 3622SOL     OW11317   2.519   0.204   5.223
 3622SOL    HW111318   2.599   0.180   5.176
 3622SOL    HW211319   2.550   0.226   5.311
 3623SOL     OW11320   1.944   0.337   3.771
 3623SOL    HW111321   1.873   0.284   3.735
 3623SOL    HW211322   1.956   0.407   3.707
 3624SOL     OW11323   3.291   0.859   5.124
 3624SOL    HW111324   3.242   0.919   5.068
 3624SOL    HW211325   3.381   0.861   5.089
 3625SOL     OW11326   1.926   0.184   4.042
 3625SOL    HW111327   1.925   0.251   3.974
 3625SOL    HW211328   2.001   0.128   4.020
 3626SOL     OW11329   3.041   1.339   3.841
 3626SOL    HW111330   2.951   1.308   3.844
 3626SOL    HW211331   3.069   1.340   3.933
 3627SOL     OW11332   2.481   0.830   5.158
 3627SOL    HW111333   2.537   0.906   5.142
 3627SOL    HW211334   2.542   0.757   5.166
 3628SOL     OW11335   3.350   1.775   4.698
 3628SOL    HW111336   3.373   1.835   4.627
 3628SOL    HW211337   3.432   1.758   4.744
 3629SOL     OW11338   2.578   0.563   5.430
 3629SOL    HW111339   2.618   0.627   5.489
 3629SOL    HW211340   2.609   0.478   5.462
 3630SOL     OW11341   3.334   1.200   5.356
 3630SOL    HW111342   3.322   1.213   5.450
 3630SOL    HW211343   3.427   1.215   5.342
 3631SOL     OW11344   3.531   0.881   4.979
 3631SOL    HW111345   3.524   0.796   4.936
 3631SOL    HW211346   3.521   0.945   4.909
 3632SOL     OW11347   3.080   0.330   4.171
 3632SOL    HW111348   3.146   0.262   4.160
 3632SOL    HW211349   3.108   0.378   4.250
 3633SOL     OW11350   2.448   0.738   4.396
 3633SOL    HW111351   2.490   0.822   4.380
 3633SOL    HW211352   2.382   0.730   4.327
 3634SOL     OW11353   3.624   0.367   5.368
 3634SOL    HW111354   3.608   0.380   5.274
 3634SOL    HW211355   3.546   0.320   5.399
 3635SOL     OW11356   3.608   0.933   5.236
 3635SOL    HW111357   3.603   1.028   5.249
 3635SOL    HW211358   3.592   0.921   5.142
 3636SOL     OW11359   2.724   1.367   3.758
 3636SOL    HW111360   2.687   1.394   3.842
 3636SOL    HW211361   2.742   1.449   3.713
 3637SOL     OW11362   2.729   0.966   4.578
 3637SOL    HW111363   2.780   0.895   4.617
 3637SOL    HW211364   2.696   1.015   4.653
 3638SOL     OW11365   2.942   0.989   3.813
 3638SOL    HW111366   2.919   1.039   3.735
 3638SOL    HW211367   3.016   0.935   3.786
 3639SOL     OW11368   3.715   1.555   4.569
 3639SOL    HW111369   3.638   1.543   4.514
 3639SOL    HW211370   3.708   1.488   4.636
 3640SOL     OW11371   2.083   1.301   5.585
 3640SOL    HW111372   2.025   1.237   5.543
 3640SOL    HW211373   2.048   1.310   5.673
 3641SOL     OW11374   1.947   1.226   4.383
 3641SOL    HW111375   1.952   1.183   4.469
 3641SOL    HW211376   2.019   1.188   4.333
 3642SOL     OW11377   2.535   1.405   5.344
 3642SOL    HW111378   2.461   1.360   5.383
 3642SOL    HW211379   2.534   1.492   5.384
 3643SOL     OW11380   3.669   0.181   4.963
 3643SOL    HW111381   3.668   0.087   4.982
 3643SOL    HW211382   3.686   0.185   4.868
 3644SOL     OW11383   2.299   0.433   4.255
 3644SOL    HW111384   2.320   0.364   4.191
 3644SOL    HW211385   2.242   0.390   4.319
 3645SOL     OW11386   3.562   1.489   4.821
 3645SOL    HW111387   3.482   1.467   4.773
 3645SOL    HW211388   3.572   1.419   4.885
 3646SOL     OW11389   2.193   0.558   5.016
 3646SOL    HW111390   2.248   0.501   5.070
 3646SOL    HW211391   2.211   0.531   4.926
 3647SOL     OW11392   2.687   1.572   4.398
 3647SOL    HW111393   2.677   1.630   4.323
 3647SOL    HW211394   2.610   1.517   4.397
 3648SOL     OW11395   3.294   0.216   4.841
 3648SOL    HW111396   3.329   0.145   4.894
 3648SOL    HW211397   3.243   0.269   4.903
 3649SOL     OW11398   2.858   0.006   4.875
 3649SOL    HW111399   2.816   4.420   4.868
 3649SOL    HW211400   2.951   4.487   4.886
 3650SOL     OW11401   2.634   1.333   4.039
 3650SOL    HW111402   2.603   1.243   4.045
 3650SOL    HW211403   2.716   1.334   4.088
 3651SOL     OW11404   3.202   0.052   3.878
 3651SOL    HW111405   3.240   4.476   3.834
 3651SOL    HW211406   3.126   0.017   3.925
 3652SOL     OW11407   3.177   0.463   4.400
 3652SOL    HW111408   3.118   0.539   4.400
 3652SOL    HW211409   3.165   0.423   4.486
 3653SOL     OW11410   3.447   0.199   4.591
 3653SOL    HW111411   3.388   0.215   4.665
 3653SOL    HW211412   3.450   0.283   4.545
 3654SOL     OW11413   1.906   1.071   4.029
 3654SOL    HW111414   1.999   1.062   4.012
 3654SOL    HW211415   1.877   0.982   4.053
 3655SOL     OW11416   2.747   1.652   4.065
 3655SOL    HW111417   2.674   1.635   4.006
 3655SOL    HW211418   2.718   1.727   4.118
 3656SOL     OW11419   2.090   0.628   5.707
 3656SOL    HW111420   2.003   0.618   5.746
 3656SOL    HW211421   2.079   0.597   5.617
 3657SOL     OW11422   2.069   0.300   6.576
 3657SOL    HW111423   2.100   0.270   6.661
 3657SOL    HW211424   1.988   0.251   6.562
 3658SOL     OW11425   1.869   0.387   6.223
 3658SOL    HW111426   1.783   0.406   6.260
 3658SOL    HW211427   1.855   0.313   6.164
 3659SOL     OW11428   2.429   1.288   6.761
 3659SOL    HW111429   2.340   1.292   6.725
 3659SOL    HW211430   2.445   1.376   6.794
 3660SOL     OW11431   3.424   1.512   6.293
 3660SOL    HW111432   3.380   1.491   6.376
 3660SOL    HW211433   3.353   1.516   6.229
 3661SOL     OW11434   2.997   0.698   6.284
 3661SOL    HW111435   3.043   0.782   6.274
 3661SOL    HW211436   2.947   0.708   6.364
 3662SOL     OW11437   3.630   0.606   5.813
 3662SOL    HW111438   3.609   0.597   5.721
 3662SOL    HW211439   3.597   0.526   5.854
 3663SOL     OW11440   2.616   1.140   6.628
 3663SOL    HW111441   2.547   1.176   6.684
 3663SOL    HW211442   2.654   1.217   6.585
 3664SOL     OW11443   2.729   0.774   7.408
 3664SOL    HW111444   2.715   0.845   7.471
 3664SOL    HW211445   2.752   0.818   7.327
 3665SOL     OW11446   2.548   1.003   6.232
 3665SOL    HW111447   2.613   0.990   6.301
 3665SOL    HW211448   2.479   1.055   6.274
 3666SOL     OW11449   2.572   1.151   7.399
 3666SOL    HW111450   2.620   1.229   7.425
 3666SOL    HW211451   2.490   1.183   7.363
 3667SOL     OW11452   2.189   1.419   6.660
 3667SOL    HW111453   2.117   1.387   6.606
 3667SOL    HW211454   2.243   1.470   6.600
 3668SOL     OW11455   3.323   1.499   6.941
 3668SOL    HW111456   3.373   1.580   6.951
 3668SOL    HW211457   3.259   1.502   7.013
 3669SOL     OW11458   2.304   0.395   7.074
 3669SOL    HW111459   2.387   0.346   7.076
 3669SOL    HW211460   2.237   0.329   7.088
 3670SOL     OW11461   3.472   0.445   6.325
 3670SOL    HW111462   3.392   0.466   6.277
 3670SOL    HW211463   3.490   0.523   6.377
 3671SOL     OW11464   2.998   1.342   7.279
 3671SOL    HW111465   3.039   1.337   7.366
 3671SOL    HW211466   2.946   1.262   7.272
 3672SOL     OW11467   2.119   1.091   6.476
 3672SOL    HW111468   2.117   1.005   6.517
 3672SOL    HW211469   2.061   1.145   6.530
 3673SOL     OW11470   2.473   1.791   7.015
 3673SOL    HW111471   2.391   1.773   7.061
 3673SOL    HW211472   2.495   1.881   7.038
 3674SOL     OW11473   2.446   0.983   5.721
 3674SOL    HW111474   2.493   1.029   5.652
 3674SOL    HW211475   2.487   1.012   5.802
 3675SOL     OW11476   3.443   0.116   7.057
 3675SOL    HW111477   3.467   0.184   6.994
 3675SOL    HW211478   3.432   0.162   7.140
 3676SOL     OW11479   1.978   0.654   6.145
 3676SOL    HW111480   1.949   0.565   6.167
 3676SOL    HW211481   1.970   0.702   6.228
 3677SOL     OW11482   3.704   1.759   5.920
 3677SOL    HW111483   3.767   1.730   5.986
 3677SOL    HW211484   3.728   1.850   5.902
 3678SOL     OW11485   1.886   1.596   5.719
 3678SOL    HW111486   1.875   1.501   5.715
 3678SOL    HW211487   1.876   1.617   5.811
 3679SOL     OW11488   3.553   0.920   6.228
 3679SOL    HW111489   3.636   0.877   6.206
 3679SOL    HW211490   3.530   0.970   6.149
 3680SOL     OW11491   3.508   1.107   6.015
 3680SOL    HW111492   3.594   1.112   5.973
 3680SOL    HW211493   3.513   1.168   6.088
 3681SOL     OW11494   1.984   0.745   7.170
 3681SOL    HW111495   2.076   0.772   7.178
 3681SOL    HW211496   1.935   0.827   7.178
 3682SOL     OW11497   2.478   1.386   6.324
 3682SOL    HW111498   2.432   1.304   6.337
 3682SOL    HW211499   2.461   1.409   6.233
 3683SOL     OW11500   3.151   1.238   7.009
 3683SOL    HW111501   3.182   1.171   6.949
 3683SOL    HW211502   3.209   1.231   7.085
 3684SOL     OW11503   2.679   0.015   6.138
 3684SOL    HW111504   2.715   0.100   6.112
 3684SOL    HW211505   2.585   0.026   6.130
 3685SOL     OW11506   2.052   0.966   6.858
 3685SOL    HW111507   2.137   0.924   6.843
 3685SOL    HW211508   1.990   0.911   6.810
 3686SOL     OW11509   3.394   0.993   5.785
 3686SOL    HW111510   3.323   0.937   5.817
 3686SOL    HW211511   3.434   1.028   5.864
 3687SOL     OW11512   3.048   1.807   7.208
 3687SOL    HW111513   3.058   1.865   7.133
 3687SOL    HW211514   3.063   1.719   7.173
 3688SOL     OW11515   2.177   0.254   7.366
 3688SOL    HW111516   2.241   0.317   7.398
 3688SOL    HW211517   2.104   0.259   7.427
 3689SOL     OW11518   3.329   1.419   6.537
 3689SOL    HW111519   3.261   1.435   6.603
 3689SOL    HW211520   3.316   1.328   6.510
 3690SOL     OW11521   3.521   1.740   6.164
 3690SOL    HW111522   3.500   1.710   6.075
 3690SOL    HW211523   3.496   1.666   6.220
 3691SOL     OW11524   2.455   0.722   5.851
 3691SOL    HW111525   2.460   0.804   5.802
 3691SOL    HW211526   2.389   0.739   5.919
 3692SOL     OW11527   3.154   0.365   6.519
 3692SOL    HW111528   3.064   0.335   6.503
 3692SOL    HW211529   3.190   0.301   6.581
 3693SOL     OW11530   3.443   1.669   5.895
 3693SOL    HW111531   3.533   1.701   5.888
 3693SOL    HW211532   3.415   1.654   5.805
 3694SOL     OW11533   2.657   0.620   7.040
 3694SOL    HW111534   2.629   0.594   7.128
 3694SOL    HW211535   2.618   0.554   6.982
 3695SOL     OW11536   3.250   0.480   7.262
 3695SOL    HW111537   3.254   0.524   7.347
 3695SOL    HW211538   3.317   0.411   7.268
 3696SOL     OW11539   2.817   0.888   7.169
 3696SOL    HW111540   2.870   0.817   7.134
 3696SOL    HW211541   2.769   0.921   7.093
 3697SOL     OW11542   2.858   0.417   6.821
 3697SOL    HW111543   2.770   0.426   6.857
 3697SOL    HW211544   2.847   0.365   6.742
 3698SOL     OW11545   2.912   0.698   6.013
 3698SOL    HW111546   2.929   0.690   6.107
 3698SOL    HW211547   2.829   0.652   5.999
 3699SOL     OW11548   1.951   0.822   6.362
 3699SOL    HW111549   2.032   0.814   6.413
 3699SOL    HW211550   1.907   0.899   6.397
 3700SOL     OW11551   1.990   1.836   7.161
 3700SOL    HW111552   1.987   1.822   7.255
 3700SOL    HW211553   1.899   1.852   7.135
 3701SOL     OW11554   2.718   0.370   5.770
 3701SOL    HW111555   2.789   0.403   5.716
 3701SOL    HW211556   2.731   0.275   5.772
 3702SOL     OW11557   3.566   0.573   7.414
 3702SOL    HW111558   3.530   0.648   7.366
 3702SOL    HW211559   3.602   0.516   7.346
 3703SOL     OW11560   3.240   1.142   6.127
 3703SOL    HW111561   3.319   1.129   6.074
 3703SOL    HW211562   3.187   1.205   6.077
 3704SOL     OW11563   2.399   0.205   6.488
 3704SOL    HW111564   2.421   0.222   6.579
 3704SOL    HW211565   2.392   0.291   6.447
 3705SOL     OW11566   2.871   1.436   6.052
 3705SOL    HW111567   2.839   1.513   6.006
 3705SOL    HW211568   2.849   1.451   6.144
 3706SOL     OW11569   3.660   1.059   6.454
 3706SOL    HW111570   3.607   1.038   6.378
 3706SOL    HW211571   3.598   1.064   6.527
 3707SOL     OW11572   3.090   1.539   7.099
 3707SOL    HW111573   3.076   1.466   7.159
 3707SOL    HW211574   3.026   1.524   7.029
 3708SOL     OW11575   2.180   0.958   5.834
 3708SOL    HW111576   2.263   0.974   5.790
 3708SOL    HW211577   2.149   0.875   5.798
 3709SOL     OW11578   3.342   0.743   6.310
 3709SOL    HW111579   3.331   0.699   6.395
 3709SOL    HW211580   3.419   0.799   6.322
 3710SOL     OW11581   2.328   1.265   7.324
 3710SOL    HW111582   2.301   1.269   7.233
 3710SOL    HW211583   2.246   1.263   7.374
 3711SOL     OW11584   3.016   1.752   5.832
 3711SOL    HW111585   2.925   1.738   5.859
 3711SOL    HW211586   3.025   1.701   5.752
 3712SOL     OW11587   2.049   0.268   7.099
 3712SOL    HW111588   1.983   0.335   7.084
 3712SOL    HW211589   2.066   0.270   7.193
 3713SOL     OW11590   3.491   1.380   5.673
 3713SOL    HW111591   3.450   1.465   5.659
 3713SOL    HW211592   3.422   1.316   5.655
 3714SOL     OW11593   3.284   0.140   6.003
 3714SOL    HW111594   3.268   0.087   5.926
 3714SOL    HW211595   3.378   0.132   6.019
 3715SOL     OW11596   2.105   1.783   6.825
 3715SOL    HW111597   2.167   1.721   6.863
 3715SOL    HW211598   2.102   1.760   6.732
 3716SOL     OW11599   2.790   1.703   6.485
 3716SOL    HW111600   2.877   1.667   6.500
 3716SOL    HW211601   2.756   1.654   6.410
 3717SOL     OW11602   2.254   0.695   6.061
 3717SOL    HW111603   2.277   0.603   6.074
 3717SOL    HW211604   2.160   0.699   6.079
 3718SOL     OW11605   3.387   0.233   7.309
 3718SOL    HW111606   3.386   0.255   7.402
 3718SOL    HW211607   3.308   0.179   7.297
 3719SOL     OW11608   2.491   0.122   5.709
 3719SOL    HW111609   2.579   0.085   5.718
 3719SOL    HW211610   2.457   0.085   5.627
 3720SOL     OW11611   2.630   0.271   7.340
 3720SOL    HW111612   2.697   0.202   7.348
 3720SOL    HW211613   2.588   0.273   7.426
 3721SOL     OW11614   2.739   1.522   6.781
 3721SOL    HW111615   2.723   1.487   6.693
 3721SOL    HW211616   2.809   1.467   6.816
 3722SOL     OW11617   3.203   0.589   7.015
 3722SOL    HW111618   3.231   0.560   7.102
 3722SOL    HW211619   3.237   0.678   7.007
 3723SOL     OW11620   2.678   1.392   6.530
 3723SOL    HW111621   2.762   1.385   6.484
 3723SOL    HW211622   2.612   1.392   6.461
 3724SOL     OW11623   2.786   0.519   6.485
 3724SOL    HW111624   2.769   0.517   6.391
 3724SOL    HW211625   2.822   0.433   6.505
 3725SOL     OW11626   2.417   0.078   6.108
 3725SOL    HW111627   2.329   0.047   6.131
 3725SOL    HW211628   2.403   0.141   6.038
 3726SOL     OW11629   3.290   1.198   5.627
 3726SOL    HW111630   3.320   1.123   5.677
 3726SOL    HW211631   3.205   1.220   5.665
 3727SOL     OW11632   2.157   0.068   5.786
 3727SOL    HW111633   2.236   0.120   5.768
 3727SOL    HW211634   2.187   0.000   5.846
 3728SOL     OW11635   2.815   0.240   6.053
 3728SOL    HW111636   2.764   0.297   5.996
 3728SOL    HW211637   2.904   0.275   6.048
 3729SOL     OW11638   2.942   0.681   7.047
 3729SOL    HW111639   2.871   0.617   7.046
 3729SOL    HW211640   3.021   0.629   7.035
 3730SOL     OW11641   3.085   1.569   6.379
 3730SOL    HW111642   3.104   1.634   6.311
 3730SOL    HW211643   3.154   1.583   6.445
 3731SOL     OW11644   2.330   1.151   6.319
 3731SOL    HW111645   2.262   1.131   6.383
 3731SOL    HW211646   2.290   1.134   6.234
 3732SOL     OW11647   3.136   1.791   6.192
 3732SOL    HW111648   3.182   1.847   6.130
 3732SOL    HW211649   3.078   1.850   6.239
 3733SOL     OW11650   2.891   0.547   5.604
 3733SOL    HW111651   2.843   0.628   5.589
 3733SOL    HW211652   2.950   0.566   5.677
 3734SOL     OW11653   1.945   0.550   6.981
 3734SOL    HW111654   2.035   0.554   6.951
 3734SOL    HW211655   1.937   0.622   7.044
 3735SOL     OW11656   2.425   0.244   6.753
 3735SOL    HW111657   2.451   0.162   6.794
 3735SOL    HW211658   2.333   0.254   6.778
 3736SOL     OW11659   2.727   0.504   6.213
 3736SOL    HW111660   2.684   0.543   6.136
 3736SOL    HW211661   2.690   0.416   6.218
 3737SOL     OW11662   2.823   0.023   6.371
 3737SOL    HW111663   2.775   0.022   6.288
 3737SOL    HW211664   2.837   4.431   6.392
 3738SOL     OW11665   3.299   1.162   6.443
 3738SOL    HW111666   3.229   1.097   6.443
 3738SOL    HW211667   3.323   1.173   6.351
 3739SOL     OW11668   3.327   0.605   6.560
 3739SOL    HW111669   3.274   0.526   6.562
 3739SOL    HW211670   3.385   0.597   6.636
 3740SOL     OW11671   3.707   0.816   5.969
 3740SOL    HW111672   3.764   0.765   6.027
 3740SOL    HW211673   3.679   0.754   5.902
 3741SOL     OW11674   2.342   1.424   5.742
 3741SOL    HW111675   2.269   1.389   5.793
 3741SOL    HW211676   2.339   1.376   5.659
 3742SOL     OW11677   3.533   1.265   6.230
 3742SOL    HW111678   3.627   1.267   6.245
 3742SOL    HW211679   3.502   1.353   6.252
 3743SOL     OW11680   3.257   0.571   5.656
 3743SOL    HW111681   3.195   0.555   5.727
 3743SOL    HW211682   3.342   0.552   5.694
 3744SOL     OW11683   2.383   0.266   5.909
 3744SOL    HW111684   2.432   0.215   5.844
 3744SOL    HW211685   2.365   0.349   5.866
 3745SOL     OW11686   3.614   1.239   7.158
 3745SOL    HW111687   3.701   1.200   7.155
 3745SOL    HW211688   3.629   1.329   7.188
 3746SOL     OW11689   2.921   1.354   6.920
 3746SOL    HW111690   2.846   1.323   6.971
 3746SOL    HW211691   2.996   1.312   6.961
 3747SOL     OW11692   3.470   1.626   7.241
 3747SOL    HW111693   3.464   1.660   7.151
 3747SOL    HW211694   3.553   1.578   7.242
 3748SOL     OW11695   2.992   1.204   6.692
 3748SOL    HW111696   2.931   1.241   6.755
 3748SOL    HW211697   2.961   1.237   6.607
 3749SOL     OW11698   3.489   1.098   6.664
 3749SOL    HW111699   3.485   1.160   6.736
 3749SOL    HW211700   3.411   1.115   6.612
 3750SOL     OW11701   2.764   0.134   6.973
 3750SOL    HW111702   2.786   0.089   6.891
 3750SOL    HW211703   2.848   0.149   7.015
 3751SOL     OW11704   2.846   1.115   7.309
 3751SOL    HW111705   2.754   1.131   7.330
 3751SOL    HW211706   2.845   1.037   7.253
 3752SOL     OW11707   2.570   1.060   5.958
 3752SOL    HW111708   2.557   1.044   6.051
 3752SOL    HW211709   2.646   1.007   5.934
 3753SOL     OW11710   2.281   0.816   6.837
 3753SOL    HW111711   2.350   0.825   6.903
 3753SOL    HW211712   2.246   0.728   6.851
 3754SOL     OW11713   3.130   0.375   6.860
 3754SOL    HW111714   3.162   0.454   6.904
 3754SOL    HW211715   3.041   0.397   6.833
 3755SOL     OW11716   1.932   1.570   6.938
 3755SOL    HW111717   1.902   1.647   6.891
 3755SOL    HW211718   2.028   1.576   6.937
 3756SOL     OW11719   2.209   1.114   6.075
 3756SOL    HW111720   2.224   1.176   6.004
 3756SOL    HW211721   2.206   1.028   6.032
 3757SOL     OW11722   2.417   0.529   6.444
 3757SOL    HW111723   2.431   0.588   6.370
 3757SOL    HW211724   2.482   0.556   6.509
 3758SOL     OW11725   3.115   1.347   5.973
 3758SOL    HW111726   3.169   1.419   6.004
 3758SOL    HW211727   3.027   1.367   6.006
 3759SOL     OW11728   3.144   1.458   6.733
 3759SOL    HW111729   3.198   1.459   6.811
 3759SOL    HW211730   3.087   1.381   6.744
 3760SOL     OW11731   3.443   0.623   6.064
 3760SOL    HW111732   3.396   0.673   6.131
 3760SOL    HW211733   3.487   0.690   6.011
 3761SOL     OW11734   2.212   1.524   6.904
 3761SOL    HW111735   2.196   1.482   6.820
 3761SOL    HW211736   2.306   1.536   6.908
 3762SOL     OW11737   2.277   0.743   7.189
 3762SOL    HW111738   2.337   0.789   7.130
 3762SOL    HW211739   2.322   0.660   7.207
 3763SOL     OW11740   3.464   0.779   7.268
 3763SOL    HW111741   3.378   0.820   7.261
 3763SOL    HW211742   3.516   0.821   7.199
 3764SOL     OW11743   2.866   0.085   7.305
 3764SOL    HW111744   2.898   0.167   7.267
 3764SOL    HW211745   2.890   0.018   7.241
 3765SOL     OW11746   2.361   0.045   7.346
 3765SOL    HW111747   2.361   0.006   7.259
 3765SOL    HW211748   2.294   0.113   7.342
 3766SOL     OW11749   2.443   0.875   6.616
 3766SOL    HW111750   2.477   0.964   6.618
 3766SOL    HW211751   2.389   0.868   6.694
 3767SOL     OW11752   3.219   0.858   6.615
 3767SOL    HW111753   3.135   0.849   6.570
 3767SOL    HW211754   3.260   0.772   6.608
 3768SOL     OW11755   3.065   0.536   5.848
 3768SOL    HW111756   3.071   0.456   5.900
 3768SOL    HW211757   3.022   0.598   5.906
 3769SOL     OW11758   2.152   0.233   6.828
 3769SOL    HW111759   2.107   0.249   6.911
 3769SOL    HW211760   2.188   0.145   6.836
 3770SOL     OW11761   1.907   1.309   6.861
 3770SOL    HW111762   1.941   1.256   6.933
 3770SOL    HW211763   1.915   1.399   6.892
 3771SOL     OW11764   2.584   0.631   6.642
 3771SOL    HW111765   2.659   0.612   6.586
 3771SOL    HW211766   2.558   0.720   6.619
 3772SOL     OW11767   3.597   0.960   7.438
 3772SOL    HW111768   3.550   0.898   7.382
 3772SOL    HW211769   3.537   0.973   7.512
 3773SOL     OW11770   2.158   0.054   6.240
 3773SOL    HW111771   2.148   0.149   6.241
 3773SOL    HW211772   2.170   0.029   6.332
 3774SOL     OW11773   3.478   0.379   5.947
 3774SOL    HW111774   3.506   0.315   6.013
 3774SOL    HW211775   3.455   0.456   5.998
 3775SOL     OW11776   2.891   0.762   6.547
 3775SOL    HW111777   2.887   0.778   6.641
 3775SOL    HW211778   2.862   0.672   6.536
 3776SOL     OW11779   2.844   1.567   7.303
 3776SOL    HW111780   2.829   1.610   7.219
 3776SOL    HW211781   2.887   1.484   7.280
 3777SOL     OW11782   3.717   1.506   7.192
 3777SOL    HW111783   3.734   1.532   7.101
 3777SOL    HW211784   3.798   1.524   7.239
 3778SOL     OW11785   2.216   0.917   7.394
 3778SOL    HW111786   2.298   0.935   7.440
 3778SOL    HW211787   2.240   0.853   7.326
 3779SOL     OW11788   3.392   0.264   5.714
 3779SOL    HW111789   3.320   0.208   5.744
 3779SOL    HW211790   3.422   0.309   5.793
 3780SOL     OW11791   3.153   0.826   5.616
 3780SOL    HW111792   3.195   0.740   5.619
 3780SOL    HW211793   3.184   0.866   5.535
 3781SOL     OW11794   2.931   1.333   6.443
 3781SOL    HW111795   2.932   1.262   6.378
 3781SOL    HW211796   2.987   1.401   6.406
 3782SOL     OW11797   2.171   0.810   6.533
 3782SOL    HW111798   2.264   0.832   6.528
 3782SOL    HW211799   2.170   0.720   6.566
 3783SOL     OW11800   2.198   0.533   6.599
 3783SOL    HW111801   2.155   0.449   6.581
 3783SOL    HW211802   2.274   0.534   6.542
 3784SOL     OW11803   2.998   0.373   7.283
 3784SOL    HW111804   2.947   0.437   7.333
 3784SOL    HW211805   3.083   0.415   7.269
 3785SOL     OW11806   3.019   0.213   7.059
 3785SOL    HW111807   3.013   0.277   7.130
 3785SOL    HW211808   3.059   0.261   6.987
 3786SOL     OW11809   1.869   1.319   5.783
 3786SOL    HW111810   1.782   1.334   5.747
 3786SOL    HW211811   1.867   1.229   5.815
 3787SOL     OW11812   1.952   1.791   6.552
 3787SOL    HW111813   1.916   1.710   6.514
 3787SOL    HW211814   2.020   1.818   6.491
 3788SOL     OW11815   2.359   1.564   6.510
 3788SOL    HW111816   2.419   1.633   6.537
 3788SOL    HW211817   2.408   1.513   6.446
 3789SOL     OW11818   2.845   0.793   6.813
 3789SOL    HW111819   2.901   0.770   6.887
 3789SOL    HW211820   2.760   0.753   6.833
 3790SOL     OW11821   1.895   0.544   6.704
 3790SOL    HW111822   1.973   0.524   6.652
 3790SOL    HW211823   1.928   0.547   6.794
 3791SOL     OW11824   2.047   0.520   7.307
 3791SOL    HW111825   2.122   0.500   7.252
 3791SOL    HW211826   2.006   0.596   7.266
 3792SOL     OW11827   3.240   0.938   7.244
 3792SOL    HW111828   3.260   1.032   7.242
 3792SOL    HW211829   3.236   0.912   7.152
 3793SOL     OW11830   2.672   0.576   5.942
 3793SOL    HW111831   2.678   0.504   5.879
 3793SOL    HW211832   2.599   0.629   5.912
 3794SOL     OW11833   3.502   0.602   6.772
 3794SOL    HW111834   3.492   0.542   6.846
 3794SOL    HW211835   3.589   0.583   6.738
 3795SOL     OW11836   2.108   1.550   7.315
 3795SOL    HW111837   2.081   1.614   7.381
 3795SOL    HW211838   2.108   1.466   7.361
 3796SOL     OW11839   2.562   0.459   6.849
 3796SOL    HW111840   2.515   0.382   6.818
 3796SOL    HW211841   2.562   0.520   6.775
 3797SOL     OW11842   2.789   1.679   7.054
 3797SOL    HW111843   2.763   1.643   6.969
 3797SOL    HW211844   2.785   1.774   7.042
 3798SOL     OW11845   2.325   0.492   5.770
 3798SOL    HW111846   2.385   0.564   5.791
 3798SOL    HW211847   2.240   0.534   5.758
 3799SOL     OW11848   2.007   1.141   7.059
 3799SOL    HW111849   2.010   1.089   7.139
 3799SOL    HW211850   2.025   1.077   6.989
 3800SOL     OW11851   3.188   1.047   6.809
 3800SOL    HW111852   3.210   0.983   6.741
 3800SOL    HW211853   3.118   1.099   6.770
 3801SOL     OW11854   3.174   0.857   5.892
 3801SOL    HW111855   3.100   0.827   5.944
 3801SOL    HW211856   3.148   0.843   5.801
 3802SOL     OW11857   3.635   1.743   6.737
 3802SOL    HW111858   3.695   1.769   6.667
 3802SOL    HW211859   3.610   1.653   6.715
 3803SOL     OW11860   3.103   1.732   6.698
 3803SOL    HW111861   3.185   1.754   6.654
 3803SOL    HW211862   3.108   1.639   6.716
 3804SOL     OW11863   1.942   1.268   6.596
 3804SOL    HW111864   1.930   1.280   6.690
 3804SOL    HW211865   1.872   1.209   6.570
 3805SOL     OW11866   2.541   1.666   7.316
 3805SOL    HW111867   2.486   1.744   7.308
 3805SOL    HW211868   2.606   1.675   7.246
 3806SOL     OW11869   3.580   0.129   6.077
 3806SOL    HW111870   3.651   0.139   6.014
 3806SOL    HW211871   3.609   0.058   6.135
 3807SOL     OW11872   3.255   1.565   6.071
 3807SOL    HW111873   3.314   1.598   6.003
 3807SOL    HW211874   3.203   1.642   6.097
 3808SOL     OW11875   1.994   1.796   7.428
 3808SOL    HW111876   1.943   1.729   7.474
 3808SOL    HW211877   2.045   1.839   7.497
 3809SOL     OW11878   3.140   0.928   6.259
 3809SOL    HW111879   3.213   0.866   6.264
 3809SOL    HW211880   3.174   1.000   6.206
 3810SOL     OW11881   2.676   1.274   7.015
 3810SOL    HW111882   2.647   1.313   7.098
 3810SOL    HW211883   2.607   1.297   6.953
 3811SOL     OW11884   2.552   1.594   5.733
 3811SOL    HW111885   2.550   1.623   5.641
 3811SOL    HW211886   2.480   1.532   5.740
 3812SOL     OW11887   3.488   1.727   6.977
 3812SOL    HW111888   3.538   1.733   6.896
 3812SOL    HW211889   3.474   1.817   7.005
 3813SOL     OW11890   3.701   0.154   6.552
 3813SOL    HW111891   3.732   0.076   6.505
 3813SOL    HW211892   3.614   0.171   6.515
 3814SOL     OW11893   2.126   0.322   6.303
 3814SOL    HW111894   2.040   0.356   6.276
 3814SOL    HW211895   2.120   0.314   6.398
 3815SOL     OW11896   3.072   1.603   5.608
 3815SOL    HW111897   3.061   1.512   5.638
 3815SOL    HW211898   3.002   1.615   5.544
 3816SOL     OW11899   2.685   1.006   6.959
 3816SOL    HW111900   2.729   1.001   6.874
 3816SOL    HW211901   2.685   1.099   6.980
 3817SOL     OW11902   2.777   0.910   5.875
 3817SOL    HW111903   2.839   0.942   5.810
 3817SOL    HW211904   2.824   0.841   5.922
 3818SOL     OW11905   3.354   1.624   5.628
 3818SOL    HW111906   3.260   1.618   5.615
 3818SOL    HW211907   3.391   1.631   5.540
 3819SOL     OW11908   2.231   1.302   7.079
 3819SOL    HW111909   2.219   1.379   7.023
 3819SOL    HW211910   2.154   1.248   7.062
 3820SOL     OW11911   3.473   1.283   6.867
 3820SOL    HW111912   3.531   1.271   6.942
 3820SOL    HW211913   3.412   1.352   6.894
 3821SOL     OW11914   2.913   1.107   6.290
 3821SOL    HW111915   2.843   1.056   6.331
 3821SOL    HW211916   2.977   1.041   6.262
 3822SOL     OW11917   2.867   0.244   6.592
 3822SOL    HW111918   2.872   0.222   6.499
 3822SOL    HW211919   2.859   0.160   6.636
 3823SOL     OW11920   2.453   1.458   6.060
 3823SOL    HW111921   2.514   1.408   6.006
 3823SOL    HW211922   2.400   1.507   5.997
 3824SOL     OW11923   3.584   0.394   6.963
 3824SOL    HW111924   3.657   0.456   6.962
 3824SOL    HW211925   3.613   0.322   6.906
 3825SOL     OW11926   2.119   1.355   5.892
 3825SOL    HW111927   2.028   1.343   5.865
 3825SOL    HW211928   2.114   1.387   5.982
 3826SOL     OW11929   1.975   1.022   7.305
 3826SOL    HW111930   1.898   0.999   7.359
 3826SOL    HW211931   2.049   0.985   7.353
 3827SOL     OW11932   2.520   0.204   7.085
 3827SOL    HW111933   2.599   0.180   7.038
 3827SOL    HW211934   2.550   0.226   7.173
 3828SOL     OW11935   1.944   0.338   5.634
 3828SOL    HW111936   1.874   0.283   5.598
 3828SOL    HW211937   1.956   0.407   5.569
 3829SOL     OW11938   3.291   0.858   6.986
 3829SOL    HW111939   3.242   0.919   6.930
 3829SOL    HW211940   3.380   0.861   6.951
 3830SOL     OW11941   1.926   0.184   5.904
 3830SOL    HW111942   1.925   0.251   5.836
 3830SOL    HW211943   2.001   0.129   5.883
 3831SOL     OW11944   3.041   1.340   5.703
 3831SOL    HW111945   2.951   1.307   5.707
 3831SOL    HW211946   3.071   1.341   5.794
 3832SOL     OW11947   2.481   0.830   7.020
 3832SOL    HW111948   2.537   0.907   7.004
 3832SOL    HW211949   2.542   0.757   7.028
 3833SOL     OW11950   3.345   1.778   6.564
 3833SOL    HW111951   3.370   1.838   6.494
 3833SOL    HW211952   3.428   1.757   6.608
 3834SOL     OW11953   2.578   0.563   7.291
 3834SOL    HW111954   2.618   0.627   7.350
 3834SOL    HW211955   2.609   0.478   7.324
 3835SOL     OW11956   3.334   1.200   7.218
 3835SOL    HW111957   3.321   1.213   7.312
 3835SOL    HW211958   3.427   1.215   7.204
 3836SOL     OW11959   2.244   1.739   7.153
 3836SOL    HW111960   2.158   1.779   7.134
 3836SOL    HW211961   2.223   1.655   7.193
 3837SOL     OW11962   3.531   0.881   6.841
 3837SOL    HW111963   3.524   0.796   6.798
 3837SOL    HW211964   3.521   0.945   6.771
 3838SOL     OW11965   3.080   0.330   6.033
 3838SOL    HW111966   3.146   0.262   6.022
 3838SOL    HW211967   3.108   0.378   6.112
 3839SOL     OW11968   2.448   0.737   6.258
 3839SOL    HW111969   2.490   0.822   6.242
 3839SOL    HW211970   2.382   0.730   6.189
 3840SOL     OW11971   3.624   0.367   7.230
 3840SOL    HW111972   3.608   0.380   7.136
 3840SOL    HW211973   3.546   0.320   7.261
 3841SOL     OW11974   3.608   0.933   7.098
 3841SOL    HW111975   3.603   1.028   7.111
 3841SOL    HW211976   3.592   0.921   7.004
 3842SOL     OW11977   2.720   1.368   5.620
 3842SOL    HW111978   2.681   1.402   5.700
 3842SOL    HW211979   2.745   1.446   5.570
 3843SOL     OW11980   2.527   1.781   6.582
 3843SOL    HW111981   2.495   1.854   6.530
 3843SOL    HW211982   2.612   1.759   6.544
 3844SOL     OW11983   2.729   0.967   6.440
 3844SOL    HW111984   2.780   0.896   6.479
 3844SOL    HW211985   2.694   1.015   6.515
 3845SOL     OW11986   2.941   0.989   5.674
 3845SOL    HW111987   2.919   1.039   5.596
 3845SOL    HW211988   3.016   0.934   5.649
 3846SOL     OW11989   3.716   1.555   6.431
 3846SOL    HW111990   3.638   1.543   6.376
 3846SOL    HW211991   3.709   1.487   6.498
 3847SOL     OW11992   2.087   1.302   7.442
 3847SOL    HW111993   2.020   1.241   7.411
 3847SOL    HW211994   2.067   1.315   7.535
 3848SOL     OW11995   1.946   1.233   6.245
 3848SOL    HW111996   1.951   1.190   6.330
 3848SOL    HW211997   2.020   1.196   6.196
 3849SOL     OW11998   2.544   1.403   7.215
 3849SOL    HW111999   2.464   1.359   7.244
 3849SOL    HW212000   2.538   1.491   7.252
 3850SOL     OW12001   3.669   0.181   6.825
 3850SOL    HW112002   3.668   0.087   6.844
 3850SOL    HW212003   3.686   0.185   6.730
 3851SOL     OW12004   2.298   0.434   6.116
 3851SOL    HW112005   2.320   0.365   6.053
 3851SOL    HW212006   2.242   0.391   6.181
 3852SOL     OW12007   3.561   1.490   6.683
 3852SOL    HW112008   3.481   1.467   6.636
 3852SOL    HW212009   3.572   1.420   6.747
 3853SOL     OW12010   2.192   0.558   6.878
 3853SOL    HW112011   2.248   0.501   6.932
 3853SOL    HW212012   2.212   0.531   6.788
 3854SOL     OW12013   2.713   1.536   6.261
 3854SOL    HW112014   2.692   1.579   6.178
 3854SOL    HW212015   2.630   1.495   6.288
 3855SOL     OW12016   3.294   0.216   6.703
 3855SOL    HW112017   3.329   0.145   6.756
 3855SOL    HW212018   3.243   0.269   6.765
 3856SOL     OW12019   2.858   0.006   6.737
 3856SOL    HW112020   2.816   4.420   6.730
 3856SOL    HW212021   2.951   4.487   6.748
 3857SOL     OW12022   2.635   1.327   5.907
 3857SOL    HW112023   2.608   1.235   5.910
 3857SOL    HW212024   2.721   1.329   5.948
 3858SOL     OW12025   2.483   1.555   6.873
 3858SOL    HW112026   2.484   1.638   6.921
 3858SOL    HW212027   2.569   1.550   6.831
 3859SOL     OW12028   3.202   0.052   5.740
 3859SOL    HW112029   3.241   4.476   5.696
 3859SOL    HW212030   3.126   0.017   5.787
 3860SOL     OW12031   3.177   0.463   6.262
 3860SOL    HW112032   3.118   0.538   6.263
 3860SOL    HW212033   3.165   0.422   6.348
 3861SOL     OW12034   3.447   0.199   6.453
 3861SOL    HW112035   3.388   0.215   6.527
 3861SOL    HW212036   3.450   0.283   6.407
 3862SOL     OW12037   1.910   1.070   5.891
 3862SOL    HW112038   2.003   1.057   5.872
 3862SOL    HW212039   1.878   0.983   5.914
 3863SOL     OW12040   2.746   1.643   5.924
 3863SOL    HW112041   2.686   1.604   5.860
 3863SOL    HW212042   2.722   1.736   5.925
 3864SOL     OW12043   2.090   0.626   7.569
 3864SOL    HW112044   2.003   0.619   7.608
 3864SOL    HW212045   2.079   0.596   7.479
 3865SOL     OW12046   2.069   0.299   8.438
 3865SOL    HW112047   2.100   0.270   8.523
 3865SOL    HW212048   1.988   0.251   8.424
 3866SOL     OW12049   1.869   0.387   8.086
 3866SOL    HW112050   1.783   0.406   8.122
 3866SOL    HW212051   1.855   0.313   8.026
 3867SOL     OW12052   2.430   1.288   8.623
 3867SOL    HW112053   2.341   1.290   8.586
 3867SOL    HW212054   2.443   1.377   8.657
 3868SOL     OW12055   3.424   1.512   8.155
 3868SOL    HW112056   3.381   1.491   8.238
 3868SOL    HW212057   3.352   1.516   8.092
 3869SOL     OW12058   2.997   0.698   8.146
 3869SOL    HW112059   3.043   0.782   8.136
 3869SOL    HW212060   2.947   0.708   8.226
 3870SOL     OW12061   3.630   0.606   7.675
 3870SOL    HW112062   3.609   0.597   7.583
 3870SOL    HW212063   3.597   0.527   7.716
 3871SOL     OW12064   2.618   1.143   8.490
 3871SOL    HW112065   2.549   1.177   8.546
 3871SOL    HW212066   2.653   1.220   8.445
 3872SOL     OW12067   2.729   0.774   9.270
 3872SOL    HW112068   2.715   0.845   9.333
 3872SOL    HW212069   2.752   0.818   9.189
 3873SOL     OW12070   2.548   1.003   8.094
 3873SOL    HW112071   2.613   0.990   8.164
 3873SOL    HW212072   2.479   1.054   8.135
 3874SOL     OW12073   2.573   1.151   9.260
 3874SOL    HW112074   2.620   1.229   9.287
 3874SOL    HW212075   2.490   1.183   9.225
 3875SOL     OW12076   2.192   1.424   8.517
 3875SOL    HW112077   2.118   1.386   8.469
 3875SOL    HW212078   2.241   1.473   8.450
 3876SOL     OW12079   3.323   1.499   8.803
 3876SOL    HW112080   3.373   1.580   8.813
 3876SOL    HW212081   3.259   1.502   8.875
 3877SOL     OW12082   2.304   0.395   8.937
 3877SOL    HW112083   2.386   0.345   8.938
 3877SOL    HW212084   2.236   0.329   8.950
 3878SOL     OW12085   3.472   0.445   8.187
 3878SOL    HW112086   3.392   0.466   8.139
 3878SOL    HW212087   3.490   0.523   8.239
 3879SOL     OW12088   2.082   1.717   7.923
 3879SOL    HW112089   2.104   1.794   7.975
 3879SOL    HW212090   2.155   1.706   7.863
 3880SOL     OW12091   2.999   1.341   9.141
 3880SOL    HW112092   3.039   1.337   9.227
 3880SOL    HW212093   2.946   1.262   9.134
 3881SOL     OW12094   2.093   1.443   7.984
 3881SOL    HW112095   2.072   1.536   7.989
 3881SOL    HW212096   2.033   1.401   8.046
 3882SOL     OW12097   2.121   1.090   8.340
 3882SOL    HW112098   2.117   1.003   8.380
 3882SOL    HW212099   2.062   1.144   8.392
 3883SOL     OW12100   2.478   1.785   8.881
 3883SOL    HW112101   2.393   1.770   8.924
 3883SOL    HW212102   2.497   1.877   8.896
 3884SOL     OW12103   2.447   0.982   7.583
 3884SOL    HW112104   2.493   1.030   7.514
 3884SOL    HW212105   2.487   1.013   7.664
 3885SOL     OW12106   3.443   0.116   8.919
 3885SOL    HW112107   3.467   0.183   8.856
 3885SOL    HW212108   3.432   0.162   9.002
 3886SOL     OW12109   1.978   0.653   8.008
 3886SOL    HW112110   1.948   0.565   8.030
 3886SOL    HW212111   1.970   0.702   8.090
 3887SOL     OW12112   3.704   1.759   7.782
 3887SOL    HW112113   3.768   1.730   7.848
 3887SOL    HW212114   3.728   1.850   7.764
 3888SOL     OW12115   1.895   1.593   7.571
 3888SOL    HW112116   1.876   1.502   7.591
 3888SOL    HW212117   1.870   1.641   7.650
 3889SOL     OW12118   3.553   0.921   8.090
 3889SOL    HW112119   3.636   0.877   8.069
 3889SOL    HW212120   3.530   0.969   8.011
 3890SOL     OW12121   3.508   1.107   7.877
 3890SOL    HW112122   3.594   1.112   7.835
 3890SOL    HW212123   3.513   1.168   7.950
 3891SOL     OW12124   1.984   0.745   9.032
 3891SOL    HW112125   2.076   0.772   9.040
 3891SOL    HW212126   1.934   0.826   9.040
 3892SOL     OW12127   2.476   1.385   8.183
 3892SOL    HW112128   2.431   1.302   8.192
 3892SOL    HW212129   2.460   1.411   8.092
 3893SOL     OW12130   3.151   1.239   8.871
 3893SOL    HW112131   3.182   1.171   8.811
 3893SOL    HW212132   3.208   1.232   8.947
 3894SOL     OW12133   2.679   0.015   8.000
 3894SOL    HW112134   2.715   0.100   7.974
 3894SOL    HW212135   2.585   0.026   7.992
 3895SOL     OW12136   2.052   0.965   8.721
 3895SOL    HW112137   2.137   0.924   8.705
 3895SOL    HW212138   1.990   0.913   8.671
 3896SOL     OW12139   3.394   0.993   7.647
 3896SOL    HW112140   3.323   0.937   7.678
 3896SOL    HW212141   3.434   1.028   7.726
 3897SOL     OW12142   3.048   1.807   9.071
 3897SOL    HW112143   3.059   1.865   8.995
 3897SOL    HW212144   3.064   1.719   9.036
 3898SOL     OW12145   2.177   0.253   9.228
 3898SOL    HW112146   2.240   0.318   9.260
 3898SOL    HW212147   2.104   0.259   9.289
 3899SOL     OW12148   3.328   1.420   8.399
 3899SOL    HW112149   3.260   1.435   8.465
 3899SOL    HW212150   3.316   1.328   8.372
 3900SOL     OW12151   3.520   1.740   8.026
 3900SOL    HW112152   3.500   1.710   7.937
 3900SOL    HW212153   3.496   1.667   8.082
 3901SOL     OW12154   2.455   0.723   7.713
 3901SOL    HW112155   2.460   0.805   7.664
 3901SOL    HW212156   2.389   0.739   7.781
 3902SOL     OW12157   3.154   0.365   8.381
 3902SOL    HW112158   3.064   0.335   8.365
 3902SOL    HW212159   3.190   0.301   8.443
 3903SOL     OW12160   3.442   1.671   7.757
 3903SOL    HW112161   3.533   1.701   7.750
 3903SOL    HW212162   3.415   1.654   7.667
 3904SOL     OW12163   2.657   0.620   8.902
 3904SOL    HW112164   2.629   0.594   8.990
 3904SOL    HW212165   2.618   0.554   8.844
 3905SOL     OW12166   3.250   0.480   9.124
 3905SOL    HW112167   3.254   0.524   9.209
 3905SOL    HW212168   3.317   0.411   9.130
 3906SOL     OW12169   2.817   0.888   9.031
 3906SOL    HW112170   2.871   0.817   8.996
 3906SOL    HW212171   2.768   0.921   8.955
 3907SOL     OW12172   2.858   0.417   8.683
 3907SOL    HW112173   2.770   0.426   8.719
 3907SOL    HW212174   2.847   0.365   8.604
 3908SOL     OW12175   2.912   0.698   7.875
 3908SOL    HW112176   2.929   0.689   7.969
 3908SOL    HW212177   2.829   0.652   7.861
 3909SOL     OW12178   1.951   0.821   8.224
 3909SOL    HW112179   2.031   0.814   8.276
 3909SOL    HW212180   1.907   0.898   8.259
 3910SOL     OW12181   1.990   1.822   9.021
 3910SOL    HW112182   1.978   1.813   9.116
 3910SOL    HW212183   1.919   1.880   8.994
 3911SOL     OW12184   2.717   0.370   7.632
 3911SOL    HW112185   2.788   0.403   7.578
 3911SOL    HW212186   2.731   0.275   7.634
 3912SOL     OW12187   3.566   0.573   9.276
 3912SOL    HW112188   3.530   0.648   9.228
 3912SOL    HW212189   3.602   0.516   9.208
 3913SOL     OW12190   3.240   1.143   7.989
 3913SOL    HW112191   3.318   1.130   7.936
 3913SOL    HW212192   3.187   1.204   7.939
 3914SOL     OW12193   2.399   0.204   8.350
 3914SOL    HW112194   2.421   0.223   8.441
 3914SOL    HW212195   2.392   0.291   8.309
 3915SOL     OW12196   2.868   1.444   7.920
 3915SOL    HW112197   2.831   1.517   7.871
 3915SOL    HW212198   2.850   1.465   8.012
 3916SOL     OW12199   2.216   1.799   8.308
 3916SOL    HW112200   2.244   1.708   8.312
 3916SOL    HW212201   2.295   1.849   8.331
 3917SOL     OW12202   3.660   1.060   8.316
 3917SOL    HW112203   3.607   1.038   8.240
 3917SOL    HW212204   3.598   1.064   8.389
 3918SOL     OW12205   3.090   1.539   8.961
 3918SOL    HW112206   3.076   1.466   9.022
 3918SOL    HW212207   3.026   1.524   8.892
 3919SOL     OW12208   2.181   0.957   7.698
 3919SOL    HW112209   2.263   0.976   7.652
 3919SOL    HW212210   2.150   0.875   7.660
 3920SOL     OW12211   3.342   0.743   8.172
 3920SOL    HW112212   3.330   0.699   8.256
 3920SOL    HW212213   3.419   0.798   8.184
 3921SOL     OW12214   2.328   1.265   9.186
 3921SOL    HW112215   2.301   1.269   9.094
 3921SOL    HW212216   2.246   1.263   9.235
 3922SOL     OW12217   2.984   1.777   7.679
 3922SOL    HW112218   2.911   1.735   7.724
 3922SOL    HW212219   3.007   1.716   7.609
 3923SOL     OW12220   2.050   0.268   8.961
 3923SOL    HW112221   1.983   0.335   8.946
 3923SOL    HW212222   2.065   0.270   9.055
 3924SOL     OW12223   3.491   1.380   7.535
 3924SOL    HW112224   3.449   1.465   7.521
 3924SOL    HW212225   3.422   1.316   7.517
 3925SOL     OW12226   2.330   1.734   7.771
 3925SOL    HW112227   2.373   1.794   7.831
 3925SOL    HW212228   2.400   1.702   7.715
 3926SOL     OW12229   3.284   0.140   7.866
 3926SOL    HW112230   3.268   0.087   7.788
 3926SOL    HW212231   3.378   0.131   7.881
 3927SOL     OW12232   2.105   1.782   8.683
 3927SOL    HW112233   2.166   1.721   8.726
 3927SOL    HW212234   2.106   1.755   8.591
 3928SOL     OW12235   2.795   1.697   8.348
 3928SOL    HW112236   2.874   1.648   8.370
 3928SOL    HW212237   2.756   1.648   8.276
 3929SOL     OW12238   2.255   0.694   7.923
 3929SOL    HW112239   2.277   0.602   7.936
 3929SOL    HW212240   2.161   0.699   7.941
 3930SOL     OW12241   3.387   0.233   9.171
 3930SOL    HW112242   3.386   0.255   9.264
 3930SOL    HW212243   3.308   0.179   9.159
 3931SOL     OW12244   2.491   0.122   7.571
 3931SOL    HW112245   2.579   0.085   7.580
 3931SOL    HW212246   2.457   0.085   7.489
 3932SOL     OW12247   2.630   0.271   9.202
 3932SOL    HW112248   2.696   0.202   9.210
 3932SOL    HW212249   2.587   0.273   9.288
 3933SOL     OW12250   2.739   1.523   8.641
 3933SOL    HW112251   2.723   1.484   8.555
 3933SOL    HW212252   2.808   1.468   8.679
 3934SOL     OW12253   3.203   0.589   8.877
 3934SOL    HW112254   3.230   0.560   8.964
 3934SOL    HW212255   3.237   0.678   8.869
 3935SOL     OW12256   2.677   1.396   8.388
 3935SOL    HW112257   2.761   1.383   8.344
 3935SOL    HW212258   2.613   1.395   8.317
 3936SOL     OW12259   2.786   0.520   8.347
 3936SOL    HW112260   2.769   0.517   8.253
 3936SOL    HW212261   2.822   0.433   8.367
 3937SOL     OW12262   2.417   0.077   7.970
 3937SOL    HW112263   2.329   0.047   7.993
 3937SOL    HW212264   2.403   0.141   7.900
 3938SOL     OW12265   3.290   1.199   7.489
 3938SOL    HW112266   3.320   1.122   7.539
 3938SOL    HW212267   3.205   1.219   7.526
 3939SOL     OW12268   2.157   0.068   7.648
 3939SOL    HW112269   2.235   0.120   7.630
 3939SOL    HW212270   2.187   0.000   7.708
 3940SOL     OW12271   2.815   0.240   7.915
 3940SOL    HW112272   2.763   0.297   7.859
 3940SOL    HW212273   2.904   0.275   7.910
 3941SOL     OW12274   2.942   0.681   8.908
 3941SOL    HW112275   2.871   0.617   8.908
 3941SOL    HW212276   3.021   0.629   8.897
 3942SOL     OW12277   3.084   1.571   8.242
 3942SOL    HW112278   3.102   1.637   8.175
 3942SOL    HW212279   3.153   1.583   8.307
 3943SOL     OW12280   2.331   1.150   8.181
 3943SOL    HW112281   2.262   1.130   8.245
 3943SOL    HW212282   2.291   1.134   8.096
 3944SOL     OW12283   3.131   1.794   8.056
 3944SOL    HW112284   3.177   1.855   7.998
 3944SOL    HW212285   3.066   1.848   8.100
 3945SOL     OW12286   2.891   0.547   7.465
 3945SOL    HW112287   2.843   0.628   7.450
 3945SOL    HW212288   2.949   0.567   7.539
 3946SOL     OW12289   1.945   0.550   8.843
 3946SOL    HW112290   2.035   0.554   8.813
 3946SOL    HW212291   1.937   0.622   8.906
 3947SOL     OW12292   2.424   0.244   8.615
 3947SOL    HW112293   2.451   0.162   8.656
 3947SOL    HW212294   2.332   0.255   8.640
 3948SOL     OW12295   2.727   0.504   8.075
 3948SOL    HW112296   2.684   0.544   7.999
 3948SOL    HW212297   2.690   0.416   8.080
 3949SOL     OW12298   2.823   0.023   8.233
 3949SOL    HW112299   2.775   0.022   8.150
 3949SOL    HW212300   2.837   4.431   8.253
 3950SOL     OW12301   3.299   1.163   8.305
 3950SOL    HW112302   3.230   1.096   8.305
 3950SOL    HW212303   3.322   1.173   8.213
 3951SOL     OW12304   3.327   0.605   8.422
 3951SOL    HW112305   3.274   0.526   8.424
 3951SOL    HW212306   3.385   0.597   8.498
 3952SOL     OW12307   3.707   0.816   7.831
 3952SOL    HW112308   3.764   0.765   7.889
 3952SOL    HW212309   3.679   0.754   7.764
 3953SOL     OW12310   2.352   1.419   7.605
 3953SOL    HW112311   2.277   1.390   7.656
 3953SOL    HW212312   2.339   1.378   7.519
 3954SOL     OW12313   3.533   1.265   8.092
 3954SOL    HW112314   3.627   1.267   8.107
 3954SOL    HW212315   3.503   1.353   8.115
 3955SOL     OW12316   3.257   0.571   7.518
 3955SOL    HW112317   3.194   0.555   7.589
 3955SOL    HW212318   3.342   0.552   7.556
 3956SOL     OW12319   2.383   0.265   7.771
 3956SOL    HW112320   2.431   0.215   7.706
 3956SOL    HW212321   2.365   0.349   7.728
 3957SOL     OW12322   3.614   1.239   9.020
 3957SOL    HW112323   3.701   1.200   9.017
 3957SOL    HW212324   3.629   1.329   9.050
 3958SOL     OW12325   2.920   1.355   8.782
 3958SOL    HW112326   2.845   1.323   8.833
 3958SOL    HW212327   2.996   1.313   8.823
 3959SOL     OW12328   3.470   1.626   9.102
 3959SOL    HW112329   3.464   1.660   9.013
 3959SOL    HW212330   3.553   1.578   9.104
 3960SOL     OW12331   2.993   1.206   8.554
 3960SOL    HW112332   2.931   1.241   8.618
 3960SOL    HW212333   2.958   1.235   8.469
 3961SOL     OW12334   3.489   1.098   8.526
 3961SOL    HW112335   3.485   1.160   8.598
 3961SOL    HW212336   3.410   1.114   8.475
 3962SOL     OW12337   2.764   0.133   8.835
 3962SOL    HW112338   2.786   0.089   8.753
 3962SOL    HW212339   2.848   0.149   8.877
 3963SOL     OW12340   2.846   1.115   9.171
 3963SOL    HW112341   2.754   1.131   9.192
 3963SOL    HW212342   2.845   1.037   9.115
 3964SOL     OW12343   2.571   1.062   7.819
 3964SOL    HW112344   2.557   1.045   7.912
 3964SOL    HW212345   2.647   1.008   7.796
 3965SOL     OW12346   2.282   0.816   8.699
 3965SOL    HW112347   2.350   0.825   8.765
 3965SOL    HW212348   2.246   0.728   8.713
 3966SOL     OW12349   3.130   0.375   8.722
 3966SOL    HW112350   3.162   0.454   8.766
 3966SOL    HW212351   3.041   0.397   8.695
 3967SOL     OW12352   1.929   1.570   8.798
 3967SOL    HW112353   1.897   1.649   8.754
 3967SOL    HW212354   2.024   1.580   8.799
 3968SOL     OW12355   2.211   1.110   7.938
 3968SOL    HW112356   2.214   1.182   7.876
 3968SOL    HW212357   2.208   1.031   7.883
 3969SOL     OW12358   2.417   0.529   8.306
 3969SOL    HW112359   2.431   0.588   8.232
 3969SOL    HW212360   2.482   0.557   8.371
 3970SOL     OW12361   3.110   1.348   7.837
 3970SOL    HW112362   3.166   1.420   7.868
 3970SOL    HW212363   3.023   1.369   7.871
 3971SOL     OW12364   3.143   1.458   8.595
 3971SOL    HW112365   3.198   1.460   8.673
 3971SOL    HW212366   3.088   1.380   8.606
 3972SOL     OW12367   3.443   0.623   7.926
 3972SOL    HW112368   3.396   0.673   7.993
 3972SOL    HW212369   3.487   0.690   7.873
 3973SOL     OW12370   2.212   1.523   8.765
 3973SOL    HW112371   2.196   1.482   8.680
 3973SOL    HW212372   2.306   1.536   8.769
 3974SOL     OW12373   2.277   0.743   9.051
 3974SOL    HW112374   2.337   0.789   8.992
 3974SOL    HW212375   2.322   0.660   9.068
 3975SOL     OW12376   3.464   0.778   9.130
 3975SOL    HW112377   3.378   0.820   9.123
 3975SOL    HW212378   3.516   0.820   9.061
 3976SOL     OW12379   2.866   0.085   9.167
 3976SOL    HW112380   2.897   0.167   9.129
 3976SOL    HW212381   2.890   0.018   9.103
 3977SOL     OW12382   2.361   0.045   9.208
 3977SOL    HW112383   2.361   0.006   9.121
 3977SOL    HW212384   2.294   0.113   9.204
 3978SOL     OW12385   2.445   0.874   8.479
 3978SOL    HW112386   2.475   0.964   8.479
 3978SOL    HW212387   2.389   0.867   8.556
 3979SOL     OW12388   3.219   0.858   8.477
 3979SOL    HW112389   3.135   0.848   8.432
 3979SOL    HW212390   3.260   0.772   8.470
 3980SOL     OW12391   3.065   0.536   7.710
 3980SOL    HW112392   3.071   0.455   7.762
 3980SOL    HW212393   3.022   0.598   7.768
 3981SOL     OW12394   2.152   0.233   8.690
 3981SOL    HW112395   2.107   0.249   8.773
 3981SOL    HW212396   2.188   0.145   8.698
 3982SOL     OW12397   1.908   1.310   8.724
 3982SOL    HW112398   1.941   1.257   8.797
 3982SOL    HW212399   1.914   1.400   8.755
 3983SOL     OW12400   2.585   0.631   8.505
 3983SOL    HW112401   2.659   0.613   8.448
 3983SOL    HW212402   2.558   0.720   8.481
 3984SOL     OW12403   3.596   0.960   9.300
 3984SOL    HW112404   3.550   0.898   9.244
 3984SOL    HW212405   3.537   0.973   9.374
 3985SOL     OW12406   2.158   0.054   8.102
 3985SOL    HW112407   2.148   0.149   8.103
 3985SOL    HW212408   2.170   0.030   8.194
 3986SOL     OW12409   3.478   0.379   7.809
 3986SOL    HW112410   3.506   0.315   7.875
 3986SOL    HW212411   3.455   0.456   7.861
 3987SOL     OW12412   2.891   0.762   8.409
 3987SOL    HW112413   2.887   0.778   8.504
 3987SOL    HW212414   2.862   0.672   8.398
 3988SOL     OW12415   2.845   1.567   9.165
 3988SOL    HW112416   2.829   1.610   9.082
 3988SOL    HW212417   2.888   1.484   9.142
 3989SOL     OW12418   3.717   1.506   9.054
 3989SOL    HW112419   3.735   1.532   8.963
 3989SOL    HW212420   3.798   1.524   9.101
 3990SOL     OW12421   2.216   0.917   9.256
 3990SOL    HW112422   2.298   0.935   9.302
 3990SOL    HW212423   2.240   0.853   9.189
 3991SOL     OW12424   3.392   0.264   7.576
 3991SOL    HW112425   3.321   0.208   7.606
 3991SOL    HW212426   3.422   0.309   7.655
 3992SOL     OW12427   3.153   0.826   7.478
 3992SOL    HW112428   3.195   0.740   7.481
 3992SOL    HW212429   3.184   0.866   7.397
 3993SOL     OW12430   2.926   1.336   8.301
 3993SOL    HW112431   2.930   1.263   8.239
 3993SOL    HW212432   2.989   1.400   8.267
 3994SOL     OW12433   2.171   0.810   8.395
 3994SOL    HW112434   2.264   0.832   8.388
 3994SOL    HW212435   2.170   0.720   8.428
 3995SOL     OW12436   2.198   0.532   8.461
 3995SOL    HW112437   2.155   0.449   8.443
 3995SOL    HW212438   2.274   0.534   8.404
 3996SOL     OW12439   2.998   0.373   9.145
 3996SOL    HW112440   2.947   0.437   9.195
 3996SOL    HW212441   3.083   0.415   9.131
 3997SOL     OW12442   3.019   0.213   8.922
 3997SOL    HW112443   3.013   0.277   8.992
 3997SOL    HW212444   3.059   0.261   8.849
 3998SOL     OW12445   1.867   1.320   7.643
 3998SOL    HW112446   1.781   1.335   7.605
 3998SOL    HW212447   1.864   1.231   7.677
 3999SOL     OW12448   1.949   1.790   8.383
 3999SOL    HW112449   1.918   1.710   8.341
 3999SOL    HW212450   2.040   1.798   8.354
 4000SOL     OW12451   2.358   1.570   8.351
 4000SOL    HW112452   2.427   1.633   8.372
 4000SOL    HW212453   2.401   1.505   8.295
 4001SOL     OW12454   2.844   0.794   8.675
 4001SOL    HW112455   2.900   0.770   8.750
 4001SOL    HW212456   2.760   0.752   8.695
 4002SOL     OW12457   1.895   0.543   8.567
 4002SOL    HW112458   1.973   0.525   8.513
 4002SOL    HW212459   1.928   0.547   8.656
 4003SOL     OW12460   2.047   0.520   9.169
 4003SOL    HW112461   2.122   0.500   9.114
 4003SOL    HW212462   2.006   0.596   9.128
 4004SOL     OW12463   3.240   0.938   9.106
 4004SOL    HW112464   3.260   1.032   9.104
 4004SOL    HW212465   3.236   0.912   9.014
 4005SOL     OW12466   2.672   0.576   7.804
 4005SOL    HW112467   2.677   0.504   7.741
 4005SOL    HW212468   2.599   0.630   7.774
 4006SOL     OW12469   3.502   0.602   8.634
 4006SOL    HW112470   3.492   0.542   8.708
 4006SOL    HW212471   3.589   0.583   8.600
 4007SOL     OW12472   2.111   1.550   9.180
 4007SOL    HW112473   2.082   1.613   9.246
 4007SOL    HW212474   2.108   1.466   9.224
 4008SOL     OW12475   2.563   0.459   8.711
 4008SOL    HW112476   2.515   0.382   8.680
 4008SOL    HW212477   2.562   0.519   8.637
 4009SOL     OW12478   2.791   1.678   8.916
 4009SOL    HW112479   2.763   1.643   8.831
 4009SOL    HW212480   2.787   1.773   8.905
 4010SOL     OW12481   2.326   0.492   7.632
 4010SOL    HW112482   2.385   0.564   7.654
 4010SOL    HW212483   2.241   0.534   7.620
 4011SOL     OW12484   2.008   1.141   8.921
 4011SOL    HW112485   2.009   1.089   9.002
 4011SOL    HW212486   2.024   1.077   8.852
 4012SOL     OW12487   3.188   1.047   8.671
 4012SOL    HW112488   3.210   0.983   8.603
 4012SOL    HW212489   3.118   1.099   8.632
 4013SOL     OW12490   3.174   0.857   7.754
 4013SOL    HW112491   3.099   0.827   7.806
 4013SOL    HW212492   3.148   0.843   7.663
 4014SOL     OW12493   3.635   1.743   8.599
 4014SOL    HW112494   3.695   1.770   8.529
 4014SOL    HW212495   3.610   1.654   8.577
 4015SOL     OW12496   3.103   1.733   8.561
 4015SOL    HW112497   3.185   1.754   8.516
 4015SOL    HW212498   3.109   1.639   8.579
 4016SOL     OW12499   1.948   1.265   8.461
 4016SOL    HW112500   1.933   1.279   8.554
 4016SOL    HW212501   1.873   1.214   8.431
 4017SOL     OW12502   2.541   1.665   9.178
 4017SOL    HW112503   2.487   1.743   9.174
 4017SOL    HW212504   2.604   1.676   9.106
 4018SOL     OW12505   3.580   0.129   7.939
 4018SOL    HW112506   3.651   0.139   7.876
 4018SOL    HW212507   3.609   0.058   7.997
 4019SOL     OW12508   3.253   1.567   7.933
 4019SOL    HW112509   3.313   1.600   7.866
 4019SOL    HW212510   3.204   1.645   7.961
 4020SOL     OW12511   1.998   1.802   9.294
 4020SOL    HW112512   1.947   1.734   9.339
 4020SOL    HW212513   2.046   1.845   9.364
 4021SOL     OW12514   3.141   0.928   8.121
 4021SOL    HW112515   3.213   0.866   8.126
 4021SOL    HW212516   3.174   1.000   8.068
 4022SOL     OW12517   2.676   1.274   8.877
 4022SOL    HW112518   2.648   1.313   8.960
 4022SOL    HW212519   2.605   1.294   8.816
 4023SOL     OW12520   2.532   1.621   7.604
 4023SOL    HW112521   2.544   1.633   7.509
 4023SOL    HW212522   2.478   1.543   7.611
 4024SOL     OW12523   3.488   1.727   8.839
 4024SOL    HW112524   3.538   1.733   8.758
 4024SOL    HW212525   3.474   1.817   8.867
 4025SOL     OW12526   3.701   0.154   8.414
 4025SOL    HW112527   3.732   0.077   8.367
 4025SOL    HW212528   3.614   0.171   8.377
 4026SOL     OW12529   2.126   0.322   8.165
 4026SOL    HW112530   2.040   0.356   8.138
 4026SOL    HW212531   2.120   0.314   8.260
 4027SOL     OW12532   3.069   1.606   7.480
 4027SOL    HW112533   3.060   1.514   7.506
 4027SOL    HW212534   3.004   1.617   7.410
 4028SOL     OW12535   2.685   1.006   8.821
 4028SOL    HW112536   2.729   1.000   8.736
 4028SOL    HW212537   2.686   1.099   8.842
 4029SOL     OW12538   2.778   0.911   7.738
 4029SOL    HW112539   2.840   0.942   7.672
 4029SOL    HW212540   2.825   0.841   7.783
 4030SOL     OW12541   3.353   1.625   7.491
 4030SOL    HW112542   3.259   1.619   7.477
 4030SOL    HW212543   3.390   1.632   7.403
 4031SOL     OW12544   2.232   1.301   8.940
 4031SOL    HW112545   2.218   1.379   8.886
 4031SOL    HW212546   2.154   1.247   8.924
 4032SOL     OW12547   3.473   1.283   8.729
 4032SOL    HW112548   3.531   1.271   8.803
 4032SOL    HW212549   3.412   1.352   8.756
 4033SOL     OW12550   2.915   1.107   8.155
 4033SOL    HW112551   2.843   1.056   8.194
 4033SOL    HW212552   2.977   1.042   8.125
 4034SOL     OW12553   2.867   0.244   8.454
 4034SOL    HW112554   2.872   0.223   8.361
 4034SOL    HW212555   2.859   0.160   8.498
 4035SOL     OW12556   2.467   1.490   7.929
 4035SOL    HW112557   2.511   1.438   7.862
 4035SOL    HW212558   2.394   1.532   7.883
 4036SOL     OW12559   3.584   0.394   8.825
 4036SOL    HW112560   3.657   0.456   8.824
 4036SOL    HW212561   3.613   0.322   8.768
 4037SOL     OW12562   2.122   1.345   7.738
 4037SOL    HW112563   2.029   1.342   7.714
 4037SOL    HW212564   2.123   1.382   7.826
 4038SOL     OW12565   1.975   1.022   9.168
 4038SOL    HW112566   1.898   0.999   9.221
 4038SOL    HW212567   2.049   0.984   9.215
 4039SOL     OW12568   2.520   0.204   8.947
 4039SOL    HW112569   2.599   0.180   8.900
 4039SOL    HW212570   2.550   0.226   9.035
 4040SOL     OW12571   1.944   0.337   7.496
 4040SOL    HW112572   1.873   0.284   7.459
 4040SOL    HW212573   1.956   0.407   7.431
 4041SOL     OW12574   3.291   0.858   8.848
 4041SOL    HW112575   3.243   0.919   8.792
 4041SOL    HW212576   3.381   0.860   8.813
 4042SOL     OW12577   1.926   0.184   7.766
 4042SOL    HW112578   1.925   0.251   7.698
 4042SOL    HW212579   2.001   0.128   7.744
 4043SOL     OW12580   3.041   1.339   7.565
 4043SOL    HW112581   2.950   1.308   7.567
 4043SOL    HW212582   3.069   1.339   7.656
 4044SOL     OW12583   2.481   0.830   8.882
 4044SOL    HW112584   2.537   0.907   8.867
 4044SOL    HW212585   2.542   0.757   8.890
 4045SOL     OW12586   3.345   1.778   8.427
 4045SOL    HW112587   3.369   1.837   8.356
 4045SOL    HW212588   3.428   1.757   8.470
 4046SOL     OW12589   2.578   0.563   9.153
 4046SOL    HW112590   2.618   0.627   9.213
 4046SOL    HW212591   2.609   0.478   9.186
 4047SOL     OW12592   3.333   1.200   9.080
 4047SOL    HW112593   3.321   1.214   9.174
 4047SOL    HW212594   3.427   1.215   9.065
 4048SOL     OW12595   2.244   1.735   9.013
 4048SOL    HW112596   2.157   1.771   8.994
 4048SOL    HW212597   2.226   1.651   9.056
 4049SOL     OW12598   3.531   0.881   8.703
 4049SOL    HW112599   3.524   0.796   8.661
 4049SOL    HW212600   3.521   0.944   8.632
 4050SOL     OW12601   3.080   0.330   7.895
 4050SOL    HW112602   3.146   0.262   7.884
 4050SOL    HW212603   3.108   0.378   7.974
 4051SOL     OW12604   2.448   0.738   8.120
 4051SOL    HW112605   2.490   0.822   8.103
 4051SOL    HW212606   2.382   0.730   8.051
 4052SOL     OW12607   3.624   0.367   9.092
 4052SOL    HW112608   3.608   0.380   8.998
 4052SOL    HW212609   3.546   0.320   9.123
 4053SOL     OW12610   3.608   0.933   8.960
 4053SOL    HW112611   3.603   1.028   8.973
 4053SOL    HW212612   3.592   0.921   8.866
 4054SOL     OW12613   2.725   1.367   7.483
 4054SOL    HW112614   2.686   1.395   7.566
 4054SOL    HW212615   2.742   1.449   7.436
 4055SOL     OW12616   2.522   1.799   8.383
 4055SOL    HW112617   2.528   1.888   8.418
 4055SOL    HW212618   2.613   1.768   8.381
 4056SOL     OW12619   2.729   0.968   8.303
 4056SOL    HW112620   2.780   0.895   8.341
 4056SOL    HW212621   2.694   1.015   8.378
 4057SOL     OW12622   2.942   0.989   7.537
 4057SOL    HW112623   2.919   1.039   7.459
 4057SOL    HW212624   3.016   0.935   7.510
 4058SOL     OW12625   3.716   1.555   8.293
 4058SOL    HW112626   3.638   1.543   8.238
 4058SOL    HW212627   3.710   1.487   8.359
 4059SOL     OW12628   2.087   1.302   9.304
 4059SOL    HW112629   2.019   1.242   9.273
 4059SOL    HW212630   2.066   1.314   9.397
 4060SOL     OW12631   1.948   1.233   8.112
 4060SOL    HW112632   1.950   1.186   8.195
 4060SOL    HW212633   2.015   1.192   8.059
 4061SOL     OW12634   2.543   1.403   9.075
 4061SOL    HW112635   2.463   1.360   9.106
 4061SOL    HW212636   2.539   1.491   9.114
 4062SOL     OW12637   3.669   0.181   8.687
 4062SOL    HW112638   3.668   0.087   8.706
 4062SOL    HW212639   3.686   0.185   8.592
 4063SOL     OW12640   2.299   0.433   7.978
 4063SOL    HW112641   2.320   0.364   7.915
 4063SOL    HW212642   2.242   0.390   8.043
 4064SOL     OW12643   3.561   1.490   8.545
 4064SOL    HW112644   3.481   1.466   8.498
 4064SOL    HW212645   3.572   1.420   8.609
 4065SOL     OW12646   2.192   0.558   8.740
 4065SOL    HW112647   2.248   0.501   8.794
 4065SOL    HW212648   2.211   0.531   8.650
 4066SOL     OW12649   2.688   1.579   8.126
 4066SOL    HW112650   2.675   1.629   8.045
 4066SOL    HW212651   2.614   1.519   8.129
 4067SOL     OW12652   3.294   0.216   8.565
 4067SOL    HW112653   3.329   0.145   8.618
 4067SOL    HW212654   3.243   0.269   8.627
 4068SOL     OW12655   2.858   0.006   8.599
 4068SOL    HW112656   2.816   4.420   8.592
 4068SOL    HW212657   2.951   4.487   8.610
 4069SOL     OW12658   2.634   1.333   7.764
 4069SOL    HW112659   2.602   1.243   7.769
 4069SOL    HW212660   2.716   1.333   7.812
 4070SOL     OW12661   2.483   1.556   8.731
 4070SOL    HW112662   2.485   1.636   8.784
 4070SOL    HW212663   2.571   1.549   8.695
 4071SOL     OW12664   3.202   0.052   7.602
 4071SOL    HW112665   3.240   4.476   7.558
 4071SOL    HW212666   3.126   0.017   7.649
 4072SOL     OW12667   3.177   0.463   8.124
 4072SOL    HW112668   3.118   0.538   8.125
 4072SOL    HW212669   3.165   0.422   8.210
 4073SOL     OW12670   3.447   0.199   8.315
 4073SOL    HW112671   3.388   0.214   8.389
 4073SOL    HW212672   3.450   0.283   8.269
 4074SOL     OW12673   1.906   1.071   7.754
 4074SOL    HW112674   2.000   1.061   7.736
 4074SOL    HW212675   1.877   0.982   7.777
 4075SOL     OW12676   2.746   1.653   7.791
 4075SOL    HW112677   2.674   1.635   7.731
 4075SOL    HW212678   2.717   1.728   7.842
 4076SOL     OW12679   2.091   0.626   9.431
 4076SOL    HW112680   2.004   0.619   9.470
 4076SOL    HW212681   2.079   0.596   9.341
 4077SOL     OW12682   2.070   0.299  10.299
 4077SOL    HW112683   2.101   0.270  10.385
 4077SOL    HW212684   1.988   0.251  10.286
 4078SOL     OW12685   1.869   0.387   9.947
 4078SOL    HW112686   1.783   0.406   9.985
 4078SOL    HW212687   1.855   0.313   9.888
 4079SOL     OW12688   2.430   1.288  10.486
 4079SOL    HW112689   2.342   1.289  10.448
 4079SOL    HW212690   2.443   1.378  10.518
 4080SOL     OW12691   3.424   1.512  10.017
 4080SOL    HW112692   3.381   1.491  10.100
 4080SOL    HW212693   3.352   1.516   9.953
 4081SOL     OW12694   2.997   0.698  10.008
 4081SOL    HW112695   3.043   0.782   9.998
 4081SOL    HW212696   2.947   0.708  10.088
 4082SOL     OW12697   3.630   0.606   9.537
 4082SOL    HW112698   3.609   0.597   9.445
 4082SOL    HW212699   3.597   0.526   9.578
 4083SOL     OW12700   2.619   1.143  10.353
 4083SOL    HW112701   2.549   1.178  10.409
 4083SOL    HW212702   2.653   1.220  10.307
 4084SOL     OW12703   2.717   0.776   0.022
 4084SOL    HW112704   2.724   0.831   0.100
 4084SOL    HW212705   2.750   0.830  11.050
 4085SOL     OW12706   2.548   1.003   9.956
 4085SOL    HW112707   2.613   0.991  10.026
 4085SOL    HW212708   2.479   1.054   9.997
 4086SOL     OW12709   2.194   1.423  10.378
 4086SOL    HW112710   2.119   1.386  10.330
 4086SOL    HW212711   2.242   1.472  10.312
 4087SOL     OW12712   3.325   1.499  10.661
 4087SOL    HW112713   3.382   1.577  10.668
 4087SOL    HW212714   3.269   1.503  10.738
 4088SOL     OW12715   2.311   0.394  10.785
 4088SOL    HW112716   2.389   0.338  10.795
 4088SOL    HW212717   2.239   0.341  10.818
 4089SOL     OW12718   3.472   0.445  10.049
 4089SOL    HW112719   3.392   0.466  10.001
 4089SOL    HW212720   3.491   0.523  10.101
 4090SOL     OW12721   2.078   1.706   9.774
 4090SOL    HW112722   2.102   1.777   9.835
 4090SOL    HW212723   2.153   1.698   9.716
 4091SOL     OW12724   2.095   1.439   9.848
 4091SOL    HW112725   2.072   1.532   9.846
 4091SOL    HW212726   2.033   1.400   9.909
 4092SOL     OW12727   2.122   1.090  10.202
 4092SOL    HW112728   2.116   1.003  10.242
 4092SOL    HW212729   2.062   1.144  10.255
 4093SOL     OW12730   2.470   1.790  10.735
 4093SOL    HW112731   2.392   1.770  10.786
 4093SOL    HW212732   2.495   1.878  10.761
 4094SOL     OW12733   2.447   0.982   9.444
 4094SOL    HW112734   2.493   1.030   9.376
 4094SOL    HW212735   2.487   1.013   9.526
 4095SOL     OW12736   3.415   0.137  10.784
 4095SOL    HW112737   3.462   0.192  10.721
 4095SOL    HW212738   3.476   0.126  10.856
 4096SOL     OW12739   1.978   0.653   9.870
 4096SOL    HW112740   1.948   0.565   9.892
 4096SOL    HW212741   1.970   0.702   9.951
 4097SOL     OW12742   3.704   1.759   9.644
 4097SOL    HW112743   3.768   1.730   9.710
 4097SOL    HW212744   3.728   1.850   9.626
 4098SOL     OW12745   1.897   1.595   9.433
 4098SOL    HW112746   1.877   1.503   9.452
 4098SOL    HW212747   1.869   1.642   9.511
 4099SOL     OW12748   3.553   0.920   9.952
 4099SOL    HW112749   3.636   0.877   9.931
 4099SOL    HW212750   3.530   0.969   9.873
 4100SOL     OW12751   3.508   1.107   9.739
 4100SOL    HW112752   3.594   1.112   9.697
 4100SOL    HW212753   3.513   1.168   9.812
 4101SOL     OW12754   1.989   0.725  10.916
 4101SOL    HW112755   2.082   0.747  10.904
 4101SOL    HW212756   1.944   0.810  10.910
 4102SOL     OW12757   2.476   1.385  10.045
 4102SOL    HW112758   2.430   1.302  10.054
 4102SOL    HW212759   2.460   1.411   9.954
 4103SOL     OW12760   3.156   1.237  10.752
 4103SOL    HW112761   3.180   1.177  10.682
 4103SOL    HW212762   3.212   1.212  10.825
 4104SOL     OW12763   2.679   0.015   9.862
 4104SOL    HW112764   2.715   0.100   9.836
 4104SOL    HW212765   2.585   0.026   9.854
 4105SOL     OW12766   2.052   0.964  10.579
 4105SOL    HW112767   2.136   0.921  10.563
 4105SOL    HW212768   1.988   0.910  10.533
 4106SOL     OW12769   3.394   0.993   9.509
 4106SOL    HW112770   3.323   0.937   9.540
 4106SOL    HW212771   3.434   1.028   9.588
 4107SOL     OW12772   3.058   1.806  10.928
 4107SOL    HW112773   3.057   1.870  10.856
 4107SOL    HW212774   3.067   1.721  10.884
 4108SOL     OW12775   2.197   0.278  11.087
 4108SOL    HW112776   2.253   0.341   0.032
 4108SOL    HW212777   2.114   0.282   0.033
 4109SOL     OW12778   3.329   1.419  10.261
 4109SOL    HW112779   3.260   1.435  10.325
 4109SOL    HW212780   3.316   1.328  10.234
 4110SOL     OW12781   3.520   1.740   9.888
 4110SOL    HW112782   3.500   1.710   9.799
 4110SOL    HW212783   3.496   1.667   9.944
 4111SOL     OW12784   2.455   0.723   9.575
 4111SOL    HW112785   2.459   0.805   9.526
 4111SOL    HW212786   2.389   0.739   9.643
 4112SOL     OW12787   3.154   0.364  10.243
 4112SOL    HW112788   3.064   0.335  10.227
 4112SOL    HW212789   3.189   0.301  10.305
 4113SOL     OW12790   3.442   1.670   9.619
 4113SOL    HW112791   3.533   1.701   9.612
 4113SOL    HW212792   3.415   1.654   9.529
 4114SOL     OW12793   2.657   0.619  10.765
 4114SOL    HW112794   2.626   0.593  10.852
 4114SOL    HW212795   2.620   0.554  10.706
 4115SOL     OW12796   2.828   0.900  10.903
 4115SOL    HW112797   2.876   0.827  10.863
 4115SOL    HW212798   2.777   0.937  10.831
 4116SOL     OW12799   2.859   0.419  10.544
 4116SOL    HW112800   2.770   0.427  10.579
 4116SOL    HW212801   2.849   0.365  10.466
 4117SOL     OW12802   2.912   0.697   9.737
 4117SOL    HW112803   2.929   0.689   9.831
 4117SOL    HW212804   2.829   0.652   9.723
 4118SOL     OW12805   1.951   0.821  10.086
 4118SOL    HW112806   2.031   0.814  10.138
 4118SOL    HW212807   1.907   0.898  10.121
 4119SOL     OW12808   1.993   1.837  10.898
 4119SOL    HW112809   1.964   1.809  10.985
 4119SOL    HW212810   1.912   1.852  10.849
 4120SOL     OW12811   2.717   0.370   9.494
 4120SOL    HW112812   2.788   0.403   9.440
 4120SOL    HW212813   2.731   0.275   9.496
 4121SOL     OW12814   3.240   1.143   9.851
 4121SOL    HW112815   3.318   1.130   9.798
 4121SOL    HW212816   3.186   1.204   9.800
 4122SOL     OW12817   2.401   0.205  10.212
 4122SOL    HW112818   2.421   0.223  10.304
 4122SOL    HW212819   2.392   0.291  10.171
 4123SOL     OW12820   2.868   1.444   9.782
 4123SOL    HW112821   2.831   1.517   9.732
 4123SOL    HW212822   2.849   1.465   9.874
 4124SOL     OW12823   2.219   1.799  10.182
 4124SOL    HW112824   2.249   1.708  10.184
 4124SOL    HW212825   2.296   1.850  10.207
 4125SOL     OW12826   3.660   1.059  10.178
 4125SOL    HW112827   3.607   1.038  10.102
 4125SOL    HW212828   3.598   1.063  10.251
 4126SOL     OW12829   3.090   1.537  10.824
 4126SOL    HW112830   3.099   1.448  10.859
 4126SOL    HW212831   3.027   1.528  10.752
 4127SOL     OW12832   2.181   0.957   9.560
 4127SOL    HW112833   2.263   0.976   9.514
 4127SOL    HW212834   2.150   0.875   9.522
 4128SOL     OW12835   3.342   0.743  10.034
 4128SOL    HW112836   3.331   0.699  10.119
 4128SOL    HW212837   3.419   0.798  10.046
 4129SOL     OW12838   2.313   1.267  11.054
 4129SOL    HW112839   2.285   1.279  10.963
 4129SOL    HW212840   2.253   1.202  11.089
 4130SOL     OW12841   2.984   1.777   9.541
 4130SOL    HW112842   2.911   1.736   9.586
 4130SOL    HW212843   3.007   1.716   9.471
 4131SOL     OW12844   2.057   0.266  10.817
 4131SOL    HW112845   1.987   0.331  10.810
 4131SOL    HW212846   2.076   0.261  10.910
 4132SOL     OW12847   3.491   1.380   9.397
 4132SOL    HW112848   3.449   1.465   9.383
 4132SOL    HW212849   3.422   1.316   9.379
 4133SOL     OW12850   2.329   1.731   9.632
 4133SOL    HW112851   2.372   1.792   9.693
 4133SOL    HW212852   2.399   1.700   9.575
 4134SOL     OW12853   3.284   0.140   9.728
 4134SOL    HW112854   3.267   0.087   9.650
 4134SOL    HW212855   3.378   0.132   9.743
 4135SOL     OW12856   2.105   1.783  10.549
 4135SOL    HW112857   2.167   1.723  10.591
 4135SOL    HW212858   2.111   1.762  10.456
 4136SOL     OW12859   2.798   1.698  10.211
 4136SOL    HW112860   2.878   1.647  10.229
 4136SOL    HW212861   2.755   1.650  10.141
 4137SOL     OW12862   2.255   0.694   9.785
 4137SOL    HW112863   2.277   0.602   9.799
 4137SOL    HW212864   2.161   0.699   9.803
 4138SOL     OW12865   2.491   0.122   9.433
 4138SOL    HW112866   2.579   0.085   9.441
 4138SOL    HW212867   2.457   0.085   9.351
 4139SOL     OW12868   2.621   0.267  11.046
 4139SOL    HW112869   2.691   0.207  11.073
 4139SOL    HW212870   2.587   0.303   0.028
 4140SOL     OW12871   2.738   1.522  10.504
 4140SOL    HW112872   2.722   1.486  10.416
 4140SOL    HW212873   2.810   1.470  10.538
 4141SOL     OW12874   3.206   0.590  10.753
 4141SOL    HW112875   3.256   0.573  10.833
 4141SOL    HW212876   3.231   0.679  10.728
 4142SOL     OW12877   2.677   1.396  10.250
 4142SOL    HW112878   2.762   1.383  10.206
 4142SOL    HW212879   2.613   1.395  10.179
 4143SOL     OW12880   2.786   0.520  10.209
 4143SOL    HW112881   2.769   0.517  10.114
 4143SOL    HW212882   2.821   0.433  10.229
 4144SOL     OW12883   2.417   0.078   9.832
 4144SOL    HW112884   2.329   0.048   9.856
 4144SOL    HW212885   2.403   0.141   9.762
 4145SOL     OW12886   3.290   1.198   9.351
 4145SOL    HW112887   3.320   1.122   9.401
 4145SOL    HW212888   3.205   1.219   9.388
 4146SOL     OW12889   2.157   0.068   9.510
 4146SOL    HW112890   2.235   0.120   9.492
 4146SOL    HW212891   2.187   0.000   9.571
 4147SOL     OW12892   2.815   0.240   9.777
 4147SOL    HW112893   2.763   0.297   9.721
 4147SOL    HW212894   2.904   0.275   9.772
 4148SOL     OW12895   2.940   0.686  10.772
 4148SOL    HW112896   2.868   0.623  10.772
 4148SOL    HW212897   3.019   0.631  10.767
 4149SOL     OW12898   3.084   1.571  10.105
 4149SOL    HW112899   3.101   1.637  10.037
 4149SOL    HW212900   3.154   1.585  10.169
 4150SOL     OW12901   2.331   1.150  10.043
 4150SOL    HW112902   2.262   1.130  10.107
 4150SOL    HW212903   2.291   1.134   9.958
 4151SOL     OW12904   3.131   1.794   9.918
 4151SOL    HW112905   3.177   1.855   9.861
 4151SOL    HW212906   3.064   1.847   9.962
 4152SOL     OW12907   2.891   0.547   9.327
 4152SOL    HW112908   2.843   0.628   9.312
 4152SOL    HW212909   2.949   0.567   9.401
 4153SOL     OW12910   1.943   0.549  10.709
 4153SOL    HW112911   2.034   0.554  10.678
 4153SOL    HW212912   1.938   0.612  10.780
 4154SOL     OW12913   2.424   0.245  10.478
 4154SOL    HW112914   2.446   0.158  10.513
 4154SOL    HW212915   2.332   0.258  10.503
 4155SOL     OW12916   2.727   0.504   9.937
 4155SOL    HW112917   2.684   0.544   9.861
 4155SOL    HW212918   2.690   0.416   9.943
 4156SOL     OW12919   2.823   0.023  10.095
 4156SOL    HW112920   2.775   0.023  10.012
 4156SOL    HW212921   2.837   4.430  10.115
 4157SOL     OW12922   3.298   1.163  10.167
 4157SOL    HW112923   3.230   1.095  10.166
 4157SOL    HW212924   3.323   1.173  10.075
 4158SOL     OW12925   3.327   0.606  10.284
 4158SOL    HW112926   3.273   0.527  10.285
 4158SOL    HW212927   3.385   0.597  10.360
 4159SOL     OW12928   3.707   0.816   9.693
 4159SOL    HW112929   3.764   0.765   9.751
 4159SOL    HW212930   3.679   0.754   9.626
 4160SOL     OW12931   2.352   1.419   9.467
 4160SOL    HW112932   2.277   1.389   9.518
 4160SOL    HW212933   2.338   1.379   9.380
 4161SOL     OW12934   3.533   1.265   9.955
 4161SOL    HW112935   3.627   1.267   9.969
 4161SOL    HW212936   3.503   1.353   9.976
 4162SOL     OW12937   3.257   0.571   9.380
 4162SOL    HW112938   3.194   0.555   9.451
 4162SOL    HW212939   3.342   0.552   9.418
 4163SOL     OW12940   2.383   0.265   9.633
 4163SOL    HW112941   2.431   0.215   9.567
 4163SOL    HW212942   2.365   0.349   9.590
 4164SOL     OW12943   3.621   1.229  10.866
 4164SOL    HW112944   3.712   1.201  10.868
 4164SOL    HW212945   3.622   1.316  10.907
 4165SOL     OW12946   2.925   1.355  10.651
 4165SOL    HW112947   2.847   1.321  10.695
 4165SOL    HW212948   2.997   1.306  10.690
 4166SOL     OW12949   2.993   1.209  10.416
 4166SOL    HW112950   2.925   1.240  10.475
 4166SOL    HW212951   2.962   1.235  10.329
 4167SOL     OW12952   3.490   1.098  10.388
 4167SOL    HW112953   3.486   1.160  10.461
 4167SOL    HW212954   3.411   1.116  10.337
 4168SOL     OW12955   2.759   0.126  10.698
 4168SOL    HW112956   2.785   0.090  10.613
 4168SOL    HW212957   2.841   0.147  10.742
 4169SOL     OW12958   2.571   1.062   9.681
 4169SOL    HW112959   2.557   1.045   9.774
 4169SOL    HW212960   2.647   1.008   9.658
 4170SOL     OW12961   2.282   0.816  10.561
 4170SOL    HW112962   2.350   0.824  10.627
 4170SOL    HW212963   2.247   0.728  10.574
 4171SOL     OW12964   3.132   0.382  10.582
 4171SOL    HW112965   3.162   0.459  10.630
 4171SOL    HW212966   3.043   0.404  10.555
 4172SOL     OW12967   1.930   1.574  10.660
 4172SOL    HW112968   1.900   1.648  10.608
 4172SOL    HW212969   2.025   1.580  10.658
 4173SOL     OW12970   2.211   1.109   9.800
 4173SOL    HW112971   2.214   1.182   9.739
 4173SOL    HW212972   2.208   1.031   9.745
 4174SOL     OW12973   2.418   0.529  10.168
 4174SOL    HW112974   2.431   0.588  10.094
 4174SOL    HW212975   2.482   0.557  10.233
 4175SOL     OW12976   3.110   1.348   9.699
 4175SOL    HW112977   3.166   1.420   9.730
 4175SOL    HW212978   3.023   1.369   9.733
 4176SOL     OW12979   3.142   1.459  10.455
 4176SOL    HW112980   3.199   1.461  10.532
 4176SOL    HW212981   3.090   1.380  10.466
 4177SOL     OW12982   3.443   0.623   9.788
 4177SOL    HW112983   3.396   0.673   9.855
 4177SOL    HW212984   3.487   0.690   9.735
 4178SOL     OW12985   2.211   1.522  10.626
 4178SOL    HW112986   2.196   1.481  10.541
 4178SOL    HW212987   2.305   1.536  10.630
 4179SOL     OW12988   2.276   0.734  10.905
 4179SOL    HW112989   2.340   0.778  10.848
 4179SOL    HW212990   2.312   0.647  10.918
 4180SOL     OW12991   3.458   0.759  10.969
 4180SOL    HW112992   3.380   0.814  10.961
 4180SOL    HW212993   3.527   0.809  10.925
 4181SOL     OW12994   2.445   0.873  10.341
 4181SOL    HW112995   2.474   0.965  10.341
 4181SOL    HW212996   2.388   0.866  10.418
 4182SOL     OW12997   3.219   0.860  10.343
 4182SOL    HW112998   3.136   0.851  10.296
 4182SOL    HW212999   3.261   0.775  10.336
 4183SOL     OW13000   3.065   0.536   9.572
 4183SOL    HW113001   3.071   0.455   9.624
 4183SOL    HW213002   3.022   0.598   9.630
 4184SOL     OW13003   2.151   0.232  10.550
 4184SOL    HW113004   2.113   0.250  10.636
 4184SOL    HW213005   2.187   0.143  10.557
 4185SOL     OW13006   1.912   1.312  10.584
 4185SOL    HW113007   1.940   1.257  10.658
 4185SOL    HW213008   1.914   1.401  10.619
 4186SOL     OW13009   2.585   0.631  10.367
 4186SOL    HW113010   2.659   0.613  10.309
 4186SOL    HW213011   2.558   0.720  10.343
 4187SOL     OW13012   2.159   0.054   9.964
 4187SOL    HW113013   2.148   0.149   9.965
 4187SOL    HW213014   2.170   0.029  10.055
 4188SOL     OW13015   3.478   0.379   9.671
 4188SOL    HW113016   3.506   0.314   9.737
 4188SOL    HW213017   3.455   0.456   9.723
 4189SOL     OW13018   2.891   0.762  10.271
 4189SOL    HW113019   2.887   0.778  10.365
 4189SOL    HW213020   2.862   0.672  10.260
 4190SOL     OW13021   2.834   1.572  11.004
 4190SOL    HW113022   2.820   1.622  10.924
 4190SOL    HW213023   2.866   1.487  10.974
 4191SOL     OW13024   3.718   1.493  10.912
 4191SOL    HW113025   3.734   1.528  10.824
 4191SOL    HW213026   3.785   1.534  10.967
 4192SOL     OW13027   2.223   0.920  11.094
 4192SOL    HW113028   2.307   0.934   0.037
 4192SOL    HW213029   2.241   0.852  11.028
 4193SOL     OW13030   3.392   0.264   9.438
 4193SOL    HW113031   3.321   0.208   9.468
 4193SOL    HW213032   3.422   0.309   9.517
 4194SOL     OW13033   3.153   0.826   9.341
 4194SOL    HW113034   3.195   0.740   9.343
 4194SOL    HW213035   3.184   0.866   9.259
 4195SOL     OW13036   2.928   1.335  10.164
 4195SOL    HW113037   2.931   1.263  10.102
 4195SOL    HW213038   2.989   1.400  10.129
 4196SOL     OW13039   2.171   0.809  10.257
 4196SOL    HW113040   2.264   0.831  10.250
 4196SOL    HW213041   2.169   0.720  10.290
 4197SOL     OW13042   2.198   0.532  10.323
 4197SOL    HW113043   2.155   0.449  10.304
 4197SOL    HW213044   2.274   0.534  10.265
 4198SOL     OW13045   3.011   0.216  10.767
 4198SOL    HW113046   3.033   0.260  10.850
 4198SOL    HW213047   3.055   0.269  10.700
 4199SOL     OW13048   1.868   1.321   9.505
 4199SOL    HW113049   1.781   1.335   9.467
 4199SOL    HW213050   1.865   1.231   9.539
 4200SOL     OW13051   1.948   1.791  10.245
 4200SOL    HW113052   1.918   1.711  10.203
 4200SOL    HW213053   2.041   1.798  10.221
 4201SOL     OW13054   2.361   1.569  10.214
 4201SOL    HW113055   2.428   1.635  10.232
 4201SOL    HW213056   2.403   1.505  10.157
 4202SOL     OW13057   2.844   0.795  10.538
 4202SOL    HW113058   2.899   0.773  10.612
 4202SOL    HW213059   2.761   0.752  10.555
 4203SOL     OW13060   1.896   0.544  10.429
 4203SOL    HW113061   1.974   0.525  10.377
 4203SOL    HW213062   1.928   0.547  10.520
 4204SOL     OW13063   2.672   0.576   9.666
 4204SOL    HW113064   2.677   0.504   9.603
 4204SOL    HW213065   2.599   0.630   9.636
 4205SOL     OW13066   3.502   0.601  10.495
 4205SOL    HW113067   3.493   0.543  10.570
 4205SOL    HW213068   3.589   0.583  10.461
 4206SOL     OW13069   2.120   1.563  11.054
 4206SOL    HW113070   2.059   1.595   0.021
 4206SOL    HW213071   2.125   1.469  11.069
 4207SOL     OW13072   2.567   0.457  10.573
 4207SOL    HW113073   2.516   0.381  10.543
 4207SOL    HW213074   2.564   0.518  10.499
 4208SOL     OW13075   2.800   1.682  10.758
 4208SOL    HW113076   2.766   1.648  10.675
 4208SOL    HW213077   2.788   1.776  10.752
 4209SOL     OW13078   2.326   0.492   9.494
 4209SOL    HW113079   2.385   0.564   9.516
 4209SOL    HW213080   2.241   0.534   9.482
 4210SOL     OW13081   2.016   1.139  10.780
 4210SOL    HW113082   2.008   1.084  10.859
 4210SOL    HW213083   2.028   1.076  10.709
 4211SOL     OW13084   3.186   1.052  10.538
 4211SOL    HW113085   3.212   0.987  10.473
 4211SOL    HW213086   3.117   1.103  10.495
 4212SOL     OW13087   3.174   0.857   9.616
 4212SOL    HW113088   3.099   0.827   9.668
 4212SOL    HW213089   3.148   0.843   9.525
 4213SOL     OW13090   3.637   1.744  10.462
 4213SOL    HW113091   3.696   1.770  10.391
 4213SOL    HW213092   3.611   1.655  10.441
 4214SOL     OW13093   3.103   1.734  10.423
 4214SOL    HW113094   3.185   1.755  10.378
 4214SOL    HW213095   3.109   1.640  10.440
 4215SOL     OW13096   1.948   1.267  10.321
 4215SOL    HW113097   1.934   1.280  10.415
 4215SOL    HW213098   1.873   1.213  10.294
 4216SOL     OW13099   3.580   0.129   9.801
 4216SOL    HW113100   3.651   0.139   9.738
 4216SOL    HW213101   3.609   0.058   9.859
 4217SOL     OW13102   3.253   1.568   9.795
 4217SOL    HW113103   3.313   1.600   9.728
 4217SOL    HW213104   3.204   1.645   9.823
 4218SOL     OW13105   3.141   0.928   9.983
 4218SOL    HW113106   3.213   0.866   9.988
 4218SOL    HW213107   3.174   1.000   9.930
 4219SOL     OW13108   2.679   1.274  10.737
 4219SOL    HW113109   2.648   1.308  10.821
 4219SOL    HW213110   2.609   1.295  10.676
 4220SOL     OW13111   2.532   1.621   9.466
 4220SOL    HW113112   2.545   1.633   9.371
 4220SOL    HW213113   2.478   1.542   9.473
 4221SOL     OW13114   3.483   1.720  10.696
 4221SOL    HW113115   3.539   1.734  10.619
 4221SOL    HW213116   3.468   1.808  10.731
 4222SOL     OW13117   3.701   0.154  10.276
 4222SOL    HW113118   3.732   0.077  10.230
 4222SOL    HW213119   3.614   0.171  10.239
 4223SOL     OW13120   2.126   0.322  10.027
 4223SOL    HW113121   2.040   0.356  10.000
 4223SOL    HW213122   2.120   0.314  10.122
 4224SOL     OW13123   3.069   1.606   9.342
 4224SOL    HW113124   3.060   1.514   9.369
 4224SOL    HW213125   3.004   1.617   9.273
 4225SOL     OW13126   2.687   1.005  10.687
 4225SOL    HW113127   2.729   0.996  10.602
 4225SOL    HW213128   2.688   1.100  10.704
 4226SOL     OW13129   2.778   0.911   9.600
 4226SOL    HW113130   2.840   0.942   9.534
 4226SOL    HW213131   2.825   0.841   9.645
 4227SOL     OW13132   3.354   1.625   9.353
 4227SOL    HW113133   3.259   1.619   9.339
 4227SOL    HW213134   3.390   1.631   9.265
 4228SOL     OW13135   2.228   1.308  10.807
 4228SOL    HW113136   2.216   1.381  10.747
 4228SOL    HW213137   2.156   1.248  10.787
 4229SOL     OW13138   3.475   1.282  10.593
 4229SOL    HW113139   3.530   1.267  10.670
 4229SOL    HW213140   3.418   1.354  10.618
 4230SOL     OW13141   2.914   1.107  10.017
 4230SOL    HW113142   2.843   1.056  10.055
 4230SOL    HW213143   2.977   1.042   9.986
 4231SOL     OW13144   2.868   0.245  10.316
 4231SOL    HW113145   2.873   0.224  10.223
 4231SOL    HW213146   2.859   0.161  10.360
 4232SOL     OW13147   2.466   1.490   9.791
 4232SOL    HW113148   2.511   1.438   9.724
 4232SOL    HW213149   2.394   1.532   9.745
 4233SOL     OW13150   3.582   0.394  10.690
 4233SOL    HW113151   3.655   0.456  10.691
 4233SOL    HW213152   3.610   0.324  10.631
 4234SOL     OW13153   2.122   1.345   9.599
 4234SOL    HW113154   2.029   1.343   9.576
 4234SOL    HW213155   2.123   1.381   9.688
 4235SOL     OW13156   1.978   1.011  11.018
 4235SOL    HW113157   1.909   1.000  11.083
 4235SOL    HW213158   2.058   0.981  11.062
 4236SOL     OW13159   2.513   0.186  10.809
 4236SOL    HW113160   2.591   0.164  10.758
 4236SOL    HW213161   2.547   0.222  10.891
 4237SOL     OW13162   1.944   0.337   9.357
 4237SOL    HW113163   1.873   0.284   9.321
 4237SOL    HW213164   1.956   0.407   9.293
 4238SOL     OW13165   3.291   0.850  10.710
 4238SOL    HW113166   3.242   0.917  10.663
 4238SOL    HW213167   3.381   0.858  10.678
 4239SOL     OW13168   1.926   0.184   9.628
 4239SOL    HW113169   1.925   0.251   9.560
 4239SOL    HW213170   2.001   0.128   9.606
 4240SOL     OW13171   3.041   1.339   9.427
 4240SOL    HW113172   2.950   1.308   9.429
 4240SOL    HW213173   3.069   1.339   9.518
 4241SOL     OW13174   2.482   0.829  10.744
 4241SOL    HW113175   2.539   0.905  10.729
 4241SOL    HW213176   2.543   0.756  10.752
 4242SOL     OW13177   3.345   1.777  10.289
 4242SOL    HW113178   3.369   1.837  10.218
 4242SOL    HW213179   3.428   1.756  10.332
 4243SOL     OW13180   2.575   0.566  11.016
 4243SOL    HW113181   2.613   0.638  11.067
 4243SOL    HW213182   2.625   0.489  11.044
 4244SOL     OW13183   2.248   1.734  10.877
 4244SOL    HW113184   2.167   1.784  10.864
 4244SOL    HW213185   2.222   1.661  10.933
 4245SOL     OW13186   3.532   0.882  10.567
 4245SOL    HW113187   3.524   0.797  10.524
 4245SOL    HW213188   3.523   0.945  10.496
 4246SOL     OW13189   3.080   0.330   9.757
 4246SOL    HW113190   3.146   0.262   9.746
 4246SOL    HW213191   3.108   0.378   9.836
 4247SOL     OW13192   2.448   0.738   9.982
 4247SOL    HW113193   2.490   0.822   9.965
 4247SOL    HW213194   2.382   0.730   9.913
 4248SOL     OW13195   3.611   0.312  10.952
 4248SOL    HW113196   3.594   0.352  10.867
 4248SOL    HW213197   3.534   0.333  11.005
 4249SOL     OW13198   3.612   0.935  10.825
 4249SOL    HW113199   3.603   1.029  10.839
 4249SOL    HW213200   3.594   0.923  10.732
 4250SOL     OW13201   2.724   1.367   9.344
 4250SOL    HW113202   2.686   1.394   9.428
 4250SOL    HW213203   2.742   1.449   9.298
 4251SOL     OW13204   2.515   1.802  10.247
 4251SOL    HW113205   2.503   1.877  10.306
 4251SOL    HW213206   2.610   1.788  10.245
 4252SOL     OW13207   2.729   0.968  10.165
 4252SOL    HW113208   2.779   0.895  10.203
 4252SOL    HW213209   2.694   1.015  10.241
 4253SOL     OW13210   2.942   0.989   9.399
 4253SOL    HW113211   2.919   1.039   9.321
 4253SOL    HW213212   3.016   0.935   9.372
 4254SOL     OW13213   3.716   1.555  10.154
 4254SOL    HW113214   3.638   1.543  10.101
 4254SOL    HW213215   3.710   1.487  10.221
 4255SOL     OW13216   1.946   1.233   9.975
 4255SOL    HW113217   1.949   1.185  10.058
 4255SOL    HW213218   2.014   1.192   9.921
 4256SOL     OW13219   2.542   1.396  10.941
 4256SOL    HW113220   2.469   1.344  10.977
 4256SOL    HW213221   2.505   1.483  10.928
 4257SOL     OW13222   3.663   0.179  10.550
 4257SOL    HW113223   3.676   0.086  10.569
 4257SOL    HW213224   3.682   0.187  10.456
 4258SOL     OW13225   2.299   0.433   9.841
 4258SOL    HW113226   2.320   0.364   9.778
 4258SOL    HW213227   2.242   0.390   9.905
 4259SOL     OW13228   3.562   1.491  10.407
 4259SOL    HW113229   3.482   1.466  10.361
 4259SOL    HW213230   3.575   1.421  10.471
 4260SOL     OW13231   2.191   0.559  10.601
 4260SOL    HW113232   2.245   0.501  10.656
 4260SOL    HW213233   2.210   0.531  10.512
 4261SOL     OW13234   2.690   1.578   9.988
 4261SOL    HW113235   2.676   1.631   9.910
 4261SOL    HW213236   2.614   1.520   9.990
 4262SOL     OW13237   3.293   0.215  10.428
 4262SOL    HW113238   3.332   0.147  10.483
 4262SOL    HW213239   3.244   0.270  10.490
 4263SOL     OW13240   2.857   0.007  10.460
 4263SOL    HW113241   2.815   4.421  10.451
 4263SOL    HW213242   2.950   4.488  10.472
 4264SOL     OW13243   2.634   1.333   9.625
 4264SOL    HW113244   2.602   1.243   9.631
 4264SOL    HW213245   2.716   1.333   9.674
 4265SOL     OW13246   2.482   1.555  10.596
 4265SOL    HW113247   2.483   1.639  10.643
 4265SOL    HW213248   2.570   1.548  10.558
 4266SOL     OW13249   3.202   0.052   9.464
 4266SOL    HW113250   3.241   4.476   9.421
 4266SOL    HW213251   3.126   0.017   9.511
 4267SOL     OW13252   3.177   0.463   9.986
 4267SOL    HW113253   3.117   0.539   9.987
 4267SOL    HW213254   3.165   0.422  10.072
 4268SOL     OW13255   3.447   0.199  10.177
 4268SOL    HW113256   3.388   0.214  10.251
 4268SOL    HW213257   3.450   0.283  10.131
 4269SOL     OW13258   1.906   1.071   9.616
 4269SOL    HW113259   2.000   1.062   9.598
 4269SOL    HW213260   1.877   0.982   9.639
 4270SOL     OW13261   2.747   1.653   9.652
 4270SOL    HW113262   2.674   1.635   9.592
 4270SOL    HW213263   2.717   1.728   9.704
 4271SOL     OW13264   2.068   2.523   0.109
 4271SOL    HW113265   1.988   2.490   0.149
 4271SOL    HW213266   2.108   2.448   0.067
 4272SOL     OW13267   1.860   2.250   0.627
 4272SOL    HW113268   1.781   2.270   0.677
 4272SOL    HW213269   1.844   2.164   0.588
 4273SOL     OW13270   2.429   3.150   1.176
 4273SOL    HW113271   2.341   3.154   1.136
 4273SOL    HW213272   2.444   3.238   1.209
 4274SOL     OW13273   3.423   3.374   0.707
 4274SOL    HW113274   3.381   3.353   0.790
 4274SOL    HW213275   3.352   3.377   0.643
 4275SOL     OW13276   2.992   2.560   0.700
 4275SOL    HW113277   3.041   2.641   0.687
 4275SOL    HW213278   2.946   2.573   0.783
 4276SOL     OW13279   3.638   2.464   0.217
 4276SOL    HW113280   3.582   2.470   0.139
 4276SOL    HW213281   3.599   2.393   0.268
 4277SOL     OW13282   2.616   3.003   1.041
 4277SOL    HW113283   2.547   3.039   1.098
 4277SOL    HW213284   2.652   3.080   0.996
 4278SOL     OW13285   2.727   2.637   1.821
 4278SOL    HW113286   2.718   2.708   1.885
 4278SOL    HW213287   2.752   2.680   1.740
 4279SOL     OW13288   2.550   2.868   0.646
 4279SOL    HW113289   2.613   2.854   0.716
 4279SOL    HW213290   2.479   2.918   0.687
 4280SOL     OW13291   2.573   3.013   1.811
 4280SOL    HW113292   2.620   3.092   1.839
 4280SOL    HW213293   2.490   3.046   1.776
 4281SOL     OW13294   2.193   3.287   1.068
 4281SOL    HW113295   2.120   3.249   1.018
 4281SOL    HW213296   2.242   3.337   1.003
 4282SOL     OW13297   3.323   3.361   1.355
 4282SOL    HW113298   3.373   3.442   1.364
 4282SOL    HW213299   3.260   3.364   1.427
 4283SOL     OW13300   3.474   2.310   0.741
 4283SOL    HW113301   3.397   2.332   0.688
 4283SOL    HW213302   3.489   2.387   0.795
 4284SOL     OW13303   2.080   3.575   0.473
 4284SOL    HW113304   2.102   3.653   0.525
 4284SOL    HW213305   2.151   3.569   0.409
 4285SOL     OW13306   2.998   3.204   1.693
 4285SOL    HW113307   3.039   3.199   1.779
 4285SOL    HW213308   2.946   3.124   1.686
 4286SOL     OW13309   2.090   3.303   0.534
 4286SOL    HW113310   2.075   3.398   0.536
 4286SOL    HW213311   2.029   3.268   0.598
 4287SOL     OW13312   2.121   2.956   0.891
 4287SOL    HW113313   2.115   2.868   0.929
 4287SOL    HW213314   2.061   3.009   0.944
 4288SOL     OW13315   2.473   3.653   1.430
 4288SOL    HW113316   2.391   3.635   1.476
 4288SOL    HW213317   2.496   3.743   1.455
 4289SOL     OW13318   2.447   2.848   0.142
 4289SOL    HW113319   2.487   2.905   0.076
 4289SOL    HW213320   2.487   2.873   0.225
 4290SOL     OW13321   3.458   1.986   1.468
 4290SOL    HW113322   3.466   2.066   1.417
 4290SOL    HW213323   3.443   2.015   1.558
 4291SOL     OW13324   1.984   2.506   0.562
 4291SOL    HW113325   1.946   2.421   0.582
 4291SOL    HW213326   1.970   2.558   0.641
 4292SOL     OW13327   3.704   3.621   0.333
 4292SOL    HW113328   3.768   3.592   0.398
 4292SOL    HW213329   3.729   3.712   0.314
 4293SOL     OW13330   1.909   3.463   0.119
 4293SOL    HW113331   1.881   3.375   0.144
 4293SOL    HW213332   1.882   3.518   0.193
 4294SOL     OW13333   3.549   2.779   0.641
 4294SOL    HW113334   3.635   2.740   0.623
 4294SOL    HW213335   3.530   2.831   0.564
 4295SOL     OW13336   3.509   2.967   0.432
 4295SOL    HW113337   3.591   2.978   0.385
 4295SOL    HW213338   3.514   3.029   0.504
 4296SOL     OW13339   1.983   2.599   1.583
 4296SOL    HW113340   2.073   2.621   1.609
 4296SOL    HW213341   1.933   2.680   1.597
 4297SOL     OW13342   2.476   3.249   0.735
 4297SOL    HW113343   2.430   3.165   0.745
 4297SOL    HW213344   2.459   3.275   0.645
 4298SOL     OW13345   3.151   3.100   1.423
 4298SOL    HW113346   3.182   3.033   1.363
 4298SOL    HW213347   3.208   3.094   1.499
 4299SOL     OW13348   2.675   1.864   0.506
 4299SOL    HW113349   2.716   1.950   0.490
 4299SOL    HW213350   2.582   1.884   0.516
 4300SOL     OW13351   2.052   2.829   1.272
 4300SOL    HW113352   2.135   2.786   1.254
 4300SOL    HW213353   1.987   2.777   1.225
 4301SOL     OW13354   3.378   2.864   0.204
 4301SOL    HW113355   3.314   2.803   0.240
 4301SOL    HW213356   3.429   2.894   0.279
 4302SOL     OW13357   3.047   3.669   1.622
 4302SOL    HW113358   3.057   3.727   1.548
 4302SOL    HW213359   3.064   3.581   1.587
 4303SOL     OW13360   3.329   3.282   0.951
 4303SOL    HW113361   3.260   3.297   1.017
 4303SOL    HW213362   3.316   3.191   0.924
 4304SOL     OW13363   3.520   3.603   0.579
 4304SOL    HW113364   3.501   3.573   0.490
 4304SOL    HW213365   3.495   3.528   0.634
 4305SOL     OW13366   2.465   2.585   0.271
 4305SOL    HW113367   2.464   2.662   0.215
 4305SOL    HW213368   2.392   2.599   0.331
 4306SOL     OW13369   3.141   2.215   0.932
 4306SOL    HW113370   3.052   2.182   0.941
 4306SOL    HW213371   3.193   2.162   0.993
 4307SOL     OW13372   3.444   3.532   0.312
 4307SOL    HW113373   3.535   3.562   0.305
 4307SOL    HW213374   3.418   3.514   0.222
 4308SOL     OW13375   2.654   2.483   1.451
 4308SOL    HW113376   2.630   2.455   1.540
 4308SOL    HW213377   2.622   2.412   1.395
 4309SOL     OW13378   3.256   2.336   1.678
 4309SOL    HW113379   3.258   2.380   1.763
 4309SOL    HW213380   3.316   2.262   1.688
 4310SOL     OW13381   2.816   2.749   1.582
 4310SOL    HW113382   2.871   2.679   1.546
 4310SOL    HW213383   2.768   2.783   1.507
 4311SOL     OW13384   2.858   2.272   1.237
 4311SOL    HW113385   2.770   2.294   1.269
 4311SOL    HW213386   2.842   2.227   1.154
 4312SOL     OW13387   2.912   2.563   0.426
 4312SOL    HW113388   2.929   2.557   0.521
 4312SOL    HW213389   2.829   2.518   0.414
 4313SOL     OW13390   1.951   2.683   0.772
 4313SOL    HW113391   2.032   2.679   0.823
 4313SOL    HW213392   1.904   2.759   0.808
 4314SOL     OW13393   1.989   3.713   1.578
 4314SOL    HW113394   1.990   3.691   1.672
 4314SOL    HW213395   1.898   3.699   1.551
 4315SOL     OW13396   2.749   2.216   0.207
 4315SOL    HW113397   2.796   2.274   0.148
 4315SOL    HW213398   2.766   2.128   0.173
 4316SOL     OW13399   3.571   2.436   1.828
 4316SOL    HW113400   3.533   2.510   1.780
 4316SOL    HW213401   3.598   2.375   1.760
 4317SOL     OW13402   3.239   3.003   0.541
 4317SOL    HW113403   3.318   2.990   0.488
 4317SOL    HW213404   3.186   3.066   0.492
 4318SOL     OW13405   2.867   3.306   0.473
 4318SOL    HW113406   2.830   3.379   0.424
 4318SOL    HW213407   2.848   3.327   0.565
 4319SOL     OW13408   2.216   3.671   0.863
 4319SOL    HW113409   2.259   3.586   0.870
 4319SOL    HW213410   2.286   3.735   0.880
 4320SOL     OW13411   3.660   2.919   0.869
 4320SOL    HW113412   3.605   2.903   0.792
 4320SOL    HW213413   3.598   2.925   0.942
 4321SOL     OW13414   3.090   3.401   1.513
 4321SOL    HW113415   3.076   3.328   1.574
 4321SOL    HW213416   3.027   3.386   1.443
 4322SOL     OW13417   2.174   2.816   0.272
 4322SOL    HW113418   2.252   2.839   0.222
 4322SOL    HW213419   2.143   2.735   0.232
 4323SOL     OW13420   3.341   2.602   0.725
 4323SOL    HW113421   3.333   2.562   0.812
 4323SOL    HW213422   3.417   2.659   0.733
 4324SOL     OW13423   2.328   3.127   1.737
 4324SOL    HW113424   2.301   3.132   1.646
 4324SOL    HW213425   2.246   3.124   1.787
 4325SOL     OW13426   2.969   3.641   0.227
 4325SOL    HW113427   2.910   3.590   0.281
 4325SOL    HW213428   3.011   3.577   0.170
 4326SOL     OW13429   1.974   2.102   1.505
 4326SOL    HW113430   1.966   2.196   1.493
 4326SOL    HW213431   2.064   2.089   1.533
 4327SOL     OW13432   3.490   3.236   0.089
 4327SOL    HW113433   3.447   3.321   0.077
 4327SOL    HW213434   3.424   3.172   0.060
 4328SOL     OW13435   2.330   3.595   0.327
 4328SOL    HW113436   2.369   3.657   0.389
 4328SOL    HW213437   2.403   3.570   0.269
 4329SOL     OW13438   3.264   1.970   0.432
 4329SOL    HW113439   3.256   1.947   0.339
 4329SOL    HW213440   3.358   1.976   0.447
 4330SOL     OW13441   2.118   3.653   1.232
 4330SOL    HW113442   2.169   3.586   1.277
 4330SOL    HW213443   2.107   3.620   1.143
 4331SOL     OW13444   2.800   3.561   0.899
 4331SOL    HW113445   2.878   3.509   0.920
 4331SOL    HW213446   2.756   3.511   0.830
 4332SOL     OW13447   2.252   2.557   0.467
 4332SOL    HW113448   2.269   2.466   0.442
 4332SOL    HW213449   2.161   2.557   0.496
 4333SOL     OW13450   3.397   2.087   1.725
 4333SOL    HW113451   3.406   2.108   1.818
 4333SOL    HW213452   3.328   2.021   1.722
 4334SOL     OW13453   2.463   1.974   0.118
 4334SOL    HW113454   2.552   1.946   0.143
 4334SOL    HW213455   2.452   1.940   0.029
 4335SOL     OW13456   2.628   2.142   1.755
 4335SOL    HW113457   2.704   2.084   1.754
 4335SOL    HW213458   2.578   2.115   1.832
 4336SOL     OW13459   2.738   3.384   1.194
 4336SOL    HW113460   2.722   3.348   1.107
 4336SOL    HW213461   2.808   3.330   1.230
 4337SOL     OW13462   3.202   2.451   1.432
 4337SOL    HW113463   3.233   2.419   1.517
 4337SOL    HW213464   3.239   2.539   1.424
 4338SOL     OW13465   2.677   3.257   0.940
 4338SOL    HW113466   2.761   3.245   0.896
 4338SOL    HW213467   2.613   3.258   0.869
 4339SOL     OW13468   2.786   2.369   0.902
 4339SOL    HW113469   2.762   2.361   0.810
 4339SOL    HW213470   2.820   2.283   0.926
 4340SOL     OW13471   2.407   1.932   0.500
 4340SOL    HW113472   2.328   1.923   0.554
 4340SOL    HW213473   2.399   2.018   0.460
 4341SOL     OW13474   3.286   3.058   0.029
 4341SOL    HW113475   3.318   2.986   0.084
 4341SOL    HW213476   3.204   3.085   0.069
 4342SOL     OW13477   2.157   1.911   0.191
 4342SOL    HW113478   2.221   1.955   0.136
 4342SOL    HW213479   2.204   1.836   0.228
 4343SOL     OW13480   2.801   2.109   0.460
 4343SOL    HW113481   2.776   2.155   0.380
 4343SOL    HW213482   2.895   2.122   0.467
 4344SOL     OW13483   2.942   2.543   1.458
 4344SOL    HW113484   2.875   2.475   1.464
 4344SOL    HW213485   3.024   2.495   1.452
 4345SOL     OW13486   3.085   3.432   0.794
 4345SOL    HW113487   3.101   3.498   0.727
 4345SOL    HW213488   3.154   3.446   0.859
 4346SOL     OW13489   2.333   3.012   0.735
 4346SOL    HW113490   2.263   2.994   0.798
 4346SOL    HW213491   2.293   2.998   0.650
 4347SOL     OW13492   3.131   3.656   0.607
 4347SOL    HW113493   3.178   3.717   0.551
 4347SOL    HW213494   3.065   3.710   0.651
 4348SOL     OW13495   2.873   2.398   0.040
 4348SOL    HW113496   2.840   2.486   0.022
 4348SOL    HW213497   2.953   2.412   0.090
 4349SOL     OW13498   1.946   2.413   1.392
 4349SOL    HW113499   2.042   2.407   1.393
 4349SOL    HW213500   1.925   2.480   1.457
 4350SOL     OW13501   2.464   2.044   1.147
 4350SOL    HW113502   2.472   1.983   1.220
 4350SOL    HW213503   2.380   2.088   1.161
 4351SOL     OW13504   2.724   2.318   0.640
 4351SOL    HW113505   2.686   2.378   0.576
 4351SOL    HW213506   2.749   2.241   0.589
 4352SOL     OW13507   2.877   1.914   0.752
 4352SOL    HW113508   2.819   1.906   0.676
 4352SOL    HW213509   2.855   1.839   0.808
 4353SOL     OW13510   3.299   3.025   0.857
 4353SOL    HW113511   3.230   2.959   0.856
 4353SOL    HW213512   3.323   3.035   0.765
 4354SOL     OW13513   3.328   2.467   0.976
 4354SOL    HW113514   3.277   2.387   0.980
 4354SOL    HW213515   3.388   2.462   1.051
 4355SOL     OW13516   3.711   2.675   0.378
 4355SOL    HW113517   3.764   2.625   0.440
 4355SOL    HW213518   3.683   2.611   0.313
 4356SOL     OW13519   2.356   3.286   0.171
 4356SOL    HW113520   2.279   3.261   0.223
 4356SOL    HW213521   2.351   3.232   0.093
 4357SOL     OW13522   3.533   3.126   0.647
 4357SOL    HW113523   3.627   3.129   0.660
 4357SOL    HW213524   3.503   3.215   0.667
 4358SOL     OW13525   3.253   2.437   0.081
 4358SOL    HW113526   3.192   2.417   0.152
 4358SOL    HW213527   3.318   2.367   0.084
 4359SOL     OW13528   3.614   3.101   1.572
 4359SOL    HW113529   3.701   3.062   1.569
 4359SOL    HW213530   3.630   3.191   1.601
 4360SOL     OW13531   2.920   3.216   1.334
 4360SOL    HW113532   2.846   3.185   1.385
 4360SOL    HW213533   2.996   3.174   1.375
 4361SOL     OW13534   3.470   3.488   1.654
 4361SOL    HW113535   3.464   3.522   1.565
 4361SOL    HW213536   3.553   3.440   1.656
 4362SOL     OW13537   2.992   3.067   1.105
 4362SOL    HW113538   2.932   3.103   1.170
 4362SOL    HW213539   2.959   3.098   1.021
 4363SOL     OW13540   3.489   2.960   1.078
 4363SOL    HW113541   3.485   3.022   1.150
 4363SOL    HW213542   3.411   2.977   1.026
 4364SOL     OW13543   2.786   1.955   1.396
 4364SOL    HW113544   2.807   1.939   1.304
 4364SOL    HW213545   2.865   1.996   1.432
 4365SOL     OW13546   2.846   2.977   1.722
 4365SOL    HW113547   2.754   2.993   1.744
 4365SOL    HW213548   2.845   2.899   1.667
 4366SOL     OW13549   2.573   2.922   0.373
 4366SOL    HW113550   2.558   2.906   0.466
 4366SOL    HW213551   2.648   2.867   0.350
 4367SOL     OW13552   2.281   2.674   1.251
 4367SOL    HW113553   2.351   2.692   1.313
 4367SOL    HW213554   2.255   2.584   1.270
 4368SOL     OW13555   3.128   2.239   1.275
 4368SOL    HW113556   3.161   2.317   1.321
 4368SOL    HW213557   3.038   2.260   1.253
 4369SOL     OW13558   1.932   3.436   1.354
 4369SOL    HW113559   1.902   3.507   1.298
 4369SOL    HW213560   2.028   3.439   1.347
 4370SOL     OW13561   2.211   2.977   0.495
 4370SOL    HW113562   2.210   3.051   0.434
 4370SOL    HW213563   2.204   2.900   0.439
 4371SOL     OW13564   3.109   3.208   0.395
 4371SOL    HW113565   3.165   3.281   0.422
 4371SOL    HW213566   3.022   3.231   0.427
 4372SOL     OW13567   3.143   3.320   1.147
 4372SOL    HW113568   3.199   3.322   1.225
 4372SOL    HW213569   3.088   3.242   1.159
 4373SOL     OW13570   3.446   2.488   0.477
 4373SOL    HW113571   3.396   2.533   0.546
 4373SOL    HW213572   3.483   2.560   0.424
 4374SOL     OW13573   2.208   3.390   1.314
 4374SOL    HW113574   2.196   3.347   1.230
 4374SOL    HW213575   2.303   3.401   1.322
 4375SOL     OW13576   2.278   2.623   1.600
 4375SOL    HW113577   2.340   2.666   1.541
 4375SOL    HW213578   2.326   2.547   1.634
 4376SOL     OW13579   3.464   2.641   1.682
 4376SOL    HW113580   3.378   2.682   1.675
 4376SOL    HW213581   3.516   2.683   1.614
 4377SOL     OW13582   2.856   1.986   1.752
 4377SOL    HW113583   2.914   2.058   1.727
 4377SOL    HW213584   2.905   1.907   1.729
 4378SOL     OW13585   2.363   1.893   1.749
 4378SOL    HW113586   2.322   1.837   1.684
 4378SOL    HW213587   2.306   1.970   1.754
 4379SOL     OW13588   2.439   2.738   1.026
 4379SOL    HW113589   2.479   2.825   1.025
 4379SOL    HW213590   2.389   2.735   1.107
 4380SOL     OW13591   3.219   2.721   1.029
 4380SOL    HW113592   3.135   2.710   0.985
 4380SOL    HW213593   3.260   2.634   1.023
 4381SOL     OW13594   3.063   2.387   0.270
 4381SOL    HW113595   3.072   2.310   0.327
 4381SOL    HW213596   3.021   2.453   0.325
 4382SOL     OW13597   1.910   3.173   1.276
 4382SOL    HW113598   1.941   3.118   1.349
 4382SOL    HW213599   1.915   3.262   1.310
 4383SOL     OW13600   2.594   2.505   1.066
 4383SOL    HW113601   2.647   2.472   0.993
 4383SOL    HW213602   2.548   2.581   1.030
 4384SOL     OW13603   3.597   2.822   1.853
 4384SOL    HW113604   3.551   2.759   1.796
 4384SOL    HW213605   3.537   2.835   1.926
 4385SOL     OW13606   2.163   1.917   0.634
 4385SOL    HW113607   2.119   1.998   0.661
 4385SOL    HW213608   2.173   1.867   0.715
 4386SOL     OW13609   3.480   2.237   0.365
 4386SOL    HW113610   3.506   2.172   0.430
 4386SOL    HW213611   3.456   2.314   0.417
 4387SOL     OW13612   2.891   2.619   0.960
 4387SOL    HW113613   2.887   2.639   1.053
 4387SOL    HW213614   2.858   2.530   0.953
 4388SOL     OW13615   2.844   3.428   1.717
 4388SOL    HW113616   2.829   3.472   1.634
 4388SOL    HW213617   2.887   3.346   1.694
 4389SOL     OW13618   3.716   3.368   1.606
 4389SOL    HW113619   3.735   3.394   1.515
 4389SOL    HW213620   3.798   3.386   1.653
 4390SOL     OW13621   2.218   2.786   1.811
 4390SOL    HW113622   2.301   2.800   1.856
 4390SOL    HW213623   2.239   2.729   1.738
 4391SOL     OW13624   3.396   2.154   0.115
 4391SOL    HW113625   3.338   2.080   0.131
 4391SOL    HW213626   3.429   2.177   0.202
 4392SOL     OW13627   3.148   2.683   0.031
 4392SOL    HW113628   3.193   2.600   0.043
 4392SOL    HW213629   3.188   2.721  11.053
 4393SOL     OW13630   2.927   3.198   0.854
 4393SOL    HW113631   2.931   3.125   0.791
 4393SOL    HW213632   2.989   3.262   0.819
 4394SOL     OW13633   2.172   2.679   0.943
 4394SOL    HW113634   2.265   2.701   0.933
 4394SOL    HW213635   2.171   2.598   0.994
 4395SOL     OW13636   2.996   2.238   1.681
 4395SOL    HW113637   2.948   2.293   1.745
 4395SOL    HW213638   3.084   2.277   1.678
 4396SOL     OW13639   3.025   2.065   1.470
 4396SOL    HW113640   3.013   2.128   1.542
 4396SOL    HW213641   3.064   2.116   1.399
 4397SOL     OW13642   1.870   3.189   0.195
 4397SOL    HW113643   1.783   3.201   0.156
 4397SOL    HW213644   1.870   3.099   0.226
 4398SOL     OW13645   1.952   3.649   0.939
 4398SOL    HW113646   1.922   3.570   0.895
 4398SOL    HW213647   2.042   3.661   0.907
 4399SOL     OW13648   2.358   3.436   0.906
 4399SOL    HW113649   2.427   3.498   0.930
 4399SOL    HW213650   2.402   3.373   0.849
 4400SOL     OW13651   2.845   2.658   1.226
 4400SOL    HW113652   2.897   2.632   1.302
 4400SOL    HW213653   2.761   2.614   1.237
 4401SOL     OW13654   1.901   2.424   1.118
 4401SOL    HW113655   1.941   2.349   1.075
 4401SOL    HW213656   1.922   2.412   1.211
 4402SOL     OW13657   3.239   2.801   1.658
 4402SOL    HW113658   3.260   2.894   1.656
 4402SOL    HW213659   3.237   2.774   1.566
 4403SOL     OW13660   2.676   2.434   0.369
 4403SOL    HW113661   2.684   2.362   0.306
 4403SOL    HW213662   2.603   2.486   0.337
 4404SOL     OW13663   3.504   2.463   1.186
 4404SOL    HW113664   3.494   2.404   1.260
 4404SOL    HW213665   3.591   2.444   1.151
 4405SOL     OW13666   2.106   3.413   1.727
 4405SOL    HW113667   2.082   3.478   1.794
 4405SOL    HW213668   2.107   3.330   1.774
 4406SOL     OW13669   2.578   2.313   1.253
 4406SOL    HW113670   2.535   2.238   1.213
 4406SOL    HW213671   2.575   2.382   1.186
 4407SOL     OW13672   2.789   3.541   1.468
 4407SOL    HW113673   2.764   3.506   1.383
 4407SOL    HW213674   2.784   3.636   1.457
 4408SOL     OW13675   2.008   3.003   1.474
 4408SOL    HW113676   2.009   2.950   1.554
 4408SOL    HW213677   2.024   2.939   1.404
 4409SOL     OW13678   3.188   2.909   1.223
 4409SOL    HW113679   3.211   2.846   1.155
 4409SOL    HW213680   3.118   2.961   1.184
 4410SOL     OW13681   3.170   2.713   0.310
 4410SOL    HW113682   3.094   2.683   0.358
 4410SOL    HW213683   3.148   2.700   0.218
 4411SOL     OW13684   3.636   3.605   1.151
 4411SOL    HW113685   3.695   3.632   1.081
 4411SOL    HW213686   3.610   3.516   1.129
 4412SOL     OW13687   3.103   3.595   1.113
 4412SOL    HW113688   3.185   3.616   1.068
 4412SOL    HW213689   3.109   3.501   1.131
 4413SOL     OW13690   1.945   3.129   1.012
 4413SOL    HW113691   1.931   3.142   1.106
 4413SOL    HW213692   1.872   3.075   0.984
 4414SOL     OW13693   2.540   3.528   1.730
 4414SOL    HW113694   2.485   3.607   1.724
 4414SOL    HW213695   2.605   3.540   1.661
 4415SOL     OW13696   2.781   1.955   0.108
 4415SOL    HW113697   2.828   1.917   0.033
 4415SOL    HW213698   2.820   1.912   0.184
 4416SOL     OW13699   3.580   2.009   0.509
 4416SOL    HW113700   3.653   1.995   0.449
 4416SOL    HW213701   3.565   1.923   0.549
 4417SOL     OW13702   3.252   3.430   0.485
 4417SOL    HW113703   3.313   3.462   0.419
 4417SOL    HW213704   3.205   3.508   0.514
 4418SOL     OW13705   1.999   3.657   1.843
 4418SOL    HW113706   1.948   3.593   1.891
 4418SOL    HW213707   2.045   3.707   1.910
 4419SOL     OW13708   3.139   2.787   0.671
 4419SOL    HW113709   3.213   2.726   0.677
 4419SOL    HW213710   3.173   2.860   0.618
 4420SOL     OW13711   2.676   3.136   1.429
 4420SOL    HW113712   2.648   3.175   1.512
 4420SOL    HW213713   2.606   3.158   1.367
 4421SOL     OW13714   2.536   3.484   0.168
 4421SOL    HW113715   2.550   3.492   0.074
 4421SOL    HW213716   2.479   3.408   0.177
 4422SOL     OW13717   3.488   3.588   1.391
 4422SOL    HW113718   3.538   3.595   1.310
 4422SOL    HW213719   3.474   3.679   1.419
 4423SOL     OW13720   3.703   2.034   0.967
 4423SOL    HW113721   3.732   1.948   0.940
 4423SOL    HW213722   3.616   2.044   0.927
 4424SOL     OW13723   3.085   3.464   0.053
 4424SOL    HW113724   3.072   3.371   0.073
 4424SOL    HW213725   3.020   3.483  11.085
 4425SOL     OW13726   2.686   2.869   1.373
 4425SOL    HW113727   2.732   2.862   1.289
 4425SOL    HW213728   2.687   2.962   1.393
 4426SOL     OW13729   2.776   2.769   0.281
 4426SOL    HW113730   2.842   2.809   0.224
 4426SOL    HW213731   2.825   2.705   0.333
 4427SOL     OW13732   3.361   3.484   0.047
 4427SOL    HW113733   3.265   3.478   0.045
 4427SOL    HW213734   3.386   3.498  11.056
 4428SOL     OW13735   2.231   3.165   1.491
 4428SOL    HW113736   2.217   3.242   1.436
 4428SOL    HW213737   2.154   3.110   1.476
 4429SOL     OW13738   3.473   3.145   1.281
 4429SOL    HW113739   3.532   3.133   1.355
 4429SOL    HW213740   3.412   3.214   1.308
 4430SOL     OW13741   2.915   2.969   0.706
 4430SOL    HW113742   2.844   2.918   0.746
 4430SOL    HW213743   2.978   2.903   0.676
 4431SOL     OW13744   2.884   2.102   0.966
 4431SOL    HW113745   2.880   2.054   0.883
 4431SOL    HW213746   2.878   2.034   1.033
 4432SOL     OW13747   2.465   3.353   0.482
 4432SOL    HW113748   2.506   3.301   0.413
 4432SOL    HW213749   2.395   3.400   0.438
 4433SOL     OW13750   3.584   2.254   1.380
 4433SOL    HW113751   3.656   2.317   1.379
 4433SOL    HW213752   3.614   2.183   1.324
 4434SOL     OW13753   2.129   3.198   0.292
 4434SOL    HW113754   2.041   3.201   0.253
 4434SOL    HW213755   2.118   3.239   0.378
 4435SOL     OW13756   1.974   2.884   1.720
 4435SOL    HW113757   1.897   2.860   1.772
 4435SOL    HW213758   2.048   2.847   1.769
 4436SOL     OW13759   2.546   2.043   1.498
 4436SOL    HW113760   2.632   2.025   1.461
 4436SOL    HW213761   2.564   2.085   1.582
 4437SOL     OW13762   1.926   2.208   0.072
 4437SOL    HW113763   1.863   2.187   0.003
 4437SOL    HW213764   2.002   2.242   0.026
 4438SOL     OW13765   3.292   2.720   1.400
 4438SOL    HW113766   3.243   2.781   1.345
 4438SOL    HW213767   3.381   2.722   1.366
 4439SOL     OW13768   1.933   2.020   0.307
 4439SOL    HW113769   1.912   2.095   0.251
 4439SOL    HW213770   2.013   1.984   0.270
 4440SOL     OW13771   3.045   3.201   0.122
 4440SOL    HW113772   2.951   3.184   0.115
 4440SOL    HW213773   3.063   3.194   0.216
 4441SOL     OW13774   2.483   2.694   1.429
 4441SOL    HW113775   2.539   2.771   1.416
 4441SOL    HW213776   2.544   2.621   1.438
 4442SOL     OW13777   3.345   3.639   0.979
 4442SOL    HW113778   3.369   3.699   0.908
 4442SOL    HW213779   3.428   3.619   1.022
 4443SOL     OW13780   2.579   2.425   1.703
 4443SOL    HW113781   2.620   2.488   1.762
 4443SOL    HW213782   2.605   2.339   1.737
 4444SOL     OW13783   3.333   3.062   1.632
 4444SOL    HW113784   3.321   3.075   1.726
 4444SOL    HW213785   3.427   3.077   1.617
 4445SOL     OW13786   2.241   3.601   1.565
 4445SOL    HW113787   2.156   3.643   1.550
 4445SOL    HW213788   2.219   3.518   1.606
 4446SOL     OW13789   3.531   2.743   1.256
 4446SOL    HW113790   3.525   2.658   1.213
 4446SOL    HW213791   3.521   2.806   1.184
 4447SOL     OW13792   3.077   2.179   0.460
 4447SOL    HW113793   3.142   2.109   0.450
 4447SOL    HW213794   3.107   2.228   0.536
 4448SOL     OW13795   2.455   2.603   0.656
 4448SOL    HW113796   2.492   2.691   0.646
 4448SOL    HW213797   2.384   2.599   0.593
 4449SOL     OW13798   3.624   2.224   1.650
 4449SOL    HW113799   3.607   2.239   1.557
 4449SOL    HW213800   3.552   2.167   1.679
 4450SOL     OW13801   3.608   2.796   1.512
 4450SOL    HW113802   3.603   2.890   1.525
 4450SOL    HW213803   3.592   2.783   1.418
 4451SOL     OW13804   2.767   3.218   0.069
 4451SOL    HW113805   2.697   3.216   0.135
 4451SOL    HW213806   2.752   3.299   0.021
 4452SOL     OW13807   2.523   3.653   0.945
 4452SOL    HW113808   2.503   3.743   0.921
 4452SOL    HW213809   2.618   3.646   0.937
 4453SOL     OW13810   2.730   2.829   0.855
 4453SOL    HW113811   2.778   2.756   0.894
 4453SOL    HW213812   2.695   2.878   0.930
 4454SOL     OW13813   2.941   2.852   0.085
 4454SOL    HW113814   2.917   2.887  11.099
 4454SOL    HW213815   3.017   2.796   0.067
 4455SOL     OW13816   3.716   3.417   0.845
 4455SOL    HW113817   3.639   3.405   0.790
 4455SOL    HW213818   3.709   3.349   0.911
 4456SOL     OW13819   2.087   3.165   1.855
 4456SOL    HW113820   2.020   3.103   1.824
 4456SOL    HW213821   2.066   3.178   1.948
 4457SOL     OW13822   1.945   3.096   0.666
 4457SOL    HW113823   1.951   3.046   0.748
 4457SOL    HW213824   2.015   3.059   0.611
 4458SOL     OW13825   2.543   3.265   1.627
 4458SOL    HW113826   2.463   3.222   1.658
 4458SOL    HW213827   2.539   3.353   1.665
 4459SOL     OW13828   3.675   2.046   1.238
 4459SOL    HW113829   3.684   1.952   1.252
 4459SOL    HW213830   3.684   2.057   1.143
 4460SOL     OW13831   3.561   3.352   1.097
 4460SOL    HW113832   3.481   3.328   1.050
 4460SOL    HW213833   3.572   3.281   1.161
 4461SOL     OW13834   2.689   3.440   0.678
 4461SOL    HW113835   2.675   3.492   0.599
 4461SOL    HW213836   2.613   3.382   0.682
 4462SOL     OW13837   3.294   2.088   1.118
 4462SOL    HW113838   3.318   2.007   1.164
 4462SOL    HW213839   3.242   2.137   1.181
 4463SOL     OW13840   2.872   1.880   1.141
 4463SOL    HW113841   2.818   1.812   1.102
 4463SOL    HW213842   2.960   1.843   1.143
 4464SOL     OW13843   2.630   3.190   0.316
 4464SOL    HW113844   2.601   3.100   0.330
 4464SOL    HW213845   2.714   3.195   0.362
 4465SOL     OW13846   2.482   3.418   1.285
 4465SOL    HW113847   2.484   3.500   1.335
 4465SOL    HW213848   2.569   3.411   1.247
 4466SOL     OW13849   3.213   1.917   0.164
 4466SOL    HW113850   3.235   1.865   0.087
 4466SOL    HW213851   3.126   1.886   0.190
 4467SOL     OW13852   3.158   2.323   0.680
 4467SOL    HW113853   3.106   2.403   0.688
 4467SOL    HW213854   3.154   2.284   0.768
 4468SOL     OW13855   3.448   2.063   0.878
 4468SOL    HW113856   3.388   2.084   0.950
 4468SOL    HW213857   3.448   2.142   0.823
 4469SOL     OW13858   1.904   2.932   0.302
 4469SOL    HW113859   1.999   2.925   0.295
 4469SOL    HW213860   1.876   2.844   0.328
 4470SOL     OW13861   2.747   3.516   0.347
 4470SOL    HW113862   2.675   3.496   0.288
 4470SOL    HW213863   2.716   3.590   0.399
 4471SOL     OW13864   2.078   2.534   1.991
 4471SOL    HW113865   1.991   2.504   2.020
 4471SOL    HW213866   2.102   2.473   1.921
 4472SOL     OW13867   1.998   2.146   2.939
 4472SOL    HW113868   2.059   2.082   2.977
 4472SOL    HW213869   1.935   2.093   2.891
 4473SOL     OW13870   1.854   2.246   2.491
 4473SOL    HW113871   1.774   2.269   2.538
 4473SOL    HW213872   1.836   2.160   2.455
 4474SOL     OW13873   2.428   3.150   3.037
 4474SOL    HW113874   2.341   3.154   2.998
 4474SOL    HW213875   2.444   3.238   3.071
 4475SOL     OW13876   3.424   3.374   2.569
 4475SOL    HW113877   3.381   3.353   2.652
 4475SOL    HW213878   3.352   3.378   2.506
 4476SOL     OW13879   2.993   2.560   2.560
 4476SOL    HW113880   3.041   2.642   2.550
 4476SOL    HW213881   2.946   2.570   2.643
 4477SOL     OW13882   3.631   2.467   2.090
 4477SOL    HW113883   3.609   2.459   1.997
 4477SOL    HW213884   3.593   2.388   2.130
 4478SOL     OW13885   2.616   3.003   2.902
 4478SOL    HW113886   2.547   3.038   2.959
 4478SOL    HW213887   2.652   3.080   2.858
 4479SOL     OW13888   2.729   2.637   3.684
 4479SOL    HW113889   2.717   2.707   3.748
 4479SOL    HW213890   2.753   2.682   3.603
 4480SOL     OW13891   2.548   2.864   2.509
 4480SOL    HW113892   2.614   2.853   2.578
 4480SOL    HW213893   2.480   2.919   2.549
 4481SOL     OW13894   2.572   3.012   3.674
 4481SOL    HW113895   2.620   3.091   3.701
 4481SOL    HW213896   2.490   3.046   3.639
 4482SOL     OW13897   2.193   3.286   2.930
 4482SOL    HW113898   2.120   3.249   2.880
 4482SOL    HW213899   2.242   3.337   2.865
 4483SOL     OW13900   3.323   3.361   3.217
 4483SOL    HW113901   3.373   3.442   3.226
 4483SOL    HW213902   3.260   3.364   3.289
 4484SOL     OW13903   3.473   2.310   2.602
 4484SOL    HW113904   3.397   2.331   2.548
 4484SOL    HW213905   3.487   2.387   2.657
 4485SOL     OW13906   2.081   3.576   2.334
 4485SOL    HW113907   2.103   3.652   2.388
 4485SOL    HW213908   2.154   3.569   2.272
 4486SOL     OW13909   2.998   3.204   3.555
 4486SOL    HW113910   3.039   3.199   3.641
 4486SOL    HW213911   2.946   3.124   3.548
 4487SOL     OW13912   2.093   3.303   2.398
 4487SOL    HW113913   2.075   3.397   2.401
 4487SOL    HW213914   2.032   3.265   2.461
 4488SOL     OW13915   2.122   2.957   2.753
 4488SOL    HW113916   2.115   2.868   2.790
 4488SOL    HW213917   2.061   3.009   2.805
 4489SOL     OW13918   2.473   3.653   3.292
 4489SOL    HW113919   2.391   3.635   3.338
 4489SOL    HW213920   2.496   3.742   3.317
 4490SOL     OW13921   2.449   2.842   1.992
 4490SOL    HW113922   2.495   2.894   1.925
 4490SOL    HW213923   2.487   2.872   2.075
 4491SOL     OW13924   3.458   1.985   3.330
 4491SOL    HW113925   3.465   2.066   3.279
 4491SOL    HW213926   3.443   2.015   3.420
 4492SOL     OW13927   1.968   2.505   2.422
 4492SOL    HW113928   1.938   2.418   2.446
 4492SOL    HW213929   1.965   2.555   2.504
 4493SOL     OW13930   3.704   3.621   2.196
 4493SOL    HW113931   3.768   3.593   2.262
 4493SOL    HW213932   3.728   3.712   2.178
 4494SOL     OW13933   1.895   3.456   1.986
 4494SOL    HW113934   1.876   3.365   2.006
 4494SOL    HW213935   1.870   3.504   2.065
 4495SOL     OW13936   3.552   2.781   2.504
 4495SOL    HW113937   3.635   2.739   2.484
 4495SOL    HW213938   3.530   2.831   2.425
 4496SOL     OW13939   3.508   2.968   2.291
 4496SOL    HW113940   3.594   2.974   2.249
 4496SOL    HW213941   3.513   3.030   2.364
 4497SOL     OW13942   1.984   2.599   3.445
 4497SOL    HW113943   2.074   2.618   3.473
 4497SOL    HW213944   1.936   2.680   3.461
 4498SOL     OW13945   2.476   3.248   2.597
 4498SOL    HW113946   2.430   3.165   2.607
 4498SOL    HW213947   2.459   3.275   2.507
 4499SOL     OW13948   3.151   3.100   3.285
 4499SOL    HW113949   3.182   3.033   3.225
 4499SOL    HW213950   3.208   3.094   3.361
 4500SOL     OW13951   2.670   1.863   2.366
 4500SOL    HW113952   2.713   1.947   2.349
 4500SOL    HW213953   2.577   1.885   2.375
 4501SOL     OW13954   2.051   2.829   3.134
 4501SOL    HW113955   2.135   2.789   3.113
 4501SOL    HW213956   1.987   2.776   3.086
 4502SOL     OW13957   3.394   2.856   2.061
 4502SOL    HW113958   3.324   2.799   2.092
 4502SOL    HW213959   3.434   2.890   2.140
 4503SOL     OW13960   3.047   3.669   3.484
 4503SOL    HW113961   3.057   3.728   3.410
 4503SOL    HW213962   3.064   3.581   3.449
 4504SOL     OW13963   3.329   3.282   2.813
 4504SOL    HW113964   3.260   3.297   2.879
 4504SOL    HW213965   3.316   3.191   2.786
 4505SOL     OW13966   3.520   3.602   2.440
 4505SOL    HW113967   3.500   3.572   2.351
 4505SOL    HW213968   3.496   3.528   2.496
 4506SOL     OW13969   2.464   2.587   2.131
 4506SOL    HW113970   2.479   2.656   2.066
 4506SOL    HW213971   2.379   2.609   2.169
 4507SOL     OW13972   3.142   2.215   2.794
 4507SOL    HW113973   3.052   2.183   2.803
 4507SOL    HW213974   3.192   2.161   2.855
 4508SOL     OW13975   3.442   3.532   2.171
 4508SOL    HW113976   3.533   3.564   2.164
 4508SOL    HW213977   3.416   3.515   2.081
 4509SOL     OW13978   2.647   2.466   3.308
 4509SOL    HW113979   2.632   2.457   3.402
 4509SOL    HW213980   2.596   2.395   3.269
 4510SOL     OW13981   3.255   2.336   3.540
 4510SOL    HW113982   3.258   2.380   3.625
 4510SOL    HW213983   3.316   2.262   3.549
 4511SOL     OW13984   2.816   2.748   3.444
 4511SOL    HW113985   2.871   2.679   3.407
 4511SOL    HW213986   2.769   2.784   3.369
 4512SOL     OW13987   2.862   2.271   3.099
 4512SOL    HW113988   2.782   2.313   3.130
 4512SOL    HW213989   2.838   2.233   3.014
 4513SOL     OW13990   2.912   2.560   2.288
 4513SOL    HW113991   2.929   2.553   2.382
 4513SOL    HW213992   2.829   2.513   2.276
 4514SOL     OW13993   1.950   2.684   2.636
 4514SOL    HW113994   2.031   2.679   2.687
 4514SOL    HW213995   1.904   2.760   2.671
 4515SOL     OW13996   1.989   3.712   3.440
 4515SOL    HW113997   1.990   3.690   3.533
 4515SOL    HW213998   1.898   3.700   3.414
 4516SOL     OW13999   2.757   2.213   2.059
 4516SOL    HW114000   2.798   2.271   1.996
 4516SOL    HW214001   2.756   2.127   2.015
 4517SOL     OW14002   3.571   2.436   3.690
 4517SOL    HW114003   3.533   2.510   3.642
 4517SOL    HW214004   3.598   2.375   3.622
 4518SOL     OW14005   3.239   3.004   2.403
 4518SOL    HW114006   3.318   2.991   2.350
 4518SOL    HW214007   3.186   3.066   2.353
 4519SOL     OW14008   2.439   2.028   2.733
 4519SOL    HW114009   2.443   2.041   2.827
 4519SOL    HW214010   2.441   2.117   2.697
 4520SOL     OW14011   2.867   3.306   2.334
 4520SOL    HW114012   2.830   3.379   2.285
 4520SOL    HW214013   2.850   3.327   2.425
 4521SOL     OW14014   2.216   3.671   2.724
 4521SOL    HW114015   2.260   3.586   2.732
 4521SOL    HW214016   2.285   3.735   2.743
 4522SOL     OW14017   3.660   2.921   2.730
 4522SOL    HW114018   3.606   2.901   2.654
 4522SOL    HW214019   3.598   2.925   2.803
 4523SOL     OW14020   3.090   3.401   3.375
 4523SOL    HW114021   3.076   3.328   3.436
 4523SOL    HW214022   3.026   3.386   3.305
 4524SOL     OW14023   2.189   2.804   2.118
 4524SOL    HW114024   2.263   2.828   2.063
 4524SOL    HW214025   2.147   2.731   2.071
 4525SOL     OW14026   3.341   2.605   2.588
 4525SOL    HW114027   3.331   2.562   2.673
 4525SOL    HW214028   3.418   2.660   2.598
 4526SOL     OW14029   2.328   3.127   3.599
 4526SOL    HW114030   2.301   3.132   3.508
 4526SOL    HW214031   2.246   3.124   3.649
 4527SOL     OW14032   2.984   3.640   2.093
 4527SOL    HW114033   2.911   3.598   2.138
 4527SOL    HW214034   3.007   3.578   2.023
 4528SOL     OW14035   1.977   2.091   3.359
 4528SOL    HW114036   1.936   2.177   3.368
 4528SOL    HW214037   2.000   2.066   3.449
 4529SOL     OW14038   3.491   3.242   1.950
 4529SOL    HW114039   3.449   3.327   1.935
 4529SOL    HW214040   3.422   3.178   1.931
 4530SOL     OW14041   2.328   3.599   2.183
 4530SOL    HW114042   2.370   3.656   2.247
 4530SOL    HW214043   2.399   3.568   2.127
 4531SOL     OW14044   3.263   1.970   2.295
 4531SOL    HW114045   3.253   1.945   2.203
 4531SOL    HW214046   3.358   1.976   2.308
 4532SOL     OW14047   2.118   3.653   3.094
 4532SOL    HW114048   2.169   3.586   3.139
 4532SOL    HW214049   2.107   3.619   3.005
 4533SOL     OW14050   2.800   3.561   2.761
 4533SOL    HW114051   2.878   3.509   2.782
 4533SOL    HW214052   2.756   3.511   2.692
 4534SOL     OW14053   3.397   2.087   3.587
 4534SOL    HW114054   3.406   2.108   3.680
 4534SOL    HW214055   3.328   2.020   3.585
 4535SOL     OW14056   2.507   1.994   1.959
 4535SOL    HW114057   2.562   1.925   1.996
 4535SOL    HW214058   2.455   1.950   1.892
 4536SOL     OW14059   2.630   2.140   3.617
 4536SOL    HW114060   2.706   2.082   3.616
 4536SOL    HW214061   2.581   2.112   3.695
 4537SOL     OW14062   2.738   3.383   3.056
 4537SOL    HW114063   2.722   3.347   2.969
 4537SOL    HW214064   2.808   3.330   3.092
 4538SOL     OW14065   3.200   2.453   3.295
 4538SOL    HW114066   3.233   2.420   3.379
 4538SOL    HW214067   3.239   2.540   3.287
 4539SOL     OW14068   2.677   3.256   2.802
 4539SOL    HW114069   2.762   3.245   2.758
 4539SOL    HW214070   2.613   3.258   2.731
 4540SOL     OW14071   2.801   2.368   2.774
 4540SOL    HW114072   2.759   2.367   2.688
 4540SOL    HW214073   2.829   2.278   2.788
 4541SOL     OW14074   2.399   1.938   2.363
 4541SOL    HW114075   2.358   1.943   2.449
 4541SOL    HW214076   2.380   2.023   2.323
 4542SOL     OW14077   3.290   3.060   1.903
 4542SOL    HW114078   3.320   2.985   1.953
 4542SOL    HW214079   3.205   3.081   1.940
 4543SOL     OW14080   2.799   2.107   2.319
 4543SOL    HW114081   2.776   2.149   2.236
 4543SOL    HW214082   2.894   2.120   2.327
 4544SOL     OW14083   2.940   2.541   3.319
 4544SOL    HW114084   2.877   2.469   3.327
 4544SOL    HW214085   3.025   2.498   3.313
 4545SOL     OW14086   3.085   3.432   2.656
 4545SOL    HW114087   3.101   3.499   2.589
 4545SOL    HW214088   3.154   3.446   2.721
 4546SOL     OW14089   2.332   3.011   2.594
 4546SOL    HW114090   2.262   2.994   2.657
 4546SOL    HW214091   2.291   2.995   2.509
 4547SOL     OW14092   3.131   3.656   2.470
 4547SOL    HW114093   3.177   3.717   2.413
 4547SOL    HW214094   3.065   3.709   2.514
 4548SOL     OW14095   2.886   2.404   1.884
 4548SOL    HW114096   2.843   2.487   1.865
 4548SOL    HW214097   2.951   2.425   1.952
 4549SOL     OW14098   1.938   2.421   3.249
 4549SOL    HW114099   2.032   2.405   3.246
 4549SOL    HW214100   1.926   2.487   3.318
 4550SOL     OW14101   2.436   2.030   3.004
 4550SOL    HW114102   2.457   1.974   3.078
 4550SOL    HW214103   2.357   2.078   3.032
 4551SOL     OW14104   2.737   2.318   2.500
 4551SOL    HW114105   2.691   2.375   2.438
 4551SOL    HW214106   2.757   2.239   2.450
 4552SOL     OW14107   2.879   1.914   2.613
 4552SOL    HW114108   2.819   1.908   2.539
 4552SOL    HW214109   2.857   1.839   2.668
 4553SOL     OW14110   3.299   3.025   2.719
 4553SOL    HW114111   3.230   2.958   2.719
 4553SOL    HW214112   3.323   3.035   2.627
 4554SOL     OW14113   3.328   2.468   2.838
 4554SOL    HW114114   3.277   2.387   2.841
 4554SOL    HW214115   3.388   2.461   2.913
 4555SOL     OW14116   3.708   2.678   2.245
 4555SOL    HW114117   3.764   2.627   2.303
 4555SOL    HW214118   3.679   2.615   2.178
 4556SOL     OW14119   2.352   3.280   2.019
 4556SOL    HW114120   2.277   3.251   2.071
 4556SOL    HW214121   2.338   3.241   1.933
 4557SOL     OW14122   3.533   3.126   2.507
 4557SOL    HW114123   3.627   3.129   2.521
 4557SOL    HW214124   3.503   3.215   2.529
 4558SOL     OW14125   3.256   2.434   1.934
 4558SOL    HW114126   3.195   2.415   2.005
 4558SOL    HW214127   3.340   2.401   1.965
 4559SOL     OW14128   3.614   3.101   3.434
 4559SOL    HW114129   3.701   3.062   3.431
 4559SOL    HW214130   3.629   3.191   3.463
 4560SOL     OW14131   2.920   3.216   3.196
 4560SOL    HW114132   2.846   3.185   3.247
 4560SOL    HW214133   2.996   3.174   3.237
 4561SOL     OW14134   3.470   3.488   3.516
 4561SOL    HW114135   3.464   3.522   3.427
 4561SOL    HW214136   3.552   3.440   3.518
 4562SOL     OW14137   2.992   3.067   2.967
 4562SOL    HW114138   2.932   3.104   3.032
 4562SOL    HW214139   2.959   3.098   2.883
 4563SOL     OW14140   3.489   2.960   2.940
 4563SOL    HW114141   3.485   3.022   3.012
 4563SOL    HW214142   3.410   2.977   2.888
 4564SOL     OW14143   2.785   1.957   3.259
 4564SOL    HW114144   2.805   1.939   3.167
 4564SOL    HW214145   2.865   1.996   3.294
 4565SOL     OW14146   2.846   2.976   3.584
 4565SOL    HW114147   2.754   2.993   3.606
 4565SOL    HW214148   2.844   2.899   3.528
 4566SOL     OW14149   2.570   2.923   2.232
 4566SOL    HW114150   2.557   2.907   2.326
 4566SOL    HW214151   2.646   2.869   2.209
 4567SOL     OW14152   2.282   2.676   3.113
 4567SOL    HW114153   2.353   2.694   3.175
 4567SOL    HW214154   2.241   2.596   3.146
 4568SOL     OW14155   3.131   2.238   3.138
 4568SOL    HW114156   3.161   2.317   3.184
 4568SOL    HW214157   3.041   2.257   3.114
 4569SOL     OW14158   1.932   3.435   3.215
 4569SOL    HW114159   1.902   3.508   3.160
 4569SOL    HW214160   2.028   3.439   3.209
 4570SOL     OW14161   2.213   2.969   2.349
 4570SOL    HW114162   2.216   3.047   2.293
 4570SOL    HW214163   2.208   2.896   2.287
 4571SOL     OW14164   2.521   2.437   2.707
 4571SOL    HW114165   2.495   2.483   2.627
 4571SOL    HW214166   2.473   2.481   2.777
 4572SOL     OW14167   3.110   3.210   2.251
 4572SOL    HW114168   3.166   3.282   2.282
 4572SOL    HW214169   3.023   3.232   2.285
 4573SOL     OW14170   3.143   3.320   3.009
 4573SOL    HW114171   3.199   3.322   3.087
 4573SOL    HW214172   3.088   3.242   3.021
 4574SOL     OW14173   3.443   2.485   2.341
 4574SOL    HW114174   3.396   2.537   2.406
 4574SOL    HW214175   3.487   2.550   2.286
 4575SOL     OW14176   2.208   3.390   3.176
 4575SOL    HW114177   2.196   3.346   3.092
 4575SOL    HW214178   2.303   3.401   3.184
 4576SOL     OW14179   2.280   2.609   3.461
 4576SOL    HW114180   2.344   2.657   3.408
 4576SOL    HW214181   2.318   2.522   3.471
 4577SOL     OW14182   3.464   2.641   3.544
 4577SOL    HW114183   3.378   2.682   3.537
 4577SOL    HW214184   3.516   2.683   3.476
 4578SOL     OW14185   2.858   1.986   3.615
 4578SOL    HW114186   2.915   2.057   3.588
 4578SOL    HW214187   2.905   1.906   3.591
 4579SOL     OW14188   2.357   1.902   3.610
 4579SOL    HW114189   2.319   1.843   3.545
 4579SOL    HW214190   2.295   1.974   3.617
 4580SOL     OW14191   2.441   2.729   2.888
 4580SOL    HW114192   2.479   2.816   2.883
 4580SOL    HW214193   2.390   2.730   2.969
 4581SOL     OW14194   3.219   2.721   2.891
 4581SOL    HW114195   3.135   2.710   2.846
 4581SOL    HW214196   3.260   2.634   2.885
 4582SOL     OW14197   3.066   2.391   2.129
 4582SOL    HW114198   3.074   2.312   2.183
 4582SOL    HW214199   3.023   2.455   2.185
 4583SOL     OW14200   1.911   3.173   3.138
 4583SOL    HW114201   1.942   3.118   3.211
 4583SOL    HW214202   1.915   3.262   3.172
 4584SOL     OW14203   2.621   2.518   2.962
 4584SOL    HW114204   2.653   2.468   2.887
 4584SOL    HW214205   2.573   2.591   2.924
 4585SOL     OW14206   3.597   2.822   3.715
 4585SOL    HW114207   3.551   2.759   3.658
 4585SOL    HW214208   3.537   2.835   3.788
 4586SOL     OW14209   3.479   2.237   2.228
 4586SOL    HW114210   3.506   2.172   2.294
 4586SOL    HW214211   3.456   2.315   2.279
 4587SOL     OW14212   2.892   2.622   2.822
 4587SOL    HW114213   2.887   2.641   2.915
 4587SOL    HW214214   2.861   2.532   2.814
 4588SOL     OW14215   2.844   3.428   3.579
 4588SOL    HW114216   2.829   3.472   3.496
 4588SOL    HW214217   2.887   3.346   3.556
 4589SOL     OW14218   3.716   3.368   3.467
 4589SOL    HW114219   3.735   3.394   3.377
 4589SOL    HW214220   3.798   3.386   3.515
 4590SOL     OW14221   2.218   2.782   3.667
 4590SOL    HW114222   2.299   2.797   3.717
 4590SOL    HW214223   2.243   2.719   3.599
 4591SOL     OW14224   3.391   2.135   1.989
 4591SOL    HW114225   3.326   2.070   2.016
 4591SOL    HW214226   3.424   2.171   2.072
 4592SOL     OW14227   3.153   2.688   1.893
 4592SOL    HW114228   3.196   2.603   1.897
 4592SOL    HW214229   3.185   2.727   1.811
 4593SOL     OW14230   2.927   3.198   2.716
 4593SOL    HW114231   2.931   3.125   2.653
 4593SOL    HW214232   2.989   3.262   2.681
 4594SOL     OW14233   2.170   2.681   2.806
 4594SOL    HW114234   2.264   2.698   2.803
 4594SOL    HW214235   2.162   2.597   2.852
 4595SOL     OW14236   2.995   2.240   3.543
 4595SOL    HW114237   2.949   2.294   3.607
 4595SOL    HW214238   3.084   2.277   3.540
 4596SOL     OW14239   3.025   2.065   3.332
 4596SOL    HW114240   3.013   2.128   3.403
 4596SOL    HW214241   3.065   2.115   3.261
 4597SOL     OW14242   1.867   3.182   2.056
 4597SOL    HW114243   1.781   3.197   2.019
 4597SOL    HW214244   1.863   3.093   2.091
 4598SOL     OW14245   1.952   3.648   2.800
 4598SOL    HW114246   1.922   3.569   2.756
 4598SOL    HW214247   2.042   3.661   2.769
 4599SOL     OW14248   2.358   3.436   2.767
 4599SOL    HW114249   2.427   3.498   2.792
 4599SOL    HW214250   2.402   3.372   2.711
 4600SOL     OW14251   2.845   2.661   3.089
 4600SOL    HW114252   2.892   2.630   3.166
 4600SOL    HW214253   2.764   2.610   3.087
 4601SOL     OW14254   1.912   2.407   2.975
 4601SOL    HW114255   1.946   2.322   2.947
 4601SOL    HW214256   1.925   2.407   3.070
 4602SOL     OW14257   3.239   2.801   3.520
 4602SOL    HW114258   3.260   2.894   3.518
 4602SOL    HW214259   3.237   2.775   3.428
 4603SOL     OW14260   2.674   2.429   2.226
 4603SOL    HW114261   2.683   2.358   2.162
 4603SOL    HW214262   2.603   2.483   2.192
 4604SOL     OW14263   3.504   2.463   3.048
 4604SOL    HW114264   3.494   2.404   3.122
 4604SOL    HW214265   3.591   2.444   3.013
 4605SOL     OW14266   2.106   3.413   3.589
 4605SOL    HW114267   2.082   3.478   3.656
 4605SOL    HW214268   2.107   3.330   3.636
 4606SOL     OW14269   2.789   3.541   3.330
 4606SOL    HW114270   2.764   3.506   3.245
 4606SOL    HW214271   2.785   3.636   3.319
 4607SOL     OW14272   2.008   3.003   3.336
 4607SOL    HW114273   2.009   2.951   3.416
 4607SOL    HW214274   2.024   2.939   3.266
 4608SOL     OW14275   3.188   2.909   3.085
 4608SOL    HW114276   3.211   2.845   3.017
 4608SOL    HW214277   3.118   2.961   3.046
 4609SOL     OW14278   3.174   2.719   2.168
 4609SOL    HW114279   3.099   2.688   2.219
 4609SOL    HW214280   3.148   2.705   2.077
 4610SOL     OW14281   3.635   3.605   3.013
 4610SOL    HW114282   3.695   3.632   2.943
 4610SOL    HW214283   3.610   3.516   2.991
 4611SOL     OW14284   3.103   3.595   2.975
 4611SOL    HW114285   3.185   3.616   2.930
 4611SOL    HW214286   3.109   3.501   2.993
 4612SOL     OW14287   1.946   3.129   2.874
 4612SOL    HW114288   1.932   3.142   2.968
 4612SOL    HW214289   1.872   3.075   2.846
 4613SOL     OW14290   2.539   3.528   3.592
 4613SOL    HW114291   2.485   3.607   3.586
 4613SOL    HW214292   2.605   3.540   3.523
 4614SOL     OW14293   3.581   2.009   2.371
 4614SOL    HW114294   3.654   1.994   2.311
 4614SOL    HW214295   3.565   1.923   2.412
 4615SOL     OW14296   3.253   3.430   2.347
 4615SOL    HW114297   3.313   3.462   2.280
 4615SOL    HW214298   3.204   3.507   2.375
 4616SOL     OW14299   1.999   3.657   3.705
 4616SOL    HW114300   1.948   3.593   3.753
 4616SOL    HW214301   2.046   3.707   3.772
 4617SOL     OW14302   3.139   2.789   2.534
 4617SOL    HW114303   3.212   2.727   2.541
 4617SOL    HW214304   3.174   2.861   2.481
 4618SOL     OW14305   2.676   3.136   3.291
 4618SOL    HW114306   2.648   3.175   3.374
 4618SOL    HW214307   2.606   3.158   3.230
 4619SOL     OW14308   2.533   3.482   2.017
 4619SOL    HW114309   2.544   3.495   1.923
 4619SOL    HW214310   2.478   3.404   2.025
 4620SOL     OW14311   3.488   3.588   3.253
 4620SOL    HW114312   3.538   3.595   3.172
 4620SOL    HW214313   3.474   3.679   3.281
 4621SOL     OW14314   3.703   2.035   2.829
 4621SOL    HW114315   3.732   1.948   2.802
 4621SOL    HW214316   3.617   2.045   2.789
 4622SOL     OW14317   3.069   3.468   1.894
 4622SOL    HW114318   3.059   3.376   1.920
 4622SOL    HW214319   3.004   3.480   1.824
 4623SOL     OW14320   2.685   2.869   3.236
 4623SOL    HW114321   2.733   2.859   3.153
 4623SOL    HW214322   2.687   2.962   3.254
 4624SOL     OW14323   2.778   2.772   2.151
 4624SOL    HW114324   2.839   2.804   2.086
 4624SOL    HW214325   2.825   2.703   2.197
 4625SOL     OW14326   3.354   3.487   1.905
 4625SOL    HW114327   3.259   3.481   1.891
 4625SOL    HW214328   3.390   3.493   1.816
 4626SOL     OW14329   2.231   3.164   3.353
 4626SOL    HW114330   2.217   3.242   3.298
 4626SOL    HW214331   2.154   3.110   3.338
 4627SOL     OW14332   3.473   3.145   3.143
 4627SOL    HW114333   3.532   3.133   3.217
 4627SOL    HW214334   3.412   3.214   3.170
 4628SOL     OW14335   2.914   2.969   2.569
 4628SOL    HW114336   2.844   2.917   2.608
 4628SOL    HW214337   2.978   2.904   2.539
 4629SOL     OW14338   2.885   2.101   2.828
 4629SOL    HW114339   2.880   2.053   2.745
 4629SOL    HW214340   2.878   2.033   2.896
 4630SOL     OW14341   2.465   3.350   2.343
 4630SOL    HW114342   2.510   3.300   2.275
 4630SOL    HW214343   2.395   3.396   2.298
 4631SOL     OW14344   3.584   2.254   3.242
 4631SOL    HW114345   3.656   2.317   3.241
 4631SOL    HW214346   3.614   2.183   3.186
 4632SOL     OW14347   2.121   3.206   2.152
 4632SOL    HW114348   2.029   3.204   2.128
 4632SOL    HW214349   2.123   3.244   2.239
 4633SOL     OW14350   1.974   2.883   3.582
 4633SOL    HW114351   1.898   2.860   3.635
 4633SOL    HW214352   2.049   2.846   3.629
 4634SOL     OW14353   2.544   2.051   3.354
 4634SOL    HW114354   2.631   2.027   3.321
 4634SOL    HW214355   2.562   2.089   3.440
 4635SOL     OW14356   1.904   2.192   1.909
 4635SOL    HW114357   1.827   2.156   1.866
 4635SOL    HW214358   1.925   2.271   1.859
 4636SOL     OW14359   3.292   2.721   3.262
 4636SOL    HW114360   3.243   2.781   3.206
 4636SOL    HW214361   3.381   2.722   3.227
 4637SOL     OW14362   1.931   2.018   2.169
 4637SOL    HW114363   1.905   2.090   2.111
 4637SOL    HW214364   2.024   2.033   2.185
 4638SOL     OW14365   3.041   3.201   1.979
 4638SOL    HW114366   2.950   3.170   1.982
 4638SOL    HW214367   3.069   3.201   2.070
 4639SOL     OW14368   2.484   2.692   3.292
 4639SOL    HW114369   2.539   2.769   3.279
 4639SOL    HW214370   2.545   2.619   3.296
 4640SOL     OW14371   3.345   3.639   2.841
 4640SOL    HW114372   3.369   3.699   2.770
 4640SOL    HW214373   3.429   3.619   2.884
 4641SOL     OW14374   2.586   2.428   3.566
 4641SOL    HW114375   2.626   2.492   3.625
 4641SOL    HW214376   2.615   2.343   3.600
 4642SOL     OW14377   3.333   3.062   3.494
 4642SOL    HW114378   3.321   3.075   3.588
 4642SOL    HW214379   3.427   3.077   3.479
 4643SOL     OW14380   2.241   3.601   3.426
 4643SOL    HW114381   2.156   3.643   3.412
 4643SOL    HW214382   2.220   3.518   3.469
 4644SOL     OW14383   3.531   2.743   3.118
 4644SOL    HW114384   3.525   2.657   3.075
 4644SOL    HW214385   3.521   2.806   3.046
 4645SOL     OW14386   3.079   2.181   2.320
 4645SOL    HW114387   3.142   2.110   2.312
 4645SOL    HW214388   3.107   2.230   2.397
 4646SOL     OW14389   2.440   2.609   2.514
 4646SOL    HW114390   2.489   2.691   2.508
 4646SOL    HW214391   2.363   2.623   2.460
 4647SOL     OW14392   3.624   2.224   3.513
 4647SOL    HW114393   3.607   2.239   3.419
 4647SOL    HW214394   3.552   2.167   3.541
 4648SOL     OW14395   3.608   2.796   3.374
 4648SOL    HW114396   3.603   2.890   3.387
 4648SOL    HW214397   3.592   2.783   3.280
 4649SOL     OW14398   2.724   3.229   1.896
 4649SOL    HW114399   2.686   3.257   1.980
 4649SOL    HW214400   2.743   3.311   1.850
 4650SOL     OW14401   2.523   3.653   2.806
 4650SOL    HW114402   2.503   3.744   2.783
 4650SOL    HW214403   2.618   3.646   2.799
 4651SOL     OW14404   2.728   2.828   2.717
 4651SOL    HW114405   2.779   2.756   2.755
 4651SOL    HW214406   2.697   2.878   2.793
 4652SOL     OW14407   2.940   2.850   1.950
 4652SOL    HW114408   2.919   2.901   1.872
 4652SOL    HW214409   3.016   2.797   1.925
 4653SOL     OW14410   3.716   3.417   2.707
 4653SOL    HW114411   3.638   3.405   2.652
 4653SOL    HW214412   3.709   3.349   2.773
 4654SOL     OW14413   2.087   3.165   3.717
 4654SOL    HW114414   2.020   3.103   3.687
 4654SOL    HW214415   2.068   3.177   3.810
 4655SOL     OW14416   1.946   3.097   2.528
 4655SOL    HW114417   1.948   3.047   2.610
 4655SOL    HW214418   2.012   3.055   2.473
 4656SOL     OW14419   2.543   3.266   3.489
 4656SOL    HW114420   2.464   3.222   3.521
 4656SOL    HW214421   2.539   3.353   3.527
 4657SOL     OW14422   3.675   2.046   3.100
 4657SOL    HW114423   3.683   1.952   3.114
 4657SOL    HW214424   3.685   2.058   3.006
 4658SOL     OW14425   3.561   3.352   2.959
 4658SOL    HW114426   3.481   3.328   2.912
 4658SOL    HW214427   3.573   3.282   3.023
 4659SOL     OW14428   2.690   3.440   2.540
 4659SOL    HW114429   2.676   3.494   2.461
 4659SOL    HW214430   2.613   3.382   2.542
 4660SOL     OW14431   3.295   2.087   2.980
 4660SOL    HW114432   3.317   2.006   3.025
 4660SOL    HW214433   3.243   2.137   3.043
 4661SOL     OW14434   2.871   1.880   3.004
 4661SOL    HW114435   2.816   1.813   2.964
 4661SOL    HW214436   2.959   1.841   3.006
 4662SOL     OW14437   2.634   3.195   2.177
 4662SOL    HW114438   2.603   3.104   2.183
 4662SOL    HW214439   2.716   3.195   2.226
 4663SOL     OW14440   2.482   3.418   3.147
 4663SOL    HW114441   2.484   3.500   3.197
 4663SOL    HW214442   2.569   3.411   3.109
 4664SOL     OW14443   3.214   1.916   2.027
 4664SOL    HW114444   3.243   1.851   1.962
 4664SOL    HW214445   3.127   1.886   2.054
 4665SOL     OW14446   3.159   2.323   2.543
 4665SOL    HW114447   3.105   2.401   2.549
 4665SOL    HW214448   3.154   2.284   2.630
 4666SOL     OW14449   3.449   2.064   2.740
 4666SOL    HW114450   3.388   2.084   2.811
 4666SOL    HW214451   3.448   2.142   2.685
 4667SOL     OW14452   1.904   2.932   2.170
 4667SOL    HW114453   1.998   2.924   2.152
 4667SOL    HW214454   1.876   2.843   2.192
 4668SOL     OW14455   2.746   3.515   2.204
 4668SOL    HW114456   2.674   3.498   2.144
 4668SOL    HW214457   2.717   3.590   2.256
 4669SOL     OW14458   2.064   2.526   3.849
 4669SOL    HW114459   1.977   2.500   3.880
 4669SOL    HW214460   2.083   2.467   3.777
 4670SOL     OW14461   1.860   2.252   4.354
 4670SOL    HW114462   1.777   2.270   4.396
 4670SOL    HW214463   1.850   2.165   4.315
 4671SOL     OW14464   2.429   3.149   4.899
 4671SOL    HW114465   2.342   3.155   4.859
 4671SOL    HW214466   2.446   3.237   4.932
 4672SOL     OW14467   3.423   3.374   4.431
 4672SOL    HW114468   3.381   3.353   4.514
 4672SOL    HW214469   3.352   3.378   4.368
 4673SOL     OW14470   3.000   2.560   4.402
 4673SOL    HW114471   3.045   2.645   4.403
 4673SOL    HW214472   2.953   2.557   4.485
 4674SOL     OW14473   3.630   2.467   3.953
 4674SOL    HW114474   3.609   2.459   3.860
 4674SOL    HW214475   3.593   2.388   3.992
 4675SOL     OW14476   2.644   3.020   4.776
 4675SOL    HW114477   2.560   3.034   4.819
 4675SOL    HW214478   2.662   3.102   4.730
 4676SOL     OW14479   2.741   2.673   5.567
 4676SOL    HW114480   2.660   2.719   5.588
 4676SOL    HW214481   2.759   2.697   5.476
 4677SOL     OW14482   2.549   2.869   4.371
 4677SOL    HW114483   2.615   2.855   4.438
 4677SOL    HW214484   2.480   2.920   4.414
 4678SOL     OW14485   2.577   3.024   5.522
 4678SOL    HW114486   2.621   3.104   5.552
 4678SOL    HW214487   2.491   3.054   5.494
 4679SOL     OW14488   2.194   3.283   4.792
 4679SOL    HW114489   2.118   3.249   4.745
 4679SOL    HW214490   2.241   3.336   4.727
 4680SOL     OW14491   3.323   3.361   5.078
 4680SOL    HW114492   3.373   3.442   5.089
 4680SOL    HW214493   3.260   3.362   5.151
 4681SOL     OW14494   3.473   2.310   4.465
 4681SOL    HW114495   3.399   2.332   4.410
 4681SOL    HW214496   3.490   2.389   4.516
 4682SOL     OW14497   2.082   3.576   4.196
 4682SOL    HW114498   2.103   3.652   4.250
 4682SOL    HW214499   2.154   3.569   4.134
 4683SOL     OW14500   2.998   3.204   5.417
 4683SOL    HW114501   3.038   3.199   5.503
 4683SOL    HW214502   2.945   3.124   5.410
 4684SOL     OW14503   2.095   3.304   4.260
 4684SOL    HW114504   2.077   3.398   4.262
 4684SOL    HW214505   2.032   3.266   4.322
 4685SOL     OW14506   2.472   3.654   5.153
 4685SOL    HW114507   2.391   3.635   5.200
 4685SOL    HW214508   2.496   3.743   5.178
 4686SOL     OW14509   2.447   2.842   3.856
 4686SOL    HW114510   2.493   2.892   3.789
 4686SOL    HW214511   2.486   2.871   3.939
 4687SOL     OW14512   3.460   1.985   5.194
 4687SOL    HW114513   3.463   2.065   5.142
 4687SOL    HW214514   3.444   2.014   5.283
 4688SOL     OW14515   1.984   2.506   4.286
 4688SOL    HW114516   1.947   2.419   4.303
 4688SOL    HW214517   1.965   2.556   4.365
 4689SOL     OW14518   3.704   3.621   4.058
 4689SOL    HW114519   3.768   3.593   4.124
 4689SOL    HW214520   3.728   3.712   4.040
 4690SOL     OW14521   1.894   3.457   3.848
 4690SOL    HW114522   1.876   3.365   3.868
 4690SOL    HW214523   1.870   3.504   3.927
 4691SOL     OW14524   3.551   2.781   4.366
 4691SOL    HW114525   3.635   2.739   4.346
 4691SOL    HW214526   3.530   2.830   4.287
 4692SOL     OW14527   3.508   2.968   4.153
 4692SOL    HW114528   3.594   2.974   4.111
 4692SOL    HW214529   3.513   3.030   4.226
 4693SOL     OW14530   2.476   3.249   4.459
 4693SOL    HW114531   2.432   3.165   4.467
 4693SOL    HW214532   2.460   3.275   4.368
 4694SOL     OW14533   3.152   3.102   5.146
 4694SOL    HW114534   3.183   3.033   5.088
 4694SOL    HW214535   3.208   3.094   5.224
 4695SOL     OW14536   2.673   1.861   4.227
 4695SOL    HW114537   2.717   1.944   4.210
 4695SOL    HW214538   2.581   1.884   4.238
 4696SOL     OW14539   3.393   2.856   3.923
 4696SOL    HW114540   3.324   2.799   3.955
 4696SOL    HW214541   3.434   2.890   4.002
 4697SOL     OW14542   3.048   3.669   5.346
 4697SOL    HW114543   3.058   3.727   5.271
 4697SOL    HW214544   3.063   3.581   5.311
 4698SOL     OW14545   3.329   3.281   4.675
 4698SOL    HW114546   3.261   3.297   4.741
 4698SOL    HW214547   3.316   3.190   4.649
 4699SOL     OW14548   3.520   3.602   4.302
 4699SOL    HW114549   3.500   3.572   4.213
 4699SOL    HW214550   3.496   3.528   4.358
 4700SOL     OW14551   2.462   2.583   3.991
 4700SOL    HW114552   2.465   2.660   3.934
 4700SOL    HW214553   2.389   2.601   4.050
 4701SOL     OW14554   3.145   2.217   4.663
 4701SOL    HW114555   3.059   2.175   4.657
 4701SOL    HW214556   3.196   2.160   4.719
 4702SOL     OW14557   3.442   3.532   4.033
 4702SOL    HW114558   3.533   3.564   4.026
 4702SOL    HW214559   3.416   3.516   3.943
 4703SOL     OW14560   3.257   2.336   5.399
 4703SOL    HW114561   3.255   2.381   5.483
 4703SOL    HW214562   3.317   2.262   5.412
 4704SOL     OW14563   2.828   2.751   5.308
 4704SOL    HW114564   2.882   2.680   5.274
 4704SOL    HW214565   2.792   2.794   5.230
 4705SOL     OW14566   2.912   2.562   4.143
 4705SOL    HW114567   2.933   2.557   4.236
 4705SOL    HW214568   2.828   2.515   4.135
 4706SOL     OW14569   1.944   2.679   4.501
 4706SOL    HW114570   2.028   2.674   4.548
 4706SOL    HW214571   1.899   2.753   4.541
 4707SOL     OW14572   1.988   3.710   5.302
 4707SOL    HW114573   1.990   3.689   5.395
 4707SOL    HW214574   1.896   3.702   5.276
 4708SOL     OW14575   2.756   2.211   3.918
 4708SOL    HW114576   2.797   2.273   3.858
 4708SOL    HW214577   2.766   2.126   3.876
 4709SOL     OW14578   3.574   2.437   5.552
 4709SOL    HW114579   3.534   2.510   5.505
 4709SOL    HW214580   3.599   2.375   5.483
 4710SOL     OW14581   3.240   3.005   4.265
 4710SOL    HW114582   3.319   2.993   4.211
 4710SOL    HW214583   3.187   3.067   4.215
 4711SOL     OW14584   2.867   3.306   4.195
 4711SOL    HW114585   2.830   3.380   4.147
 4711SOL    HW214586   2.850   3.327   4.287
 4712SOL     OW14587   2.217   3.671   4.586
 4712SOL    HW114588   2.260   3.586   4.594
 4712SOL    HW214589   2.285   3.735   4.605
 4713SOL     OW14590   3.660   2.921   4.592
 4713SOL    HW114591   3.605   2.902   4.516
 4713SOL    HW214592   3.598   2.925   4.665
 4714SOL     OW14593   3.090   3.401   5.237
 4714SOL    HW114594   3.076   3.329   5.298
 4714SOL    HW214595   3.027   3.384   5.167
 4715SOL     OW14596   2.178   2.817   3.973
 4715SOL    HW114597   2.260   2.834   3.927
 4715SOL    HW214598   2.145   2.736   3.934
 4716SOL     OW14599   3.342   2.604   4.451
 4716SOL    HW114600   3.333   2.563   4.536
 4716SOL    HW214601   3.419   2.660   4.459
 4717SOL     OW14602   2.328   3.133   5.463
 4717SOL    HW114603   2.303   3.132   5.371
 4717SOL    HW214604   2.245   3.129   5.511
 4718SOL     OW14605   2.983   3.640   3.954
 4718SOL    HW114606   2.911   3.598   4.000
 4718SOL    HW214607   3.007   3.578   3.885
 4719SOL     OW14608   3.491   3.242   3.811
 4719SOL    HW114609   3.449   3.327   3.797
 4719SOL    HW214610   3.422   3.178   3.793
 4720SOL     OW14611   2.328   3.599   4.045
 4720SOL    HW114612   2.370   3.656   4.109
 4720SOL    HW214613   2.400   3.568   3.989
 4721SOL     OW14614   3.262   1.971   4.157
 4721SOL    HW114615   3.253   1.945   4.065
 4721SOL    HW214616   3.357   1.975   4.171
 4722SOL     OW14617   2.117   3.653   4.956
 4722SOL    HW114618   2.169   3.587   5.002
 4722SOL    HW214619   2.107   3.619   4.867
 4723SOL     OW14620   2.799   3.562   4.623
 4723SOL    HW114621   2.876   3.509   4.646
 4723SOL    HW214622   2.756   3.511   4.554
 4724SOL     OW14623   2.249   2.565   4.185
 4724SOL    HW114624   2.267   2.477   4.152
 4724SOL    HW214625   2.158   2.562   4.214
 4725SOL     OW14626   3.397   2.088   5.449
 4725SOL    HW114627   3.407   2.107   5.542
 4725SOL    HW214628   3.324   2.026   5.446
 4726SOL     OW14629   2.493   1.993   3.825
 4726SOL    HW114630   2.555   1.928   3.857
 4726SOL    HW214631   2.450   1.951   3.751
 4727SOL     OW14632   2.738   3.385   4.918
 4727SOL    HW114633   2.723   3.350   4.830
 4727SOL    HW214634   2.807   3.329   4.954
 4728SOL     OW14635   3.212   2.451   5.153
 4728SOL    HW114636   3.239   2.418   5.239
 4728SOL    HW214637   3.249   2.539   5.147
 4729SOL     OW14638   2.677   3.266   4.661
 4729SOL    HW114639   2.762   3.249   4.619
 4729SOL    HW214640   2.614   3.262   4.590
 4730SOL     OW14641   2.839   2.385   4.569
 4730SOL    HW114642   2.788   2.365   4.490
 4730SOL    HW214643   2.840   2.303   4.618
 4731SOL     OW14644   2.406   1.932   4.223
 4731SOL    HW114645   2.325   1.927   4.275
 4731SOL    HW214646   2.405   2.021   4.188
 4732SOL     OW14647   3.290   3.060   3.765
 4732SOL    HW114648   3.320   2.985   3.815
 4732SOL    HW214649   3.205   3.082   3.803
 4733SOL     OW14650   2.159   1.904   3.903
 4733SOL    HW114651   2.227   1.965   3.872
 4733SOL    HW214652   2.208   1.835   3.948
 4734SOL     OW14653   2.800   2.106   4.178
 4734SOL    HW114654   2.779   2.147   4.094
 4734SOL    HW214655   2.894   2.118   4.188
 4735SOL     OW14656   2.958   2.531   5.208
 4735SOL    HW114657   2.925   2.453   5.251
 4735SOL    HW214658   3.049   2.510   5.186
 4736SOL     OW14659   3.086   3.431   4.517
 4736SOL    HW114660   3.102   3.499   4.451
 4736SOL    HW214661   3.154   3.446   4.583
 4737SOL     OW14662   2.328   3.013   4.460
 4737SOL    HW114663   2.258   2.998   4.524
 4737SOL    HW214664   2.287   2.995   4.376
 4738SOL     OW14665   3.131   3.656   4.332
 4738SOL    HW114666   3.177   3.717   4.275
 4738SOL    HW214667   3.065   3.709   4.376
 4739SOL     OW14668   2.885   2.404   3.747
 4739SOL    HW114669   2.844   2.488   3.728
 4739SOL    HW214670   2.951   2.424   3.814
 4740SOL     OW14671   2.708   2.310   4.345
 4740SOL    HW114672   2.677   2.369   4.277
 4740SOL    HW214673   2.738   2.232   4.298
 4741SOL     OW14674   2.893   1.906   4.466
 4741SOL    HW114675   2.822   1.906   4.402
 4741SOL    HW214676   2.868   1.840   4.530
 4742SOL     OW14677   3.299   3.024   4.581
 4742SOL    HW114678   3.228   2.960   4.580
 4742SOL    HW214679   3.323   3.035   4.489
 4743SOL     OW14680   3.327   2.469   4.701
 4743SOL    HW114681   3.281   2.385   4.701
 4743SOL    HW214682   3.388   2.462   4.775
 4744SOL     OW14683   3.708   2.678   4.106
 4744SOL    HW114684   3.764   2.627   4.165
 4744SOL    HW214685   3.679   2.615   4.040
 4745SOL     OW14686   2.352   3.280   3.881
 4745SOL    HW114687   2.277   3.251   3.933
 4745SOL    HW214688   2.339   3.241   3.795
 4746SOL     OW14689   3.533   3.126   4.369
 4746SOL    HW114690   3.627   3.129   4.384
 4746SOL    HW214691   3.503   3.215   4.391
 4747SOL     OW14692   3.256   2.434   3.795
 4747SOL    HW114693   3.195   2.414   3.866
 4747SOL    HW214694   3.340   2.401   3.827
 4748SOL     OW14695   3.614   3.101   5.296
 4748SOL    HW114696   3.701   3.062   5.294
 4748SOL    HW214697   3.629   3.191   5.325
 4749SOL     OW14698   2.922   3.218   5.057
 4749SOL    HW114699   2.846   3.190   5.109
 4749SOL    HW214700   2.996   3.174   5.099
 4750SOL     OW14701   3.470   3.489   5.379
 4750SOL    HW114702   3.464   3.522   5.289
 4750SOL    HW214703   3.553   3.440   5.381
 4751SOL     OW14704   2.992   3.064   4.830
 4751SOL    HW114705   2.931   3.098   4.896
 4751SOL    HW214706   2.955   3.093   4.746
 4752SOL     OW14707   3.489   2.960   4.802
 4752SOL    HW114708   3.485   3.022   4.874
 4752SOL    HW214709   3.411   2.978   4.750
 4753SOL     OW14710   2.845   2.979   5.448
 4753SOL    HW114711   2.752   2.992   5.468
 4753SOL    HW214712   2.846   2.899   5.394
 4754SOL     OW14713   2.570   2.923   4.095
 4754SOL    HW114714   2.558   2.907   4.188
 4754SOL    HW214715   2.646   2.870   4.071
 4755SOL     OW14716   3.131   2.241   4.998
 4755SOL    HW114717   3.164   2.315   5.050
 4755SOL    HW214718   3.082   2.283   4.927
 4756SOL     OW14719   1.932   3.432   5.074
 4756SOL    HW114720   1.901   3.506   5.022
 4756SOL    HW214721   2.027   3.437   5.070
 4757SOL     OW14722   2.205   2.968   4.219
 4757SOL    HW114723   2.213   3.042   4.160
 4757SOL    HW214724   2.206   2.891   4.162
 4758SOL     OW14725   3.110   3.211   4.113
 4758SOL    HW114726   3.166   3.282   4.144
 4758SOL    HW214727   3.023   3.231   4.147
 4759SOL     OW14728   3.143   3.320   4.870
 4759SOL    HW114729   3.198   3.322   4.949
 4759SOL    HW214730   3.086   3.244   4.884
 4760SOL     OW14731   3.444   2.484   4.204
 4760SOL    HW114732   3.396   2.537   4.268
 4760SOL    HW214733   3.487   2.549   4.148
 4761SOL     OW14734   2.208   3.389   5.038
 4761SOL    HW114735   2.197   3.345   4.954
 4761SOL    HW214736   2.303   3.401   5.046
 4762SOL     OW14737   3.465   2.640   5.406
 4762SOL    HW114738   3.379   2.681   5.401
 4762SOL    HW214739   3.516   2.683   5.338
 4763SOL     OW14740   2.901   1.968   5.526
 4763SOL    HW114741   2.913   2.050   5.478
 4763SOL    HW214742   2.938   1.901   5.468
 4764SOL     OW14743   3.213   2.719   4.752
 4764SOL    HW114744   3.135   2.709   4.698
 4764SOL    HW214745   3.258   2.634   4.746
 4765SOL     OW14746   3.066   2.390   3.989
 4765SOL    HW114747   3.075   2.312   4.045
 4765SOL    HW214748   3.023   2.455   4.045
 4766SOL     OW14749   1.918   3.166   5.000
 4766SOL    HW114750   1.943   3.118   5.079
 4766SOL    HW214751   1.917   3.258   5.026
 4767SOL     OW14752   3.597   2.822   5.576
 4767SOL    HW114753   3.551   2.759   5.520
 4767SOL    HW214754   3.537   2.836   5.650
 4768SOL     OW14755   2.153   1.933   4.346
 4768SOL    HW114756   2.124   2.018   4.380
 4768SOL    HW214757   2.172   1.881   4.424
 4769SOL     OW14758   3.480   2.237   4.090
 4769SOL    HW114759   3.506   2.172   4.156
 4769SOL    HW214760   3.456   2.314   4.141
 4770SOL     OW14761   2.928   2.635   4.676
 4770SOL    HW114762   2.919   2.650   4.770
 4770SOL    HW214763   2.891   2.547   4.662
 4771SOL     OW14764   2.845   3.429   5.441
 4771SOL    HW114765   2.829   3.472   5.357
 4771SOL    HW214766   2.887   3.347   5.418
 4772SOL     OW14767   3.716   3.368   5.330
 4772SOL    HW114768   3.735   3.394   5.239
 4772SOL    HW214769   3.798   3.386   5.377
 4773SOL     OW14770   3.391   2.135   3.851
 4773SOL    HW114771   3.326   2.070   3.878
 4773SOL    HW214772   3.424   2.171   3.934
 4774SOL     OW14773   3.153   2.688   3.754
 4774SOL    HW114774   3.196   2.603   3.759
 4774SOL    HW214775   3.185   2.727   3.673
 4775SOL     OW14776   2.925   3.199   4.576
 4775SOL    HW114777   2.930   3.126   4.515
 4775SOL    HW214778   2.989   3.263   4.543
 4776SOL     OW14779   2.995   2.244   5.393
 4776SOL    HW114780   2.951   2.298   5.460
 4776SOL    HW214781   3.085   2.275   5.394
 4777SOL     OW14782   3.056   2.053   5.201
 4777SOL    HW114783   3.018   2.113   5.264
 4777SOL    HW214784   3.080   2.108   5.126
 4778SOL     OW14785   1.867   3.182   3.919
 4778SOL    HW114786   1.781   3.197   3.881
 4778SOL    HW214787   1.864   3.093   3.952
 4779SOL     OW14788   1.952   3.649   4.662
 4779SOL    HW114789   1.922   3.569   4.619
 4779SOL    HW214790   2.042   3.661   4.631
 4780SOL     OW14791   2.358   3.436   4.630
 4780SOL    HW114792   2.426   3.498   4.655
 4780SOL    HW214793   2.403   3.373   4.573
 4781SOL     OW14794   3.241   2.799   5.382
 4781SOL    HW114795   3.259   2.893   5.381
 4781SOL    HW214796   3.236   2.774   5.290
 4782SOL     OW14797   2.674   2.429   4.086
 4782SOL    HW114798   2.681   2.358   4.023
 4782SOL    HW214799   2.601   2.482   4.054
 4783SOL     OW14800   3.504   2.462   4.909
 4783SOL    HW114801   3.495   2.404   4.985
 4783SOL    HW214802   3.591   2.444   4.875
 4784SOL     OW14803   2.104   3.413   5.450
 4784SOL    HW114804   2.083   3.477   5.518
 4784SOL    HW214805   2.107   3.330   5.497
 4785SOL     OW14806   2.789   3.542   5.192
 4785SOL    HW114807   2.764   3.506   5.107
 4785SOL    HW214808   2.784   3.637   5.180
 4786SOL     OW14809   2.010   2.996   5.206
 4786SOL    HW114810   2.012   2.963   5.295
 4786SOL    HW214811   2.031   2.920   5.152
 4787SOL     OW14812   3.188   2.908   4.947
 4787SOL    HW114813   3.209   2.845   4.878
 4787SOL    HW214814   3.119   2.962   4.909
 4788SOL     OW14815   3.174   2.719   4.030
 4788SOL    HW114816   3.098   2.689   4.080
 4788SOL    HW214817   3.148   2.705   3.938
 4789SOL     OW14818   3.635   3.605   4.875
 4789SOL    HW114819   3.695   3.632   4.805
 4789SOL    HW214820   3.610   3.516   4.853
 4790SOL     OW14821   3.103   3.595   4.836
 4790SOL    HW114822   3.185   3.616   4.792
 4790SOL    HW214823   3.109   3.501   4.855
 4791SOL     OW14824   1.952   3.140   4.728
 4791SOL    HW114825   1.936   3.144   4.823
 4791SOL    HW214826   1.899   3.066   4.698
 4792SOL     OW14827   2.540   3.531   5.456
 4792SOL    HW114828   2.486   3.610   5.448
 4792SOL    HW214829   2.605   3.540   5.386
 4793SOL     OW14830   3.581   2.009   4.233
 4793SOL    HW114831   3.654   1.994   4.173
 4793SOL    HW214832   3.565   1.923   4.274
 4794SOL     OW14833   3.253   3.430   4.209
 4794SOL    HW114834   3.313   3.462   4.142
 4794SOL    HW214835   3.204   3.507   4.238
 4795SOL     OW14836   1.999   3.659   5.566
 4795SOL    HW114837   1.948   3.594   5.614
 4795SOL    HW214838   2.046   3.707   5.634
 4796SOL     OW14839   3.142   2.791   4.397
 4796SOL    HW114840   3.215   2.729   4.402
 4796SOL    HW214841   3.176   2.863   4.343
 4797SOL     OW14842   2.673   3.154   5.155
 4797SOL    HW114843   2.642   3.192   5.237
 4797SOL    HW214844   2.601   3.168   5.093
 4798SOL     OW14845   2.533   3.482   3.879
 4798SOL    HW114846   2.544   3.495   3.785
 4798SOL    HW214847   2.478   3.404   3.887
 4799SOL     OW14848   3.488   3.589   5.115
 4799SOL    HW114849   3.538   3.595   5.034
 4799SOL    HW214850   3.475   3.679   5.143
 4800SOL     OW14851   3.703   2.034   4.691
 4800SOL    HW114852   3.733   1.947   4.664
 4800SOL    HW214853   3.617   2.044   4.651
 4801SOL     OW14854   3.069   3.468   3.756
 4801SOL    HW114855   3.060   3.376   3.782
 4801SOL    HW214856   3.004   3.480   3.687
 4802SOL     OW14857   2.750   2.905   5.095
 4802SOL    HW114858   2.734   2.915   5.001
 4802SOL    HW214859   2.725   2.989   5.133
 4803SOL     OW14860   2.777   2.773   4.013
 4803SOL    HW114861   2.839   2.805   3.947
 4803SOL    HW214862   2.825   2.704   4.058
 4804SOL     OW14863   3.354   3.487   3.767
 4804SOL    HW114864   3.259   3.481   3.753
 4804SOL    HW214865   3.390   3.493   3.678
 4805SOL     OW14866   2.231   3.164   5.215
 4805SOL    HW114867   2.217   3.241   5.160
 4805SOL    HW214868   2.153   3.111   5.202
 4806SOL     OW14869   3.474   3.145   5.005
 4806SOL    HW114870   3.531   3.133   5.080
 4806SOL    HW214871   3.412   3.213   5.032
 4807SOL     OW14872   2.917   2.972   4.428
 4807SOL    HW114873   2.845   2.923   4.469
 4807SOL    HW214874   2.979   2.904   4.400
 4808SOL     OW14875   2.465   3.350   4.205
 4808SOL    HW114876   2.509   3.300   4.136
 4808SOL    HW214877   2.395   3.396   4.159
 4809SOL     OW14878   3.583   2.255   5.103
 4809SOL    HW114879   3.656   2.318   5.103
 4809SOL    HW214880   3.613   2.183   5.048
 4810SOL     OW14881   2.121   3.207   4.013
 4810SOL    HW114882   2.029   3.205   3.990
 4810SOL    HW214883   2.124   3.244   4.101
 4811SOL     OW14884   1.974   2.900   5.463
 4811SOL    HW114885   1.893   2.864   5.497
 4811SOL    HW214886   2.043   2.842   5.495
 4812SOL     OW14887   1.919   2.197   3.781
 4812SOL    HW114888   1.838   2.177   3.733
 4812SOL    HW214889   1.966   2.257   3.723
 4813SOL     OW14890   3.292   2.720   5.123
 4813SOL    HW114891   3.243   2.781   5.068
 4813SOL    HW214892   3.382   2.723   5.089
 4814SOL     OW14893   1.935   2.018   4.030
 4814SOL    HW114894   1.913   2.093   3.974
 4814SOL    HW214895   2.016   1.983   3.994
 4815SOL     OW14896   3.041   3.201   3.841
 4815SOL    HW114897   2.950   3.170   3.844
 4815SOL    HW214898   3.069   3.202   3.932
 4816SOL     OW14899   3.345   3.639   4.703
 4816SOL    HW114900   3.369   3.699   4.632
 4816SOL    HW214901   3.428   3.619   4.746
 4817SOL     OW14902   3.333   3.062   5.356
 4817SOL    HW114903   3.320   3.075   5.450
 4817SOL    HW214904   3.427   3.077   5.342
 4818SOL     OW14905   2.241   3.601   5.288
 4818SOL    HW114906   2.156   3.643   5.274
 4818SOL    HW214907   2.220   3.518   5.330
 4819SOL     OW14908   3.532   2.743   4.979
 4819SOL    HW114909   3.526   2.658   4.936
 4819SOL    HW214910   3.522   2.807   4.908
 4820SOL     OW14911   3.079   2.182   4.181
 4820SOL    HW114912   3.141   2.110   4.173
 4820SOL    HW214913   3.108   2.230   4.259
 4821SOL     OW14914   2.446   2.607   4.382
 4821SOL    HW114915   2.490   2.692   4.369
 4821SOL    HW214916   2.381   2.604   4.312
 4822SOL     OW14917   3.624   2.223   5.373
 4822SOL    HW114918   3.606   2.239   5.281
 4822SOL    HW214919   3.552   2.167   5.403
 4823SOL     OW14920   3.608   2.796   5.236
 4823SOL    HW114921   3.602   2.891   5.249
 4823SOL    HW214922   3.592   2.784   5.142
 4824SOL     OW14923   2.723   3.229   3.758
 4824SOL    HW114924   2.686   3.256   3.842
 4824SOL    HW214925   2.742   3.311   3.712
 4825SOL     OW14926   2.522   3.653   4.668
 4825SOL    HW114927   2.503   3.744   4.645
 4825SOL    HW214928   2.617   3.645   4.662
 4826SOL     OW14929   2.731   2.835   4.577
 4826SOL    HW114930   2.784   2.764   4.614
 4826SOL    HW214931   2.691   2.877   4.652
 4827SOL     OW14932   2.941   2.850   3.812
 4827SOL    HW114933   2.920   2.901   3.734
 4827SOL    HW214934   3.016   2.797   3.786
 4828SOL     OW14935   3.716   3.417   4.568
 4828SOL    HW114936   3.638   3.405   4.514
 4828SOL    HW214937   3.709   3.349   4.636
 4829SOL     OW14938   2.086   3.165   5.578
 4829SOL    HW114939   2.021   3.099   5.554
 4829SOL    HW214940   2.072   3.178   5.672
 4830SOL     OW14941   1.944   3.101   4.389
 4830SOL    HW114942   1.930   3.046   4.467
 4830SOL    HW214943   2.007   3.053   4.336
 4831SOL     OW14944   2.537   3.274   5.351
 4831SOL    HW114945   2.461   3.227   5.386
 4831SOL    HW214946   2.534   3.359   5.394
 4832SOL     OW14947   3.676   2.047   4.962
 4832SOL    HW114948   3.683   1.952   4.976
 4832SOL    HW214949   3.685   2.057   4.867
 4833SOL     OW14950   3.561   3.351   4.821
 4833SOL    HW114951   3.481   3.329   4.774
 4833SOL    HW214952   3.572   3.282   4.885
 4834SOL     OW14953   2.689   3.441   4.400
 4834SOL    HW114954   2.676   3.494   4.321
 4834SOL    HW214955   2.613   3.384   4.404
 4835SOL     OW14956   3.296   2.083   4.843
 4835SOL    HW114957   3.313   1.997   4.880
 4835SOL    HW214958   3.248   2.130   4.912
 4836SOL     OW14959   2.634   3.195   4.039
 4836SOL    HW114960   2.604   3.104   4.045
 4836SOL    HW214961   2.716   3.196   4.088
 4837SOL     OW14962   2.482   3.419   5.008
 4837SOL    HW114963   2.484   3.500   5.058
 4837SOL    HW214964   2.570   3.411   4.971
 4838SOL     OW14965   3.214   1.915   3.889
 4838SOL    HW114966   3.243   1.850   3.825
 4838SOL    HW214967   3.127   1.886   3.915
 4839SOL     OW14968   3.160   2.322   4.405
 4839SOL    HW114969   3.107   2.402   4.407
 4839SOL    HW214970   3.154   2.287   4.495
 4840SOL     OW14971   3.450   2.063   4.602
 4840SOL    HW114972   3.391   2.084   4.674
 4840SOL    HW214973   3.448   2.142   4.547
 4841SOL     OW14974   1.906   2.932   4.032
 4841SOL    HW114975   1.999   2.922   4.011
 4841SOL    HW214976   1.878   2.843   4.054
 4842SOL     OW14977   2.746   3.515   4.066
 4842SOL    HW114978   2.674   3.498   4.006
 4842SOL    HW214979   2.717   3.591   4.118
 4843SOL     OW14980   2.428   3.150   6.762
 4843SOL    HW114981   2.341   3.154   6.722
 4843SOL    HW214982   2.443   3.238   6.795
 4844SOL     OW14983   3.424   3.374   6.293
 4844SOL    HW114984   3.381   3.353   6.376
 4844SOL    HW214985   3.352   3.378   6.229
 4845SOL     OW14986   3.020   2.561   6.322
 4845SOL    HW114987   3.055   2.642   6.286
 4845SOL    HW214988   2.954   2.589   6.386
 4846SOL     OW14989   3.631   2.467   5.815
 4846SOL    HW114990   3.609   2.459   5.722
 4846SOL    HW214991   3.593   2.388   5.854
 4847SOL     OW14992   2.611   2.999   6.627
 4847SOL    HW114993   2.545   3.038   6.683
 4847SOL    HW214994   2.651   3.074   6.581
 4848SOL     OW14995   2.728   2.637   7.408
 4848SOL    HW114996   2.716   2.706   7.472
 4848SOL    HW214997   2.753   2.682   7.327
 4849SOL     OW14998   2.573   3.013   7.397
 4849SOL    HW114999   2.620   3.091   7.425
 4849SOL    HW215000   2.490   3.046   7.362
 4850SOL     OW15001   2.193   3.287   6.655
 4850SOL    HW115002   2.119   3.250   6.608
 4850SOL    HW215003   2.241   3.337   6.588
 4851SOL     OW15004   3.323   3.361   6.941
 4851SOL    HW115005   3.373   3.442   6.950
 4851SOL    HW215006   3.260   3.364   7.013
 4852SOL     OW15007   3.474   2.309   6.327
 4852SOL    HW115008   3.397   2.331   6.273
 4852SOL    HW215009   3.489   2.388   6.379
 4853SOL     OW15010   2.083   3.574   6.058
 4853SOL    HW115011   2.103   3.651   6.112
 4853SOL    HW215012   2.155   3.569   5.996
 4854SOL     OW15013   2.998   3.204   7.279
 4854SOL    HW115014   3.039   3.199   7.365
 4854SOL    HW215015   2.946   3.124   7.272
 4855SOL     OW15016   2.088   3.301   6.121
 4855SOL    HW115017   2.078   3.396   6.119
 4855SOL    HW215018   2.024   3.271   6.185
 4856SOL     OW15019   2.129   2.961   6.498
 4856SOL    HW115020   2.103   2.871   6.516
 4856SOL    HW215021   2.063   3.015   6.541
 4857SOL     OW15022   2.473   3.653   7.016
 4857SOL    HW115023   2.391   3.635   7.062
 4857SOL    HW215024   2.496   3.743   7.041
 4858SOL     OW15025   2.518   2.816   5.682
 4858SOL    HW115026   2.528   2.893   5.627
 4858SOL    HW215027   2.493   2.851   5.768
 4859SOL     OW15028   3.458   1.985   7.054
 4859SOL    HW115029   3.466   2.066   7.003
 4859SOL    HW215030   3.443   2.015   7.144
 4860SOL     OW15031   3.704   3.621   5.920
 4860SOL    HW115032   3.768   3.593   5.986
 4860SOL    HW215033   3.728   3.712   5.902
 4861SOL     OW15034   1.893   3.459   5.709
 4861SOL    HW115035   1.877   3.367   5.729
 4861SOL    HW215036   1.870   3.506   5.789
 4862SOL     OW15037   3.553   2.783   6.229
 4862SOL    HW115038   3.635   2.738   6.207
 4862SOL    HW215039   3.530   2.831   6.149
 4863SOL     OW15040   3.508   2.969   6.015
 4863SOL    HW115041   3.594   2.974   5.973
 4863SOL    HW215042   3.513   3.030   6.089
 4864SOL     OW15043   1.983   2.600   7.170
 4864SOL    HW115044   2.072   2.620   7.198
 4864SOL    HW215045   1.934   2.681   7.185
 4865SOL     OW15046   2.484   3.257   6.319
 4865SOL    HW115047   2.430   3.178   6.331
 4865SOL    HW215048   2.466   3.284   6.229
 4866SOL     OW15049   3.150   3.100   7.009
 4866SOL    HW115050   3.182   3.033   6.949
 4866SOL    HW215051   3.208   3.094   7.085
 4867SOL     OW15052   2.052   2.827   6.860
 4867SOL    HW115053   2.136   2.789   6.833
 4867SOL    HW215054   1.987   2.780   6.807
 4868SOL     OW15055   3.397   2.856   5.783
 4868SOL    HW115056   3.327   2.798   5.813
 4868SOL    HW215057   3.435   2.890   5.864
 4869SOL     OW15058   3.047   3.669   7.208
 4869SOL    HW115059   3.057   3.727   7.134
 4869SOL    HW215060   3.064   3.581   7.173
 4870SOL     OW15061   3.329   3.282   6.537
 4870SOL    HW115062   3.260   3.297   6.603
 4870SOL    HW215063   3.316   3.191   6.510
 4871SOL     OW15064   3.520   3.602   6.164
 4871SOL    HW115065   3.500   3.572   6.075
 4871SOL    HW215066   3.496   3.528   6.220
 4872SOL     OW15067   3.140   2.215   6.522
 4872SOL    HW115068   3.050   2.185   6.534
 4872SOL    HW215069   3.192   2.161   6.581
 4873SOL     OW15070   3.442   3.533   5.895
 4873SOL    HW115071   3.533   3.564   5.888
 4873SOL    HW215072   3.415   3.516   5.805
 4874SOL     OW15073   2.646   2.467   7.033
 4874SOL    HW115074   2.631   2.457   7.127
 4874SOL    HW215075   2.595   2.397   6.992
 4875SOL     OW15076   3.256   2.336   7.264
 4875SOL    HW115077   3.258   2.380   7.348
 4875SOL    HW215078   3.316   2.262   7.273
 4876SOL     OW15079   2.816   2.749   7.168
 4876SOL    HW115080   2.871   2.679   7.132
 4876SOL    HW215081   2.770   2.784   7.092
 4877SOL     OW15082   2.866   2.279   6.813
 4877SOL    HW115083   2.779   2.295   6.850
 4877SOL    HW215084   2.849   2.222   6.737
 4878SOL     OW15085   1.989   3.713   7.164
 4878SOL    HW115086   1.990   3.691   7.258
 4878SOL    HW215087   1.898   3.699   7.137
 4879SOL     OW15088   3.570   2.436   7.414
 4879SOL    HW115089   3.533   2.510   7.366
 4879SOL    HW215090   3.598   2.375   7.346
 4880SOL     OW15091   3.240   3.006   6.125
 4880SOL    HW115092   3.319   2.993   6.072
 4880SOL    HW215093   3.188   3.068   6.075
 4881SOL     OW15094   2.449   2.028   6.466
 4881SOL    HW115095   2.444   2.043   6.561
 4881SOL    HW215096   2.443   2.115   6.428
 4882SOL     OW15097   2.866   3.307   6.057
 4882SOL    HW115098   2.833   3.383   6.009
 4882SOL    HW215099   2.851   3.328   6.149
 4883SOL     OW15100   2.216   3.671   6.448
 4883SOL    HW115101   2.260   3.586   6.456
 4883SOL    HW215102   2.285   3.735   6.467
 4884SOL     OW15103   3.661   2.922   6.455
 4884SOL    HW115104   3.607   2.900   6.378
 4884SOL    HW215105   3.598   2.926   6.527
 4885SOL     OW15106   3.090   3.401   7.099
 4885SOL    HW115107   3.076   3.328   7.160
 4885SOL    HW215108   3.026   3.386   7.029
 4886SOL     OW15109   3.340   2.608   6.311
 4886SOL    HW115110   3.330   2.563   6.395
 4886SOL    HW215111   3.419   2.661   6.322
 4887SOL     OW15112   2.328   3.127   7.323
 4887SOL    HW115113   2.301   3.131   7.232
 4887SOL    HW215114   2.246   3.124   7.373
 4888SOL     OW15115   2.984   3.640   5.817
 4888SOL    HW115116   2.910   3.599   5.862
 4888SOL    HW215117   3.007   3.578   5.747
 4889SOL     OW15118   3.491   3.242   5.673
 4889SOL    HW115119   3.449   3.327   5.659
 4889SOL    HW215120   3.422   3.178   5.656
 4890SOL     OW15121   2.328   3.599   5.906
 4890SOL    HW115122   2.371   3.656   5.970
 4890SOL    HW215123   2.398   3.568   5.851
 4891SOL     OW15124   3.268   1.963   6.021
 4891SOL    HW115125   3.255   1.943   5.928
 4891SOL    HW215126   3.363   1.972   6.029
 4892SOL     OW15127   2.118   3.653   6.818
 4892SOL    HW115128   2.169   3.586   6.863
 4892SOL    HW215129   2.107   3.619   6.729
 4893SOL     OW15130   2.800   3.561   6.486
 4893SOL    HW115131   2.878   3.510   6.507
 4893SOL    HW215132   2.757   3.512   6.415
 4894SOL     OW15133   3.397   2.087   7.311
 4894SOL    HW115134   3.406   2.108   7.404
 4894SOL    HW215135   3.328   2.020   7.308
 4895SOL     OW15136   2.629   2.141   7.343
 4895SOL    HW115137   2.705   2.083   7.341
 4895SOL    HW215138   2.579   2.113   7.420
 4896SOL     OW15139   2.738   3.383   6.780
 4896SOL    HW115140   2.722   3.347   6.693
 4896SOL    HW215141   2.808   3.329   6.816
 4897SOL     OW15142   3.201   2.453   7.019
 4897SOL    HW115143   3.233   2.420   7.103
 4897SOL    HW215144   3.239   2.540   7.011
 4898SOL     OW15145   2.679   3.255   6.528
 4898SOL    HW115146   2.763   3.242   6.484
 4898SOL    HW215147   2.615   3.258   6.456
 4899SOL     OW15148   3.291   3.060   5.628
 4899SOL    HW115149   3.321   2.984   5.676
 4899SOL    HW215150   3.202   3.077   5.661
 4900SOL     OW15151   2.941   2.540   7.046
 4900SOL    HW115152   2.878   2.468   7.051
 4900SOL    HW215153   3.026   2.498   7.039
 4901SOL     OW15154   3.084   3.432   6.380
 4901SOL    HW115155   3.101   3.498   6.313
 4901SOL    HW215156   3.153   3.446   6.445
 4902SOL     OW15157   2.312   3.050   6.323
 4902SOL    HW115158   2.254   3.030   6.397
 4902SOL    HW215159   2.292   2.983   6.258
 4903SOL     OW15160   3.131   3.656   6.194
 4903SOL    HW115161   3.177   3.717   6.137
 4903SOL    HW215162   3.065   3.709   6.238
 4904SOL     OW15163   2.907   2.423   5.579
 4904SOL    HW115164   2.852   2.501   5.578
 4904SOL    HW215165   2.943   2.421   5.668
 4905SOL     OW15166   1.943   2.428   6.967
 4905SOL    HW115167   2.030   2.394   6.989
 4905SOL    HW215168   1.926   2.495   7.033
 4906SOL     OW15169   2.434   2.037   6.735
 4906SOL    HW115170   2.474   1.962   6.777
 4906SOL    HW215171   2.346   2.043   6.773
 4907SOL     OW15172   3.299   3.025   6.443
 4907SOL    HW115173   3.230   2.959   6.441
 4907SOL    HW215174   3.325   3.036   6.351
 4908SOL     OW15175   3.328   2.468   6.563
 4908SOL    HW115176   3.278   2.387   6.564
 4908SOL    HW215177   3.387   2.461   6.637
 4909SOL     OW15178   3.708   2.678   5.969
 4909SOL    HW115179   3.764   2.626   6.027
 4909SOL    HW215180   3.679   2.615   5.902
 4910SOL     OW15181   2.354   3.280   5.744
 4910SOL    HW115182   2.277   3.251   5.794
 4910SOL    HW215183   2.344   3.238   5.658
 4911SOL     OW15184   3.533   3.126   6.232
 4911SOL    HW115185   3.627   3.129   6.246
 4911SOL    HW215186   3.503   3.215   6.253
 4912SOL     OW15187   3.258   2.434   5.653
 4912SOL    HW115188   3.193   2.416   5.721
 4912SOL    HW215189   3.340   2.399   5.689
 4913SOL     OW15190   3.614   3.101   7.158
 4913SOL    HW115191   3.701   3.062   7.155
 4913SOL    HW215192   3.630   3.191   7.187
 4914SOL     OW15193   2.920   3.216   6.920
 4914SOL    HW115194   2.846   3.185   6.971
 4914SOL    HW215195   2.996   3.174   6.961
 4915SOL     OW15196   3.470   3.488   7.240
 4915SOL    HW115197   3.464   3.522   7.151
 4915SOL    HW215198   3.553   3.440   7.242
 4916SOL     OW15199   2.992   3.067   6.691
 4916SOL    HW115200   2.932   3.103   6.756
 4916SOL    HW215201   2.958   3.096   6.607
 4917SOL     OW15202   3.489   2.960   6.664
 4917SOL    HW115203   3.485   3.022   6.736
 4917SOL    HW215204   3.410   2.977   6.612
 4918SOL     OW15205   2.784   1.958   6.983
 4918SOL    HW115206   2.804   1.936   6.892
 4918SOL    HW215207   2.865   1.996   7.017
 4919SOL     OW15208   2.846   2.976   7.308
 4919SOL    HW115209   2.754   2.993   7.330
 4919SOL    HW215210   2.844   2.899   7.252
 4920SOL     OW15211   2.596   2.964   5.931
 4920SOL    HW115212   2.588   2.949   6.025
 4920SOL    HW215213   2.660   2.899   5.902
 4921SOL     OW15214   2.284   2.670   6.841
 4921SOL    HW115215   2.356   2.689   6.902
 4921SOL    HW215216   2.233   2.601   6.883
 4922SOL     OW15217   3.132   2.238   6.863
 4922SOL    HW115218   3.162   2.317   6.909
 4922SOL    HW215219   3.042   2.259   6.836
 4923SOL     OW15220   1.932   3.435   6.940
 4923SOL    HW115221   1.902   3.507   6.884
 4923SOL    HW215222   2.028   3.438   6.933
 4924SOL     OW15223   2.487   2.426   6.454
 4924SOL    HW115224   2.470   2.474   6.373
 4924SOL    HW215225   2.455   2.483   6.524
 4925SOL     OW15226   3.110   3.210   5.976
 4925SOL    HW115227   3.165   3.282   6.006
 4925SOL    HW215228   3.023   3.232   6.009
 4926SOL     OW15229   3.143   3.320   6.733
 4926SOL    HW115230   3.199   3.322   6.811
 4926SOL    HW215231   3.088   3.242   6.744
 4927SOL     OW15232   3.445   2.485   6.067
 4927SOL    HW115233   3.395   2.537   6.129
 4927SOL    HW215234   3.485   2.548   6.008
 4928SOL     OW15235   2.208   3.390   6.901
 4928SOL    HW115236   2.196   3.347   6.816
 4928SOL    HW215237   2.303   3.402   6.908
 4929SOL     OW15238   2.279   2.617   7.185
 4929SOL    HW115239   2.343   2.662   7.130
 4929SOL    HW215240   2.320   2.533   7.205
 4930SOL     OW15241   3.464   2.641   7.268
 4930SOL    HW115242   3.378   2.682   7.261
 4930SOL    HW215243   3.516   2.683   7.200
 4931SOL     OW15244   2.857   1.986   7.339
 4931SOL    HW115245   2.915   2.058   7.312
 4931SOL    HW215246   2.905   1.907   7.315
 4932SOL     OW15247   2.354   1.905   7.335
 4932SOL    HW115248   2.316   1.847   7.270
 4932SOL    HW215249   2.295   1.981   7.337
 4933SOL     OW15250   2.439   2.728   6.616
 4933SOL    HW115251   2.479   2.814   6.601
 4933SOL    HW215252   2.395   2.737   6.700
 4934SOL     OW15253   3.220   2.720   6.616
 4934SOL    HW115254   3.141   2.712   6.563
 4934SOL    HW215255   3.262   2.634   6.610
 4935SOL     OW15256   3.072   2.391   5.847
 4935SOL    HW115257   3.086   2.315   5.903
 4935SOL    HW215258   3.017   2.449   5.899
 4936SOL     OW15259   1.909   3.172   6.863
 4936SOL    HW115260   1.941   3.118   6.935
 4936SOL    HW215261   1.914   3.262   6.897
 4937SOL     OW15262   2.614   2.524   6.685
 4937SOL    HW115263   2.631   2.477   6.604
 4937SOL    HW215264   2.563   2.601   6.659
 4938SOL     OW15265   3.597   2.822   7.439
 4938SOL    HW115266   3.551   2.759   7.382
 4938SOL    HW215267   3.537   2.835   7.512
 4939SOL     OW15268   3.481   2.237   5.952
 4939SOL    HW115269   3.506   2.173   6.018
 4939SOL    HW215270   3.456   2.314   6.003
 4940SOL     OW15271   2.884   2.608   6.560
 4940SOL    HW115272   2.877   2.644   6.648
 4940SOL    HW215273   2.905   2.516   6.573
 4941SOL     OW15274   2.844   3.428   7.303
 4941SOL    HW115275   2.829   3.472   7.220
 4941SOL    HW215276   2.887   3.346   7.280
 4942SOL     OW15277   3.716   3.368   7.192
 4942SOL    HW115278   3.735   3.394   7.101
 4942SOL    HW215279   3.798   3.386   7.239
 4943SOL     OW15280   2.219   2.784   7.395
 4943SOL    HW115281   2.301   2.798   7.441
 4943SOL    HW215282   2.241   2.724   7.324
 4944SOL     OW15283   3.393   2.134   5.713
 4944SOL    HW115284   3.326   2.072   5.739
 4944SOL    HW215285   3.425   2.171   5.796
 4945SOL     OW15286   3.154   2.689   5.619
 4945SOL    HW115287   3.192   2.601   5.619
 4945SOL    HW215288   3.183   2.728   5.536
 4946SOL     OW15289   2.928   3.195   6.437
 4946SOL    HW115290   2.930   3.125   6.372
 4946SOL    HW215291   2.989   3.261   6.405
 4947SOL     OW15292   2.171   2.679   6.555
 4947SOL    HW115293   2.265   2.691   6.571
 4947SOL    HW215294   2.152   2.592   6.588
 4948SOL     OW15295   2.995   2.240   7.267
 4948SOL    HW115296   2.949   2.294   7.331
 4948SOL    HW215297   3.084   2.277   7.264
 4949SOL     OW15298   3.024   2.065   7.056
 4949SOL    HW115299   3.014   2.128   7.127
 4949SOL    HW215300   3.066   2.115   6.986
 4950SOL     OW15301   1.861   3.190   5.781
 4950SOL    HW115302   1.776   3.205   5.741
 4950SOL    HW215303   1.857   3.101   5.814
 4951SOL     OW15304   1.952   3.648   6.524
 4951SOL    HW115305   1.922   3.569   6.480
 4951SOL    HW215306   2.042   3.661   6.493
 4952SOL     OW15307   2.359   3.437   6.491
 4952SOL    HW115308   2.426   3.499   6.517
 4952SOL    HW215309   2.404   3.374   6.434
 4953SOL     OW15310   2.844   2.663   6.820
 4953SOL    HW115311   2.894   2.632   6.895
 4953SOL    HW215312   2.763   2.613   6.823
 4954SOL     OW15313   1.909   2.414   6.697
 4954SOL    HW115314   1.963   2.339   6.670
 4954SOL    HW215315   1.924   2.422   6.791
 4955SOL     OW15316   3.239   2.801   7.244
 4955SOL    HW115317   3.260   2.894   7.242
 4955SOL    HW215318   3.237   2.775   7.152
 4956SOL     OW15319   3.504   2.463   6.772
 4956SOL    HW115320   3.494   2.403   6.846
 4956SOL    HW215321   3.591   2.444   6.737
 4957SOL     OW15322   2.106   3.413   7.313
 4957SOL    HW115323   2.082   3.477   7.380
 4957SOL    HW215324   2.107   3.330   7.360
 4958SOL     OW15325   2.789   3.541   7.054
 4958SOL    HW115326   2.764   3.506   6.969
 4958SOL    HW215327   2.784   3.636   7.043
 4959SOL     OW15328   2.009   3.002   7.060
 4959SOL    HW115329   2.009   2.951   7.141
 4959SOL    HW215330   2.025   2.938   6.991
 4960SOL     OW15331   3.188   2.909   6.809
 4960SOL    HW115332   3.210   2.845   6.742
 4960SOL    HW215333   3.118   2.961   6.770
 4961SOL     OW15334   3.178   2.719   5.889
 4961SOL    HW115335   3.093   2.717   5.934
 4961SOL    HW215336   3.156   2.706   5.797
 4962SOL     OW15337   3.635   3.605   6.737
 4962SOL    HW115338   3.695   3.632   6.667
 4962SOL    HW215339   3.610   3.516   6.715
 4963SOL     OW15340   3.103   3.595   6.699
 4963SOL    HW115341   3.185   3.616   6.654
 4963SOL    HW215342   3.109   3.501   6.717
 4964SOL     OW15343   1.949   3.142   6.598
 4964SOL    HW115344   1.930   3.147   6.692
 4964SOL    HW215345   1.881   3.085   6.563
 4965SOL     OW15346   2.539   3.528   7.316
 4965SOL    HW115347   2.485   3.607   7.310
 4965SOL    HW215348   2.605   3.540   7.247
 4966SOL     OW15349   3.582   2.009   6.096
 4966SOL    HW115350   3.654   1.994   6.035
 4966SOL    HW215351   3.566   1.923   6.136
 4967SOL     OW15352   3.253   3.430   6.072
 4967SOL    HW115353   3.313   3.462   6.004
 4967SOL    HW215354   3.204   3.507   6.099
 4968SOL     OW15355   1.999   3.658   7.429
 4968SOL    HW115356   1.948   3.593   7.477
 4968SOL    HW215357   2.046   3.707   7.496
 4969SOL     OW15358   3.141   2.793   6.255
 4969SOL    HW115359   3.213   2.732   6.261
 4969SOL    HW215360   3.175   2.866   6.202
 4970SOL     OW15361   2.676   3.136   7.016
 4970SOL    HW115362   2.647   3.175   7.098
 4970SOL    HW215363   2.606   3.159   6.953
 4971SOL     OW15364   2.531   3.486   5.742
 4971SOL    HW115365   2.544   3.497   5.647
 4971SOL    HW215366   2.480   3.406   5.750
 4972SOL     OW15367   3.488   3.588   6.977
 4972SOL    HW115368   3.538   3.595   6.896
 4972SOL    HW215369   3.474   3.679   7.005
 4973SOL     OW15370   3.703   2.034   6.553
 4973SOL    HW115371   3.732   1.948   6.526
 4973SOL    HW215372   3.616   2.045   6.513
 4974SOL     OW15373   3.069   3.468   5.618
 4974SOL    HW115374   3.059   3.377   5.645
 4974SOL    HW215375   3.004   3.479   5.548
 4975SOL     OW15376   2.685   2.870   6.959
 4975SOL    HW115377   2.732   2.862   6.876
 4975SOL    HW215378   2.686   2.964   6.979
 4976SOL     OW15379   3.353   3.488   5.629
 4976SOL    HW115380   3.259   3.480   5.615
 4976SOL    HW215381   3.390   3.494   5.541
 4977SOL     OW15382   2.232   3.164   7.077
 4977SOL    HW115383   2.217   3.241   7.022
 4977SOL    HW215384   2.155   3.110   7.062
 4978SOL     OW15385   3.473   3.145   6.866
 4978SOL    HW115386   3.532   3.133   6.941
 4978SOL    HW215387   3.412   3.214   6.894
 4979SOL     OW15388   2.913   2.972   6.278
 4979SOL    HW115389   2.850   2.924   6.332
 4979SOL    HW215390   2.981   2.907   6.258
 4980SOL     OW15391   2.891   2.101   6.577
 4980SOL    HW115392   2.852   2.083   6.491
 4980SOL    HW215393   2.881   2.019   6.625
 4981SOL     OW15394   2.464   3.354   6.065
 4981SOL    HW115395   2.512   3.309   5.996
 4981SOL    HW215396   2.392   3.398   6.020
 4982SOL     OW15397   3.584   2.254   6.966
 4982SOL    HW115398   3.656   2.317   6.965
 4982SOL    HW215399   3.614   2.183   6.910
 4983SOL     OW15400   2.117   3.211   5.868
 4983SOL    HW115401   2.023   3.215   5.849
 4983SOL    HW215402   2.124   3.239   5.959
 4984SOL     OW15403   1.974   2.884   7.307
 4984SOL    HW115404   1.897   2.861   7.358
 4984SOL    HW215405   2.048   2.847   7.354
 4985SOL     OW15406   2.544   2.050   7.082
 4985SOL    HW115407   2.629   2.027   7.046
 4985SOL    HW215408   2.563   2.089   7.168
 4986SOL     OW15409   3.292   2.721   6.986
 4986SOL    HW115410   3.243   2.781   6.931
 4986SOL    HW215411   3.381   2.722   6.951
 4987SOL     OW15412   3.040   3.204   5.703
 4987SOL    HW115413   2.956   3.159   5.704
 4987SOL    HW215414   3.069   3.201   5.794
 4988SOL     OW15415   2.486   2.694   7.018
 4988SOL    HW115416   2.541   2.770   7.004
 4988SOL    HW215417   2.547   2.620   7.022
 4989SOL     OW15418   3.345   3.639   6.565
 4989SOL    HW115419   3.368   3.699   6.494
 4989SOL    HW215420   3.429   3.619   6.608
 4990SOL     OW15421   2.583   2.427   7.291
 4990SOL    HW115422   2.624   2.491   7.349
 4990SOL    HW215423   2.612   2.342   7.324
 4991SOL     OW15424   3.334   3.062   7.218
 4991SOL    HW115425   3.321   3.075   7.312
 4991SOL    HW215426   3.427   3.077   7.203
 4992SOL     OW15427   2.241   3.601   7.151
 4992SOL    HW115428   2.156   3.643   7.136
 4992SOL    HW215429   2.220   3.518   7.192
 4993SOL     OW15430   3.531   2.743   6.842
 4993SOL    HW115431   3.525   2.657   6.799
 4993SOL    HW215432   3.521   2.806   6.770
 4994SOL     OW15433   3.118   2.197   6.036
 4994SOL    HW115434   3.166   2.115   6.036
 4994SOL    HW215435   3.140   2.238   6.120
 4995SOL     OW15436   3.624   2.224   7.237
 4995SOL    HW115437   3.607   2.239   7.144
 4995SOL    HW215438   3.552   2.167   7.265
 4996SOL     OW15439   3.607   2.796   7.098
 4996SOL    HW115440   3.603   2.890   7.111
 4996SOL    HW215441   3.592   2.783   7.005
 4997SOL     OW15442   2.718   3.237   5.617
 4997SOL    HW115443   2.689   3.264   5.704
 4997SOL    HW215444   2.745   3.318   5.574
 4998SOL     OW15445   2.523   3.653   6.531
 4998SOL    HW115446   2.503   3.744   6.507
 4998SOL    HW215447   2.618   3.646   6.523
 4999SOL     OW15448   2.760   2.838   6.451
 4999SOL    HW115449   2.787   2.755   6.492
 4999SOL    HW215450   2.702   2.878   6.515
 5000SOL     OW15451   2.957   2.875   5.685
 5000SOL    HW115452   2.915   2.903   5.603
 5000SOL    HW215453   3.015   2.804   5.658
 5001SOL     OW15454   3.716   3.417   6.431
 5001SOL    HW115455   3.638   3.405   6.376
 5001SOL    HW215456   3.709   3.349   6.497
 5002SOL     OW15457   2.086   3.165   7.441
 5002SOL    HW115458   2.020   3.103   7.411
 5002SOL    HW215459   2.066   3.178   7.534
 5003SOL     OW15460   1.938   3.097   6.255
 5003SOL    HW115461   1.930   3.047   6.336
 5003SOL    HW215462   2.022   3.069   6.218
 5004SOL     OW15463   2.543   3.266   7.214
 5004SOL    HW115464   2.463   3.222   7.245
 5004SOL    HW215465   2.538   3.353   7.251
 5005SOL     OW15466   3.675   2.046   6.824
 5005SOL    HW115467   3.683   1.952   6.838
 5005SOL    HW215468   3.684   2.058   6.730
 5006SOL     OW15469   3.561   3.352   6.683
 5006SOL    HW115470   3.481   3.329   6.636
 5006SOL    HW215471   3.573   3.281   6.747
 5007SOL     OW15472   2.693   3.442   6.263
 5007SOL    HW115473   2.674   3.492   6.185
 5007SOL    HW215474   2.618   3.382   6.272
 5008SOL     OW15475   3.295   2.087   6.704
 5008SOL    HW115476   3.317   2.005   6.749
 5008SOL    HW215477   3.244   2.136   6.768
 5009SOL     OW15478   2.867   1.872   6.731
 5009SOL    HW115479   2.811   1.807   6.688
 5009SOL    HW215480   2.954   1.832   6.731
 5010SOL     OW15481   2.642   3.225   5.892
 5010SOL    HW115482   2.614   3.134   5.889
 5010SOL    HW215483   2.723   3.223   5.943
 5011SOL     OW15484   2.482   3.418   6.871
 5011SOL    HW115485   2.484   3.500   6.921
 5011SOL    HW215486   2.569   3.411   6.833
 5012SOL     OW15487   3.218   1.917   5.752
 5012SOL    HW115488   3.246   1.856   5.684
 5012SOL    HW215489   3.136   1.881   5.784
 5013SOL     OW15490   3.167   2.325   6.274
 5013SOL    HW115491   3.118   2.407   6.283
 5013SOL    HW215492   3.156   2.281   6.359
 5014SOL     OW15493   3.448   2.063   6.464
 5014SOL    HW115494   3.389   2.084   6.536
 5014SOL    HW215495   3.448   2.142   6.409
 5015SOL     OW15496   1.892   2.937   5.875
 5015SOL    HW115497   1.985   2.933   5.852
 5015SOL    HW215498   1.862   2.846   5.873
 5016SOL     OW15499   2.748   3.518   5.928
 5016SOL    HW115500   2.676   3.497   5.870
 5016SOL    HW215501   2.717   3.592   5.980
 5017SOL     OW15502   2.065   2.528   7.569
 5017SOL    HW115503   1.983   2.503   7.609
 5017SOL    HW215504   2.073   2.472   7.492
 5018SOL     OW15505   1.863   2.248   8.078
 5018SOL    HW115506   1.781   2.268   8.125
 5018SOL    HW215507   1.847   2.162   8.039
 5019SOL     OW15508   2.429   3.150   8.624
 5019SOL    HW115509   2.341   3.154   8.585
 5019SOL    HW215510   2.444   3.238   8.657
 5020SOL     OW15511   3.424   3.374   8.155
 5020SOL    HW115512   3.381   3.353   8.238
 5020SOL    HW215513   3.352   3.378   8.092
 5021SOL     OW15514   2.992   2.560   8.148
 5021SOL    HW115515   3.041   2.641   8.134
 5021SOL    HW215516   2.947   2.573   8.232
 5022SOL     OW15517   3.630   2.467   7.676
 5022SOL    HW115518   3.609   2.459   7.583
 5022SOL    HW215519   3.593   2.388   7.716
 5023SOL     OW15520   2.616   3.003   8.489
 5023SOL    HW115521   2.547   3.039   8.545
 5023SOL    HW215522   2.652   3.080   8.444
 5024SOL     OW15523   2.727   2.637   9.270
 5024SOL    HW115524   2.718   2.708   9.334
 5024SOL    HW215525   2.752   2.681   9.189
 5025SOL     OW15526   2.548   2.864   8.096
 5025SOL    HW115527   2.613   2.853   8.165
 5025SOL    HW215528   2.479   2.917   8.136
 5026SOL     OW15529   2.573   3.013   9.259
 5026SOL    HW115530   2.620   3.092   9.287
 5026SOL    HW215531   2.490   3.046   9.224
 5027SOL     OW15532   2.193   3.287   8.516
 5027SOL    HW115533   2.120   3.249   8.467
 5027SOL    HW215534   2.242   3.337   8.451
 5028SOL     OW15535   3.323   3.361   8.803
 5028SOL    HW115536   3.373   3.442   8.812
 5028SOL    HW215537   3.260   3.364   8.875
 5029SOL     OW15538   3.473   2.310   8.189
 5029SOL    HW115539   3.399   2.333   8.134
 5029SOL    HW215540   3.488   2.387   8.243
 5030SOL     OW15541   2.081   3.576   7.920
 5030SOL    HW115542   2.103   3.653   7.974
 5030SOL    HW215543   2.154   3.569   7.858
 5031SOL     OW15544   2.998   3.204   9.141
 5031SOL    HW115545   3.039   3.199   9.227
 5031SOL    HW215546   2.946   3.124   9.134
 5032SOL     OW15547   2.094   3.303   7.984
 5032SOL    HW115548   2.075   3.397   7.987
 5032SOL    HW215549   2.033   3.265   8.047
 5033SOL     OW15550   2.121   2.955   8.339
 5033SOL    HW115551   2.116   2.868   8.377
 5033SOL    HW215552   2.062   3.008   8.391
 5034SOL     OW15553   2.473   3.653   8.878
 5034SOL    HW115554   2.391   3.635   8.924
 5034SOL    HW215555   2.496   3.742   8.903
 5035SOL     OW15556   2.449   2.842   7.579
 5035SOL    HW115557   2.495   2.894   7.512
 5035SOL    HW215558   2.487   2.872   7.662
 5036SOL     OW15559   3.458   1.986   8.916
 5036SOL    HW115560   3.466   2.066   8.865
 5036SOL    HW215561   3.443   2.015   9.006
 5037SOL     OW15562   1.968   2.506   8.008
 5037SOL    HW115563   1.941   2.417   8.033
 5037SOL    HW215564   1.965   2.555   8.091
 5038SOL     OW15565   3.704   3.621   7.782
 5038SOL    HW115566   3.768   3.593   7.848
 5038SOL    HW215567   3.728   3.712   7.764
 5039SOL     OW15568   1.895   3.456   7.572
 5039SOL    HW115569   1.876   3.365   7.591
 5039SOL    HW215570   1.870   3.504   7.651
 5040SOL     OW15571   3.551   2.781   8.090
 5040SOL    HW115572   3.635   2.739   8.070
 5040SOL    HW215573   3.530   2.830   8.011
 5041SOL     OW15574   3.508   2.968   7.877
 5041SOL    HW115575   3.594   2.974   7.835
 5041SOL    HW215576   3.513   3.030   7.950
 5042SOL     OW15577   1.986   2.597   9.027
 5042SOL    HW115578   2.074   2.623   9.056
 5042SOL    HW215579   1.932   2.675   9.041
 5043SOL     OW15580   2.476   3.248   8.183
 5043SOL    HW115581   2.430   3.165   8.193
 5043SOL    HW215582   2.460   3.275   8.093
 5044SOL     OW15583   3.151   3.100   8.871
 5044SOL    HW115584   3.182   3.033   8.811
 5044SOL    HW215585   3.208   3.094   8.947
 5045SOL     OW15586   2.676   1.863   7.955
 5045SOL    HW115587   2.718   1.947   7.936
 5045SOL    HW215588   2.583   1.883   7.963
 5046SOL     OW15589   2.051   2.830   8.719
 5046SOL    HW115590   2.135   2.788   8.700
 5046SOL    HW215591   1.987   2.776   8.674
 5047SOL     OW15592   3.393   2.856   7.647
 5047SOL    HW115593   3.324   2.799   7.678
 5047SOL    HW215594   3.434   2.890   7.726
 5048SOL     OW15595   3.047   3.669   9.070
 5048SOL    HW115596   3.057   3.728   8.996
 5048SOL    HW215597   3.064   3.581   9.034
 5049SOL     OW15598   3.329   3.282   8.399
 5049SOL    HW115599   3.261   3.297   8.465
 5049SOL    HW215600   3.316   3.191   8.372
 5050SOL     OW15601   3.520   3.602   8.026
 5050SOL    HW115602   3.500   3.572   7.937
 5050SOL    HW215603   3.496   3.528   8.082
 5051SOL     OW15604   2.469   2.584   7.709
 5051SOL    HW115605   2.473   2.662   7.652
 5051SOL    HW215606   2.386   2.593   7.756
 5052SOL     OW15607   3.141   2.215   8.381
 5052SOL    HW115608   3.052   2.181   8.389
 5052SOL    HW215609   3.192   2.162   8.441
 5053SOL     OW15610   3.442   3.532   7.757
 5053SOL    HW115611   3.533   3.564   7.750
 5053SOL    HW215612   3.416   3.515   7.667
 5054SOL     OW15613   2.650   2.466   8.891
 5054SOL    HW115614   2.634   2.456   8.985
 5054SOL    HW215615   2.601   2.394   8.851
 5055SOL     OW15616   3.255   2.336   9.126
 5055SOL    HW115617   3.258   2.380   9.211
 5055SOL    HW215618   3.316   2.262   9.136
 5056SOL     OW15619   2.815   2.748   9.030
 5056SOL    HW115620   2.871   2.679   8.993
 5056SOL    HW215621   2.769   2.784   8.955
 5057SOL     OW15622   2.863   2.272   8.684
 5057SOL    HW115623   2.785   2.316   8.716
 5057SOL    HW215624   2.836   2.232   8.601
 5058SOL     OW15625   2.912   2.560   7.873
 5058SOL    HW115626   2.928   2.554   7.968
 5058SOL    HW215627   2.829   2.514   7.860
 5059SOL     OW15628   1.951   2.683   8.223
 5059SOL    HW115629   2.033   2.678   8.274
 5059SOL    HW215630   1.906   2.759   8.258
 5060SOL     OW15631   1.989   3.712   9.026
 5060SOL    HW115632   1.990   3.690   9.119
 5060SOL    HW215633   1.898   3.700   9.000
 5061SOL     OW15634   2.757   2.210   7.644
 5061SOL    HW115635   2.797   2.272   7.583
 5061SOL    HW215636   2.766   2.125   7.600
 5062SOL     OW15637   3.570   2.436   9.276
 5062SOL    HW115638   3.533   2.510   9.228
 5062SOL    HW215639   3.598   2.375   9.208
 5063SOL     OW15640   3.239   3.004   7.989
 5063SOL    HW115641   3.318   2.991   7.937
 5063SOL    HW215642   3.186   3.066   7.939
 5064SOL     OW15643   2.867   3.306   7.920
 5064SOL    HW115644   2.830   3.379   7.871
 5064SOL    HW215645   2.849   3.327   8.011
 5065SOL     OW15646   2.216   3.671   8.310
 5065SOL    HW115647   2.260   3.586   8.318
 5065SOL    HW215648   2.285   3.735   8.329
 5066SOL     OW15649   3.660   2.921   8.316
 5066SOL    HW115650   3.606   2.901   8.240
 5066SOL    HW215651   3.598   2.925   8.389
 5067SOL     OW15652   3.090   3.401   8.961
 5067SOL    HW115653   3.076   3.328   9.022
 5067SOL    HW215654   3.026   3.386   8.891
 5068SOL     OW15655   2.186   2.807   7.702
 5068SOL    HW115656   2.263   2.829   7.650
 5068SOL    HW215657   2.145   2.733   7.657
 5069SOL     OW15658   3.341   2.604   8.174
 5069SOL    HW115659   3.332   2.562   8.260
 5069SOL    HW215660   3.418   2.660   8.183
 5070SOL     OW15661   2.328   3.127   9.185
 5070SOL    HW115662   2.301   3.131   9.094
 5070SOL    HW215663   2.246   3.124   9.235
 5071SOL     OW15664   2.984   3.640   7.679
 5071SOL    HW115665   2.911   3.598   7.724
 5071SOL    HW215666   3.007   3.578   7.609
 5072SOL     OW15667   1.961   2.106   8.958
 5072SOL    HW115668   1.996   2.186   8.919
 5072SOL    HW215669   2.038   2.062   8.994
 5073SOL     OW15670   3.491   3.242   7.536
 5073SOL    HW115671   3.449   3.327   7.521
 5073SOL    HW215672   3.422   3.178   7.517
 5074SOL     OW15673   2.328   3.599   7.768
 5074SOL    HW115674   2.370   3.656   7.833
 5074SOL    HW215675   2.399   3.568   7.713
 5075SOL     OW15676   3.263   1.970   7.881
 5075SOL    HW115677   3.253   1.945   7.789
 5075SOL    HW215678   3.358   1.976   7.894
 5076SOL     OW15679   2.118   3.653   8.680
 5076SOL    HW115680   2.169   3.586   8.725
 5076SOL    HW215681   2.107   3.619   8.591
 5077SOL     OW15682   2.800   3.561   8.347
 5077SOL    HW115683   2.878   3.509   8.368
 5077SOL    HW215684   2.756   3.511   8.278
 5078SOL     OW15685   3.397   2.087   9.173
 5078SOL    HW115686   3.406   2.108   9.266
 5078SOL    HW215687   3.328   2.020   9.171
 5079SOL     OW15688   2.494   1.991   7.549
 5079SOL    HW115689   2.557   1.925   7.578
 5079SOL    HW215690   2.448   1.951   7.475
 5080SOL     OW15691   2.626   2.142   9.201
 5080SOL    HW115692   2.702   2.084   9.203
 5080SOL    HW215693   2.575   2.118   9.278
 5081SOL     OW15694   2.738   3.383   8.642
 5081SOL    HW115695   2.722   3.347   8.555
 5081SOL    HW215696   2.808   3.330   8.678
 5082SOL     OW15697   3.200   2.452   8.881
 5082SOL    HW115698   3.233   2.420   8.966
 5082SOL    HW215699   3.239   2.540   8.873
 5083SOL     OW15700   2.677   3.257   8.388
 5083SOL    HW115701   2.761   3.245   8.344
 5083SOL    HW215702   2.613   3.258   8.317
 5084SOL     OW15703   2.784   2.367   8.353
 5084SOL    HW115704   2.760   2.362   8.260
 5084SOL    HW215705   2.821   2.281   8.373
 5085SOL     OW15706   2.409   1.933   7.944
 5085SOL    HW115707   2.330   1.930   7.998
 5085SOL    HW215708   2.408   2.021   7.905
 5086SOL     OW15709   3.290   3.060   7.489
 5086SOL    HW115710   3.320   2.985   7.539
 5086SOL    HW215711   3.205   3.082   7.526
 5087SOL     OW15712   2.155   1.893   7.629
 5087SOL    HW115713   2.220   1.955   7.596
 5087SOL    HW215714   2.207   1.826   7.674
 5088SOL     OW15715   2.800   2.110   7.906
 5088SOL    HW115716   2.776   2.150   7.823
 5088SOL    HW215717   2.894   2.122   7.913
 5089SOL     OW15718   2.940   2.542   8.904
 5089SOL    HW115719   2.877   2.470   8.915
 5089SOL    HW215720   3.025   2.499   8.899
 5090SOL     OW15721   3.085   3.432   8.242
 5090SOL    HW115722   3.101   3.499   8.175
 5090SOL    HW215723   3.154   3.446   8.307
 5091SOL     OW15724   2.331   3.012   8.180
 5091SOL    HW115725   2.262   2.994   8.244
 5091SOL    HW215726   2.291   2.995   8.095
 5092SOL     OW15727   3.131   3.656   8.056
 5092SOL    HW115728   3.177   3.717   7.999
 5092SOL    HW215729   3.065   3.709   8.100
 5093SOL     OW15730   2.886   2.404   7.471
 5093SOL    HW115731   2.844   2.488   7.452
 5093SOL    HW215732   2.951   2.424   7.538
 5094SOL     OW15733   1.957   2.407   8.835
 5094SOL    HW115734   2.049   2.386   8.849
 5094SOL    HW215735   1.939   2.476   8.899
 5095SOL     OW15736   2.724   2.317   8.088
 5095SOL    HW115737   2.685   2.377   8.025
 5095SOL    HW215738   2.750   2.241   8.036
 5096SOL     OW15739   2.875   1.915   8.200
 5096SOL    HW115740   2.819   1.906   8.123
 5096SOL    HW215741   2.854   1.839   8.255
 5097SOL     OW15742   3.299   3.025   8.305
 5097SOL    HW115743   3.230   2.958   8.305
 5097SOL    HW215744   3.323   3.035   8.213
 5098SOL     OW15745   3.328   2.468   8.424
 5098SOL    HW115746   3.277   2.387   8.428
 5098SOL    HW215747   3.388   2.462   8.499
 5099SOL     OW15748   3.708   2.678   7.830
 5099SOL    HW115749   3.764   2.627   7.889
 5099SOL    HW215750   3.679   2.615   7.764
 5100SOL     OW15751   2.352   3.280   7.605
 5100SOL    HW115752   2.277   3.251   7.657
 5100SOL    HW215753   2.338   3.241   7.519
 5101SOL     OW15754   3.533   3.126   8.093
 5101SOL    HW115755   3.627   3.129   8.107
 5101SOL    HW215756   3.503   3.215   8.115
 5102SOL     OW15757   3.256   2.434   7.519
 5102SOL    HW115758   3.195   2.414   7.590
 5102SOL    HW215759   3.340   2.402   7.551
 5103SOL     OW15760   3.614   3.101   9.020
 5103SOL    HW115761   3.701   3.062   9.017
 5103SOL    HW215762   3.630   3.191   9.049
 5104SOL     OW15763   2.920   3.216   8.782
 5104SOL    HW115764   2.846   3.185   8.833
 5104SOL    HW215765   2.996   3.174   8.823
 5105SOL     OW15766   3.470   3.488   9.102
 5105SOL    HW115767   3.464   3.522   9.013
 5105SOL    HW215768   3.553   3.440   9.104
 5106SOL     OW15769   2.992   3.067   8.553
 5106SOL    HW115770   2.932   3.103   8.618
 5106SOL    HW215771   2.959   3.098   8.469
 5107SOL     OW15772   3.489   2.960   8.526
 5107SOL    HW115773   3.485   3.022   8.598
 5107SOL    HW215774   3.411   2.977   8.474
 5108SOL     OW15775   2.789   1.955   8.845
 5108SOL    HW115776   2.809   1.938   8.753
 5108SOL    HW215777   2.868   1.995   8.880
 5109SOL     OW15778   2.846   2.976   9.170
 5109SOL    HW115779   2.754   2.993   9.191
 5109SOL    HW215780   2.844   2.898   9.114
 5110SOL     OW15781   2.570   2.924   7.819
 5110SOL    HW115782   2.556   2.906   7.912
 5110SOL    HW215783   2.646   2.869   7.795
 5111SOL     OW15784   2.281   2.676   8.699
 5111SOL    HW115785   2.352   2.692   8.762
 5111SOL    HW215786   2.246   2.590   8.724
 5112SOL     OW15787   3.132   2.238   8.724
 5112SOL    HW115788   3.162   2.317   8.770
 5112SOL    HW215789   3.041   2.258   8.700
 5113SOL     OW15790   1.932   3.435   8.802
 5113SOL    HW115791   1.902   3.508   8.746
 5113SOL    HW215792   2.028   3.439   8.795
 5114SOL     OW15793   2.212   2.969   7.935
 5114SOL    HW115794   2.216   3.047   7.879
 5114SOL    HW215795   2.207   2.896   7.875
 5115SOL     OW15796   3.110   3.210   7.837
 5115SOL    HW115797   3.166   3.282   7.868
 5115SOL    HW215798   3.023   3.232   7.871
 5116SOL     OW15799   3.143   3.320   8.595
 5116SOL    HW115800   3.199   3.322   8.673
 5116SOL    HW215801   3.088   3.242   8.607
 5117SOL     OW15802   3.443   2.485   7.927
 5117SOL    HW115803   3.396   2.537   7.992
 5117SOL    HW215804   3.488   2.549   7.872
 5118SOL     OW15805   2.208   3.390   8.762
 5118SOL    HW115806   2.196   3.347   8.678
 5118SOL    HW215807   2.303   3.401   8.770
 5119SOL     OW15808   2.280   2.628   9.055
 5119SOL    HW115809   2.342   2.668   8.994
 5119SOL    HW215810   2.326   2.553   9.091
 5120SOL     OW15811   3.464   2.641   9.130
 5120SOL    HW115812   3.378   2.682   9.123
 5120SOL    HW215813   3.516   2.683   9.062
 5121SOL     OW15814   2.856   1.987   9.202
 5121SOL    HW115815   2.914   2.058   9.174
 5121SOL    HW215816   2.904   1.907   9.178
 5122SOL     OW15817   2.363   1.894   9.195
 5122SOL    HW115818   2.322   1.837   9.130
 5122SOL    HW215819   2.305   1.970   9.200
 5123SOL     OW15820   2.437   2.736   8.474
 5123SOL    HW115821   2.480   2.821   8.474
 5123SOL    HW215822   2.388   2.733   8.556
 5124SOL     OW15823   3.219   2.721   8.477
 5124SOL    HW115824   3.134   2.710   8.433
 5124SOL    HW215825   3.260   2.635   8.471
 5125SOL     OW15826   3.066   2.390   7.714
 5125SOL    HW115827   3.074   2.312   7.769
 5125SOL    HW215828   3.023   2.455   7.771
 5126SOL     OW15829   1.911   3.173   8.724
 5126SOL    HW115830   1.942   3.118   8.797
 5126SOL    HW215831   1.915   3.262   8.758
 5127SOL     OW15832   2.616   2.515   8.536
 5127SOL    HW115833   2.651   2.465   8.463
 5127SOL    HW215834   2.556   2.578   8.496
 5128SOL     OW15835   3.597   2.822   9.301
 5128SOL    HW115836   3.551   2.759   9.244
 5128SOL    HW215837   3.537   2.835   9.374
 5129SOL     OW15838   2.167   1.934   8.077
 5129SOL    HW115839   2.143   2.023   8.103
 5129SOL    HW215840   2.169   1.884   8.159
 5130SOL     OW15841   3.479   2.236   7.814
 5130SOL    HW115842   3.506   2.172   7.880
 5130SOL    HW215843   3.456   2.315   7.865
 5131SOL     OW15844   2.892   2.619   8.407
 5131SOL    HW115845   2.887   2.641   8.500
 5131SOL    HW215846   2.855   2.531   8.401
 5132SOL     OW15847   2.844   3.428   9.165
 5132SOL    HW115848   2.829   3.472   9.082
 5132SOL    HW215849   2.887   3.346   9.142
 5133SOL     OW15850   3.716   3.368   9.053
 5133SOL    HW115851   3.735   3.394   8.963
 5133SOL    HW215852   3.798   3.386   9.101
 5134SOL     OW15853   2.217   2.789   9.264
 5134SOL    HW115854   2.301   2.803   9.308
 5134SOL    HW215855   2.238   2.732   9.190
 5135SOL     OW15856   3.391   2.135   7.575
 5135SOL    HW115857   3.326   2.070   7.602
 5135SOL    HW215858   3.424   2.171   7.658
 5136SOL     OW15859   3.153   2.688   7.478
 5136SOL    HW115860   3.196   2.603   7.482
 5136SOL    HW215861   3.185   2.727   7.397
 5137SOL     OW15862   2.927   3.198   8.302
 5137SOL    HW115863   2.931   3.125   8.239
 5137SOL    HW215864   2.989   3.262   8.267
 5138SOL     OW15865   2.173   2.677   8.391
 5138SOL    HW115866   2.266   2.700   8.388
 5138SOL    HW215867   2.170   2.594   8.438
 5139SOL     OW15868   2.995   2.240   9.129
 5139SOL    HW115869   2.949   2.293   9.193
 5139SOL    HW215870   3.083   2.277   9.126
 5140SOL     OW15871   3.026   2.065   8.918
 5140SOL    HW115872   3.014   2.128   8.990
 5140SOL    HW215873   3.066   2.116   8.848
 5141SOL     OW15874   1.867   3.182   7.642
 5141SOL    HW115875   1.781   3.197   7.605
 5141SOL    HW215876   1.864   3.093   7.677
 5142SOL     OW15877   1.952   3.649   8.386
 5142SOL    HW115878   1.922   3.569   8.342
 5142SOL    HW215879   2.042   3.661   8.355
 5143SOL     OW15880   2.358   3.436   8.353
 5143SOL    HW115881   2.427   3.498   8.378
 5143SOL    HW215882   2.402   3.372   8.297
 5144SOL     OW15883   2.845   2.660   8.673
 5144SOL    HW115884   2.890   2.630   8.751
 5144SOL    HW215885   2.762   2.612   8.672
 5145SOL     OW15886   1.903   2.424   8.566
 5145SOL    HW115887   1.944   2.350   8.521
 5145SOL    HW215888   1.926   2.413   8.658
 5146SOL     OW15889   3.239   2.801   9.106
 5146SOL    HW115890   3.260   2.894   9.104
 5146SOL    HW215891   3.237   2.775   9.014
 5147SOL     OW15892   2.677   2.429   7.810
 5147SOL    HW115893   2.681   2.356   7.749
 5147SOL    HW215894   2.604   2.483   7.780
 5148SOL     OW15895   3.504   2.463   8.634
 5148SOL    HW115896   3.494   2.404   8.708
 5148SOL    HW215897   3.591   2.444   8.599
 5149SOL     OW15898   2.106   3.413   9.175
 5149SOL    HW115899   2.082   3.478   9.242
 5149SOL    HW215900   2.107   3.330   9.222
 5150SOL     OW15901   2.789   3.541   8.916
 5150SOL    HW115902   2.764   3.506   8.831
 5150SOL    HW215903   2.784   3.636   8.905
 5151SOL     OW15904   2.008   3.003   8.922
 5151SOL    HW115905   2.008   2.950   9.002
 5151SOL    HW215906   2.024   2.939   8.852
 5152SOL     OW15907   3.188   2.909   8.671
 5152SOL    HW115908   3.211   2.845   8.603
 5152SOL    HW215909   3.118   2.961   8.632
 5153SOL     OW15910   3.174   2.719   7.754
 5153SOL    HW115911   3.098   2.689   7.804
 5153SOL    HW215912   3.148   2.705   7.663
 5154SOL     OW15913   3.635   3.605   8.599
 5154SOL    HW115914   3.695   3.632   8.529
 5154SOL    HW215915   3.610   3.516   8.577
 5155SOL     OW15916   3.103   3.595   8.561
 5155SOL    HW115917   3.185   3.616   8.516
 5155SOL    HW215918   3.109   3.501   8.579
 5156SOL     OW15919   1.946   3.129   8.460
 5156SOL    HW115920   1.932   3.142   8.554
 5156SOL    HW215921   1.872   3.075   8.432
 5157SOL     OW15922   2.539   3.528   9.178
 5157SOL    HW115923   2.485   3.607   9.172
 5157SOL    HW215924   2.605   3.540   9.109
 5158SOL     OW15925   3.581   2.009   7.957
 5158SOL    HW115926   3.654   1.994   7.897
 5158SOL    HW215927   3.565   1.923   7.997
 5159SOL     OW15928   3.253   3.430   7.933
 5159SOL    HW115929   3.313   3.462   7.866
 5159SOL    HW215930   3.204   3.507   7.961
 5160SOL     OW15931   1.999   3.657   9.291
 5160SOL    HW115932   1.948   3.593   9.339
 5160SOL    HW215933   2.046   3.707   9.358
 5161SOL     OW15934   3.139   2.787   8.118
 5161SOL    HW115935   3.213   2.727   8.126
 5161SOL    HW215936   3.173   2.860   8.066
 5162SOL     OW15937   2.676   3.136   8.877
 5162SOL    HW115938   2.648   3.175   8.960
 5162SOL    HW215939   2.606   3.158   8.815
 5163SOL     OW15940   2.533   3.482   7.603
 5163SOL    HW115941   2.544   3.494   7.509
 5163SOL    HW215942   2.478   3.404   7.611
 5164SOL     OW15943   3.488   3.588   8.839
 5164SOL    HW115944   3.538   3.595   8.758
 5164SOL    HW215945   3.474   3.679   8.867
 5165SOL     OW15946   3.703   2.034   8.415
 5165SOL    HW115947   3.732   1.948   8.388
 5165SOL    HW215948   3.616   2.044   8.375
 5166SOL     OW15949   3.069   3.468   7.480
 5166SOL    HW115950   3.059   3.376   7.506
 5166SOL    HW215951   3.004   3.480   7.411
 5167SOL     OW15952   2.685   2.868   8.822
 5167SOL    HW115953   2.731   2.860   8.738
 5167SOL    HW215954   2.686   2.962   8.840
 5168SOL     OW15955   2.778   2.773   7.738
 5168SOL    HW115956   2.840   2.805   7.671
 5168SOL    HW215957   2.825   2.703   7.783
 5169SOL     OW15958   3.354   3.487   7.491
 5169SOL    HW115959   3.259   3.481   7.477
 5169SOL    HW215960   3.390   3.493   7.402
 5170SOL     OW15961   2.231   3.164   8.939
 5170SOL    HW115962   2.217   3.242   8.884
 5170SOL    HW215963   2.154   3.110   8.924
 5171SOL     OW15964   3.473   3.145   8.729
 5171SOL    HW115965   3.532   3.133   8.803
 5171SOL    HW215966   3.412   3.214   8.756
 5172SOL     OW15967   2.915   2.969   8.155
 5172SOL    HW115968   2.844   2.918   8.194
 5172SOL    HW215969   2.977   2.903   8.124
 5173SOL     OW15970   2.883   2.101   8.413
 5173SOL    HW115971   2.879   2.053   8.331
 5173SOL    HW215972   2.880   2.034   8.481
 5174SOL     OW15973   2.466   3.351   7.929
 5174SOL    HW115974   2.509   3.300   7.861
 5174SOL    HW215975   2.395   3.396   7.884
 5175SOL     OW15976   3.584   2.254   8.828
 5175SOL    HW115977   3.656   2.317   8.827
 5175SOL    HW215978   3.614   2.183   8.772
 5176SOL     OW15979   2.121   3.206   7.737
 5176SOL    HW115980   2.029   3.204   7.714
 5176SOL    HW215981   2.123   3.244   7.825
 5177SOL     OW15982   1.974   2.884   9.168
 5177SOL    HW115983   1.897   2.860   9.219
 5177SOL    HW215984   2.048   2.848   9.218
 5178SOL     OW15985   2.550   2.047   8.942
 5178SOL    HW115986   2.636   2.021   8.908
 5178SOL    HW215987   2.569   2.084   9.029
 5179SOL     OW15988   1.921   2.198   7.502
 5179SOL    HW115989   1.841   2.182   7.452
 5179SOL    HW215990   1.981   2.239   7.439
 5180SOL     OW15991   3.292   2.720   8.848
 5180SOL    HW115992   3.243   2.781   8.793
 5180SOL    HW215993   3.381   2.723   8.814
 5181SOL     OW15994   1.933   2.018   7.755
 5181SOL    HW115995   1.912   2.093   7.701
 5181SOL    HW215996   2.014   1.982   7.717
 5182SOL     OW15997   3.041   3.201   7.565
 5182SOL    HW115998   2.950   3.171   7.568
 5182SOL    HW215999   3.069   3.201   7.657
 5183SOL     OW16000   2.484   2.691   8.879
 5183SOL    HW116001   2.538   2.769   8.865
 5183SOL    HW216002   2.547   2.619   8.882
 5184SOL     OW16003   3.345   3.639   8.427
 5184SOL    HW116004   3.368   3.699   8.356
 5184SOL    HW216005   3.429   3.619   8.470
 5185SOL     OW16006   2.582   2.426   9.146
 5185SOL    HW116007   2.620   2.488   9.210
 5185SOL    HW216008   2.601   2.340   9.182
 5186SOL     OW16009   3.334   3.062   9.080
 5186SOL    HW116010   3.321   3.075   9.174
 5186SOL    HW216011   3.427   3.077   9.065
 5187SOL     OW16012   2.241   3.601   9.013
 5187SOL    HW116013   2.156   3.643   8.998
 5187SOL    HW216014   2.220   3.518   9.055
 5188SOL     OW16015   3.531   2.743   8.704
 5188SOL    HW116016   3.525   2.658   8.661
 5188SOL    HW216017   3.522   2.806   8.632
 5189SOL     OW16018   3.078   2.181   7.906
 5189SOL    HW116019   3.142   2.110   7.897
 5189SOL    HW216020   3.108   2.230   7.983
 5190SOL     OW16021   2.455   2.600   8.092
 5190SOL    HW116022   2.500   2.685   8.090
 5190SOL    HW216023   2.368   2.618   8.057
 5191SOL     OW16024   3.624   2.224   9.098
 5191SOL    HW116025   3.607   2.239   9.005
 5191SOL    HW216026   3.552   2.167   9.127
 5192SOL     OW16027   3.607   2.796   8.960
 5192SOL    HW116028   3.604   2.890   8.973
 5192SOL    HW216029   3.592   2.783   8.866
 5193SOL     OW16030   2.724   3.229   7.482
 5193SOL    HW116031   2.686   3.256   7.566
 5193SOL    HW216032   2.742   3.311   7.436
 5194SOL     OW16033   2.523   3.653   8.392
 5194SOL    HW116034   2.503   3.744   8.369
 5194SOL    HW216035   2.618   3.646   8.385
 5195SOL     OW16036   2.730   2.829   8.303
 5195SOL    HW116037   2.778   2.756   8.342
 5195SOL    HW216038   2.696   2.878   8.378
 5196SOL     OW16039   2.941   2.850   7.536
 5196SOL    HW116040   2.920   2.901   7.458
 5196SOL    HW216041   3.016   2.796   7.510
 5197SOL     OW16042   3.716   3.417   8.292
 5197SOL    HW116043   3.638   3.405   8.238
 5197SOL    HW216044   3.709   3.349   8.360
 5198SOL     OW16045   2.087   3.165   9.303
 5198SOL    HW116046   2.020   3.103   9.272
 5198SOL    HW216047   2.066   3.178   9.396
 5199SOL     OW16048   1.946   3.097   8.114
 5199SOL    HW116049   1.947   3.047   8.195
 5199SOL    HW216050   2.012   3.055   8.059
 5200SOL     OW16051   2.543   3.265   9.076
 5200SOL    HW116052   2.463   3.222   9.106
 5200SOL    HW216053   2.539   3.353   9.113
 5201SOL     OW16054   3.674   2.046   8.686
 5201SOL    HW116055   3.684   1.952   8.700
 5201SOL    HW216056   3.684   2.057   8.592
 5202SOL     OW16057   3.561   3.352   8.545
 5202SOL    HW116058   3.481   3.328   8.498
 5202SOL    HW216059   3.573   3.282   8.609
 5203SOL     OW16060   2.690   3.440   8.125
 5203SOL    HW116061   2.676   3.493   8.047
 5203SOL    HW216062   2.613   3.382   8.129
 5204SOL     OW16063   3.294   2.087   8.565
 5204SOL    HW116064   3.319   2.007   8.611
 5204SOL    HW216065   3.244   2.137   8.629
 5205SOL     OW16066   2.872   1.880   8.588
 5205SOL    HW116067   2.818   1.810   8.552
 5205SOL    HW216068   2.960   1.843   8.592
 5206SOL     OW16069   2.634   3.195   7.763
 5206SOL    HW116070   2.603   3.104   7.769
 5206SOL    HW216071   2.716   3.195   7.812
 5207SOL     OW16072   2.482   3.418   8.733
 5207SOL    HW116073   2.484   3.500   8.783
 5207SOL    HW216074   2.569   3.411   8.695
 5208SOL     OW16075   3.214   1.915   7.613
 5208SOL    HW116076   3.243   1.851   7.549
 5208SOL    HW216077   3.127   1.886   7.639
 5209SOL     OW16078   3.158   2.323   8.129
 5209SOL    HW116079   3.105   2.402   8.136
 5209SOL    HW216080   3.154   2.284   8.216
 5210SOL     OW16081   3.449   2.063   8.326
 5210SOL    HW116082   3.388   2.084   8.397
 5210SOL    HW216083   3.448   2.142   8.271
 5211SOL     OW16084   1.905   2.932   7.755
 5211SOL    HW116085   1.998   2.924   7.738
 5211SOL    HW216086   1.876   2.843   7.778
 5212SOL     OW16087   2.746   3.515   7.790
 5212SOL    HW116088   2.674   3.498   7.730
 5212SOL    HW216089   2.717   3.590   7.842
 5213SOL     OW16090   2.075   2.532   9.435
 5213SOL    HW116091   1.991   2.504   9.472
 5213SOL    HW216092   2.081   2.484   9.352
 5214SOL     OW16093   1.859   2.242   9.944
 5214SOL    HW116094   1.779   2.266   9.991
 5214SOL    HW216095   1.837   2.159   9.901
 5215SOL     OW16096   2.429   3.150  10.486
 5215SOL    HW116097   2.342   3.153  10.447
 5215SOL    HW216098   2.443   3.238  10.519
 5216SOL     OW16099   3.424   3.374  10.017
 5216SOL    HW116100   3.381   3.353  10.100
 5216SOL    HW216101   3.352   3.378   9.953
 5217SOL     OW16102   2.994   2.560  10.008
 5217SOL    HW116103   3.041   2.642   9.998
 5217SOL    HW216104   2.946   2.570  10.091
 5218SOL     OW16105   3.631   2.467   9.538
 5218SOL    HW116106   3.609   2.459   9.445
 5218SOL    HW216107   3.593   2.388   9.578
 5219SOL     OW16108   2.617   3.004  10.351
 5219SOL    HW116109   2.548   3.039  10.408
 5219SOL    HW216110   2.652   3.081  10.306
 5220SOL     OW16111   2.715   2.640   0.021
 5220SOL    HW116112   2.720   2.695   0.100
 5220SOL    HW216113   2.750   2.696  11.051
 5221SOL     OW16114   2.549   2.867   9.956
 5221SOL    HW116115   2.614   2.854  10.025
 5221SOL    HW216116   2.481   2.920   9.997
 5222SOL     OW16117   2.194   3.285  10.376
 5222SOL    HW116118   2.120   3.249  10.329
 5222SOL    HW216119   2.242   3.337  10.311
 5223SOL     OW16120   3.325   3.361  10.661
 5223SOL    HW116121   3.382   3.439  10.668
 5223SOL    HW216122   3.269   3.365  10.738
 5224SOL     OW16123   3.473   2.310  10.050
 5224SOL    HW116124   3.397   2.332   9.996
 5224SOL    HW216125   3.488   2.388  10.104
 5225SOL     OW16126   2.081   3.576   9.782
 5225SOL    HW116127   2.103   3.652   9.836
 5225SOL    HW216128   2.154   3.569   9.720
 5226SOL     OW16129   2.093   3.303   9.846
 5226SOL    HW116130   2.075   3.397   9.849
 5226SOL    HW216131   2.032   3.265   9.909
 5227SOL     OW16132   2.122   2.956  10.201
 5227SOL    HW116133   2.114   2.869  10.239
 5227SOL    HW216134   2.062   3.010  10.253
 5228SOL     OW16135   2.472   3.651  10.738
 5228SOL    HW116136   2.392   3.632  10.787
 5228SOL    HW216137   2.495   3.741  10.763
 5229SOL     OW16138   2.450   2.842   9.440
 5229SOL    HW116139   2.496   2.894   9.373
 5229SOL    HW216140   2.487   2.872   9.523
 5230SOL     OW16141   3.449   1.979  10.778
 5230SOL    HW116142   3.467   2.059  10.727
 5230SOL    HW216143   3.459   2.007  10.869
 5231SOL     OW16144   1.965   2.507   9.870
 5231SOL    HW116145   1.940   2.418   9.895
 5231SOL    HW216146   1.965   2.556   9.952
 5232SOL     OW16147   3.704   3.621   9.644
 5232SOL    HW116148   3.768   3.593   9.710
 5232SOL    HW216149   3.727   3.712   9.626
 5233SOL     OW16150   1.895   3.456   9.434
 5233SOL    HW116151   1.876   3.365   9.454
 5233SOL    HW216152   1.870   3.504   9.513
 5234SOL     OW16153   3.551   2.781   9.952
 5234SOL    HW116154   3.635   2.739   9.932
 5234SOL    HW216155   3.530   2.830   9.873
 5235SOL     OW16156   3.508   2.968   9.739
 5235SOL    HW116157   3.594   2.974   9.697
 5235SOL    HW216158   3.513   3.030   9.812
 5236SOL     OW16159   1.980   2.600  10.886
 5236SOL    HW116160   2.063   2.610  10.931
 5236SOL    HW216161   1.933   2.682  10.905
 5237SOL     OW16162   2.476   3.248  10.046
 5237SOL    HW116163   2.430   3.165  10.055
 5237SOL    HW216164   2.460   3.275   9.955
 5238SOL     OW16165   3.155   3.099  10.752
 5238SOL    HW116166   3.180   3.038  10.682
 5238SOL    HW216167   3.212   3.075  10.825
 5239SOL     OW16168   2.674   1.862   9.816
 5239SOL    HW116169   2.716   1.946   9.798
 5239SOL    HW216170   2.582   1.883   9.826
 5240SOL     OW16171   2.053   2.830  10.576
 5240SOL    HW116172   2.135   2.784  10.558
 5240SOL    HW216173   1.986   2.773  10.539
 5241SOL     OW16174   3.393   2.856   9.509
 5241SOL    HW116175   3.323   2.799   9.541
 5241SOL    HW216176   3.435   2.890   9.588
 5242SOL     OW16177   3.059   3.668  10.928
 5242SOL    HW116178   3.056   3.732  10.857
 5242SOL    HW216179   3.067   3.584  10.884
 5243SOL     OW16180   3.329   3.282  10.261
 5243SOL    HW116181   3.260   3.297  10.325
 5243SOL    HW216182   3.316   3.191  10.234
 5244SOL     OW16183   3.520   3.602   9.888
 5244SOL    HW116184   3.500   3.572   9.799
 5244SOL    HW216185   3.496   3.528   9.944
 5245SOL     OW16186   2.464   2.587   9.577
 5245SOL    HW116187   2.478   2.657   9.514
 5245SOL    HW216188   2.380   2.608   9.618
 5246SOL     OW16189   3.142   2.215  10.243
 5246SOL    HW116190   3.053   2.183  10.251
 5246SOL    HW216191   3.193   2.161  10.304
 5247SOL     OW16192   3.442   3.532   9.619
 5247SOL    HW116193   3.533   3.563   9.612
 5247SOL    HW216194   3.416   3.515   9.529
 5248SOL     OW16195   2.650   2.462  10.757
 5248SOL    HW116196   2.630   2.454  10.850
 5248SOL    HW216197   2.592   2.399  10.715
 5249SOL     OW16198   2.827   2.761  10.901
 5249SOL    HW116199   2.876   2.689  10.860
 5249SOL    HW216200   2.777   2.800  10.830
 5250SOL     OW16201   2.861   2.271  10.548
 5250SOL    HW116202   2.782   2.317  10.577
 5250SOL    HW216203   2.838   2.235  10.462
 5251SOL     OW16204   2.911   2.559   9.736
 5251SOL    HW116205   2.929   2.553   9.830
 5251SOL    HW216206   2.829   2.513   9.724
 5252SOL     OW16207   1.951   2.684  10.084
 5252SOL    HW116208   2.032   2.679  10.135
 5252SOL    HW216209   1.905   2.760  10.119
 5253SOL     OW16210   1.990   3.709  10.898
 5253SOL    HW116211   1.973   3.671  10.984
 5253SOL    HW216212   1.905   3.704  10.853
 5254SOL     OW16213   2.755   2.212   9.504
 5254SOL    HW116214   2.797   2.272   9.443
 5254SOL    HW216215   2.765   2.126   9.464
 5255SOL     OW16216   3.239   3.004   9.851
 5255SOL    HW116217   3.318   2.992   9.798
 5255SOL    HW216218   3.187   3.066   9.800
 5256SOL     OW16219   2.867   3.306   9.782
 5256SOL    HW116220   2.830   3.379   9.732
 5256SOL    HW216221   2.849   3.327   9.873
 5257SOL     OW16222   2.216   3.671  10.172
 5257SOL    HW116223   2.259   3.586  10.180
 5257SOL    HW216224   2.285   3.735  10.191
 5258SOL     OW16225   3.660   2.920  10.178
 5258SOL    HW116226   3.606   2.901  10.102
 5258SOL    HW216227   3.598   2.925  10.251
 5259SOL     OW16228   3.090   3.399  10.824
 5259SOL    HW116229   3.099   3.310  10.859
 5259SOL    HW216230   3.027   3.391  10.753
 5260SOL     OW16231   2.189   2.804   9.567
 5260SOL    HW116232   2.263   2.829   9.512
 5260SOL    HW216233   2.147   2.732   9.520
 5261SOL     OW16234   3.341   2.605  10.036
 5261SOL    HW116235   3.331   2.562  10.121
 5261SOL    HW216236   3.418   2.660  10.045
 5262SOL     OW16237   2.312   3.129  11.053
 5262SOL    HW116238   2.284   3.141  10.962
 5262SOL    HW216239   2.255   3.060  11.087
 5263SOL     OW16240   2.984   3.640   9.541
 5263SOL    HW116241   2.911   3.598   9.586
 5263SOL    HW216242   3.007   3.578   9.471
 5264SOL     OW16243   3.491   3.242   9.398
 5264SOL    HW116244   3.449   3.327   9.383
 5264SOL    HW216245   3.422   3.178   9.379
 5265SOL     OW16246   2.328   3.599   9.631
 5265SOL    HW116247   2.370   3.656   9.695
 5265SOL    HW216248   2.400   3.568   9.575
 5266SOL     OW16249   3.263   1.970   9.743
 5266SOL    HW116250   3.253   1.944   9.651
 5266SOL    HW216251   3.358   1.976   9.756
 5267SOL     OW16252   2.117   3.654  10.543
 5267SOL    HW116253   2.168   3.590  10.592
 5267SOL    HW216254   2.109   3.616  10.455
 5268SOL     OW16255   2.800   3.560  10.209
 5268SOL    HW116256   2.879   3.510  10.229
 5268SOL    HW216257   2.756   3.511  10.140
 5269SOL     OW16258   2.492   1.993   9.410
 5269SOL    HW116259   2.557   1.930   9.444
 5269SOL    HW216260   2.451   1.947   9.337
 5270SOL     OW16261   2.628   2.136  11.046
 5270SOL    HW116262   2.697   2.079  11.079
 5270SOL    HW216263   2.570   2.151   0.020
 5271SOL     OW16264   2.737   3.383  10.504
 5271SOL    HW116265   2.722   3.348  10.416
 5271SOL    HW216266   2.810   3.332  10.538
 5272SOL     OW16267   3.203   2.454  10.755
 5272SOL    HW116268   3.257   2.433  10.831
 5272SOL    HW216269   3.231   2.542  10.729
 5273SOL     OW16270   2.678   3.256  10.250
 5273SOL    HW116271   2.762   3.245  10.206
 5273SOL    HW216272   2.613   3.258  10.179
 5274SOL     OW16273   2.801   2.368  10.222
 5274SOL    HW116274   2.760   2.367  10.135
 5274SOL    HW216275   2.829   2.277  10.236
 5275SOL     OW16276   2.406   1.930   9.806
 5275SOL    HW116277   2.329   1.919   9.861
 5275SOL    HW216278   2.398   2.019   9.772
 5276SOL     OW16279   3.290   3.060   9.351
 5276SOL    HW116280   3.320   2.985   9.401
 5276SOL    HW216281   3.205   3.082   9.389
 5277SOL     OW16282   2.160   1.905   9.499
 5277SOL    HW116283   2.227   1.973   9.485
 5277SOL    HW216284   2.208   1.832   9.538
 5278SOL     OW16285   2.800   2.107   9.767
 5278SOL    HW116286   2.776   2.150   9.684
 5278SOL    HW216287   2.894   2.120   9.775
 5279SOL     OW16288   2.938   2.546  10.768
 5279SOL    HW116289   2.872   2.477  10.776
 5279SOL    HW216290   3.022   2.500  10.768
 5280SOL     OW16291   3.085   3.433  10.104
 5280SOL    HW116292   3.101   3.499  10.037
 5280SOL    HW216293   3.154   3.446  10.169
 5281SOL     OW16294   2.331   3.012  10.042
 5281SOL    HW116295   2.262   2.994  10.106
 5281SOL    HW216296   2.291   2.995   9.957
 5282SOL     OW16297   3.131   3.656   9.918
 5282SOL    HW116298   3.177   3.716   9.861
 5282SOL    HW216299   3.065   3.709   9.962
 5283SOL     OW16300   2.886   2.404   9.333
 5283SOL    HW116301   2.843   2.488   9.314
 5283SOL    HW216302   2.951   2.425   9.400
 5284SOL     OW16303   1.946   2.421  10.692
 5284SOL    HW116304   2.034   2.390  10.712
 5284SOL    HW216305   1.929   2.490  10.756
 5285SOL     OW16306   2.443   1.995  10.433
 5285SOL    HW116307   2.462   1.971  10.524
 5285SOL    HW216308   2.365   2.051  10.440
 5286SOL     OW16309   2.743   2.319   9.949
 5286SOL    HW116310   2.688   2.374   9.892
 5286SOL    HW216311   2.758   2.240   9.898
 5287SOL     OW16312   2.878   1.913  10.061
 5287SOL    HW116313   2.819   1.908   9.987
 5287SOL    HW216314   2.855   1.839  10.117
 5288SOL     OW16315   3.298   3.025  10.167
 5288SOL    HW116316   3.231   2.957  10.166
 5288SOL    HW216317   3.323   3.035  10.075
 5289SOL     OW16318   3.328   2.469  10.286
 5289SOL    HW116319   3.277   2.388  10.288
 5289SOL    HW216320   3.387   2.462  10.360
 5290SOL     OW16321   3.708   2.678   9.692
 5290SOL    HW116322   3.764   2.627   9.751
 5290SOL    HW216323   3.679   2.615   9.626
 5291SOL     OW16324   2.352   3.280   9.467
 5291SOL    HW116325   2.277   3.251   9.519
 5291SOL    HW216326   2.338   3.241   9.381
 5292SOL     OW16327   3.532   3.126   9.955
 5292SOL    HW116328   3.627   3.128   9.970
 5292SOL    HW216329   3.503   3.215   9.977
 5293SOL     OW16330   3.256   2.434   9.382
 5293SOL    HW116331   3.195   2.414   9.453
 5293SOL    HW216332   3.340   2.401   9.413
 5294SOL     OW16333   3.621   3.091  10.866
 5294SOL    HW116334   3.712   3.063  10.868
 5294SOL    HW216335   3.622   3.178  10.907
 5295SOL     OW16336   2.925   3.216  10.649
 5295SOL    HW116337   2.847   3.183  10.694
 5295SOL    HW216338   2.997   3.168  10.689
 5296SOL     OW16339   2.992   3.070  10.415
 5296SOL    HW116340   2.926   3.103  10.476
 5296SOL    HW216341   2.962   3.098  10.329
 5297SOL     OW16342   3.490   2.960  10.388
 5297SOL    HW116343   3.486   3.022  10.461
 5297SOL    HW216344   3.411   2.978  10.337
 5298SOL     OW16345   2.785   1.958  10.705
 5298SOL    HW116346   2.806   1.940  10.614
 5298SOL    HW216347   2.864   2.000  10.740
 5299SOL     OW16348   2.570   2.923   9.680
 5299SOL    HW116349   2.557   2.908   9.774
 5299SOL    HW216350   2.646   2.869   9.657
 5300SOL     OW16351   2.281   2.669  10.563
 5300SOL    HW116352   2.353   2.689  10.623
 5300SOL    HW216353   2.235   2.595  10.604
 5301SOL     OW16354   3.131   2.239  10.590
 5301SOL    HW116355   3.161   2.319  10.634
 5301SOL    HW216356   3.042   2.259  10.563
 5302SOL     OW16357   1.932   3.438  10.662
 5302SOL    HW116358   1.903   3.510  10.606
 5302SOL    HW216359   2.028   3.439  10.656
 5303SOL     OW16360   2.213   2.969   9.797
 5303SOL    HW116361   2.216   3.047   9.742
 5303SOL    HW216362   2.208   2.896   9.736
 5304SOL     OW16363   2.520   2.437  10.150
 5304SOL    HW116364   2.495   2.485  10.070
 5304SOL    HW216365   2.468   2.477  10.219
 5305SOL     OW16366   3.110   3.210   9.699
 5305SOL    HW116367   3.166   3.282   9.730
 5305SOL    HW216368   3.023   3.232   9.733
 5306SOL     OW16369   3.142   3.321  10.455
 5306SOL    HW116370   3.200   3.324  10.532
 5306SOL    HW216371   3.090   3.242  10.467
 5307SOL     OW16372   3.443   2.485   9.789
 5307SOL    HW116373   3.396   2.537   9.854
 5307SOL    HW216374   3.488   2.550   9.734
 5308SOL     OW16375   2.207   3.388  10.623
 5308SOL    HW116376   2.196   3.344  10.539
 5308SOL    HW216377   2.302   3.401  10.631
 5309SOL     OW16378   2.283   2.598  10.906
 5309SOL    HW116379   2.347   2.643  10.851
 5309SOL    HW216380   2.328   2.518  10.934
 5310SOL     OW16381   3.457   2.621  10.968
 5310SOL    HW116382   3.380   2.677  10.959
 5310SOL    HW216383   3.527   2.671  10.926
 5311SOL     OW16384   2.440   2.728  10.337
 5311SOL    HW116385   2.478   2.816  10.332
 5311SOL    HW216386   2.389   2.728  10.418
 5312SOL     OW16387   3.218   2.723  10.343
 5312SOL    HW116388   3.135   2.712  10.297
 5312SOL    HW216389   3.261   2.637  10.336
 5313SOL     OW16390   3.066   2.391   9.577
 5313SOL    HW116391   3.074   2.312   9.631
 5313SOL    HW216392   3.022   2.455   9.633
 5314SOL     OW16393   1.915   3.174  10.585
 5314SOL    HW116394   1.939   3.119  10.659
 5314SOL    HW216395   1.914   3.263  10.621
 5315SOL     OW16396   2.620   2.516  10.408
 5315SOL    HW116397   2.651   2.466  10.332
 5315SOL    HW216398   2.570   2.589  10.370
 5316SOL     OW16399   2.162   1.902   9.941
 5316SOL    HW116400   2.110   1.980   9.959
 5316SOL    HW216401   2.175   1.861  10.026
 5317SOL     OW16402   3.479   2.237   9.676
 5317SOL    HW116403   3.506   2.172   9.742
 5317SOL    HW216404   3.456   2.315   9.727
 5318SOL     OW16405   2.891   2.622  10.269
 5318SOL    HW116406   2.886   2.641  10.363
 5318SOL    HW216407   2.860   2.532  10.261
 5319SOL     OW16408   2.835   3.434  11.004
 5319SOL    HW116409   2.821   3.484  10.923
 5319SOL    HW216410   2.865   3.349  10.974
 5320SOL     OW16411   3.718   3.354  10.912
 5320SOL    HW116412   3.735   3.390  10.824
 5320SOL    HW216413   3.784   3.397  10.967
 5321SOL     OW16414   2.227   2.795  11.085
 5321SOL    HW116415   2.310   2.800   0.034
 5321SOL    HW216416   2.239   2.720  11.027
 5322SOL     OW16417   3.391   2.135   9.437
 5322SOL    HW116418   3.326   2.070   9.464
 5322SOL    HW216419   3.424   2.171   9.520
 5323SOL     OW16420   3.153   2.688   9.340
 5323SOL    HW116421   3.196   2.603   9.345
 5323SOL    HW216422   3.185   2.727   9.259
 5324SOL     OW16423   2.928   3.197  10.164
 5324SOL    HW116424   2.931   3.125  10.101
 5324SOL    HW216425   2.989   3.262  10.129
 5325SOL     OW16426   2.171   2.680  10.253
 5325SOL    HW116427   2.265   2.699  10.249
 5325SOL    HW216428   2.166   2.599  10.305
 5326SOL     OW16429   3.020   2.070  10.783
 5326SOL    HW116430   3.035   2.127  10.859
 5326SOL    HW216431   3.060   2.117  10.710
 5327SOL     OW16432   1.867   3.182   9.504
 5327SOL    HW116433   1.781   3.197   9.467
 5327SOL    HW216434   1.863   3.093   9.539
 5328SOL     OW16435   1.951   3.649  10.248
 5328SOL    HW116436   1.922   3.569  10.204
 5328SOL    HW216437   2.041   3.661  10.217
 5329SOL     OW16438   2.358   3.436  10.215
 5329SOL    HW116439   2.427   3.499  10.239
 5329SOL    HW216440   2.403   3.373  10.159
 5330SOL     OW16441   2.844   2.662  10.536
 5330SOL    HW116442   2.891   2.633  10.614
 5330SOL    HW216443   2.764   2.611  10.535
 5331SOL     OW16444   1.906   2.417  10.423
 5331SOL    HW116445   1.953   2.342  10.386
 5331SOL    HW216446   1.926   2.415  10.516
 5332SOL     OW16447   2.675   2.430   9.671
 5332SOL    HW116448   2.682   2.358   9.608
 5332SOL    HW216449   2.603   2.483   9.639
 5333SOL     OW16450   3.504   2.463  10.494
 5333SOL    HW116451   3.495   2.405  10.570
 5333SOL    HW216452   3.591   2.445  10.460
 5334SOL     OW16453   2.116   3.426  11.051
 5334SOL    HW116454   2.058   3.458   0.020
 5334SOL    HW216455   2.127   3.333  11.071
 5335SOL     OW16456   2.801   3.544  10.757
 5335SOL    HW116457   2.765   3.510  10.676
 5335SOL    HW216458   2.786   3.639  10.753
 5336SOL     OW16459   2.016   3.000  10.781
 5336SOL    HW116460   2.008   2.945  10.859
 5336SOL    HW216461   2.029   2.938  10.710
 5337SOL     OW16462   3.186   2.914  10.538
 5337SOL    HW116463   3.212   2.849  10.473
 5337SOL    HW216464   3.116   2.964  10.495
 5338SOL     OW16465   3.174   2.719   9.616
 5338SOL    HW116466   3.099   2.688   9.667
 5338SOL    HW216467   3.148   2.705   9.525
 5339SOL     OW16468   3.637   3.606  10.462
 5339SOL    HW116469   3.696   3.632  10.391
 5339SOL    HW216470   3.611   3.517  10.441
 5340SOL     OW16471   3.102   3.596  10.422
 5340SOL    HW116472   3.185   3.618  10.378
 5340SOL    HW216473   3.109   3.502  10.440
 5341SOL     OW16474   1.946   3.129  10.321
 5341SOL    HW116475   1.934   3.143  10.415
 5341SOL    HW216476   1.872   3.075  10.295
 5342SOL     OW16477   3.581   2.009   9.819
 5342SOL    HW116478   3.654   1.994   9.759
 5342SOL    HW216479   3.565   1.923   9.859
 5343SOL     OW16480   3.252   3.430   9.795
 5343SOL    HW116481   3.313   3.462   9.728
 5343SOL    HW216482   3.204   3.507   9.823
 5344SOL     OW16483   3.140   2.789   9.982
 5344SOL    HW116484   3.213   2.727   9.989
 5344SOL    HW216485   3.174   2.861   9.929
 5345SOL     OW16486   2.679   3.137  10.737
 5345SOL    HW116487   2.648   3.170  10.821
 5345SOL    HW216488   2.610   3.159  10.675
 5346SOL     OW16489   2.533   3.482   9.465
 5346SOL    HW116490   2.544   3.494   9.371
 5346SOL    HW216491   2.478   3.404   9.473
 5347SOL     OW16492   3.483   3.582  10.695
 5347SOL    HW116493   3.539   3.596  10.619
 5347SOL    HW216494   3.468   3.670  10.730
 5348SOL     OW16495   3.703   2.035  10.278
 5348SOL    HW116496   3.732   1.948  10.251
 5348SOL    HW216497   3.617   2.045  10.238
 5349SOL     OW16498   3.069   3.468   9.342
 5349SOL    HW116499   3.059   3.376   9.368
 5349SOL    HW216500   3.004   3.480   9.273
 5350SOL     OW16501   2.687   2.868  10.687
 5350SOL    HW116502   2.733   2.857  10.604
 5350SOL    HW216503   2.689   2.963  10.703
 5351SOL     OW16504   2.777   2.772   9.599
 5351SOL    HW116505   2.839   2.804   9.534
 5351SOL    HW216506   2.825   2.703   9.646
 5352SOL     OW16507   3.354   3.487   9.353
 5352SOL    HW116508   3.259   3.481   9.339
 5352SOL    HW216509   3.390   3.493   9.264
 5353SOL     OW16510   2.228   3.170  10.805
 5353SOL    HW116511   2.215   3.243  10.745
 5353SOL    HW216512   2.156   3.110  10.787
 5354SOL     OW16513   3.475   3.143  10.593
 5354SOL    HW116514   3.530   3.129  10.670
 5354SOL    HW216515   3.418   3.216  10.618
 5355SOL     OW16516   2.914   2.969  10.017
 5355SOL    HW116517   2.843   2.917  10.056
 5355SOL    HW216518   2.978   2.904   9.987
 5356SOL     OW16519   2.886   2.101  10.276
 5356SOL    HW116520   2.880   2.053  10.193
 5356SOL    HW216521   2.879   2.033  10.343
 5357SOL     OW16522   2.466   3.351   9.791
 5357SOL    HW116523   2.509   3.300   9.723
 5357SOL    HW216524   2.395   3.396   9.746
 5358SOL     OW16525   3.580   2.256  10.690
 5358SOL    HW116526   3.652   2.318  10.691
 5358SOL    HW216527   3.611   2.185  10.633
 5359SOL     OW16528   2.121   3.206   9.600
 5359SOL    HW116529   2.029   3.204   9.576
 5359SOL    HW216530   2.123   3.244   9.688
 5360SOL     OW16531   1.975   2.871  11.019
 5360SOL    HW116532   1.908   2.856  11.085
 5360SOL    HW216533   2.057   2.845  11.060
 5361SOL     OW16534   2.545   2.048  10.798
 5361SOL    HW116535   2.630   2.024  10.761
 5361SOL    HW216536   2.566   2.091  10.881
 5362SOL     OW16537   1.897   2.190   9.355
 5362SOL    HW116538   1.821   2.153   9.309
 5362SOL    HW216539   1.917   2.271   9.307
 5363SOL     OW16540   3.291   2.711  10.710
 5363SOL    HW116541   3.242   2.779  10.663
 5363SOL    HW216542   3.381   2.720  10.678
 5364SOL     OW16543   1.931   2.018   9.621
 5364SOL    HW116544   1.910   2.094   9.567
 5364SOL    HW216545   2.016   1.989   9.589
 5365SOL     OW16546   3.041   3.201   9.427
 5365SOL    HW116547   2.950   3.171   9.430
 5365SOL    HW216548   3.069   3.201   9.518
 5366SOL     OW16549   2.486   2.691  10.740
 5366SOL    HW116550   2.540   2.769  10.728
 5366SOL    HW216551   2.548   2.618  10.744
 5367SOL     OW16552   3.345   3.639  10.289
 5367SOL    HW116553   3.369   3.699  10.218
 5367SOL    HW216554   3.427   3.619  10.333
 5368SOL     OW16555   2.579   2.430  11.015
 5368SOL    HW116556   2.613   2.503  11.066
 5368SOL    HW216557   2.629   2.354  11.044
 5369SOL     OW16558   2.244   3.594  10.872
 5369SOL    HW116559   2.166   3.649  10.865
 5369SOL    HW216560   2.218   3.523  10.930
 5370SOL     OW16561   3.532   2.744  10.568
 5370SOL    HW116562   3.525   2.659  10.525
 5370SOL    HW216563   3.523   2.807  10.496
 5371SOL     OW16564   3.078   2.181   9.768
 5371SOL    HW116565   3.142   2.110   9.760
 5371SOL    HW216566   3.107   2.230   9.845
 5372SOL     OW16567   2.440   2.612   9.960
 5372SOL    HW116568   2.487   2.696   9.952
 5372SOL    HW216569   2.362   2.624   9.907
 5373SOL     OW16570   3.609   2.180  10.955
 5373SOL    HW116571   3.593   2.218  10.869
 5373SOL    HW216572   3.531   2.200  11.006
 5374SOL     OW16573   3.612   2.798  10.825
 5374SOL    HW116574   3.603   2.892  10.839
 5374SOL    HW216575   3.594   2.785  10.732
 5375SOL     OW16576   2.724   3.229   9.344
 5375SOL    HW116577   2.686   3.257   9.428
 5375SOL    HW216578   2.743   3.311   9.298
 5376SOL     OW16579   2.523   3.653  10.254
 5376SOL    HW116580   2.502   3.743  10.232
 5376SOL    HW216581   2.618   3.647  10.247
 5377SOL     OW16582   2.728   2.829  10.165
 5377SOL    HW116583   2.778   2.756  10.202
 5377SOL    HW216584   2.697   2.877  10.241
 5378SOL     OW16585   2.940   2.850   9.398
 5378SOL    HW116586   2.919   2.901   9.320
 5378SOL    HW216587   3.016   2.796   9.372
 5379SOL     OW16588   3.716   3.417  10.154
 5379SOL    HW116589   3.638   3.405  10.101
 5379SOL    HW216590   3.710   3.349  10.222
 5380SOL     OW16591   1.945   3.097   9.976
 5380SOL    HW116592   1.947   3.048  10.058
 5380SOL    HW216593   2.013   3.055   9.922
 5381SOL     OW16594   2.541   3.257  10.940
 5381SOL    HW116595   2.468   3.207  10.977
 5381SOL    HW216596   2.507   3.345  10.930
 5382SOL     OW16597   3.671   2.045  10.549
 5382SOL    HW116598   3.681   1.951  10.561
 5382SOL    HW216599   3.683   2.059  10.455
 5383SOL     OW16600   3.562   3.352  10.407
 5383SOL    HW116601   3.482   3.328  10.361
 5383SOL    HW216602   3.576   3.283  10.471
 5384SOL     OW16603   2.690   3.440   9.988
 5384SOL    HW116604   2.676   3.494   9.910
 5384SOL    HW216605   2.613   3.382   9.990
 5385SOL     OW16606   3.294   2.086  10.428
 5385SOL    HW116607   3.319   2.006  10.474
 5385SOL    HW216608   3.244   2.136  10.493
 5386SOL     OW16609   2.871   1.879  10.452
 5386SOL    HW116610   2.818   1.812  10.408
 5386SOL    HW216611   2.959   1.842  10.455
 5387SOL     OW16612   2.634   3.195   9.625
 5387SOL    HW116613   2.603   3.104   9.630
 5387SOL    HW216614   2.716   3.195   9.674
 5388SOL     OW16615   2.482   3.417  10.597
 5388SOL    HW116616   2.482   3.500  10.644
 5388SOL    HW216617   2.568   3.411  10.557
 5389SOL     OW16618   3.214   1.915   9.475
 5389SOL    HW116619   3.243   1.851   9.411
 5389SOL    HW216620   3.127   1.886   9.501
 5390SOL     OW16621   3.159   2.323   9.991
 5390SOL    HW116622   3.104   2.401   9.997
 5390SOL    HW216623   3.154   2.284  10.078
 5391SOL     OW16624   3.449   2.064  10.188
 5391SOL    HW116625   3.388   2.084  10.259
 5391SOL    HW216626   3.448   2.142  10.132
 5392SOL     OW16627   1.904   2.932   9.617
 5392SOL    HW116628   1.998   2.924   9.600
 5392SOL    HW216629   1.876   2.843   9.639
 5393SOL     OW16630   2.746   3.515   9.652
 5393SOL    HW116631   2.674   3.498   9.592
 5393SOL    HW216632   2.717   3.590   9.704
 5394SOL     OW16633   2.062   4.297   0.088
 5394SOL    HW116634   2.042   4.355   0.161
 5394SOL    HW216635   2.077   4.355   0.013
 5395SOL     OW16636   2.086   4.001   0.991
 5395SOL    HW116637   2.113   3.967   1.076
 5395SOL    HW216638   1.996   3.970   0.981
 5396SOL     OW16639   1.866   4.102   0.643
 5396SOL    HW116640   1.784   4.130   0.682
 5396SOL    HW216641   1.843   4.025   0.591
 5397SOL     OW16642   3.596   4.331   0.230
 5397SOL    HW116643   3.609   4.305   0.139
 5397SOL    HW216644   3.587   4.248   0.278
 5398SOL     OW16645   2.598   0.272   0.687
 5398SOL    HW116646   2.586   0.205   0.755
 5398SOL    HW216647   2.511   0.285   0.650
 5399SOL     OW16648   2.311   4.115   1.484
 5399SOL    HW116649   2.388   4.058   1.491
 5399SOL    HW216650   2.237   4.058   1.502
 5400SOL     OW16651   3.477   4.171   0.741
 5400SOL    HW116652   3.410   4.197   0.677
 5400SOL    HW216653   3.475   4.241   0.807
 5401SOL     OW16654   3.458   3.847   1.468
 5401SOL    HW116655   3.465   3.928   1.417
 5401SOL    HW216656   3.443   3.877   1.558
 5402SOL     OW16657   1.947   4.369   0.562
 5402SOL    HW116658   1.930   4.278   0.589
 5402SOL    HW216659   2.005   4.403   0.630
 5403SOL     OW16660   1.980   4.476   1.584
 5403SOL    HW116661   2.048   4.494   1.649
 5403SOL    HW216662   1.949   0.062   1.557
 5404SOL     OW16663   2.677   3.727   0.508
 5404SOL    HW116664   2.716   3.813   0.492
 5404SOL    HW216665   2.584   3.744   0.517
 5405SOL     OW16666   2.196   3.974   1.812
 5405SOL    HW116667   2.235   4.060   1.828
 5405SOL    HW216668   2.105   3.983   1.840
 5406SOL     OW16669   3.139   4.074   0.933
 5406SOL    HW116670   3.050   4.041   0.943
 5406SOL    HW216671   3.191   4.022   0.993
 5407SOL     OW16672   2.691   4.305   1.447
 5407SOL    HW116673   2.650   4.309   1.534
 5407SOL    HW216674   2.624   4.265   1.392
 5408SOL     OW16675   3.257   4.200   1.676
 5408SOL    HW116676   3.260   4.244   1.761
 5408SOL    HW216677   3.315   4.124   1.687
 5409SOL     OW16678   2.860   4.150   1.233
 5409SOL    HW116679   2.787   4.173   1.292
 5409SOL    HW216680   2.821   4.092   1.168
 5410SOL     OW16681   2.921   4.403   0.422
 5410SOL    HW116682   2.918   4.460   0.499
 5410SOL    HW216683   2.830   4.382   0.404
 5411SOL     OW16684   2.750   4.073   0.209
 5411SOL    HW116685   2.794   4.132   0.148
 5411SOL    HW216686   2.764   3.986   0.173
 5412SOL     OW16687   3.571   4.298   1.830
 5412SOL    HW116688   3.584   4.386   1.794
 5412SOL    HW216689   3.592   4.240   1.757
 5413SOL     OW16690   2.413   3.904   0.893
 5413SOL    HW116691   2.414   3.933   0.984
 5413SOL    HW216692   2.410   3.985   0.842
 5414SOL     OW16693   3.350   4.465   0.740
 5414SOL    HW116694   3.335   4.410   0.817
 5414SOL    HW216695   3.391   0.044   0.774
 5415SOL     OW16696   2.061   4.003   1.504
 5415SOL    HW116697   1.976   4.048   1.497
 5415SOL    HW216698   2.044   3.930   1.564
 5416SOL     OW16699   3.264   3.830   0.432
 5416SOL    HW116700   3.256   3.808   0.339
 5416SOL    HW216701   3.358   3.840   0.447
 5417SOL     OW16702   2.215   4.383   0.405
 5417SOL    HW116703   2.255   4.309   0.452
 5417SOL    HW216704   2.144   4.412   0.461
 5418SOL     OW16705   3.396   3.950   1.725
 5418SOL    HW116706   3.405   3.971   1.818
 5418SOL    HW216707   3.328   3.883   1.722
 5419SOL     OW16708   2.479   3.830   0.127
 5419SOL    HW116709   2.568   3.796   0.119
 5419SOL    HW216710   2.440   3.815   0.040
 5420SOL     OW16711   2.627   4.002   1.754
 5420SOL    HW116712   2.704   3.945   1.754
 5420SOL    HW216713   2.579   3.978   1.833
 5421SOL     OW16714   3.204   4.312   1.429
 5421SOL    HW116715   3.226   4.275   1.515
 5421SOL    HW216716   3.248   4.397   1.428
 5422SOL     OW16717   2.786   4.236   0.899
 5422SOL    HW116718   2.763   4.220   0.807
 5422SOL    HW216719   2.825   4.154   0.928
 5423SOL     OW16720   2.412   3.788   0.504
 5423SOL    HW116721   2.330   3.786   0.554
 5423SOL    HW216722   2.405   3.866   0.450
 5424SOL     OW16723   2.148   3.771   0.201
 5424SOL    HW116724   2.188   3.825   0.134
 5424SOL    HW216725   2.216   3.708   0.225
 5425SOL     OW16726   2.801   3.974   0.464
 5425SOL    HW116727   2.775   4.013   0.380
 5425SOL    HW216728   2.896   3.987   0.468
 5426SOL     OW16729   2.937   4.396   1.524
 5426SOL    HW116730   2.854   4.366   1.488
 5426SOL    HW216731   3.003   4.357   1.468
 5427SOL     OW16732   2.870   4.264   0.041
 5427SOL    HW116733   2.886   4.317  11.063
 5427SOL    HW216734   2.951   4.272   0.092
 5428SOL     OW16735   1.938   4.280   1.393
 5428SOL    HW116736   2.029   4.272   1.366
 5428SOL    HW216737   1.938   4.354   1.455
 5429SOL     OW16738   2.421   3.950   1.164
 5429SOL    HW116739   2.462   3.874   1.205
 5429SOL    HW216740   2.330   3.947   1.195
 5430SOL     OW16741   2.729   4.189   0.639
 5430SOL    HW116742   2.702   4.252   0.573
 5430SOL    HW216743   2.749   4.109   0.589
 5431SOL     OW16744   2.876   3.777   0.751
 5431SOL    HW116745   2.818   3.769   0.676
 5431SOL    HW216746   2.855   3.702   0.806
 5432SOL     OW16747   3.339   4.311   0.965
 5432SOL    HW116748   3.279   4.239   0.984
 5432SOL    HW216749   3.389   4.322   1.045
 5433SOL     OW16750   3.264   4.292   0.073
 5433SOL    HW116751   3.198   4.276   0.140
 5433SOL    HW216752   3.327   4.221   0.085
 5434SOL     OW16753   2.390   3.992   0.327
 5434SOL    HW116754   2.417   3.931   0.258
 5434SOL    HW216755   2.370   4.073   0.280
 5435SOL     OW16756   2.780   3.821   1.395
 5435SOL    HW116757   2.804   3.801   1.305
 5435SOL    HW216758   2.859   3.860   1.433
 5436SOL     OW16759   2.298   0.009   1.277
 5436SOL    HW116760   2.365   0.001   1.344
 5436SOL    HW216761   2.254   4.424   1.276
 5437SOL     OW16762   3.127   4.099   1.275
 5437SOL    HW116763   3.161   4.177   1.320
 5437SOL    HW216764   3.038   4.123   1.251
 5438SOL     OW16765   2.415   4.253   0.865
 5438SOL    HW116766   2.435   4.293   0.781
 5438SOL    HW216767   2.480   4.289   0.925
 5439SOL     OW16768   3.438   4.338   0.481
 5439SOL    HW116769   3.398   4.403   0.539
 5439SOL    HW216770   3.485   4.390   0.416
 5440SOL     OW16771   2.858   3.848   1.755
 5440SOL    HW116772   2.915   3.921   1.730
 5440SOL    HW216773   2.906   3.770   1.730
 5441SOL     OW16774   2.360   3.764   1.748
 5441SOL    HW116775   2.316   3.710   1.682
 5441SOL    HW216776   2.301   3.839   1.760
 5442SOL     OW16777   3.072   4.250   0.263
 5442SOL    HW116778   3.083   4.171   0.316
 5442SOL    HW216779   3.024   4.310   0.320
 5443SOL     OW16780   2.161   3.922   1.247
 5443SOL    HW116781   2.123   3.955   1.329
 5443SOL    HW216782   2.142   3.828   1.247
 5444SOL     OW16783   2.594   4.360   1.043
 5444SOL    HW116784   2.668   4.323   0.995
 5444SOL    HW216785   2.604   4.455   1.033
 5445SOL     OW16786   3.614   0.133   1.853
 5445SOL    HW116787   3.547   0.148   1.787
 5445SOL    HW216788   3.572   0.157   1.936
 5446SOL     OW16789   2.166   3.789   0.624
 5446SOL    HW116790   2.145   3.879   0.646
 5446SOL    HW216791   2.172   3.743   0.708
 5447SOL     OW16792   3.478   4.092   0.366
 5447SOL    HW116793   3.507   4.029   0.432
 5447SOL    HW216794   3.454   4.170   0.416
 5448SOL     OW16795   3.395   4.016   0.115
 5448SOL    HW116796   3.336   3.942   0.130
 5448SOL    HW216797   3.429   4.038   0.201
 5449SOL     OW16798   2.180   0.012   0.919
 5449SOL    HW116799   2.257   0.068   0.931
 5449SOL    HW216800   2.194   4.439   0.979
 5450SOL     OW16801   2.198   4.241   1.022
 5450SOL    HW116802   2.159   4.155   1.003
 5450SOL    HW216803   2.273   4.247   0.962
 5451SOL     OW16804   2.999   4.092   1.686
 5451SOL    HW116805   2.946   4.152   1.739
 5451SOL    HW216806   3.083   4.137   1.678
 5452SOL     OW16807   3.022   3.926   1.469
 5452SOL    HW116808   3.013   3.987   1.542
 5452SOL    HW216809   3.063   3.978   1.400
 5453SOL     OW16810   1.898   4.273   1.115
 5453SOL    HW116811   1.979   4.257   1.067
 5453SOL    HW216812   1.925   4.274   1.207
 5454SOL     OW16813   2.056   4.244   1.717
 5454SOL    HW116814   2.110   4.197   1.654
 5454SOL    HW216815   2.003   4.303   1.663
 5455SOL     OW16816   2.676   4.310   0.328
 5455SOL    HW116817   2.688   4.223   0.288
 5455SOL    HW216818   2.582   4.315   0.346
 5456SOL     OW16819   3.498   4.317   1.186
 5456SOL    HW116820   3.494   4.259   1.262
 5456SOL    HW216821   3.586   4.305   1.151
 5457SOL     OW16822   2.548   4.182   1.253
 5457SOL    HW116823   2.501   4.104   1.222
 5457SOL    HW216824   2.549   4.241   1.178
 5458SOL     OW16825   2.332   4.218   0.182
 5458SOL    HW116826   2.373   4.303   0.199
 5458SOL    HW216827   2.239   4.236   0.181
 5459SOL     OW16828   2.780   3.814   0.104
 5459SOL    HW116829   2.830   3.778   0.031
 5459SOL    HW216830   2.817   3.772   0.181
 5460SOL     OW16831   3.581   3.871   0.510
 5460SOL    HW116832   3.654   3.857   0.449
 5460SOL    HW216833   3.567   3.784   0.549
 5461SOL     OW16834   3.139   0.136   0.681
 5461SOL    HW116835   3.196   0.060   0.694
 5461SOL    HW216836   3.189   0.193   0.623
 5462SOL     OW16837   3.702   3.896   0.968
 5462SOL    HW116838   3.731   3.809   0.939
 5462SOL    HW216839   3.616   3.907   0.927
 5463SOL     OW16840   2.124   4.042   0.718
 5463SOL    HW116841   2.036   4.071   0.693
 5463SOL    HW216842   2.119   4.030   0.813
 5464SOL     OW16843   2.924   0.299   0.728
 5464SOL    HW116844   2.843   0.264   0.690
 5464SOL    HW216845   2.991   0.235   0.705
 5465SOL     OW16846   2.882   3.964   0.965
 5465SOL    HW116847   2.878   3.916   0.882
 5465SOL    HW216848   2.878   3.897   1.033
 5466SOL     OW16849   3.584   4.114   1.380
 5466SOL    HW116850   3.655   4.178   1.378
 5466SOL    HW216851   3.614   4.043   1.323
 5467SOL     OW16852   2.536   3.919   1.500
 5467SOL    HW116853   2.621   3.900   1.458
 5467SOL    HW216854   2.559   3.952   1.587
 5468SOL     OW16855   1.943   4.050   0.057
 5468SOL    HW116856   1.876   4.048  11.088
 5468SOL    HW216857   1.971   4.141   0.060
 5469SOL     OW16858   1.928   3.882   0.313
 5469SOL    HW116859   1.914   3.956   0.252
 5469SOL    HW216860   2.011   3.845   0.285
 5470SOL     OW16861   2.592   4.284   1.701
 5470SOL    HW116862   2.591   4.330   1.785
 5470SOL    HW216863   2.609   4.193   1.723
 5471SOL     OW16864   3.079   4.039   0.456
 5471SOL    HW116865   3.143   3.968   0.447
 5471SOL    HW216866   3.108   4.088   0.533
 5472SOL     OW16867   3.621   4.091   1.649
 5472SOL    HW116868   3.605   4.102   1.555
 5472SOL    HW216869   3.551   4.032   1.679
 5473SOL     OW16870   2.962   0.205   0.051
 5473SOL    HW116871   2.960   0.292   0.010
 5473SOL    HW216872   3.052   0.175   0.039
 5474SOL     OW16873   3.676   3.907   1.238
 5474SOL    HW116874   3.684   3.813   1.251
 5474SOL    HW216875   3.684   3.919   1.144
 5475SOL     OW16876   2.304   4.158   0.538
 5475SOL    HW116877   2.329   4.088   0.478
 5475SOL    HW216878   2.248   4.115   0.603
 5476SOL     OW16879   2.186   4.264   1.295
 5476SOL    HW116880   2.243   4.209   1.349
 5476SOL    HW216881   2.206   4.238   1.205
 5477SOL     OW16882   3.294   3.949   1.117
 5477SOL    HW116883   3.318   3.868   1.163
 5477SOL    HW216884   3.242   3.998   1.181
 5478SOL     OW16885   2.871   3.743   1.142
 5478SOL    HW116886   2.817   3.675   1.101
 5478SOL    HW216887   2.959   3.705   1.144
 5479SOL     OW16888   3.213   3.779   0.164
 5479SOL    HW116889   3.234   3.726   0.087
 5479SOL    HW216890   3.126   3.748   0.190
 5480SOL     OW16891   3.161   4.174   0.680
 5480SOL    HW116892   3.126   4.262   0.693
 5480SOL    HW216893   3.160   4.135   0.767
 5481SOL     OW16894   3.448   3.926   0.878
 5481SOL    HW116895   3.388   3.947   0.949
 5481SOL    HW216896   3.449   4.004   0.822
 5482SOL     OW16897   2.086   4.285   1.986
 5482SOL    HW116898   2.036   4.358   2.023
 5482SOL    HW216899   2.078   4.297   1.891
 5483SOL     OW16900   2.086   4.001   2.853
 5483SOL    HW116901   2.114   3.967   2.938
 5483SOL    HW216902   1.996   3.970   2.843
 5484SOL     OW16903   1.866   4.100   2.505
 5484SOL    HW116904   1.785   4.131   2.544
 5484SOL    HW216905   1.841   4.023   2.454
 5485SOL     OW16906   3.592   4.335   2.100
 5485SOL    HW116907   3.592   4.322   2.005
 5485SOL    HW216908   3.593   4.246   2.136
 5486SOL     OW16909   2.592   0.273   2.550
 5486SOL    HW116910   2.582   0.208   2.620
 5486SOL    HW216911   2.504   0.284   2.514
 5487SOL     OW16912   2.311   4.115   3.346
 5487SOL    HW116913   2.388   4.058   3.354
 5487SOL    HW216914   2.237   4.058   3.364
 5488SOL     OW16915   3.477   4.172   2.602
 5488SOL    HW116916   3.408   4.197   2.540
 5488SOL    HW216917   3.475   4.240   2.669
 5489SOL     OW16918   3.458   3.847   3.330
 5489SOL    HW116919   3.465   3.928   3.279
 5489SOL    HW216920   3.443   3.877   3.420
 5490SOL     OW16921   1.935   4.375   2.434
 5490SOL    HW116922   1.930   4.281   2.453
 5490SOL    HW216923   2.006   4.407   2.490
 5491SOL     OW16924   1.981   4.476   3.446
 5491SOL    HW116925   2.049   4.495   3.511
 5491SOL    HW216926   1.949   0.062   3.419
 5492SOL     OW16927   2.677   3.725   2.370
 5492SOL    HW116928   2.717   3.810   2.351
 5492SOL    HW216929   2.584   3.744   2.380
 5493SOL     OW16930   2.196   3.974   3.674
 5493SOL    HW116931   2.235   4.060   3.689
 5493SOL    HW216932   2.105   3.983   3.701
 5494SOL     OW16933   3.139   4.073   2.794
 5494SOL    HW116934   3.050   4.041   2.805
 5494SOL    HW216935   3.191   4.021   2.856
 5495SOL     OW16936   2.691   4.304   3.309
 5495SOL    HW116937   2.650   4.309   3.396
 5495SOL    HW216938   2.624   4.265   3.254
 5496SOL     OW16939   3.257   4.200   3.538
 5496SOL    HW116940   3.260   4.244   3.623
 5496SOL    HW216941   3.315   4.124   3.549
 5497SOL     OW16942   2.860   4.150   3.095
 5497SOL    HW116943   2.788   4.173   3.154
 5497SOL    HW216944   2.820   4.092   3.030
 5498SOL     OW16945   2.918   4.410   2.279
 5498SOL    HW116946   2.915   4.453   2.364
 5498SOL    HW216947   2.831   4.371   2.269
 5499SOL     OW16948   2.755   4.065   2.051
 5499SOL    HW116949   2.795   4.128   1.992
 5499SOL    HW216950   2.772   3.979   2.012
 5500SOL     OW16951   3.571   4.298   3.692
 5500SOL    HW116952   3.584   4.386   3.656
 5500SOL    HW216953   3.592   4.240   3.619
 5501SOL     OW16954   2.412   3.904   2.755
 5501SOL    HW116955   2.414   3.933   2.846
 5501SOL    HW216956   2.411   3.986   2.704
 5502SOL     OW16957   3.353   4.466   2.601
 5502SOL    HW116958   3.337   4.411   2.677
 5502SOL    HW216959   3.393   0.045   2.637
 5503SOL     OW16960   2.061   4.003   3.366
 5503SOL    HW116961   1.976   4.048   3.359
 5503SOL    HW216962   2.045   3.931   3.426
 5504SOL     OW16963   3.263   3.830   2.295
 5504SOL    HW116964   3.254   3.806   2.203
 5504SOL    HW216965   3.357   3.839   2.308
 5505SOL     OW16966   2.216   4.388   2.269
 5505SOL    HW116967   2.254   4.312   2.312
 5505SOL    HW216968   2.146   4.417   2.327
 5506SOL     OW16969   3.397   3.950   3.587
 5506SOL    HW116970   3.406   3.971   3.680
 5506SOL    HW216971   3.328   3.883   3.584
 5507SOL     OW16972   2.497   3.846   1.967
 5507SOL    HW116973   2.565   3.781   1.980
 5507SOL    HW216974   2.447   3.815   1.891
 5508SOL     OW16975   2.627   4.002   3.616
 5508SOL    HW116976   2.704   3.945   3.616
 5508SOL    HW216977   2.579   3.978   3.696
 5509SOL     OW16978   3.204   4.312   3.291
 5509SOL    HW116979   3.226   4.275   3.377
 5509SOL    HW216980   3.248   4.397   3.290
 5510SOL     OW16981   2.786   4.236   2.759
 5510SOL    HW116982   2.763   4.219   2.668
 5510SOL    HW216983   2.825   4.154   2.789
 5511SOL     OW16984   2.411   3.787   2.363
 5511SOL    HW116985   2.331   3.787   2.415
 5511SOL    HW216986   2.404   3.866   2.309
 5512SOL     OW16987   2.153   3.772   2.047
 5512SOL    HW116988   2.212   3.836   2.007
 5512SOL    HW216989   2.212   3.708   2.088
 5513SOL     OW16990   2.800   3.972   2.322
 5513SOL    HW116991   2.774   4.010   2.238
 5513SOL    HW216992   2.895   3.985   2.326
 5514SOL     OW16993   2.937   4.395   3.387
 5514SOL    HW116994   2.854   4.366   3.350
 5514SOL    HW216995   3.003   4.357   3.330
 5515SOL     OW16996   2.887   4.265   1.889
 5515SOL    HW116997   2.871   4.353   1.854
 5515SOL    HW216998   2.950   4.279   1.959
 5516SOL     OW16999   1.938   4.280   3.255
 5516SOL    HW117000   2.029   4.272   3.228
 5516SOL    HW217001   1.938   4.354   3.317
 5517SOL     OW17002   2.421   3.950   3.026
 5517SOL    HW117003   2.462   3.875   3.068
 5517SOL    HW217004   2.330   3.947   3.057
 5518SOL     OW17005   2.730   4.189   2.498
 5518SOL    HW117006   2.698   4.249   2.431
 5518SOL    HW217007   2.750   4.108   2.451
 5519SOL     OW17008   2.876   3.777   2.613
 5519SOL    HW117009   2.819   3.769   2.537
 5519SOL    HW217010   2.855   3.702   2.668
 5520SOL     OW17011   3.339   4.311   2.826
 5520SOL    HW117012   3.278   4.240   2.846
 5520SOL    HW217013   3.390   4.323   2.906
 5521SOL     OW17014   3.265   4.296   1.935
 5521SOL    HW117015   3.202   4.268   2.002
 5521SOL    HW217016   3.348   4.254   1.961
 5522SOL     OW17017   2.388   3.988   2.180
 5522SOL    HW117018   2.431   3.939   2.110
 5522SOL    HW217019   2.370   4.074   2.142
 5523SOL     OW17020   2.780   3.821   3.257
 5523SOL    HW117021   2.804   3.801   3.167
 5523SOL    HW217022   2.859   3.860   3.295
 5524SOL     OW17023   2.297   0.009   3.139
 5524SOL    HW117024   2.365   0.001   3.206
 5524SOL    HW217025   2.254   4.424   3.139
 5525SOL     OW17026   3.127   4.099   3.137
 5525SOL    HW117027   3.161   4.177   3.182
 5525SOL    HW217028   3.038   4.123   3.113
 5526SOL     OW17029   2.415   4.252   2.727
 5526SOL    HW117030   2.434   4.293   2.643
 5526SOL    HW217031   2.480   4.289   2.787
 5527SOL     OW17032   3.430   4.338   2.340
 5527SOL    HW117033   3.404   4.403   2.405
 5527SOL    HW217034   3.491   4.384   2.283
 5528SOL     OW17035   2.858   3.848   3.617
 5528SOL    HW117036   2.915   3.921   3.592
 5528SOL    HW217037   2.906   3.770   3.592
 5529SOL     OW17038   2.360   3.764   3.610
 5529SOL    HW117039   2.316   3.710   3.544
 5529SOL    HW217040   2.301   3.839   3.622
 5530SOL     OW17041   3.072   4.254   2.125
 5530SOL    HW117042   3.082   4.174   2.178
 5530SOL    HW217043   3.023   4.314   2.181
 5531SOL     OW17044   2.161   3.922   3.109
 5531SOL    HW117045   2.123   3.955   3.191
 5531SOL    HW217046   2.142   3.828   3.109
 5532SOL     OW17047   2.594   4.360   2.904
 5532SOL    HW117048   2.668   4.323   2.856
 5532SOL    HW217049   2.605   4.455   2.896
 5533SOL     OW17050   3.614   0.133   3.715
 5533SOL    HW117051   3.547   0.148   3.649
 5533SOL    HW217052   3.571   0.157   3.798
 5534SOL     OW17053   2.166   3.789   2.485
 5534SOL    HW117054   2.145   3.879   2.508
 5534SOL    HW217055   2.173   3.743   2.569
 5535SOL     OW17056   3.476   4.091   2.230
 5535SOL    HW117057   3.506   4.030   2.297
 5535SOL    HW217058   3.452   4.170   2.277
 5536SOL     OW17059   3.388   3.999   1.989
 5536SOL    HW117060   3.325   3.932   2.015
 5536SOL    HW217061   3.423   4.032   2.071
 5537SOL     OW17062   2.181   0.012   2.782
 5537SOL    HW117063   2.257   0.069   2.793
 5537SOL    HW217064   2.195   4.440   2.842
 5538SOL     OW17065   2.198   4.240   2.884
 5538SOL    HW117066   2.159   4.155   2.865
 5538SOL    HW217067   2.273   4.247   2.824
 5539SOL     OW17068   2.999   4.092   3.549
 5539SOL    HW117069   2.946   4.152   3.601
 5539SOL    HW217070   3.083   4.137   3.540
 5540SOL     OW17071   3.022   3.926   3.331
 5540SOL    HW117072   3.013   3.987   3.404
 5540SOL    HW217073   3.063   3.978   3.262
 5541SOL     OW17074   1.898   4.272   2.978
 5541SOL    HW117075   1.979   4.258   2.929
 5541SOL    HW217076   1.925   4.274   3.069
 5542SOL     OW17077   2.056   4.244   3.579
 5542SOL    HW117078   2.110   4.197   3.516
 5542SOL    HW217079   2.003   4.303   3.525
 5543SOL     OW17080   2.681   4.280   2.215
 5543SOL    HW117081   2.684   4.207   2.153
 5543SOL    HW217082   2.595   4.319   2.202
 5544SOL     OW17083   3.498   4.317   3.048
 5544SOL    HW117084   3.494   4.259   3.124
 5544SOL    HW217085   3.586   4.304   3.013
 5545SOL     OW17086   2.547   4.182   3.115
 5545SOL    HW117087   2.501   4.105   3.084
 5545SOL    HW217088   2.549   4.241   3.040
 5546SOL     OW17089   2.342   4.223   2.052
 5546SOL    HW117090   2.373   4.311   2.076
 5546SOL    HW217091   2.248   4.233   2.038
 5547SOL     OW17092   3.582   3.870   2.373
 5547SOL    HW117093   3.654   3.855   2.312
 5547SOL    HW217094   3.566   3.784   2.412
 5548SOL     OW17095   3.141   0.136   2.541
 5548SOL    HW117096   3.199   0.061   2.554
 5548SOL    HW217097   3.192   0.197   2.487
 5549SOL     OW17098   3.702   3.896   2.830
 5549SOL    HW117099   3.731   3.809   2.802
 5549SOL    HW217100   3.616   3.907   2.789
 5550SOL     OW17101   2.124   4.041   2.579
 5550SOL    HW117102   2.036   4.071   2.555
 5550SOL    HW217103   2.120   4.030   2.675
 5551SOL     OW17104   2.768   0.090   2.077
 5551SOL    HW117105   2.849   0.129   2.045
 5551SOL    HW217106   2.790   0.055   2.163
 5552SOL     OW17107   2.928   0.297   2.605
 5552SOL    HW117108   2.853   0.286   2.547
 5552SOL    HW217109   2.992   0.234   2.574
 5553SOL     OW17110   2.882   3.964   2.827
 5553SOL    HW117111   2.878   3.915   2.744
 5553SOL    HW217112   2.878   3.897   2.895
 5554SOL     OW17113   3.584   4.114   3.242
 5554SOL    HW117114   3.655   4.178   3.240
 5554SOL    HW217115   3.614   4.043   3.185
 5555SOL     OW17116   2.536   3.919   3.362
 5555SOL    HW117117   2.621   3.900   3.320
 5555SOL    HW217118   2.559   3.952   3.449
 5556SOL     OW17119   1.937   4.041   1.891
 5556SOL    HW117120   1.851   4.036   1.850
 5556SOL    HW217121   1.969   4.128   1.868
 5557SOL     OW17122   1.930   3.880   2.172
 5557SOL    HW117123   1.915   3.959   2.121
 5557SOL    HW217124   2.015   3.847   2.141
 5558SOL     OW17125   2.592   4.284   3.563
 5558SOL    HW117126   2.591   4.330   3.647
 5558SOL    HW217127   2.609   4.193   3.585
 5559SOL     OW17128   3.080   4.042   2.316
 5559SOL    HW117129   3.142   3.970   2.309
 5559SOL    HW217130   3.108   4.090   2.394
 5560SOL     OW17131   3.621   4.091   3.511
 5560SOL    HW117132   3.605   4.102   3.417
 5560SOL    HW217133   3.551   4.032   3.541
 5561SOL     OW17134   2.974   0.227   1.964
 5561SOL    HW117135   2.961   0.269   1.879
 5561SOL    HW217136   3.059   0.184   1.957
 5562SOL     OW17137   3.676   3.907   3.100
 5562SOL    HW117138   3.684   3.813   3.113
 5562SOL    HW217139   3.684   3.919   3.006
 5563SOL     OW17140   2.303   4.158   2.398
 5563SOL    HW117141   2.326   4.088   2.338
 5563SOL    HW217142   2.248   4.115   2.465
 5564SOL     OW17143   2.186   4.264   3.157
 5564SOL    HW117144   2.243   4.209   3.211
 5564SOL    HW217145   2.206   4.238   3.067
 5565SOL     OW17146   3.294   3.949   2.979
 5565SOL    HW117147   3.318   3.869   3.026
 5565SOL    HW217148   3.242   3.998   3.043
 5566SOL     OW17149   2.871   3.743   3.004
 5566SOL    HW117150   2.817   3.675   2.963
 5566SOL    HW217151   2.959   3.705   3.006
 5567SOL     OW17152   3.215   3.777   2.027
 5567SOL    HW117153   3.243   3.712   1.962
 5567SOL    HW217154   3.127   3.748   2.053
 5568SOL     OW17155   3.161   4.175   2.543
 5568SOL    HW117156   3.126   4.263   2.557
 5568SOL    HW217157   3.160   4.134   2.629
 5569SOL     OW17158   3.448   3.926   2.740
 5569SOL    HW117159   3.389   3.948   2.811
 5569SOL    HW217160   3.449   4.004   2.684
 5570SOL     OW17161   2.085   4.285   3.848
 5570SOL    HW117162   2.036   4.358   3.885
 5570SOL    HW217163   2.078   4.297   3.753
 5571SOL     OW17164   2.086   4.001   4.715
 5571SOL    HW117165   2.114   3.967   4.800
 5571SOL    HW217166   1.996   3.971   4.705
 5572SOL     OW17167   1.866   4.100   4.367
 5572SOL    HW117168   1.785   4.131   4.406
 5572SOL    HW217169   1.841   4.023   4.316
 5573SOL     OW17170   3.592   4.335   3.962
 5573SOL    HW117171   3.592   4.322   3.867
 5573SOL    HW217172   3.593   4.246   3.998
 5574SOL     OW17173   2.592   0.273   4.412
 5574SOL    HW117174   2.582   0.208   4.482
 5574SOL    HW217175   2.504   0.284   4.376
 5575SOL     OW17176   2.311   4.115   5.208
 5575SOL    HW117177   2.388   4.059   5.216
 5575SOL    HW217178   2.237   4.058   5.226
 5576SOL     OW17179   3.477   4.172   4.464
 5576SOL    HW117180   3.408   4.197   4.402
 5576SOL    HW217181   3.475   4.240   4.531
 5577SOL     OW17182   3.458   3.848   5.192
 5577SOL    HW117183   3.465   3.928   5.141
 5577SOL    HW217184   3.443   3.877   5.282
 5578SOL     OW17185   1.935   4.375   4.297
 5578SOL    HW117186   1.930   4.282   4.315
 5578SOL    HW217187   2.006   4.407   4.352
 5579SOL     OW17188   1.981   4.476   5.308
 5579SOL    HW117189   2.049   4.494   5.373
 5579SOL    HW217190   1.949   0.062   5.281
 5580SOL     OW17191   2.677   3.725   4.231
 5580SOL    HW117192   2.717   3.810   4.213
 5580SOL    HW217193   2.583   3.744   4.241
 5581SOL     OW17194   2.196   3.974   5.535
 5581SOL    HW117195   2.235   4.060   5.552
 5581SOL    HW217196   2.105   3.984   5.564
 5582SOL     OW17197   3.139   4.073   4.656
 5582SOL    HW117198   3.050   4.040   4.667
 5582SOL    HW217199   3.191   4.021   4.717
 5583SOL     OW17200   2.690   4.304   5.171
 5583SOL    HW117201   2.650   4.309   5.258
 5583SOL    HW217202   2.623   4.265   5.116
 5584SOL     OW17203   3.257   4.200   5.400
 5584SOL    HW117204   3.260   4.244   5.485
 5584SOL    HW217205   3.315   4.124   5.411
 5585SOL     OW17206   2.860   4.151   4.957
 5585SOL    HW117207   2.788   4.173   5.016
 5585SOL    HW217208   2.820   4.092   4.893
 5586SOL     OW17209   2.918   4.410   4.141
 5586SOL    HW117210   2.915   4.453   4.226
 5586SOL    HW217211   2.831   4.371   4.131
 5587SOL     OW17212   2.754   4.065   3.913
 5587SOL    HW117213   2.795   4.128   3.854
 5587SOL    HW217214   2.773   3.979   3.874
 5588SOL     OW17215   3.571   4.298   5.554
 5588SOL    HW117216   3.584   4.386   5.518
 5588SOL    HW217217   3.592   4.240   5.481
 5589SOL     OW17218   2.412   3.905   4.616
 5589SOL    HW117219   2.414   3.933   4.708
 5589SOL    HW217220   2.411   3.986   4.567
 5590SOL     OW17221   3.353   4.466   4.463
 5590SOL    HW117222   3.337   4.411   4.539
 5590SOL    HW217223   3.393   0.045   4.499
 5591SOL     OW17224   2.061   4.003   5.227
 5591SOL    HW117225   1.976   4.048   5.221
 5591SOL    HW217226   2.045   3.932   5.289
 5592SOL     OW17227   3.263   3.830   4.157
 5592SOL    HW117228   3.254   3.806   4.065
 5592SOL    HW217229   3.357   3.839   4.170
 5593SOL     OW17230   2.216   4.388   4.131
 5593SOL    HW117231   2.254   4.312   4.174
 5593SOL    HW217232   2.146   4.417   4.189
 5594SOL     OW17233   3.396   3.950   5.449
 5594SOL    HW117234   3.405   3.971   5.542
 5594SOL    HW217235   3.328   3.882   5.446
 5595SOL     OW17236   2.497   3.846   3.829
 5595SOL    HW117237   2.565   3.781   3.842
 5595SOL    HW217238   2.447   3.815   3.753
 5596SOL     OW17239   2.627   4.002   5.479
 5596SOL    HW117240   2.704   3.945   5.478
 5596SOL    HW217241   2.579   3.977   5.557
 5597SOL     OW17242   3.204   4.312   5.153
 5597SOL    HW117243   3.226   4.275   5.239
 5597SOL    HW217244   3.248   4.397   5.152
 5598SOL     OW17245   2.786   4.236   4.621
 5598SOL    HW117246   2.763   4.219   4.529
 5598SOL    HW217247   2.825   4.154   4.651
 5599SOL     OW17248   2.411   3.787   4.225
 5599SOL    HW117249   2.331   3.787   4.277
 5599SOL    HW217250   2.404   3.866   4.171
 5600SOL     OW17251   2.153   3.772   3.909
 5600SOL    HW117252   2.212   3.836   3.869
 5600SOL    HW217253   2.212   3.708   3.950
 5601SOL     OW17254   2.800   3.972   4.184
 5601SOL    HW117255   2.774   4.011   4.101
 5601SOL    HW217256   2.895   3.985   4.188
 5602SOL     OW17257   2.937   4.395   5.249
 5602SOL    HW117258   2.854   4.366   5.212
 5602SOL    HW217259   3.003   4.357   5.192
 5603SOL     OW17260   2.886   4.265   3.751
 5603SOL    HW117261   2.871   4.353   3.715
 5603SOL    HW217262   2.950   4.279   3.821
 5604SOL     OW17263   1.938   4.280   5.117
 5604SOL    HW117264   2.029   4.272   5.090
 5604SOL    HW217265   1.938   4.354   5.179
 5605SOL     OW17266   2.421   3.950   4.888
 5605SOL    HW117267   2.463   3.875   4.930
 5605SOL    HW217268   2.330   3.947   4.919
 5606SOL     OW17269   2.730   4.189   4.360
 5606SOL    HW117270   2.698   4.249   4.292
 5606SOL    HW217271   2.750   4.108   4.313
 5607SOL     OW17272   2.877   3.778   4.475
 5607SOL    HW117273   2.819   3.769   4.399
 5607SOL    HW217274   2.855   3.702   4.530
 5608SOL     OW17275   3.339   4.311   4.688
 5608SOL    HW117276   3.278   4.240   4.708
 5608SOL    HW217277   3.390   4.322   4.768
 5609SOL     OW17278   3.265   4.296   3.797
 5609SOL    HW117279   3.202   4.268   3.864
 5609SOL    HW217280   3.348   4.254   3.823
 5610SOL     OW17281   2.387   3.988   4.042
 5610SOL    HW117282   2.431   3.939   3.972
 5610SOL    HW217283   2.370   4.074   4.004
 5611SOL     OW17284   2.780   3.821   5.119
 5611SOL    HW117285   2.804   3.801   5.029
 5611SOL    HW217286   2.859   3.860   5.157
 5612SOL     OW17287   2.297   0.009   5.001
 5612SOL    HW117288   2.365   0.001   5.068
 5612SOL    HW217289   2.254   4.424   5.001
 5613SOL     OW17290   3.127   4.100   4.999
 5613SOL    HW117291   3.161   4.177   5.044
 5613SOL    HW217292   3.038   4.123   4.974
 5614SOL     OW17293   2.415   4.253   4.589
 5614SOL    HW117294   2.435   4.293   4.504
 5614SOL    HW217295   2.480   4.289   4.649
 5615SOL     OW17296   3.430   4.338   4.202
 5615SOL    HW117297   3.404   4.403   4.267
 5615SOL    HW217298   3.491   4.384   4.145
 5616SOL     OW17299   2.857   3.848   5.479
 5616SOL    HW117300   2.915   3.920   5.453
 5616SOL    HW217301   2.905   3.769   5.454
 5617SOL     OW17302   2.360   3.765   5.471
 5617SOL    HW117303   2.316   3.710   5.406
 5617SOL    HW217304   2.301   3.839   5.484
 5618SOL     OW17305   3.072   4.254   3.987
 5618SOL    HW117306   3.082   4.174   4.040
 5618SOL    HW217307   3.023   4.314   4.043
 5619SOL     OW17308   2.160   3.922   4.971
 5619SOL    HW117309   2.123   3.955   5.053
 5619SOL    HW217310   2.141   3.828   4.972
 5620SOL     OW17311   2.594   4.360   4.766
 5620SOL    HW117312   2.668   4.323   4.718
 5620SOL    HW217313   2.605   4.455   4.757
 5621SOL     OW17314   3.614   0.134   5.577
 5621SOL    HW117315   3.547   0.148   5.511
 5621SOL    HW217316   3.571   0.157   5.660
 5622SOL     OW17317   2.165   3.788   4.347
 5622SOL    HW117318   2.145   3.879   4.370
 5622SOL    HW217319   2.173   3.743   4.431
 5623SOL     OW17320   3.476   4.091   4.092
 5623SOL    HW117321   3.506   4.030   4.159
 5623SOL    HW217322   3.452   4.170   4.139
 5624SOL     OW17323   3.388   3.999   3.851
 5624SOL    HW117324   3.325   3.932   3.877
 5624SOL    HW217325   3.423   4.032   3.933
 5625SOL     OW17326   2.181   0.013   4.644
 5625SOL    HW117327   2.257   0.069   4.655
 5625SOL    HW217328   2.195   4.440   4.704
 5626SOL     OW17329   2.198   4.240   4.746
 5626SOL    HW117330   2.159   4.155   4.727
 5626SOL    HW217331   2.273   4.247   4.686
 5627SOL     OW17332   2.999   4.092   5.410
 5627SOL    HW117333   2.946   4.152   5.463
 5627SOL    HW217334   3.084   4.137   5.402
 5628SOL     OW17335   3.022   3.926   5.193
 5628SOL    HW117336   3.012   3.987   5.266
 5628SOL    HW217337   3.063   3.978   5.123
 5629SOL     OW17338   1.898   4.272   4.840
 5629SOL    HW117339   1.979   4.258   4.791
 5629SOL    HW217340   1.925   4.274   4.931
 5630SOL     OW17341   2.055   4.244   5.441
 5630SOL    HW117342   2.111   4.197   5.378
 5630SOL    HW217343   2.003   4.303   5.387
 5631SOL     OW17344   2.681   4.280   4.077
 5631SOL    HW117345   2.684   4.207   4.015
 5631SOL    HW217346   2.595   4.319   4.064
 5632SOL     OW17347   3.498   4.317   4.910
 5632SOL    HW117348   3.494   4.259   4.986
 5632SOL    HW217349   3.586   4.304   4.875
 5633SOL     OW17350   2.547   4.183   4.977
 5633SOL    HW117351   2.501   4.105   4.946
 5633SOL    HW217352   2.549   4.241   4.902
 5634SOL     OW17353   2.342   4.223   3.914
 5634SOL    HW117354   2.373   4.311   3.937
 5634SOL    HW217355   2.248   4.233   3.901
 5635SOL     OW17356   3.582   3.870   4.235
 5635SOL    HW117357   3.654   3.855   4.174
 5635SOL    HW217358   3.566   3.784   4.274
 5636SOL     OW17359   3.141   0.136   4.403
 5636SOL    HW117360   3.199   0.061   4.416
 5636SOL    HW217361   3.192   0.197   4.349
 5637SOL     OW17362   3.702   3.896   4.692
 5637SOL    HW117363   3.731   3.809   4.664
 5637SOL    HW217364   3.616   3.907   4.651
 5638SOL     OW17365   2.124   4.041   4.441
 5638SOL    HW117366   2.036   4.071   4.417
 5638SOL    HW217367   2.120   4.030   4.537
 5639SOL     OW17368   2.768   0.090   3.939
 5639SOL    HW117369   2.849   0.129   3.907
 5639SOL    HW217370   2.791   0.055   4.025
 5640SOL     OW17371   2.928   0.297   4.467
 5640SOL    HW117372   2.853   0.286   4.409
 5640SOL    HW217373   2.992   0.234   4.436
 5641SOL     OW17374   2.882   3.964   4.689
 5641SOL    HW117375   2.878   3.915   4.606
 5641SOL    HW217376   2.878   3.897   4.757
 5642SOL     OW17377   3.584   4.114   5.104
 5642SOL    HW117378   3.655   4.178   5.102
 5642SOL    HW217379   3.614   4.043   5.047
 5643SOL     OW17380   2.537   3.919   5.224
 5643SOL    HW117381   2.621   3.900   5.182
 5643SOL    HW217382   2.559   3.952   5.311
 5644SOL     OW17383   1.937   4.041   3.753
 5644SOL    HW117384   1.851   4.036   3.711
 5644SOL    HW217385   1.969   4.128   3.730
 5645SOL     OW17386   1.930   3.880   4.034
 5645SOL    HW117387   1.915   3.959   3.983
 5645SOL    HW217388   2.015   3.847   4.003
 5646SOL     OW17389   2.592   4.284   5.425
 5646SOL    HW117390   2.592   4.329   5.509
 5646SOL    HW217391   2.609   4.193   5.447
 5647SOL     OW17392   3.080   4.042   4.178
 5647SOL    HW117393   3.142   3.970   4.171
 5647SOL    HW217394   3.108   4.090   4.256
 5648SOL     OW17395   3.621   4.091   5.373
 5648SOL    HW117396   3.605   4.102   5.279
 5648SOL    HW217397   3.551   4.032   5.403
 5649SOL     OW17398   2.974   0.227   3.826
 5649SOL    HW117399   2.961   0.270   3.741
 5649SOL    HW217400   3.059   0.184   3.819
 5650SOL     OW17401   3.676   3.907   4.962
 5650SOL    HW117402   3.684   3.813   4.975
 5650SOL    HW217403   3.685   3.919   4.868
 5651SOL     OW17404   2.302   4.158   4.260
 5651SOL    HW117405   2.326   4.088   4.200
 5651SOL    HW217406   2.248   4.115   4.327
 5652SOL     OW17407   2.186   4.264   5.019
 5652SOL    HW117408   2.243   4.209   5.073
 5652SOL    HW217409   2.206   4.238   4.929
 5653SOL     OW17410   3.294   3.949   4.841
 5653SOL    HW117411   3.318   3.868   4.887
 5653SOL    HW217412   3.242   3.998   4.905
 5654SOL     OW17413   2.871   3.743   4.866
 5654SOL    HW117414   2.817   3.675   4.826
 5654SOL    HW217415   2.959   3.705   4.868
 5655SOL     OW17416   3.215   3.777   3.889
 5655SOL    HW117417   3.243   3.712   3.824
 5655SOL    HW217418   3.127   3.749   3.915
 5656SOL     OW17419   3.161   4.175   4.405
 5656SOL    HW117420   3.126   4.263   4.419
 5656SOL    HW217421   3.160   4.134   4.491
 5657SOL     OW17422   3.448   3.926   4.602
 5657SOL    HW117423   3.389   3.947   4.673
 5657SOL    HW217424   3.449   4.004   4.546
 5658SOL     OW17425   2.086   4.286   5.710
 5658SOL    HW117426   2.035   4.358   5.747
 5658SOL    HW217427   2.078   4.297   5.615
 5659SOL     OW17428   2.086   4.001   6.577
 5659SOL    HW117429   2.114   3.967   6.662
 5659SOL    HW217430   1.996   3.970   6.567
 5660SOL     OW17431   1.866   4.100   6.228
 5660SOL    HW117432   1.785   4.131   6.268
 5660SOL    HW217433   1.841   4.023   6.178
 5661SOL     OW17434   3.592   4.335   5.824
 5661SOL    HW117435   3.592   4.322   5.729
 5661SOL    HW217436   3.593   4.246   5.860
 5662SOL     OW17437   2.592   0.273   6.274
 5662SOL    HW117438   2.583   0.208   6.344
 5662SOL    HW217439   2.504   0.283   6.239
 5663SOL     OW17440   2.311   4.115   7.070
 5663SOL    HW117441   2.388   4.058   7.077
 5663SOL    HW217442   2.237   4.058   7.088
 5664SOL     OW17443   3.477   4.172   6.326
 5664SOL    HW117444   3.408   4.197   6.264
 5664SOL    HW217445   3.475   4.240   6.393
 5665SOL     OW17446   3.458   3.847   7.054
 5665SOL    HW117447   3.465   3.928   7.003
 5665SOL    HW217448   3.443   3.877   7.144
 5666SOL     OW17449   1.934   4.376   6.159
 5666SOL    HW117450   1.930   4.282   6.176
 5666SOL    HW217451   2.006   4.407   6.214
 5667SOL     OW17452   1.980   4.476   7.170
 5667SOL    HW117453   2.048   4.494   7.235
 5667SOL    HW217454   1.949   0.062   7.143
 5668SOL     OW17455   2.677   3.726   6.095
 5668SOL    HW117456   2.717   3.811   6.076
 5668SOL    HW217457   2.583   3.745   6.104
 5669SOL     OW17458   2.196   3.974   7.398
 5669SOL    HW117459   2.235   4.060   7.414
 5669SOL    HW217460   2.105   3.983   7.425
 5670SOL     OW17461   3.139   4.073   6.518
 5670SOL    HW117462   3.050   4.041   6.529
 5670SOL    HW217463   3.191   4.021   6.580
 5671SOL     OW17464   2.691   4.304   7.033
 5671SOL    HW117465   2.650   4.309   7.120
 5671SOL    HW217466   2.624   4.265   6.978
 5672SOL     OW17467   3.257   4.200   7.262
 5672SOL    HW117468   3.260   4.244   7.347
 5672SOL    HW217469   3.315   4.124   7.273
 5673SOL     OW17470   2.860   4.150   6.819
 5673SOL    HW117471   2.788   4.173   6.878
 5673SOL    HW217472   2.820   4.092   6.754
 5674SOL     OW17473   2.918   4.411   6.002
 5674SOL    HW117474   2.915   4.453   6.088
 5674SOL    HW217475   2.831   4.371   5.993
 5675SOL     OW17476   2.755   4.065   5.775
 5675SOL    HW117477   2.795   4.127   5.716
 5675SOL    HW217478   2.771   3.979   5.736
 5676SOL     OW17479   3.571   4.298   7.416
 5676SOL    HW117480   3.584   4.386   7.380
 5676SOL    HW217481   3.592   4.240   7.343
 5677SOL     OW17482   2.412   3.905   6.479
 5677SOL    HW117483   2.414   3.933   6.570
 5677SOL    HW217484   2.411   3.986   6.428
 5678SOL     OW17485   3.353   4.466   6.325
 5678SOL    HW117486   3.336   4.411   6.401
 5678SOL    HW217487   3.393   0.045   6.361
 5679SOL     OW17488   2.061   4.003   7.090
 5679SOL    HW117489   1.976   4.048   7.083
 5679SOL    HW217490   2.045   3.930   7.150
 5680SOL     OW17491   3.263   3.830   6.019
 5680SOL    HW117492   3.253   3.805   5.927
 5680SOL    HW217493   3.357   3.839   6.032
 5681SOL     OW17494   2.216   4.388   5.993
 5681SOL    HW117495   2.253   4.312   6.036
 5681SOL    HW217496   2.146   4.417   6.052
 5682SOL     OW17497   3.397   3.950   7.311
 5682SOL    HW117498   3.405   3.971   7.404
 5682SOL    HW217499   3.328   3.883   7.308
 5683SOL     OW17500   2.497   3.847   5.691
 5683SOL    HW117501   2.564   3.780   5.705
 5683SOL    HW217502   2.448   3.815   5.615
 5684SOL     OW17503   2.627   4.002   7.340
 5684SOL    HW117504   2.704   3.945   7.340
 5684SOL    HW217505   2.579   3.978   7.419
 5685SOL     OW17506   3.204   4.312   7.015
 5685SOL    HW117507   3.226   4.275   7.101
 5685SOL    HW217508   3.248   4.397   7.014
 5686SOL     OW17509   2.786   4.236   6.483
 5686SOL    HW117510   2.763   4.219   6.391
 5686SOL    HW217511   2.825   4.154   6.513
 5687SOL     OW17512   2.411   3.788   6.088
 5687SOL    HW117513   2.331   3.787   6.139
 5687SOL    HW217514   2.404   3.866   6.033
 5688SOL     OW17515   2.154   3.772   5.771
 5688SOL    HW117516   2.212   3.836   5.731
 5688SOL    HW217517   2.212   3.708   5.812
 5689SOL     OW17518   2.800   3.973   6.046
 5689SOL    HW117519   2.774   4.010   5.962
 5689SOL    HW217520   2.895   3.985   6.050
 5690SOL     OW17521   2.937   4.395   7.111
 5690SOL    HW117522   2.854   4.366   7.074
 5690SOL    HW217523   3.003   4.357   7.054
 5691SOL     OW17524   2.886   4.265   5.613
 5691SOL    HW117525   2.871   4.353   5.578
 5691SOL    HW217526   2.951   4.279   5.683
 5692SOL     OW17527   1.938   4.280   6.979
 5692SOL    HW117528   2.029   4.272   6.952
 5692SOL    HW217529   1.938   4.354   7.041
 5693SOL     OW17530   2.421   3.950   6.750
 5693SOL    HW117531   2.462   3.875   6.792
 5693SOL    HW217532   2.330   3.947   6.781
 5694SOL     OW17533   2.730   4.190   6.222
 5694SOL    HW117534   2.698   4.249   6.154
 5694SOL    HW217535   2.750   4.108   6.175
 5695SOL     OW17536   2.876   3.778   6.337
 5695SOL    HW117537   2.819   3.769   6.261
 5695SOL    HW217538   2.855   3.702   6.392
 5696SOL     OW17539   3.339   4.311   6.550
 5696SOL    HW117540   3.278   4.240   6.570
 5696SOL    HW217541   3.390   4.323   6.630
 5697SOL     OW17542   3.265   4.296   5.659
 5697SOL    HW117543   3.202   4.268   5.726
 5697SOL    HW217544   3.348   4.254   5.685
 5698SOL     OW17545   2.388   3.988   5.904
 5698SOL    HW117546   2.431   3.939   5.834
 5698SOL    HW217547   2.370   4.074   5.866
 5699SOL     OW17548   2.780   3.821   6.981
 5699SOL    HW117549   2.804   3.801   6.891
 5699SOL    HW217550   2.859   3.860   7.019
 5700SOL     OW17551   2.297   0.009   6.863
 5700SOL    HW117552   2.365   0.001   6.930
 5700SOL    HW217553   2.254   4.424   6.863
 5701SOL     OW17554   3.127   4.099   6.861
 5701SOL    HW117555   3.161   4.177   6.906
 5701SOL    HW217556   3.038   4.123   6.837
 5702SOL     OW17557   2.415   4.253   6.451
 5702SOL    HW117558   2.435   4.293   6.366
 5702SOL    HW217559   2.480   4.289   6.511
 5703SOL     OW17560   3.430   4.338   6.064
 5703SOL    HW117561   3.404   4.403   6.129
 5703SOL    HW217562   3.491   4.384   6.007
 5704SOL     OW17563   2.858   3.848   7.341
 5704SOL    HW117564   2.915   3.921   7.316
 5704SOL    HW217565   2.906   3.770   7.316
 5705SOL     OW17566   2.360   3.764   7.334
 5705SOL    HW117567   2.316   3.710   7.268
 5705SOL    HW217568   2.301   3.839   7.346
 5706SOL     OW17569   3.072   4.254   5.849
 5706SOL    HW117570   3.082   4.174   5.901
 5706SOL    HW217571   3.023   4.314   5.905
 5707SOL     OW17572   2.161   3.922   6.833
 5707SOL    HW117573   2.123   3.955   6.915
 5707SOL    HW217574   2.142   3.828   6.833
 5708SOL     OW17575   2.594   4.360   6.628
 5708SOL    HW117576   2.668   4.323   6.580
 5708SOL    HW217577   2.605   4.455   6.620
 5709SOL     OW17578   3.614   0.133   7.439
 5709SOL    HW117579   3.547   0.148   7.373
 5709SOL    HW217580   3.571   0.157   7.522
 5710SOL     OW17581   2.165   3.788   6.209
 5710SOL    HW117582   2.145   3.879   6.232
 5710SOL    HW217583   2.172   3.743   6.293
 5711SOL     OW17584   3.476   4.091   5.954
 5711SOL    HW117585   3.506   4.030   6.021
 5711SOL    HW217586   3.452   4.170   6.002
 5712SOL     OW17587   3.388   3.999   5.713
 5712SOL    HW117588   3.325   3.932   5.738
 5712SOL    HW217589   3.423   4.032   5.795
 5713SOL     OW17590   2.181   0.012   6.506
 5713SOL    HW117591   2.257   0.069   6.517
 5713SOL    HW217592   2.195   4.439   6.566
 5714SOL     OW17593   2.198   4.240   6.608
 5714SOL    HW117594   2.159   4.155   6.589
 5714SOL    HW217595   2.273   4.247   6.548
 5715SOL     OW17596   2.999   4.092   7.272
 5715SOL    HW117597   2.946   4.152   7.325
 5715SOL    HW217598   3.083   4.137   7.264
 5716SOL     OW17599   3.022   3.926   7.055
 5716SOL    HW117600   3.013   3.987   7.128
 5716SOL    HW217601   3.063   3.978   6.986
 5717SOL     OW17602   1.898   4.273   6.701
 5717SOL    HW117603   1.979   4.257   6.653
 5717SOL    HW217604   1.925   4.274   6.793
 5718SOL     OW17605   2.056   4.244   7.303
 5718SOL    HW117606   2.110   4.197   7.240
 5718SOL    HW217607   2.003   4.303   7.249
 5719SOL     OW17608   2.681   4.280   5.939
 5719SOL    HW117609   2.684   4.207   5.877
 5719SOL    HW217610   2.594   4.318   5.926
 5720SOL     OW17611   3.498   4.317   6.772
 5720SOL    HW117612   3.494   4.259   6.848
 5720SOL    HW217613   3.586   4.304   6.737
 5721SOL     OW17614   2.547   4.182   6.839
 5721SOL    HW117615   2.501   4.105   6.808
 5721SOL    HW217616   2.549   4.241   6.764
 5722SOL     OW17617   2.342   4.223   5.776
 5722SOL    HW117618   2.373   4.311   5.799
 5722SOL    HW217619   2.248   4.233   5.763
 5723SOL     OW17620   3.582   3.870   6.097
 5723SOL    HW117621   3.654   3.855   6.035
 5723SOL    HW217622   3.566   3.784   6.136
 5724SOL     OW17623   3.141   0.136   6.265
 5724SOL    HW117624   3.199   0.061   6.278
 5724SOL    HW217625   3.192   0.197   6.211
 5725SOL     OW17626   3.702   3.896   6.554
 5725SOL    HW117627   3.731   3.809   6.526
 5725SOL    HW217628   3.616   3.907   6.513
 5726SOL     OW17629   2.124   4.041   6.304
 5726SOL    HW117630   2.036   4.071   6.279
 5726SOL    HW217631   2.120   4.030   6.399
 5727SOL     OW17632   2.768   0.090   5.801
 5727SOL    HW117633   2.849   0.129   5.769
 5727SOL    HW217634   2.791   0.054   5.887
 5728SOL     OW17635   2.928   0.297   6.329
 5728SOL    HW117636   2.853   0.286   6.271
 5728SOL    HW217637   2.992   0.234   6.298
 5729SOL     OW17638   2.882   3.964   6.551
 5729SOL    HW117639   2.878   3.915   6.468
 5729SOL    HW217640   2.878   3.897   6.619
 5730SOL     OW17641   3.584   4.114   6.966
 5730SOL    HW117642   3.655   4.178   6.964
 5730SOL    HW217643   3.614   4.043   6.909
 5731SOL     OW17644   2.536   3.919   7.086
 5731SOL    HW117645   2.621   3.900   7.044
 5731SOL    HW217646   2.559   3.952   7.173
 5732SOL     OW17647   1.937   4.042   5.615
 5732SOL    HW117648   1.850   4.036   5.574
 5732SOL    HW217649   1.969   4.128   5.591
 5733SOL     OW17650   1.931   3.880   5.896
 5733SOL    HW117651   1.915   3.959   5.845
 5733SOL    HW217652   2.015   3.847   5.865
 5734SOL     OW17653   2.592   4.284   7.287
 5734SOL    HW117654   2.591   4.330   7.371
 5734SOL    HW217655   2.609   4.193   7.309
 5735SOL     OW17656   3.080   4.042   6.040
 5735SOL    HW117657   3.142   3.970   6.032
 5735SOL    HW217658   3.109   4.090   6.118
 5736SOL     OW17659   3.621   4.091   7.235
 5736SOL    HW117660   3.605   4.102   7.141
 5736SOL    HW217661   3.551   4.032   7.265
 5737SOL     OW17662   2.974   0.227   5.688
 5737SOL    HW117663   2.961   0.269   5.603
 5737SOL    HW217664   3.059   0.184   5.681
 5738SOL     OW17665   3.676   3.907   6.824
 5738SOL    HW117666   3.684   3.813   6.837
 5738SOL    HW217667   3.684   3.919   6.730
 5739SOL     OW17668   2.302   4.158   6.122
 5739SOL    HW117669   2.326   4.088   6.062
 5739SOL    HW217670   2.248   4.115   6.189
 5740SOL     OW17671   2.186   4.264   6.881
 5740SOL    HW117672   2.243   4.209   6.935
 5740SOL    HW217673   2.206   4.238   6.791
 5741SOL     OW17674   3.294   3.949   6.703
 5741SOL    HW117675   3.318   3.869   6.749
 5741SOL    HW217676   3.242   3.998   6.767
 5742SOL     OW17677   2.871   3.743   6.728
 5742SOL    HW117678   2.817   3.675   6.687
 5742SOL    HW217679   2.959   3.705   6.730
 5743SOL     OW17680   3.215   3.777   5.751
 5743SOL    HW117681   3.244   3.712   5.687
 5743SOL    HW217682   3.127   3.748   5.777
 5744SOL     OW17683   3.161   4.175   6.267
 5744SOL    HW117684   3.126   4.263   6.281
 5744SOL    HW217685   3.160   4.134   6.353
 5745SOL     OW17686   3.448   3.926   6.464
 5745SOL    HW117687   3.389   3.948   6.535
 5745SOL    HW217688   3.449   4.004   6.408
 5746SOL     OW17689   2.086   4.285   7.572
 5746SOL    HW117690   2.036   4.358   7.609
 5746SOL    HW217691   2.078   4.297   7.477
 5747SOL     OW17692   2.086   4.001   8.439
 5747SOL    HW117693   2.114   3.967   8.524
 5747SOL    HW217694   1.996   3.970   8.429
 5748SOL     OW17695   1.866   4.100   8.091
 5748SOL    HW117696   1.785   4.131   8.130
 5748SOL    HW217697   1.841   4.023   8.040
 5749SOL     OW17698   3.592   4.335   7.686
 5749SOL    HW117699   3.592   4.322   7.591
 5749SOL    HW217700   3.593   4.246   7.722
 5750SOL     OW17701   2.592   0.273   8.136
 5750SOL    HW117702   2.582   0.208   8.206
 5750SOL    HW217703   2.504   0.283   8.100
 5751SOL     OW17704   2.311   4.115   8.932
 5751SOL    HW117705   2.388   4.058   8.939
 5751SOL    HW217706   2.237   4.058   8.950
 5752SOL     OW17707   3.477   4.172   8.188
 5752SOL    HW117708   3.408   4.197   8.126
 5752SOL    HW217709   3.475   4.240   8.255
 5753SOL     OW17710   3.458   3.847   8.916
 5753SOL    HW117711   3.465   3.928   8.865
 5753SOL    HW217712   3.443   3.877   9.006
 5754SOL     OW17713   1.935   4.375   8.020
 5754SOL    HW117714   1.930   4.281   8.039
 5754SOL    HW217715   2.006   4.407   8.076
 5755SOL     OW17716   1.980   4.476   9.032
 5755SOL    HW117717   2.048   4.495   9.097
 5755SOL    HW217718   1.949   0.062   9.005
 5756SOL     OW17719   2.677   3.725   7.956
 5756SOL    HW117720   2.717   3.810   7.937
 5756SOL    HW217721   2.584   3.744   7.966
 5757SOL     OW17722   2.196   3.974   9.260
 5757SOL    HW117723   2.235   4.060   9.276
 5757SOL    HW217724   2.105   3.983   9.287
 5758SOL     OW17725   3.139   4.073   8.380
 5758SOL    HW117726   3.050   4.041   8.391
 5758SOL    HW217727   3.191   4.021   8.442
 5759SOL     OW17728   2.691   4.304   8.895
 5759SOL    HW117729   2.650   4.309   8.982
 5759SOL    HW217730   2.624   4.265   8.840
 5760SOL     OW17731   3.257   4.200   9.124
 5760SOL    HW117732   3.260   4.244   9.209
 5760SOL    HW217733   3.315   4.124   9.135
 5761SOL     OW17734   2.860   4.150   8.681
 5761SOL    HW117735   2.788   4.173   8.740
 5761SOL    HW217736   2.820   4.092   8.616
 5762SOL     OW17737   2.918   4.410   7.865
 5762SOL    HW117738   2.915   4.453   7.950
 5762SOL    HW217739   2.831   4.371   7.855
 5763SOL     OW17740   2.755   4.065   7.637
 5763SOL    HW117741   2.795   4.128   7.578
 5763SOL    HW217742   2.772   3.979   7.598
 5764SOL     OW17743   3.571   4.298   9.277
 5764SOL    HW117744   3.584   4.386   9.242
 5764SOL    HW217745   3.592   4.240   9.205
 5765SOL     OW17746   2.412   3.904   8.341
 5765SOL    HW117747   2.414   3.933   8.432
 5765SOL    HW217748   2.411   3.986   8.290
 5766SOL     OW17749   3.353   4.466   8.187
 5766SOL    HW117750   3.337   4.411   8.263
 5766SOL    HW217751   3.393   0.045   8.223
 5767SOL     OW17752   2.061   4.003   8.952
 5767SOL    HW117753   1.976   4.048   8.945
 5767SOL    HW217754   2.045   3.931   9.012
 5768SOL     OW17755   3.263   3.830   7.881
 5768SOL    HW117756   3.254   3.806   7.789
 5768SOL    HW217757   3.357   3.839   7.894
 5769SOL     OW17758   2.216   4.388   7.855
 5769SOL    HW117759   2.254   4.312   7.898
 5769SOL    HW217760   2.146   4.417   7.913
 5770SOL     OW17761   3.397   3.950   9.173
 5770SOL    HW117762   3.406   3.971   9.266
 5770SOL    HW217763   3.328   3.883   9.170
 5771SOL     OW17764   2.497   3.847   7.553
 5771SOL    HW117765   2.565   3.781   7.566
 5771SOL    HW217766   2.447   3.815   7.477
 5772SOL     OW17767   2.627   4.002   9.202
 5772SOL    HW117768   2.704   3.945   9.202
 5772SOL    HW217769   2.579   3.978   9.282
 5773SOL     OW17770   3.204   4.312   8.877
 5773SOL    HW117771   3.226   4.275   8.963
 5773SOL    HW217772   3.248   4.397   8.876
 5774SOL     OW17773   2.786   4.236   8.345
 5774SOL    HW117774   2.763   4.219   8.253
 5774SOL    HW217775   2.825   4.154   8.375
 5775SOL     OW17776   2.411   3.788   7.950
 5775SOL    HW117777   2.331   3.787   8.001
 5775SOL    HW217778   2.404   3.866   7.895
 5776SOL     OW17779   2.153   3.772   7.633
 5776SOL    HW117780   2.212   3.836   7.593
 5776SOL    HW217781   2.212   3.708   7.674
 5777SOL     OW17782   2.800   3.972   7.908
 5777SOL    HW117783   2.774   4.010   7.824
 5777SOL    HW217784   2.895   3.985   7.912
 5778SOL     OW17785   2.937   4.395   8.973
 5778SOL    HW117786   2.854   4.366   8.936
 5778SOL    HW217787   3.003   4.357   8.916
 5779SOL     OW17788   2.886   4.265   7.475
 5779SOL    HW117789   2.871   4.353   7.439
 5779SOL    HW217790   2.950   4.279   7.545
 5780SOL     OW17791   1.938   4.280   8.841
 5780SOL    HW117792   2.029   4.272   8.814
 5780SOL    HW217793   1.938   4.354   8.903
 5781SOL     OW17794   2.421   3.950   8.612
 5781SOL    HW117795   2.462   3.875   8.654
 5781SOL    HW217796   2.330   3.947   8.643
 5782SOL     OW17797   2.731   4.189   8.084
 5782SOL    HW117798   2.698   4.249   8.016
 5782SOL    HW217799   2.750   4.108   8.037
 5783SOL     OW17800   2.876   3.777   8.199
 5783SOL    HW117801   2.819   3.769   8.123
 5783SOL    HW217802   2.855   3.702   8.254
 5784SOL     OW17803   3.339   4.311   8.412
 5784SOL    HW117804   3.278   4.240   8.432
 5784SOL    HW217805   3.390   4.322   8.492
 5785SOL     OW17806   3.265   4.296   7.521
 5785SOL    HW117807   3.202   4.268   7.588
 5785SOL    HW217808   3.348   4.254   7.547
 5786SOL     OW17809   2.388   3.988   7.766
 5786SOL    HW117810   2.431   3.939   7.696
 5786SOL    HW217811   2.370   4.074   7.728
 5787SOL     OW17812   2.780   3.821   8.843
 5787SOL    HW117813   2.804   3.801   8.753
 5787SOL    HW217814   2.859   3.860   8.881
 5788SOL     OW17815   2.297   0.009   8.725
 5788SOL    HW117816   2.365   0.001   8.792
 5788SOL    HW217817   2.254   4.424   8.725
 5789SOL     OW17818   3.127   4.099   8.723
 5789SOL    HW117819   3.161   4.177   8.768
 5789SOL    HW217820   3.038   4.123   8.699
 5790SOL     OW17821   2.415   4.252   8.313
 5790SOL    HW117822   2.434   4.293   8.229
 5790SOL    HW217823   2.480   4.289   8.373
 5791SOL     OW17824   3.430   4.338   7.926
 5791SOL    HW117825   3.404   4.403   7.991
 5791SOL    HW217826   3.491   4.383   7.869
 5792SOL     OW17827   2.858   3.848   9.203
 5792SOL    HW117828   2.915   3.921   9.178
 5792SOL    HW217829   2.906   3.770   9.178
 5793SOL     OW17830   2.360   3.764   9.196
 5793SOL    HW117831   2.316   3.710   9.130
 5793SOL    HW217832   2.301   3.839   9.208
 5794SOL     OW17833   3.072   4.254   7.711
 5794SOL    HW117834   3.082   4.174   7.764
 5794SOL    HW217835   3.023   4.314   7.767
 5795SOL     OW17836   2.161   3.922   8.695
 5795SOL    HW117837   2.123   3.955   8.777
 5795SOL    HW217838   2.142   3.828   8.695
 5796SOL     OW17839   2.594   4.360   8.490
 5796SOL    HW117840   2.668   4.323   8.442
 5796SOL    HW217841   2.605   4.455   8.481
 5797SOL     OW17842   3.614   0.133   9.301
 5797SOL    HW117843   3.547   0.148   9.235
 5797SOL    HW217844   3.571   0.157   9.384
 5798SOL     OW17845   2.166   3.789   8.071
 5798SOL    HW117846   2.145   3.879   8.094
 5798SOL    HW217847   2.173   3.743   8.155
 5799SOL     OW17848   3.476   4.091   7.816
 5799SOL    HW117849   3.506   4.030   7.883
 5799SOL    HW217850   3.452   4.170   7.863
 5800SOL     OW17851   3.388   3.999   7.575
 5800SOL    HW117852   3.325   3.932   7.601
 5800SOL    HW217853   3.423   4.032   7.657
 5801SOL     OW17854   2.181   0.012   8.368
 5801SOL    HW117855   2.257   0.069   8.379
 5801SOL    HW217856   2.195   4.440   8.428
 5802SOL     OW17857   2.198   4.240   8.470
 5802SOL    HW117858   2.159   4.155   8.451
 5802SOL    HW217859   2.273   4.247   8.410
 5803SOL     OW17860   2.999   4.092   9.135
 5803SOL    HW117861   2.946   4.152   9.187
 5803SOL    HW217862   3.083   4.137   9.126
 5804SOL     OW17863   3.022   3.926   8.917
 5804SOL    HW117864   3.013   3.987   8.990
 5804SOL    HW217865   3.063   3.978   8.848
 5805SOL     OW17866   1.898   4.272   8.564
 5805SOL    HW117867   1.979   4.258   8.515
 5805SOL    HW217868   1.925   4.274   8.655
 5806SOL     OW17869   2.056   4.244   9.165
 5806SOL    HW117870   2.110   4.197   9.102
 5806SOL    HW217871   2.003   4.303   9.111
 5807SOL     OW17872   2.681   4.280   7.801
 5807SOL    HW117873   2.684   4.207   7.739
 5807SOL    HW217874   2.595   4.319   7.788
 5808SOL     OW17875   3.498   4.317   8.634
 5808SOL    HW117876   3.494   4.259   8.710
 5808SOL    HW217877   3.586   4.304   8.599
 5809SOL     OW17878   2.548   4.182   8.701
 5809SOL    HW117879   2.501   4.105   8.670
 5809SOL    HW217880   2.549   4.241   8.626
 5810SOL     OW17881   2.342   4.223   7.638
 5810SOL    HW117882   2.373   4.311   7.661
 5810SOL    HW217883   2.248   4.233   7.624
 5811SOL     OW17884   3.582   3.870   7.959
 5811SOL    HW117885   3.654   3.855   7.898
 5811SOL    HW217886   3.566   3.784   7.998
 5812SOL     OW17887   3.141   0.136   8.127
 5812SOL    HW117888   3.199   0.061   8.140
 5812SOL    HW217889   3.192   0.196   8.073
 5813SOL     OW17890   3.702   3.896   8.416
 5813SOL    HW117891   3.731   3.809   8.388
 5813SOL    HW217892   3.616   3.907   8.375
 5814SOL     OW17893   2.124   4.041   8.166
 5814SOL    HW117894   2.036   4.071   8.141
 5814SOL    HW217895   2.120   4.030   8.261
 5815SOL     OW17896   2.768   0.090   7.663
 5815SOL    HW117897   2.849   0.129   7.631
 5815SOL    HW217898   2.791   0.055   7.749
 5816SOL     OW17899   2.928   0.298   8.191
 5816SOL    HW117900   2.853   0.286   8.133
 5816SOL    HW217901   2.992   0.234   8.160
 5817SOL     OW17902   2.882   3.964   8.413
 5817SOL    HW117903   2.878   3.915   8.330
 5817SOL    HW217904   2.878   3.897   8.481
 5818SOL     OW17905   3.584   4.114   8.828
 5818SOL    HW117906   3.655   4.178   8.826
 5818SOL    HW217907   3.614   4.043   8.771
 5819SOL     OW17908   2.536   3.919   8.948
 5819SOL    HW117909   2.621   3.900   8.906
 5819SOL    HW217910   2.559   3.952   9.034
 5820SOL     OW17911   1.937   4.041   7.477
 5820SOL    HW117912   1.851   4.036   7.436
 5820SOL    HW217913   1.969   4.128   7.453
 5821SOL     OW17914   1.930   3.880   7.758
 5821SOL    HW117915   1.915   3.959   7.707
 5821SOL    HW217916   2.015   3.847   7.727
 5822SOL     OW17917   2.592   4.284   9.149
 5822SOL    HW117918   2.591   4.330   9.233
 5822SOL    HW217919   2.609   4.193   9.171
 5823SOL     OW17920   3.080   4.042   7.902
 5823SOL    HW117921   3.142   3.970   7.895
 5823SOL    HW217922   3.108   4.090   7.980
 5824SOL     OW17923   3.621   4.091   9.097
 5824SOL    HW117924   3.605   4.102   9.003
 5824SOL    HW217925   3.551   4.032   9.127
 5825SOL     OW17926   2.974   0.227   7.550
 5825SOL    HW117927   2.961   0.269   7.465
 5825SOL    HW217928   3.059   0.184   7.543
 5826SOL     OW17929   3.676   3.907   8.686
 5826SOL    HW117930   3.684   3.813   8.699
 5826SOL    HW217931   3.684   3.919   8.592
 5827SOL     OW17932   2.303   4.158   7.984
 5827SOL    HW117933   2.326   4.088   7.924
 5827SOL    HW217934   2.248   4.115   8.051
 5828SOL     OW17935   2.186   4.264   8.743
 5828SOL    HW117936   2.243   4.209   8.797
 5828SOL    HW217937   2.206   4.238   8.653
 5829SOL     OW17938   3.294   3.949   8.565
 5829SOL    HW117939   3.318   3.869   8.612
 5829SOL    HW217940   3.242   3.998   8.629
 5830SOL     OW17941   2.871   3.743   8.590
 5830SOL    HW117942   2.817   3.675   8.549
 5830SOL    HW217943   2.959   3.705   8.592
 5831SOL     OW17944   3.215   3.777   7.613
 5831SOL    HW117945   3.243   3.713   7.548
 5831SOL    HW217946   3.127   3.748   7.639
 5832SOL     OW17947   3.161   4.175   8.129
 5832SOL    HW117948   3.126   4.263   8.143
 5832SOL    HW217949   3.160   4.134   8.215
 5833SOL     OW17950   3.448   3.926   8.326
 5833SOL    HW117951   3.389   3.948   8.397
 5833SOL    HW217952   3.449   4.004   8.270
 5834SOL     OW17953   2.086   4.285   9.434
 5834SOL    HW117954   2.036   4.358   9.471
 5834SOL    HW217955   2.078   4.297   9.339
 5835SOL     OW17956   2.087   4.000  10.300
 5835SOL    HW117957   2.114   3.968  10.386
 5835SOL    HW217958   1.996   3.970  10.291
 5836SOL     OW17959   1.866   4.100   9.952
 5836SOL    HW117960   1.785   4.131   9.993
 5836SOL    HW217961   1.841   4.023   9.902
 5837SOL     OW17962   3.592   4.335   9.548
 5837SOL    HW117963   3.592   4.322   9.453
 5837SOL    HW217964   3.593   4.246   9.583
 5838SOL     OW17965   2.592   0.273   9.998
 5838SOL    HW117966   2.582   0.209  10.068
 5838SOL    HW217967   2.504   0.283   9.962
 5839SOL     OW17968   2.317   4.117  10.791
 5839SOL    HW117969   2.387   4.051  10.797
 5839SOL    HW217970   2.237   4.070  10.815
 5840SOL     OW17971   3.476   4.171  10.050
 5840SOL    HW117972   3.408   4.197   9.988
 5840SOL    HW217973   3.476   4.241  10.116
 5841SOL     OW17974   3.451   3.841  10.778
 5841SOL    HW117975   3.467   3.921  10.729
 5841SOL    HW217976   3.452   3.868  10.869
 5842SOL     OW17977   1.935   4.375   9.882
 5842SOL    HW117978   1.930   4.281   9.901
 5842SOL    HW217979   2.006   4.407   9.938
 5843SOL     OW17980   1.993   4.460  10.904
 5843SOL    HW117981   2.089   4.464  10.906
 5843SOL    HW217982   1.965   0.051  10.894
 5844SOL     OW17983   2.677   3.725   9.818
 5844SOL    HW117984   2.717   3.810   9.800
 5844SOL    HW217985   2.584   3.744   9.828
 5845SOL     OW17986   2.206   3.977   0.019
 5845SOL    HW117987   2.248   4.062   0.035
 5845SOL    HW217988   2.113   3.994   0.032
 5846SOL     OW17989   3.139   4.074  10.243
 5846SOL    HW117990   3.050   4.041  10.253
 5846SOL    HW217991   3.191   4.021  10.304
 5847SOL     OW17992   2.687   4.301  10.764
 5847SOL    HW117993   2.639   4.315  10.846
 5847SOL    HW217994   2.623   4.262  10.705
 5848SOL     OW17995   2.859   4.150  10.545
 5848SOL    HW117996   2.784   4.172  10.599
 5848SOL    HW217997   2.824   4.093  10.476
 5849SOL     OW17998   2.918   4.410   9.727
 5849SOL    HW117999   2.915   4.453   9.813
 5849SOL    HW218000   2.831   4.371   9.717
 5850SOL     OW18001   2.755   4.065   9.499
 5850SOL    HW118002   2.795   4.128   9.440
 5850SOL    HW218003   2.773   3.979   9.460
 5851SOL     OW18004   2.413   3.905  10.203
 5851SOL    HW118005   2.414   3.933  10.295
 5851SOL    HW218006   2.411   3.986  10.153
 5852SOL     OW18007   3.353   4.466  10.049
 5852SOL    HW118008   3.336   4.411  10.125
 5852SOL    HW218009   3.393   0.045  10.084
 5853SOL     OW18010   2.065   4.002  10.808
 5853SOL    HW118011   1.985   4.055  10.810
 5853SOL    HW218012   2.052   3.936  10.875
 5854SOL     OW18013   3.263   3.830   9.743
 5854SOL    HW118014   3.254   3.806   9.651
 5854SOL    HW218015   3.357   3.839   9.756
 5855SOL     OW18016   2.216   4.388   9.717
 5855SOL    HW118017   2.254   4.312   9.760
 5855SOL    HW218018   2.146   4.417   9.775
 5856SOL     OW18019   2.497   3.846   9.415
 5856SOL    HW118020   2.565   3.781   9.428
 5856SOL    HW218021   2.447   3.815   9.339
 5857SOL     OW18022   2.627   4.004  11.046
 5857SOL    HW118023   2.694   3.945  11.081
 5857SOL    HW218024   2.567   4.018   0.019
 5858SOL     OW18025   3.214   4.309  10.743
 5858SOL    HW118026   3.231   4.291  10.835
 5858SOL    HW218027   3.241   4.400  10.730
 5859SOL     OW18028   2.786   4.236  10.207
 5859SOL    HW118029   2.763   4.220  10.116
 5859SOL    HW218030   2.824   4.153  10.237
 5860SOL     OW18031   2.411   3.787   9.811
 5860SOL    HW118032   2.331   3.787   9.863
 5860SOL    HW218033   2.404   3.866   9.757
 5861SOL     OW18034   2.153   3.772   9.495
 5861SOL    HW118035   2.212   3.836   9.455
 5861SOL    HW218036   2.212   3.708   9.536
 5862SOL     OW18037   2.800   3.972   9.770
 5862SOL    HW118038   2.774   4.010   9.687
 5862SOL    HW218039   2.895   3.985   9.774
 5863SOL     OW18040   2.941   4.375  10.830
 5863SOL    HW118041   2.853   4.362  10.793
 5863SOL    HW218042   3.000   4.347  10.760
 5864SOL     OW18043   2.886   4.265   9.338
 5864SOL    HW118044   2.871   4.353   9.301
 5864SOL    HW218045   2.950   4.279   9.407
 5865SOL     OW18046   1.936   4.279  10.707
 5865SOL    HW118047   2.027   4.272  10.678
 5865SOL    HW218048   1.939   4.340  10.781
 5866SOL     OW18049   2.420   3.950  10.475
 5866SOL    HW118050   2.461   3.874  10.517
 5866SOL    HW218051   2.329   3.949  10.505
 5867SOL     OW18052   2.731   4.190   9.946
 5867SOL    HW118053   2.698   4.249   9.879
 5867SOL    HW218054   2.750   4.108   9.899
 5868SOL     OW18055   2.876   3.778  10.062
 5868SOL    HW118056   2.819   3.770   9.986
 5868SOL    HW218057   2.855   3.702  10.116
 5869SOL     OW18058   3.339   4.311  10.274
 5869SOL    HW118059   3.279   4.239  10.293
 5869SOL    HW218060   3.389   4.322  10.354
 5870SOL     OW18061   3.265   4.296   9.383
 5870SOL    HW118062   3.202   4.268   9.450
 5870SOL    HW218063   3.348   4.254   9.409
 5871SOL     OW18064   2.388   3.988   9.628
 5871SOL    HW118065   2.431   3.939   9.558
 5871SOL    HW218066   2.370   4.074   9.590
 5872SOL     OW18067   2.781   3.823  10.705
 5872SOL    HW118068   2.805   3.802  10.614
 5872SOL    HW218069   2.859   3.863  10.742
 5873SOL     OW18070   2.299   0.006  10.579
 5873SOL    HW118071   2.357   0.005  10.655
 5873SOL    HW218072   2.251   4.423  10.583
 5874SOL     OW18073   3.128   4.099  10.587
 5874SOL    HW118074   3.163   4.176  10.631
 5874SOL    HW218075   3.039   4.124  10.562
 5875SOL     OW18076   2.416   4.251  10.175
 5875SOL    HW118077   2.434   4.294  10.091
 5875SOL    HW218078   2.480   4.289  10.235
 5876SOL     OW18079   3.430   4.338   9.788
 5876SOL    HW118080   3.404   4.403   9.853
 5876SOL    HW218081   3.491   4.383   9.731
 5877SOL     OW18082   2.269   4.462  10.905
 5877SOL    HW118083   2.334   0.031  10.891
 5877SOL    HW218084   2.320   4.383  10.918
 5878SOL     OW18085   3.072   4.254   9.573
 5878SOL    HW118086   3.082   4.174   9.626
 5878SOL    HW218087   3.023   4.314   9.630
 5879SOL     OW18088   2.161   3.923  10.555
 5879SOL    HW118089   2.126   3.956  10.638
 5879SOL    HW218090   2.141   3.829  10.557
 5880SOL     OW18091   2.594   4.361  10.352
 5880SOL    HW118092   2.668   4.324  10.303
 5880SOL    HW218093   2.604   4.455  10.342
 5881SOL     OW18094   2.166   3.789   9.933
 5881SOL    HW118095   2.145   3.879   9.956
 5881SOL    HW218096   2.172   3.743  10.017
 5882SOL     OW18097   3.476   4.091   9.678
 5882SOL    HW118098   3.506   4.030   9.745
 5882SOL    HW218099   3.452   4.170   9.725
 5883SOL     OW18100   3.388   3.999   9.437
 5883SOL    HW118101   3.325   3.932   9.463
 5883SOL    HW218102   3.423   4.032   9.519
 5884SOL     OW18103   2.181   0.012  10.229
 5884SOL    HW118104   2.257   0.069  10.242
 5884SOL    HW218105   2.194   4.440  10.291
 5885SOL     OW18106   2.198   4.240  10.331
 5885SOL    HW118107   2.159   4.154  10.312
 5885SOL    HW218108   2.273   4.246  10.271
 5886SOL     OW18109   3.019   3.931  10.782
 5886SOL    HW118110   3.027   3.991  10.857
 5886SOL    HW218111   3.060   3.978  10.709
 5887SOL     OW18112   1.899   4.275  10.427
 5887SOL    HW118113   1.980   4.258  10.380
 5887SOL    HW218114   1.924   4.276  10.519
 5888SOL     OW18115   3.207   0.194  10.988
 5888SOL    HW118116   3.279   0.255  11.008
 5888SOL    HW218117   3.232   0.155  10.904
 5889SOL     OW18118   2.681   4.280   9.663
 5889SOL    HW118119   2.684   4.207   9.601
 5889SOL    HW218120   2.595   4.319   9.650
 5890SOL     OW18121   3.498   4.317  10.496
 5890SOL    HW118122   3.495   4.258  10.571
 5890SOL    HW218123   3.586   4.306  10.460
 5891SOL     OW18124   2.554   4.181  10.562
 5891SOL    HW118125   2.503   4.105  10.533
 5891SOL    HW218126   2.550   4.241  10.488
 5892SOL     OW18127   2.342   4.223   9.500
 5892SOL    HW118128   2.373   4.311   9.524
 5892SOL    HW218129   2.248   4.233   9.486
 5893SOL     OW18130   3.582   3.870   9.821
 5893SOL    HW118131   3.654   3.856   9.760
 5893SOL    HW218132   3.566   3.784   9.860
 5894SOL     OW18133   3.142   0.136   9.989
 5894SOL    HW118134   3.199   0.061  10.002
 5894SOL    HW218135   3.192   0.196   9.934
 5895SOL     OW18136   3.702   3.896  10.278
 5895SOL    HW118137   3.731   3.809  10.250
 5895SOL    HW218138   3.616   3.907  10.237
 5896SOL     OW18139   2.124   4.041  10.027
 5896SOL    HW118140   2.036   4.071  10.003
 5896SOL    HW218141   2.120   4.030  10.122
 5897SOL     OW18142   2.768   0.090   9.525
 5897SOL    HW118143   2.849   0.129   9.493
 5897SOL    HW218144   2.791   0.055   9.611
 5898SOL     OW18145   2.928   0.298  10.053
 5898SOL    HW118146   2.853   0.287   9.995
 5898SOL    HW218147   2.992   0.234  10.022
 5899SOL     OW18148   2.882   3.964  10.275
 5899SOL    HW118149   2.878   3.916  10.193
 5899SOL    HW218150   2.878   3.897  10.343
 5900SOL     OW18151   3.580   4.116  10.691
 5900SOL    HW118152   3.652   4.179  10.692
 5900SOL    HW218153   3.611   4.045  10.634
 5901SOL     OW18154   2.536   3.916  10.803
 5901SOL    HW118155   2.619   3.897  10.759
 5901SOL    HW218156   2.563   3.955  10.887
 5902SOL     OW18157   1.937   4.041   9.339
 5902SOL    HW118158   1.851   4.036   9.298
 5902SOL    HW218159   1.969   4.128   9.316
 5903SOL     OW18160   1.930   3.880   9.620
 5903SOL    HW118161   1.915   3.959   9.569
 5903SOL    HW218162   2.015   3.847   9.589
 5904SOL     OW18163   2.582   4.299  11.024
 5904SOL    HW118164   2.625   4.343  11.097
 5904SOL    HW218165   2.616   4.210  11.025
 5905SOL     OW18166   3.080   4.042   9.764
 5905SOL    HW118167   3.142   3.970   9.757
 5905SOL    HW218168   3.108   4.090   9.842
 5906SOL     OW18169   3.614   4.052  10.957
 5906SOL    HW118170   3.593   4.082  10.869
 5906SOL    HW218171   3.532   4.058  11.006
 5907SOL     OW18172   2.974   0.227   9.412
 5907SOL    HW118173   2.961   0.269   9.327
 5907SOL    HW218174   3.059   0.184   9.405
 5908SOL     OW18175   3.671   3.907  10.549
 5908SOL    HW118176   3.682   3.813  10.561
 5908SOL    HW218177   3.682   3.920  10.454
 5909SOL     OW18178   2.303   4.158   9.846
 5909SOL    HW118179   2.326   4.087   9.786
 5909SOL    HW218180   2.248   4.115   9.913
 5910SOL     OW18181   2.183   4.264  10.604
 5910SOL    HW118182   2.240   4.210  10.659
 5910SOL    HW218183   2.204   4.237  10.515
 5911SOL     OW18184   3.293   3.948  10.427
 5911SOL    HW118185   3.321   3.869  10.473
 5911SOL    HW218186   3.242   3.997  10.492
 5912SOL     OW18187   2.871   3.743  10.453
 5912SOL    HW118188   2.817   3.676  10.411
 5912SOL    HW218189   2.959   3.705  10.454
 5913SOL     OW18190   3.215   3.777   9.475
 5913SOL    HW118191   3.243   3.713   9.410
 5913SOL    HW218192   3.127   3.748   9.501
 5914SOL     OW18193   3.160   4.175   9.991
 5914SOL    HW118194   3.126   4.263  10.005
 5914SOL    HW218195   3.160   4.135  10.077
 5915SOL     OW18196   3.448   3.926  10.187
 5915SOL    HW118197   3.389   3.947  10.259
 5915SOL    HW218198   3.449   4.004  10.132
 5916SOL     OW18199   3.945   0.609   0.113
 5916SOL    HW118200   3.863   0.618   0.161
 5916SOL    HW218201   3.926   0.647   0.027
 5917SOL     OW18202   3.930   0.304   0.989
 5917SOL    HW118203   3.964   0.273   1.073
 5917SOL    HW218204   3.849   0.253   0.976
 5918SOL     OW18205   3.730   0.387   0.637
 5918SOL    HW118206   3.644   0.406   0.675
 5918SOL    HW218207   3.715   0.311   0.580
 5919SOL     OW18208   4.265   1.244   1.147
 5919SOL    HW118209   4.198   1.307   1.123
 5919SOL    HW218210   4.334   1.296   1.188
 5920SOL     OW18211   0.020   0.776   1.857
 5920SOL    HW118212   0.068   0.821   1.927
 5920SOL    HW218213   0.062   0.806   1.777
 5921SOL     OW18214   4.396   0.988   0.636
 5921SOL    HW118215   4.475   0.992   0.691
 5921SOL    HW218216   4.335   1.049   0.678
 5922SOL     OW18217   4.419   1.161   1.812
 5922SOL    HW118218   4.458   1.242   1.778
 5922SOL    HW218219   4.327   1.168   1.789
 5923SOL     OW18220   4.061   1.432   1.069
 5923SOL    HW118221   3.989   1.388   1.024
 5923SOL    HW218222   4.106   1.481   1.000
 5924SOL     OW18223   4.163   0.395   1.485
 5924SOL    HW118224   4.242   0.342   1.486
 5924SOL    HW218225   4.091   0.333   1.499
 5925SOL     OW18226   3.941   1.713   0.474
 5925SOL    HW118227   3.962   1.791   0.527
 5925SOL    HW218228   4.013   1.708   0.411
 5926SOL     OW18229   3.951   1.441   0.532
 5926SOL    HW118230   3.935   1.535   0.536
 5926SOL    HW218231   3.892   1.404   0.598
 5927SOL     OW18232   3.976   1.088   0.886
 5927SOL    HW118233   3.980   1.004   0.930
 5927SOL    HW218234   3.924   1.144   0.945
 5928SOL     OW18235   4.361   1.798   1.455
 5928SOL    HW118236   4.274   1.764   1.478
 5928SOL    HW218237   4.351   1.893   1.455
 5929SOL     OW18238   4.297   1.006   0.139
 5929SOL    HW118239   4.311   1.074   0.073
 5929SOL    HW218240   4.379   1.005   0.189
 5930SOL     OW18241   3.838   0.652   0.560
 5930SOL    HW118242   3.808   0.564   0.583
 5930SOL    HW218243   3.830   0.702   0.641
 5931SOL     OW18244   3.771   1.601   0.120
 5931SOL    HW118245   3.742   1.513   0.144
 5931SOL    HW218246   3.744   1.656   0.193
 5932SOL     OW18247   3.845   0.745   1.584
 5932SOL    HW118248   3.936   0.772   1.593
 5932SOL    HW218249   3.795   0.826   1.591
 5933SOL     OW18250   4.309   1.388   0.738
 5933SOL    HW118251   4.274   1.299   0.741
 5933SOL    HW218252   4.311   1.409   0.645
 5934SOL     OW18253   0.015   0.006   0.499
 5934SOL    HW118254   0.046   0.074   0.439
 5934SOL    HW218255   4.428   0.035   0.525
 5935SOL     OW18256   3.912   0.964   1.273
 5935SOL    HW118257   3.997   0.926   1.255
 5935SOL    HW218258   3.850   0.913   1.221
 5936SOL     OW18259   4.039   0.251   1.784
 5936SOL    HW118260   4.100   0.318   1.813
 5936SOL    HW218261   3.965   0.258   1.844
 5937SOL     OW18262   4.308   0.716   0.269
 5937SOL    HW118263   4.330   0.794   0.218
 5937SOL    HW218264   4.246   0.747   0.335
 5938SOL     OW18265   3.812   0.822   0.775
 5938SOL    HW118266   3.893   0.814   0.826
 5938SOL    HW218267   3.770   0.900   0.810
 5939SOL     OW18268   3.853   1.848   1.578
 5939SOL    HW118269   3.853   1.828   1.671
 5939SOL    HW218270   3.761   1.839   1.551
 5940SOL     OW18271   4.243   0.204   0.895
 5940SOL    HW118272   4.282   0.219   0.981
 5940SOL    HW218273   4.261   0.284   0.846
 5941SOL     OW18274   4.082   1.813   0.864
 5941SOL    HW118275   4.132   1.732   0.871
 5941SOL    HW218276   4.148   1.882   0.874
 5942SOL     OW18277   4.040   0.960   0.276
 5942SOL    HW118278   4.120   0.984   0.228
 5942SOL    HW218279   4.014   0.876   0.239
 5943SOL     OW18280   4.177   1.251   1.734
 5943SOL    HW118281   4.151   1.264   1.643
 5943SOL    HW218282   4.097   1.262   1.785
 5944SOL     OW18283   3.911   0.269   1.513
 5944SOL    HW118284   3.845   0.336   1.497
 5944SOL    HW218285   3.925   0.271   1.608
 5945SOL     OW18286   4.191   1.732   0.327
 5945SOL    HW118287   4.224   1.795   0.391
 5945SOL    HW218288   4.264   1.719   0.267
 5946SOL     OW18289   3.980   1.793   1.232
 5946SOL    HW118290   4.026   1.722   1.276
 5946SOL    HW218291   3.967   1.761   1.143
 5947SOL     OW18292   4.108   0.693   0.474
 5947SOL    HW118293   4.134   0.602   0.488
 5947SOL    HW218294   4.015   0.695   0.498
 5948SOL     OW18295   4.344   0.130   0.104
 5948SOL    HW118296   4.429   0.097   0.135
 5948SOL    HW218297   4.324   0.075   0.028
 5949SOL     OW18298   0.022   1.419   0.910
 5949SOL    HW118299   0.078   1.471   0.853
 5949SOL    HW218300   4.445   1.400   0.856
 5950SOL     OW18301   4.273   0.110   0.539
 5950SOL    HW118302   4.189   0.076   0.568
 5950SOL    HW218303   4.252   0.158   0.459
 5951SOL     OW18304   4.010   0.054   0.201
 5951SOL    HW118305   4.076   0.107   0.157
 5951SOL    HW218306   4.058   0.007   0.269
 5952SOL     OW18307   0.324   0.677   1.458
 5952SOL    HW118308   0.257   0.613   1.438
 5952SOL    HW218309   0.407   0.630   1.450
 5953SOL     OW18310   4.192   1.145   0.735
 5953SOL    HW118311   4.123   1.126   0.799
 5953SOL    HW218312   4.149   1.131   0.650
 5954SOL     OW18313   3.807   0.550   1.395
 5954SOL    HW118314   3.898   0.554   1.364
 5954SOL    HW218315   3.800   0.622   1.458
 5955SOL     OW18316   4.296   0.237   1.159
 5955SOL    HW118317   4.303   0.144   1.182
 5955SOL    HW218318   4.210   0.263   1.190
 5956SOL     OW18319   4.237   1.399   0.191
 5956SOL    HW118320   4.152   1.386   0.232
 5956SOL    HW218321   4.222   1.379   0.099
 5957SOL     OW18322   4.241   0.265   0.317
 5957SOL    HW118323   4.285   0.214   0.249
 5957SOL    HW218324   4.222   0.349   0.274
 5958SOL     OW18325   4.141   0.814   1.250
 5958SOL    HW118326   4.208   0.824   1.317
 5958SOL    HW218327   4.106   0.726   1.263
 5959SOL     OW18328   3.794   1.573   1.353
 5959SOL    HW118329   3.762   1.644   1.298
 5959SOL    HW218330   3.889   1.578   1.346
 5960SOL     OW18331   4.067   1.119   0.496
 5960SOL    HW118332   4.069   1.192   0.435
 5960SOL    HW218333   4.063   1.041   0.441
 5961SOL     OW18334   4.304   0.537   0.862
 5961SOL    HW118335   4.302   0.604   0.793
 5961SOL    HW218336   4.366   0.571   0.926
 5962SOL     OW18337   4.072   1.535   1.316
 5962SOL    HW118338   4.067   1.491   1.231
 5962SOL    HW218339   4.165   1.535   1.337
 5963SOL     OW18340   4.138   0.740   1.605
 5963SOL    HW118341   4.195   0.786   1.544
 5963SOL    HW218342   4.185   0.659   1.626
 5964SOL     OW18343   4.239   0.071   1.725
 5964SOL    HW118344   4.207   4.485   1.697
 5964SOL    HW218345   4.161   0.123   1.741
 5965SOL     OW18346   4.289   0.891   1.026
 5965SOL    HW118347   4.317   0.982   1.041
 5965SOL    HW218348   4.243   0.867   1.106
 5966SOL     OW18349   4.014   0.237   1.241
 5966SOL    HW118350   3.969   0.249   1.324
 5966SOL    HW218351   4.053   0.150   1.246
 5967SOL     OW18352   3.770   1.311   1.277
 5967SOL    HW118353   3.803   1.256   1.348
 5967SOL    HW218354   3.776   1.400   1.311
 5968SOL     OW18355   4.018   0.057   0.655
 5968SOL    HW118356   4.007   0.152   0.658
 5968SOL    HW218357   4.029   0.031   0.747
 5969SOL     OW18358   4.076   0.916   1.808
 5969SOL    HW118359   4.158   0.930   1.856
 5969SOL    HW218360   4.099   0.851   1.741
 5970SOL     OW18361   4.031   0.809   0.945
 5970SOL    HW118362   4.122   0.838   0.946
 5970SOL    HW218363   4.034   0.718   0.977
 5971SOL     OW18364   4.069   0.533   1.010
 5971SOL    HW118365   4.025   0.450   0.991
 5971SOL    HW218366   4.148   0.531   0.955
 5972SOL     OW18367   3.732   1.327   0.194
 5972SOL    HW118368   3.645   1.339   0.156
 5972SOL    HW218369   3.732   1.237   0.226
 5973SOL     OW18370   3.816   1.787   0.939
 5973SOL    HW118371   3.786   1.708   0.895
 5973SOL    HW218372   3.906   1.800   0.907
 5974SOL     OW18373   4.232   1.584   0.906
 5974SOL    HW118374   4.318   1.613   0.936
 5974SOL    HW218375   4.251   1.515   0.843
 5975SOL     OW18376   3.757   0.544   1.118
 5975SOL    HW118377   3.832   0.519   1.064
 5975SOL    HW218378   3.791   0.547   1.207
 5976SOL     OW18379   3.909   0.519   1.721
 5976SOL    HW118380   3.985   0.501   1.666
 5976SOL    HW218381   3.867   0.595   1.680
 5977SOL     OW18382   0.025   0.541   0.264
 5977SOL    HW118383   0.020   0.491   0.346
 5977SOL    HW218384   4.462   0.612   0.276
 5978SOL     OW18385   3.969   1.553   1.727
 5978SOL    HW118386   3.943   1.617   1.793
 5978SOL    HW218387   3.967   1.469   1.773
 5979SOL     OW18388   4.187   0.489   0.173
 5979SOL    HW118389   4.243   0.560   0.204
 5979SOL    HW218390   4.101   0.529   0.164
 5980SOL     OW18391   3.870   1.140   1.473
 5980SOL    HW118392   3.871   1.089   1.553
 5980SOL    HW218393   3.886   1.076   1.403
 5981SOL     OW18394   3.809   1.269   1.012
 5981SOL    HW118395   3.793   1.280   1.106
 5981SOL    HW218396   3.738   1.213   0.983
 5982SOL     OW18397   4.389   1.651   1.700
 5982SOL    HW118398   4.355   1.736   1.729
 5982SOL    HW218399   4.427   1.668   1.614
 5983SOL     OW18400   3.861   1.796   1.843
 5983SOL    HW118401   3.810   1.732   1.892
 5983SOL    HW218402   3.908   1.845   1.911
 5984SOL     OW18403   3.988   0.325   0.715
 5984SOL    HW118404   3.901   0.357   0.691
 5984SOL    HW218405   3.984   0.315   0.810
 5985SOL     OW18406   4.087   1.308   1.490
 5985SOL    HW118407   4.068   1.383   1.435
 5985SOL    HW218408   4.015   1.247   1.475
 5986SOL     OW18409   4.325   1.490   0.481
 5986SOL    HW118410   4.343   1.434   0.405
 5986SOL    HW218411   4.256   1.550   0.451
 5987SOL     OW18412   3.991   1.341   0.288
 5987SOL    HW118413   3.903   1.342   0.250
 5987SOL    HW218414   3.979   1.380   0.375
 5988SOL     OW18415   3.836   1.024   1.720
 5988SOL    HW118416   3.760   0.999   1.772
 5988SOL    HW218417   3.910   0.985   1.767
 5989SOL     OW18418   4.368   0.206   1.489
 5989SOL    HW118419   4.459   0.225   1.467
 5989SOL    HW218420   4.372   0.173   1.579
 5990SOL     OW18421   3.800   0.340   0.054
 5990SOL    HW118422   3.726   0.310   0.002
 5990SOL    HW218423   3.816   0.429   0.024
 5991SOL     OW18424   3.789   0.183   0.324
 5991SOL    HW118425   3.784   0.248   0.254
 5991SOL    HW218426   3.860   0.124   0.296
 5992SOL     OW18427   4.339   0.840   1.436
 5992SOL    HW118428   4.377   0.926   1.420
 5992SOL    HW218429   4.413   0.784   1.457
 5993SOL     OW18430   4.395   0.560   1.732
 5993SOL    HW118431   4.419   0.634   1.789
 5993SOL    HW218432   4.479   0.521   1.707
 5994SOL     OW18433   4.107   1.739   1.561
 5994SOL    HW118434   4.022   1.781   1.547
 5994SOL    HW218435   4.087   1.658   1.607
 5995SOL     OW18436   4.309   0.728   0.666
 5995SOL    HW118437   4.350   0.814   0.657
 5995SOL    HW218438   4.239   0.727   0.601
 5996SOL     OW18439   3.943   1.306   1.854
 5996SOL    HW118440   3.878   1.243   1.826
 5996SOL    HW218441   3.927   1.317   1.948
 5997SOL     OW18442   3.809   1.232   0.666
 5997SOL    HW118443   3.814   1.184   0.749
 5997SOL    HW218444   3.879   1.196   0.612
 5998SOL     OW18445   4.418   1.386   1.662
 5998SOL    HW118446   4.328   1.354   1.654
 5998SOL    HW218447   4.409   1.480   1.676
 5999SOL     OW18448   4.164   0.433   0.531
 5999SOL    HW118449   4.182   0.362   0.469
 5999SOL    HW218450   4.108   0.394   0.598
 6000SOL     OW18451   4.054   0.557   1.289
 6000SOL    HW118452   4.106   0.498   1.344
 6000SOL    HW218453   4.073   0.530   1.199
 6001SOL     OW18454   0.035   1.600   0.687
 6001SOL    HW118455   0.063   1.662   0.620
 6001SOL    HW218456   4.465   1.549   0.645
 6002SOL     OW18457   3.766   1.070   0.301
 6002SOL    HW118458   3.862   1.065   0.297
 6002SOL    HW218459   3.738   0.982   0.326
 6003SOL     OW18460   3.954   0.626   1.982
 6003SOL    HW118461   3.867   0.619   2.023
 6003SOL    HW218462   3.941   0.595   1.893
 6004SOL     OW18463   3.929   0.304   2.851
 6004SOL    HW118464   3.964   0.273   2.935
 6004SOL    HW218465   3.849   0.253   2.838
 6005SOL     OW18466   3.731   0.388   2.499
 6005SOL    HW118467   3.644   0.406   2.536
 6005SOL    HW218468   3.717   0.313   2.441
 6006SOL     OW18469   4.266   1.244   3.008
 6006SOL    HW118470   4.198   1.307   2.985
 6006SOL    HW218471   4.334   1.296   3.050
 6007SOL     OW18472   0.020   0.777   3.719
 6007SOL    HW118473   0.069   0.821   3.789
 6007SOL    HW218474   0.062   0.806   3.638
 6008SOL     OW18475   4.398   0.990   2.497
 6008SOL    HW118476   4.473   0.986   2.556
 6008SOL    HW218477   4.337   1.049   2.540
 6009SOL     OW18478   4.419   1.161   3.674
 6009SOL    HW118479   4.458   1.241   3.640
 6009SOL    HW218480   4.327   1.168   3.651
 6010SOL     OW18481   4.061   1.432   2.931
 6010SOL    HW118482   3.988   1.388   2.887
 6010SOL    HW218483   4.106   1.480   2.862
 6011SOL     OW18484   4.163   0.395   3.348
 6011SOL    HW118485   4.242   0.342   3.348
 6011SOL    HW218486   4.091   0.333   3.361
 6012SOL     OW18487   3.942   1.714   2.335
 6012SOL    HW118488   3.962   1.791   2.389
 6012SOL    HW218489   4.017   1.706   2.276
 6013SOL     OW18490   3.954   1.441   2.396
 6013SOL    HW118491   3.935   1.535   2.402
 6013SOL    HW218492   3.895   1.401   2.460
 6014SOL     OW18493   3.976   1.088   2.748
 6014SOL    HW118494   3.980   1.003   2.792
 6014SOL    HW218495   3.924   1.143   2.807
 6015SOL     OW18496   4.361   1.798   3.317
 6015SOL    HW118497   4.274   1.764   3.340
 6015SOL    HW218498   4.350   1.893   3.317
 6016SOL     OW18499   4.309   0.986   2.001
 6016SOL    HW118500   4.340   1.037   1.926
 6016SOL    HW218501   4.377   0.998   2.067
 6017SOL     OW18502   3.840   0.653   2.422
 6017SOL    HW118503   3.810   0.565   2.444
 6017SOL    HW218504   3.831   0.702   2.504
 6018SOL     OW18505   3.758   1.595   1.986
 6018SOL    HW118506   3.738   1.503   2.005
 6018SOL    HW218507   3.733   1.642   2.065
 6019SOL     OW18508   3.845   0.745   3.446
 6019SOL    HW118509   3.936   0.772   3.455
 6019SOL    HW218510   3.795   0.826   3.452
 6020SOL     OW18511   4.309   1.388   2.600
 6020SOL    HW118512   4.274   1.299   2.603
 6020SOL    HW218513   4.311   1.410   2.506
 6021SOL     OW18514   0.018   0.016   2.372
 6021SOL    HW118515   0.048   0.078   2.306
 6021SOL    HW218516   4.428   0.042   2.391
 6022SOL     OW18517   3.912   0.964   3.135
 6022SOL    HW118518   3.997   0.926   3.117
 6022SOL    HW218519   3.850   0.913   3.083
 6023SOL     OW18520   4.039   0.251   3.646
 6023SOL    HW118521   4.100   0.318   3.675
 6023SOL    HW218522   3.965   0.258   3.706
 6024SOL     OW18523   4.312   0.728   2.132
 6024SOL    HW118524   4.308   0.806   2.078
 6024SOL    HW218525   4.245   0.741   2.199
 6025SOL     OW18526   3.812   0.821   2.638
 6025SOL    HW118527   3.893   0.813   2.689
 6025SOL    HW218528   3.770   0.900   2.672
 6026SOL     OW18529   3.853   1.849   3.440
 6026SOL    HW118530   3.853   1.828   3.533
 6026SOL    HW218531   3.762   1.838   3.413
 6027SOL     OW18532   4.241   0.203   2.759
 6027SOL    HW118533   4.283   0.220   2.843
 6027SOL    HW218534   4.261   0.280   2.706
 6028SOL     OW18535   4.083   1.813   2.726
 6028SOL    HW118536   4.132   1.732   2.733
 6028SOL    HW218537   4.148   1.882   2.737
 6029SOL     OW18538   4.042   0.959   2.113
 6029SOL    HW118539   4.125   0.977   2.068
 6029SOL    HW218540   4.012   0.876   2.075
 6030SOL     OW18541   4.177   1.251   3.596
 6030SOL    HW118542   4.151   1.264   3.505
 6030SOL    HW218543   4.097   1.262   3.647
 6031SOL     OW18544   3.911   0.269   3.375
 6031SOL    HW118545   3.845   0.336   3.359
 6031SOL    HW218546   3.924   0.271   3.470
 6032SOL     OW18547   4.191   1.735   2.187
 6032SOL    HW118548   4.224   1.795   2.254
 6032SOL    HW218549   4.261   1.731   2.121
 6033SOL     OW18550   3.980   1.793   3.094
 6033SOL    HW118551   4.027   1.722   3.138
 6033SOL    HW218552   3.966   1.760   3.005
 6034SOL     OW18553   4.112   0.693   2.334
 6034SOL    HW118554   4.136   0.602   2.349
 6034SOL    HW218555   4.018   0.697   2.355
 6035SOL     OW18556   4.327   0.120   1.979
 6035SOL    HW118557   4.412   0.078   1.990
 6035SOL    HW218558   4.302   0.101   1.889
 6036SOL     OW18559   0.021   1.420   2.772
 6036SOL    HW118560   0.079   1.469   2.715
 6036SOL    HW218561   4.444   1.401   2.718
 6037SOL     OW18562   4.271   0.110   2.402
 6037SOL    HW118563   4.187   0.070   2.424
 6037SOL    HW218564   4.254   0.161   2.323
 6038SOL     OW18565   4.024   0.071   2.062
 6038SOL    HW118566   4.103   0.120   2.043
 6038SOL    HW218567   4.052   0.000   2.120
 6039SOL     OW18568   0.324   0.677   3.321
 6039SOL    HW118569   0.257   0.613   3.299
 6039SOL    HW218570   0.406   0.630   3.312
 6040SOL     OW18571   4.190   1.145   2.593
 6040SOL    HW118572   4.122   1.126   2.658
 6040SOL    HW218573   4.149   1.128   2.509
 6041SOL     OW18574   3.807   0.549   3.257
 6041SOL    HW118575   3.898   0.554   3.226
 6041SOL    HW218576   3.800   0.621   3.320
 6042SOL     OW18577   4.297   0.238   3.023
 6042SOL    HW118578   4.304   0.144   3.043
 6042SOL    HW218579   4.210   0.263   3.052
 6043SOL     OW18580   4.231   1.386   2.035
 6043SOL    HW118581   4.146   1.372   2.077
 6043SOL    HW218582   4.210   1.401   1.943
 6044SOL     OW18583   4.243   0.271   2.185
 6044SOL    HW118584   4.284   0.215   2.119
 6044SOL    HW218585   4.223   0.352   2.139
 6045SOL     OW18586   4.141   0.815   3.112
 6045SOL    HW118587   4.208   0.824   3.179
 6045SOL    HW218588   4.106   0.726   3.124
 6046SOL     OW18589   3.794   1.573   3.216
 6046SOL    HW118590   3.762   1.644   3.160
 6046SOL    HW218591   3.889   1.579   3.208
 6047SOL     OW18592   4.069   1.110   2.351
 6047SOL    HW118593   4.071   1.183   2.289
 6047SOL    HW218594   4.067   1.032   2.297
 6048SOL     OW18595   4.303   0.539   2.725
 6048SOL    HW118596   4.301   0.604   2.655
 6048SOL    HW218597   4.367   0.572   2.788
 6049SOL     OW18598   4.072   1.535   3.178
 6049SOL    HW118599   4.066   1.491   3.093
 6049SOL    HW218600   4.165   1.535   3.199
 6050SOL     OW18601   4.138   0.740   3.467
 6050SOL    HW118602   4.195   0.786   3.406
 6050SOL    HW218603   4.185   0.659   3.488
 6051SOL     OW18604   4.239   0.071   3.587
 6051SOL    HW118605   4.207   4.486   3.559
 6051SOL    HW218606   4.161   0.123   3.603
 6052SOL     OW18607   4.290   0.892   2.888
 6052SOL    HW118608   4.317   0.982   2.904
 6052SOL    HW218609   4.243   0.867   2.968
 6053SOL     OW18610   4.015   0.237   3.103
 6053SOL    HW118611   3.969   0.248   3.186
 6053SOL    HW218612   4.053   0.150   3.107
 6054SOL     OW18613   3.771   1.311   3.138
 6054SOL    HW118614   3.803   1.256   3.210
 6054SOL    HW218615   3.776   1.400   3.173
 6055SOL     OW18616   4.012   0.053   2.519
 6055SOL    HW118617   4.006   0.149   2.519
 6055SOL    HW218618   4.026   0.030   2.611
 6056SOL     OW18619   4.076   0.916   3.670
 6056SOL    HW118620   4.158   0.930   3.718
 6056SOL    HW218621   4.099   0.851   3.603
 6057SOL     OW18622   4.031   0.809   2.808
 6057SOL    HW118623   4.122   0.837   2.808
 6057SOL    HW218624   4.034   0.718   2.839
 6058SOL     OW18625   4.069   0.533   2.872
 6058SOL    HW118626   4.025   0.450   2.852
 6058SOL    HW218627   4.148   0.532   2.818
 6059SOL     OW18628   3.729   1.321   2.057
 6059SOL    HW118629   3.643   1.335   2.019
 6059SOL    HW218630   3.727   1.231   2.091
 6060SOL     OW18631   3.816   1.787   2.801
 6060SOL    HW118632   3.786   1.708   2.757
 6060SOL    HW218633   3.906   1.799   2.769
 6061SOL     OW18634   4.232   1.584   2.767
 6061SOL    HW118635   4.318   1.612   2.798
 6061SOL    HW218636   4.251   1.514   2.705
 6062SOL     OW18637   3.756   0.544   2.980
 6062SOL    HW118638   3.831   0.518   2.926
 6062SOL    HW218639   3.791   0.547   3.069
 6063SOL     OW18640   3.909   0.519   3.583
 6063SOL    HW118641   3.985   0.501   3.528
 6063SOL    HW218642   3.867   0.595   3.542
 6064SOL     OW18643   0.028   0.549   2.124
 6064SOL    HW118644   0.021   0.491   2.200
 6064SOL    HW218645   4.462   0.616   2.139
 6065SOL     OW18646   3.969   1.553   3.589
 6065SOL    HW118647   3.942   1.617   3.656
 6065SOL    HW218648   3.967   1.469   3.635
 6066SOL     OW18649   4.189   0.495   2.046
 6066SOL    HW118650   4.248   0.567   2.067
 6066SOL    HW218651   4.104   0.535   2.032
 6067SOL     OW18652   3.870   1.140   3.335
 6067SOL    HW118653   3.871   1.089   3.416
 6067SOL    HW218654   3.886   1.076   3.265
 6068SOL     OW18655   3.809   1.269   2.874
 6068SOL    HW118656   3.793   1.280   2.968
 6068SOL    HW218657   3.738   1.213   2.844
 6069SOL     OW18658   4.389   1.651   3.562
 6069SOL    HW118659   4.354   1.736   3.591
 6069SOL    HW218660   4.427   1.668   3.476
 6070SOL     OW18661   3.861   1.797   3.705
 6070SOL    HW118662   3.810   1.732   3.754
 6070SOL    HW218663   3.908   1.845   3.773
 6071SOL     OW18664   3.988   0.324   2.578
 6071SOL    HW118665   3.901   0.358   2.554
 6071SOL    HW218666   3.985   0.315   2.673
 6072SOL     OW18667   4.088   1.307   3.352
 6072SOL    HW118668   4.068   1.383   3.297
 6072SOL    HW218669   4.015   1.247   3.337
 6073SOL     OW18670   4.326   1.490   2.342
 6073SOL    HW118671   4.342   1.431   2.269
 6073SOL    HW218672   4.259   1.550   2.309
 6074SOL     OW18673   3.984   1.349   2.149
 6074SOL    HW118674   3.891   1.345   2.126
 6074SOL    HW218675   3.986   1.385   2.237
 6075SOL     OW18676   3.836   1.024   3.582
 6075SOL    HW118677   3.760   0.999   3.634
 6075SOL    HW218678   3.910   0.985   3.629
 6076SOL     OW18679   4.368   0.205   3.351
 6076SOL    HW118680   4.458   0.225   3.328
 6076SOL    HW218681   4.373   0.173   3.441
 6077SOL     OW18682   3.805   0.338   1.910
 6077SOL    HW118683   3.735   0.283   1.874
 6077SOL    HW218684   3.817   0.407   1.845
 6078SOL     OW18685   3.788   0.184   2.180
 6078SOL    HW118686   3.788   0.251   2.111
 6078SOL    HW218687   3.863   0.129   2.159
 6079SOL     OW18688   4.339   0.840   3.298
 6079SOL    HW118689   4.377   0.926   3.282
 6079SOL    HW218690   4.413   0.784   3.318
 6080SOL     OW18691   4.395   0.560   3.595
 6080SOL    HW118692   4.419   0.634   3.651
 6080SOL    HW218693   4.479   0.522   3.569
 6081SOL     OW18694   4.107   1.739   3.423
 6081SOL    HW118695   4.022   1.781   3.409
 6081SOL    HW218696   4.086   1.658   3.469
 6082SOL     OW18697   4.309   0.730   2.529
 6082SOL    HW118698   4.350   0.815   2.517
 6082SOL    HW218699   4.240   0.726   2.463
 6083SOL     OW18700   3.943   1.306   3.716
 6083SOL    HW118701   3.878   1.242   3.688
 6083SOL    HW218702   3.927   1.317   3.810
 6084SOL     OW18703   3.809   1.233   2.527
 6084SOL    HW118704   3.813   1.185   2.610
 6084SOL    HW218705   3.877   1.193   2.473
 6085SOL     OW18706   4.418   1.386   3.524
 6085SOL    HW118707   4.328   1.354   3.517
 6085SOL    HW218708   4.409   1.480   3.539
 6086SOL     OW18709   4.165   0.435   2.396
 6086SOL    HW118710   4.184   0.367   2.332
 6086SOL    HW218711   4.109   0.393   2.461
 6087SOL     OW18712   4.054   0.557   3.151
 6087SOL    HW118713   4.106   0.498   3.205
 6087SOL    HW218714   4.073   0.530   3.061
 6088SOL     OW18715   0.036   1.601   2.548
 6088SOL    HW118716   0.060   1.664   2.480
 6088SOL    HW218717   4.467   1.548   2.509
 6089SOL     OW18718   3.768   1.070   2.168
 6089SOL    HW118719   3.862   1.061   2.150
 6089SOL    HW218720   3.739   0.982   2.191
 6090SOL     OW18721   3.954   0.626   3.844
 6090SOL    HW118722   3.867   0.619   3.885
 6090SOL    HW218723   3.941   0.596   3.755
 6091SOL     OW18724   3.929   0.304   4.713
 6091SOL    HW118725   3.964   0.273   4.797
 6091SOL    HW218726   3.849   0.253   4.700
 6092SOL     OW18727   3.731   0.388   4.362
 6092SOL    HW118728   3.644   0.406   4.398
 6092SOL    HW218729   3.717   0.313   4.303
 6093SOL     OW18730   4.266   1.244   4.869
 6093SOL    HW118731   4.198   1.307   4.847
 6093SOL    HW218732   4.334   1.296   4.912
 6094SOL     OW18733   0.020   0.777   5.581
 6094SOL    HW118734   0.068   0.822   5.651
 6094SOL    HW218735   0.062   0.806   5.500
 6095SOL     OW18736   4.398   0.990   4.359
 6095SOL    HW118737   4.473   0.985   4.419
 6095SOL    HW218738   4.337   1.049   4.402
 6096SOL     OW18739   4.419   1.161   5.536
 6096SOL    HW118740   4.458   1.242   5.502
 6096SOL    HW218741   4.327   1.168   5.513
 6097SOL     OW18742   4.061   1.432   4.793
 6097SOL    HW118743   3.988   1.388   4.749
 6097SOL    HW218744   4.106   1.480   4.723
 6098SOL     OW18745   4.163   0.395   5.210
 6098SOL    HW118746   4.242   0.342   5.211
 6098SOL    HW218747   4.091   0.333   5.223
 6099SOL     OW18748   3.942   1.714   4.197
 6099SOL    HW118749   3.962   1.791   4.251
 6099SOL    HW218750   4.017   1.706   4.138
 6100SOL     OW18751   3.955   1.441   4.259
 6100SOL    HW118752   3.935   1.535   4.264
 6100SOL    HW218753   3.895   1.401   4.322
 6101SOL     OW18754   3.976   1.088   4.610
 6101SOL    HW118755   3.980   1.003   4.654
 6101SOL    HW218756   3.924   1.143   4.669
 6102SOL     OW18757   4.361   1.797   5.179
 6102SOL    HW118758   4.274   1.764   5.202
 6102SOL    HW218759   4.351   1.893   5.179
 6103SOL     OW18760   4.309   0.986   3.863
 6103SOL    HW118761   4.340   1.037   3.788
 6103SOL    HW218762   4.377   0.998   3.929
 6104SOL     OW18763   3.840   0.653   4.284
 6104SOL    HW118764   3.810   0.565   4.306
 6104SOL    HW218765   3.831   0.702   4.366
 6105SOL     OW18766   3.758   1.594   3.847
 6105SOL    HW118767   3.738   1.503   3.867
 6105SOL    HW218768   3.733   1.642   3.927
 6106SOL     OW18769   3.845   0.745   5.308
 6106SOL    HW118770   3.936   0.772   5.317
 6106SOL    HW218771   3.795   0.826   5.314
 6107SOL     OW18772   4.309   1.388   4.462
 6107SOL    HW118773   4.274   1.299   4.465
 6107SOL    HW218774   4.311   1.409   4.368
 6108SOL     OW18775   0.018   0.016   4.234
 6108SOL    HW118776   0.048   0.078   4.168
 6108SOL    HW218777   4.428   0.042   4.253
 6109SOL     OW18778   3.912   0.964   4.997
 6109SOL    HW118779   3.997   0.926   4.979
 6109SOL    HW218780   3.850   0.913   4.945
 6110SOL     OW18781   4.039   0.251   5.508
 6110SOL    HW118782   4.100   0.318   5.537
 6110SOL    HW218783   3.965   0.258   5.568
 6111SOL     OW18784   4.312   0.728   3.994
 6111SOL    HW118785   4.308   0.806   3.940
 6111SOL    HW218786   4.245   0.741   4.061
 6112SOL     OW18787   3.812   0.821   4.500
 6112SOL    HW118788   3.893   0.813   4.551
 6112SOL    HW218789   3.770   0.900   4.534
 6113SOL     OW18790   3.853   1.848   5.302
 6113SOL    HW118791   3.853   1.827   5.395
 6113SOL    HW218792   3.761   1.840   5.275
 6114SOL     OW18793   4.241   0.203   4.621
 6114SOL    HW118794   4.283   0.220   4.705
 6114SOL    HW218795   4.261   0.280   4.568
 6115SOL     OW18796   4.082   1.813   4.587
 6115SOL    HW118797   4.132   1.732   4.595
 6115SOL    HW218798   4.148   1.882   4.599
 6116SOL     OW18799   4.042   0.959   3.975
 6116SOL    HW118800   4.125   0.977   3.930
 6116SOL    HW218801   4.012   0.876   3.937
 6117SOL     OW18802   4.177   1.251   5.458
 6117SOL    HW118803   4.151   1.264   5.367
 6117SOL    HW218804   4.097   1.262   5.509
 6118SOL     OW18805   3.911   0.269   5.237
 6118SOL    HW118806   3.845   0.336   5.221
 6118SOL    HW218807   3.924   0.271   5.332
 6119SOL     OW18808   4.191   1.735   4.049
 6119SOL    HW118809   4.224   1.795   4.115
 6119SOL    HW218810   4.260   1.731   3.983
 6120SOL     OW18811   3.980   1.793   4.956
 6120SOL    HW118812   4.027   1.722   5.000
 6120SOL    HW218813   3.966   1.760   4.867
 6121SOL     OW18814   4.112   0.693   4.196
 6121SOL    HW118815   4.136   0.602   4.211
 6121SOL    HW218816   4.018   0.697   4.217
 6122SOL     OW18817   4.327   0.120   3.841
 6122SOL    HW118818   4.412   0.078   3.852
 6122SOL    HW218819   4.302   0.101   3.751
 6123SOL     OW18820   0.021   1.420   4.634
 6123SOL    HW118821   0.080   1.469   4.577
 6123SOL    HW218822   4.444   1.401   4.580
 6124SOL     OW18823   4.271   0.110   4.264
 6124SOL    HW118824   4.187   0.069   4.286
 6124SOL    HW218825   4.254   0.161   4.185
 6125SOL     OW18826   4.023   0.070   3.924
 6125SOL    HW118827   4.103   0.120   3.905
 6125SOL    HW218828   4.052   0.000   3.982
 6126SOL     OW18829   0.324   0.677   5.184
 6126SOL    HW118830   0.256   0.614   5.162
 6126SOL    HW218831   0.406   0.629   5.173
 6127SOL     OW18832   4.190   1.145   4.455
 6127SOL    HW118833   4.122   1.126   4.520
 6127SOL    HW218834   4.149   1.128   4.371
 6128SOL     OW18835   3.807   0.549   5.119
 6128SOL    HW118836   3.898   0.554   5.088
 6128SOL    HW218837   3.800   0.622   5.182
 6129SOL     OW18838   4.297   0.238   4.885
 6129SOL    HW118839   4.303   0.144   4.905
 6129SOL    HW218840   4.210   0.263   4.914
 6130SOL     OW18841   4.231   1.386   3.897
 6130SOL    HW118842   4.146   1.372   3.939
 6130SOL    HW218843   4.210   1.401   3.805
 6131SOL     OW18844   4.243   0.271   4.047
 6131SOL    HW118845   4.284   0.215   3.981
 6131SOL    HW218846   4.223   0.352   4.001
 6132SOL     OW18847   4.141   0.815   4.974
 6132SOL    HW118848   4.208   0.824   5.041
 6132SOL    HW218849   4.106   0.726   4.986
 6133SOL     OW18850   3.794   1.573   5.078
 6133SOL    HW118851   3.761   1.644   5.023
 6133SOL    HW218852   3.889   1.579   5.070
 6134SOL     OW18853   4.069   1.110   4.213
 6134SOL    HW118854   4.071   1.183   4.151
 6134SOL    HW218855   4.067   1.032   4.159
 6135SOL     OW18856   4.303   0.539   4.587
 6135SOL    HW118857   4.301   0.604   4.517
 6135SOL    HW218858   4.367   0.572   4.650
 6136SOL     OW18859   4.072   1.535   5.039
 6136SOL    HW118860   4.066   1.491   4.955
 6136SOL    HW218861   4.165   1.535   5.060
 6137SOL     OW18862   4.138   0.740   5.329
 6137SOL    HW118863   4.195   0.786   5.268
 6137SOL    HW218864   4.185   0.659   5.350
 6138SOL     OW18865   4.239   0.071   5.449
 6138SOL    HW118866   4.207   4.486   5.421
 6138SOL    HW218867   4.161   0.123   5.465
 6139SOL     OW18868   4.290   0.892   4.750
 6139SOL    HW118869   4.317   0.982   4.766
 6139SOL    HW218870   4.243   0.867   4.830
 6140SOL     OW18871   4.015   0.237   4.965
 6140SOL    HW118872   3.969   0.248   5.048
 6140SOL    HW218873   4.053   0.150   4.969
 6141SOL     OW18874   3.771   1.311   5.001
 6141SOL    HW118875   3.803   1.256   5.072
 6141SOL    HW218876   3.776   1.400   5.035
 6142SOL     OW18877   4.012   0.053   4.381
 6142SOL    HW118878   4.006   0.149   4.381
 6142SOL    HW218879   4.026   0.030   4.473
 6143SOL     OW18880   4.076   0.916   5.532
 6143SOL    HW118881   4.158   0.930   5.580
 6143SOL    HW218882   4.099   0.851   5.465
 6144SOL     OW18883   4.031   0.809   4.670
 6144SOL    HW118884   4.122   0.837   4.670
 6144SOL    HW218885   4.034   0.718   4.701
 6145SOL     OW18886   4.069   0.533   4.734
 6145SOL    HW118887   4.025   0.450   4.715
 6145SOL    HW218888   4.148   0.532   4.680
 6146SOL     OW18889   3.729   1.321   3.919
 6146SOL    HW118890   3.643   1.335   3.881
 6146SOL    HW218891   3.727   1.231   3.953
 6147SOL     OW18892   3.816   1.787   4.663
 6147SOL    HW118893   3.786   1.708   4.618
 6147SOL    HW218894   3.906   1.799   4.631
 6148SOL     OW18895   4.232   1.584   4.629
 6148SOL    HW118896   4.318   1.612   4.660
 6148SOL    HW218897   4.251   1.514   4.567
 6149SOL     OW18898   3.756   0.544   4.842
 6149SOL    HW118899   3.831   0.518   4.788
 6149SOL    HW218900   3.791   0.547   4.931
 6150SOL     OW18901   3.909   0.519   5.445
 6150SOL    HW118902   3.985   0.501   5.390
 6150SOL    HW218903   3.867   0.595   5.404
 6151SOL     OW18904   0.028   0.549   3.986
 6151SOL    HW118905   0.020   0.491   4.062
 6151SOL    HW218906   4.462   0.616   4.001
 6152SOL     OW18907   3.970   1.553   5.451
 6152SOL    HW118908   3.943   1.617   5.517
 6152SOL    HW218909   3.967   1.469   5.497
 6153SOL     OW18910   4.189   0.495   3.908
 6153SOL    HW118911   4.248   0.567   3.929
 6153SOL    HW218912   4.104   0.535   3.894
 6154SOL     OW18913   3.870   1.140   5.197
 6154SOL    HW118914   3.871   1.089   5.278
 6154SOL    HW218915   3.886   1.076   5.128
 6155SOL     OW18916   3.809   1.269   4.737
 6155SOL    HW118917   3.793   1.280   4.830
 6155SOL    HW218918   3.738   1.213   4.706
 6156SOL     OW18919   4.389   1.652   5.424
 6156SOL    HW118920   4.354   1.736   5.453
 6156SOL    HW218921   4.426   1.669   5.337
 6157SOL     OW18922   3.862   1.796   5.567
 6157SOL    HW118923   3.810   1.731   5.616
 6157SOL    HW218924   3.908   1.845   5.635
 6158SOL     OW18925   3.988   0.324   4.440
 6158SOL    HW118926   3.901   0.358   4.416
 6158SOL    HW218927   3.985   0.315   4.535
 6159SOL     OW18928   4.088   1.307   5.214
 6159SOL    HW118929   4.068   1.383   5.159
 6159SOL    HW218930   4.015   1.247   5.199
 6160SOL     OW18931   4.326   1.490   4.204
 6160SOL    HW118932   4.342   1.430   4.131
 6160SOL    HW218933   4.259   1.550   4.171
 6161SOL     OW18934   3.984   1.349   4.011
 6161SOL    HW118935   3.891   1.345   3.988
 6161SOL    HW218936   3.986   1.385   4.099
 6162SOL     OW18937   3.836   1.024   5.444
 6162SOL    HW118938   3.760   0.999   5.496
 6162SOL    HW218939   3.910   0.985   5.491
 6163SOL     OW18940   4.368   0.206   5.214
 6163SOL    HW118941   4.458   0.225   5.190
 6163SOL    HW218942   4.372   0.173   5.303
 6164SOL     OW18943   3.805   0.338   3.772
 6164SOL    HW118944   3.735   0.283   3.736
 6164SOL    HW218945   3.817   0.407   3.707
 6165SOL     OW18946   3.788   0.184   4.042
 6165SOL    HW118947   3.787   0.251   3.973
 6165SOL    HW218948   3.863   0.129   4.021
 6166SOL     OW18949   4.338   0.840   5.160
 6166SOL    HW118950   4.377   0.926   5.144
 6166SOL    HW218951   4.413   0.784   5.181
 6167SOL     OW18952   4.395   0.560   5.457
 6167SOL    HW118953   4.419   0.634   5.513
 6167SOL    HW218954   4.479   0.521   5.431
 6168SOL     OW18955   4.107   1.739   5.285
 6168SOL    HW118956   4.022   1.781   5.271
 6168SOL    HW218957   4.086   1.658   5.331
 6169SOL     OW18958   4.309   0.730   4.391
 6169SOL    HW118959   4.350   0.815   4.379
 6169SOL    HW218960   4.240   0.726   4.325
 6170SOL     OW18961   3.943   1.306   5.578
 6170SOL    HW118962   3.878   1.243   5.550
 6170SOL    HW218963   3.927   1.317   5.672
 6171SOL     OW18964   3.809   1.233   4.389
 6171SOL    HW118965   3.813   1.185   4.472
 6171SOL    HW218966   3.877   1.193   4.335
 6172SOL     OW18967   4.418   1.386   5.386
 6172SOL    HW118968   4.328   1.354   5.379
 6172SOL    HW218969   4.409   1.480   5.401
 6173SOL     OW18970   4.166   0.435   4.258
 6173SOL    HW118971   4.184   0.367   4.194
 6173SOL    HW218972   4.109   0.393   4.323
 6174SOL     OW18973   4.054   0.557   5.013
 6174SOL    HW118974   4.106   0.498   5.067
 6174SOL    HW218975   4.073   0.530   4.923
 6175SOL     OW18976   0.036   1.601   4.410
 6175SOL    HW118977   0.060   1.664   4.342
 6175SOL    HW218978   4.467   1.548   4.371
 6176SOL     OW18979   3.768   1.070   4.030
 6176SOL    HW118980   3.862   1.061   4.012
 6176SOL    HW218981   3.739   0.982   4.053
 6177SOL     OW18982   3.954   0.626   5.706
 6177SOL    HW118983   3.867   0.619   5.747
 6177SOL    HW218984   3.941   0.595   5.617
 6178SOL     OW18985   3.929   0.305   6.575
 6178SOL    HW118986   3.964   0.273   6.659
 6178SOL    HW218987   3.849   0.253   6.562
 6179SOL     OW18988   3.731   0.388   6.223
 6179SOL    HW118989   3.644   0.406   6.260
 6179SOL    HW218990   3.717   0.313   6.165
 6180SOL     OW18991   4.266   1.244   6.731
 6180SOL    HW118992   4.198   1.307   6.709
 6180SOL    HW218993   4.334   1.296   6.774
 6181SOL     OW18994   0.020   0.777   7.443
 6181SOL    HW118995   0.069   0.821   7.513
 6181SOL    HW218996   0.062   0.806   7.362
 6182SOL     OW18997   4.398   0.990   6.221
 6182SOL    HW118998   4.473   0.985   6.281
 6182SOL    HW218999   4.337   1.049   6.264
 6183SOL     OW19000   4.419   1.161   7.398
 6183SOL    HW119001   4.458   1.241   7.364
 6183SOL    HW219002   4.327   1.168   7.375
 6184SOL     OW19003   4.061   1.432   6.655
 6184SOL    HW119004   3.988   1.388   6.611
 6184SOL    HW219005   4.106   1.480   6.586
 6185SOL     OW19006   4.163   0.395   7.072
 6185SOL    HW119007   4.242   0.342   7.073
 6185SOL    HW219008   4.091   0.333   7.085
 6186SOL     OW19009   3.942   1.714   6.059
 6186SOL    HW119010   3.962   1.791   6.113
 6186SOL    HW219011   4.017   1.706   6.000
 6187SOL     OW19012   3.955   1.441   6.121
 6187SOL    HW119013   3.936   1.535   6.126
 6187SOL    HW219014   3.895   1.401   6.184
 6188SOL     OW19015   3.976   1.088   6.472
 6188SOL    HW119016   3.980   1.003   6.516
 6188SOL    HW219017   3.924   1.143   6.531
 6189SOL     OW19018   4.361   1.798   7.041
 6189SOL    HW119019   4.274   1.764   7.064
 6189SOL    HW219020   4.351   1.893   7.041
 6190SOL     OW19021   4.309   0.986   5.725
 6190SOL    HW119022   4.340   1.037   5.650
 6190SOL    HW219023   4.377   0.998   5.791
 6191SOL     OW19024   3.840   0.653   6.146
 6191SOL    HW119025   3.810   0.565   6.168
 6191SOL    HW219026   3.831   0.702   6.228
 6192SOL     OW19027   3.757   1.594   5.709
 6192SOL    HW119028   3.738   1.503   5.729
 6192SOL    HW219029   3.733   1.642   5.789
 6193SOL     OW19030   3.845   0.745   7.170
 6193SOL    HW119031   3.936   0.772   7.179
 6193SOL    HW219032   3.795   0.826   7.176
 6194SOL     OW19033   4.309   1.388   6.324
 6194SOL    HW119034   4.274   1.299   6.327
 6194SOL    HW219035   4.311   1.410   6.230
 6195SOL     OW19036   0.018   0.016   6.096
 6195SOL    HW119037   0.048   0.078   6.030
 6195SOL    HW219038   4.428   0.042   6.115
 6196SOL     OW19039   3.912   0.964   6.859
 6196SOL    HW119040   3.997   0.926   6.841
 6196SOL    HW219041   3.850   0.913   6.807
 6197SOL     OW19042   4.039   0.251   7.370
 6197SOL    HW119043   4.100   0.318   7.399
 6197SOL    HW219044   3.965   0.258   7.430
 6198SOL     OW19045   4.312   0.728   5.856
 6198SOL    HW119046   4.308   0.806   5.802
 6198SOL    HW219047   4.245   0.741   5.923
 6199SOL     OW19048   3.812   0.821   6.362
 6199SOL    HW119049   3.893   0.813   6.413
 6199SOL    HW219050   3.770   0.900   6.396
 6200SOL     OW19051   3.853   1.849   7.164
 6200SOL    HW119052   3.853   1.828   7.257
 6200SOL    HW219053   3.762   1.838   7.137
 6201SOL     OW19054   4.241   0.203   6.483
 6201SOL    HW119055   4.283   0.220   6.567
 6201SOL    HW219056   4.261   0.280   6.430
 6202SOL     OW19057   4.082   1.813   6.450
 6202SOL    HW119058   4.132   1.732   6.457
 6202SOL    HW219059   4.148   1.882   6.461
 6203SOL     OW19060   4.042   0.958   5.837
 6203SOL    HW119061   4.125   0.977   5.792
 6203SOL    HW219062   4.012   0.876   5.799
 6204SOL     OW19063   4.177   1.252   7.320
 6204SOL    HW119064   4.151   1.264   7.229
 6204SOL    HW219065   4.097   1.262   7.371
 6205SOL     OW19066   3.911   0.269   7.099
 6205SOL    HW119067   3.845   0.336   7.083
 6205SOL    HW219068   3.924   0.271   7.194
 6206SOL     OW19069   4.191   1.735   5.911
 6206SOL    HW119070   4.224   1.795   5.978
 6206SOL    HW219071   4.261   1.732   5.845
 6207SOL     OW19072   3.980   1.793   6.818
 6207SOL    HW119073   4.027   1.722   6.862
 6207SOL    HW219074   3.966   1.761   6.729
 6208SOL     OW19075   4.112   0.693   6.058
 6208SOL    HW119076   4.136   0.602   6.073
 6208SOL    HW219077   4.018   0.697   6.079
 6209SOL     OW19078   4.327   0.120   5.703
 6209SOL    HW119079   4.412   0.078   5.714
 6209SOL    HW219080   4.302   0.101   5.613
 6210SOL     OW19081   0.021   1.420   6.496
 6210SOL    HW119082   0.079   1.469   6.439
 6210SOL    HW219083   4.444   1.401   6.442
 6211SOL     OW19084   4.271   0.110   6.126
 6211SOL    HW119085   4.187   0.069   6.148
 6211SOL    HW219086   4.254   0.161   6.047
 6212SOL     OW19087   4.023   0.071   5.786
 6212SOL    HW119088   4.103   0.120   5.767
 6212SOL    HW219089   4.052   0.000   5.844
 6213SOL     OW19090   0.324   0.677   7.045
 6213SOL    HW119091   0.256   0.613   7.023
 6213SOL    HW219092   0.406   0.629   7.036
 6214SOL     OW19093   4.190   1.145   6.317
 6214SOL    HW119094   4.122   1.126   6.382
 6214SOL    HW219095   4.149   1.128   6.233
 6215SOL     OW19096   3.807   0.549   6.981
 6215SOL    HW119097   3.898   0.554   6.950
 6215SOL    HW219098   3.800   0.621   7.044
 6216SOL     OW19099   4.297   0.238   6.747
 6216SOL    HW119100   4.304   0.145   6.767
 6216SOL    HW219101   4.210   0.263   6.776
 6217SOL     OW19102   4.231   1.386   5.759
 6217SOL    HW119103   4.146   1.372   5.801
 6217SOL    HW219104   4.210   1.401   5.667
 6218SOL     OW19105   4.243   0.271   5.909
 6218SOL    HW119106   4.284   0.215   5.843
 6218SOL    HW219107   4.223   0.352   5.863
 6219SOL     OW19108   4.141   0.815   6.836
 6219SOL    HW119109   4.208   0.824   6.903
 6219SOL    HW219110   4.106   0.726   6.848
 6220SOL     OW19111   3.794   1.573   6.940
 6220SOL    HW119112   3.761   1.644   6.884
 6220SOL    HW219113   3.889   1.579   6.932
 6221SOL     OW19114   4.069   1.110   6.075
 6221SOL    HW119115   4.071   1.183   6.013
 6221SOL    HW219116   4.067   1.032   6.021
 6222SOL     OW19117   4.303   0.539   6.449
 6222SOL    HW119118   4.301   0.604   6.379
 6222SOL    HW219119   4.367   0.572   6.512
 6223SOL     OW19120   4.072   1.535   6.902
 6223SOL    HW119121   4.066   1.491   6.817
 6223SOL    HW219122   4.165   1.536   6.923
 6224SOL     OW19123   4.138   0.740   7.191
 6224SOL    HW119124   4.195   0.786   7.130
 6224SOL    HW219125   4.185   0.659   7.212
 6225SOL     OW19126   4.239   0.071   7.311
 6225SOL    HW119127   4.207   4.486   7.283
 6225SOL    HW219128   4.161   0.123   7.327
 6226SOL     OW19129   4.290   0.892   6.612
 6226SOL    HW119130   4.317   0.982   6.628
 6226SOL    HW219131   4.243   0.867   6.692
 6227SOL     OW19132   4.015   0.237   6.827
 6227SOL    HW119133   3.969   0.248   6.910
 6227SOL    HW219134   4.053   0.150   6.831
 6228SOL     OW19135   3.771   1.311   6.863
 6228SOL    HW119136   3.803   1.256   6.934
 6228SOL    HW219137   3.776   1.400   6.897
 6229SOL     OW19138   4.012   0.053   6.243
 6229SOL    HW119139   4.006   0.149   6.243
 6229SOL    HW219140   4.026   0.030   6.335
 6230SOL     OW19141   4.076   0.916   7.394
 6230SOL    HW119142   4.158   0.930   7.442
 6230SOL    HW219143   4.099   0.851   7.327
 6231SOL     OW19144   4.031   0.809   6.532
 6231SOL    HW119145   4.122   0.837   6.532
 6231SOL    HW219146   4.034   0.718   6.563
 6232SOL     OW19147   4.069   0.533   6.596
 6232SOL    HW119148   4.025   0.450   6.577
 6232SOL    HW219149   4.148   0.532   6.542
 6233SOL     OW19150   3.730   1.321   5.781
 6233SOL    HW119151   3.643   1.335   5.743
 6233SOL    HW219152   3.727   1.231   5.815
 6234SOL     OW19153   3.816   1.787   6.525
 6234SOL    HW119154   3.786   1.708   6.481
 6234SOL    HW219155   3.906   1.800   6.493
 6235SOL     OW19156   4.232   1.584   6.491
 6235SOL    HW119157   4.318   1.612   6.522
 6235SOL    HW219158   4.251   1.514   6.429
 6236SOL     OW19159   3.756   0.544   6.704
 6236SOL    HW119160   3.831   0.518   6.650
 6236SOL    HW219161   3.791   0.547   6.793
 6237SOL     OW19162   3.909   0.519   7.307
 6237SOL    HW119163   3.985   0.501   7.252
 6237SOL    HW219164   3.867   0.595   7.266
 6238SOL     OW19165   0.028   0.549   5.848
 6238SOL    HW119166   0.020   0.491   5.924
 6238SOL    HW219167   4.462   0.616   5.863
 6239SOL     OW19168   3.969   1.553   7.313
 6239SOL    HW119169   3.943   1.617   7.379
 6239SOL    HW219170   3.967   1.469   7.359
 6240SOL     OW19171   4.189   0.495   5.770
 6240SOL    HW119172   4.248   0.567   5.791
 6240SOL    HW219173   4.104   0.535   5.756
 6241SOL     OW19174   3.870   1.140   7.059
 6241SOL    HW119175   3.871   1.089   7.140
 6241SOL    HW219176   3.886   1.076   6.989
 6242SOL     OW19177   3.809   1.269   6.598
 6242SOL    HW119178   3.793   1.280   6.692
 6242SOL    HW219179   3.738   1.213   6.568
 6243SOL     OW19180   4.389   1.651   7.287
 6243SOL    HW119181   4.354   1.736   7.315
 6243SOL    HW219182   4.427   1.668   7.200
 6244SOL     OW19183   3.861   1.796   7.429
 6244SOL    HW119184   3.810   1.732   7.478
 6244SOL    HW219185   3.908   1.845   7.497
 6245SOL     OW19186   3.988   0.324   6.302
 6245SOL    HW119187   3.901   0.358   6.278
 6245SOL    HW219188   3.985   0.315   6.397
 6246SOL     OW19189   4.088   1.307   7.076
 6246SOL    HW119190   4.068   1.383   7.021
 6246SOL    HW219191   4.015   1.247   7.061
 6247SOL     OW19192   4.326   1.490   6.066
 6247SOL    HW119193   4.342   1.431   5.993
 6247SOL    HW219194   4.259   1.550   6.034
 6248SOL     OW19195   3.984   1.349   5.873
 6248SOL    HW119196   3.891   1.345   5.850
 6248SOL    HW219197   3.986   1.385   5.962
 6249SOL     OW19198   3.836   1.024   7.306
 6249SOL    HW119199   3.760   0.999   7.358
 6249SOL    HW219200   3.910   0.985   7.353
 6250SOL     OW19201   4.368   0.206   7.075
 6250SOL    HW119202   4.458   0.225   7.052
 6250SOL    HW219203   4.372   0.173   7.165
 6251SOL     OW19204   3.805   0.338   5.634
 6251SOL    HW119205   3.735   0.283   5.598
 6251SOL    HW219206   3.817   0.407   5.569
 6252SOL     OW19207   3.788   0.184   5.904
 6252SOL    HW119208   3.788   0.251   5.835
 6252SOL    HW219209   3.863   0.129   5.883
 6253SOL     OW19210   4.338   0.840   7.022
 6253SOL    HW119211   4.377   0.926   7.006
 6253SOL    HW219212   4.413   0.784   7.043
 6254SOL     OW19213   4.395   0.560   7.319
 6254SOL    HW119214   4.419   0.634   7.375
 6254SOL    HW219215   4.479   0.522   7.293
 6255SOL     OW19216   4.107   1.739   7.147
 6255SOL    HW119217   4.022   1.781   7.133
 6255SOL    HW219218   4.087   1.658   7.193
 6256SOL     OW19219   4.309   0.730   6.253
 6256SOL    HW119220   4.350   0.816   6.241
 6256SOL    HW219221   4.240   0.726   6.187
 6257SOL     OW19222   3.943   1.306   7.440
 6257SOL    HW119223   3.878   1.242   7.412
 6257SOL    HW219224   3.927   1.317   7.534
 6258SOL     OW19225   3.809   1.233   6.251
 6258SOL    HW119226   3.813   1.185   6.334
 6258SOL    HW219227   3.877   1.193   6.197
 6259SOL     OW19228   4.418   1.386   7.248
 6259SOL    HW119229   4.328   1.354   7.241
 6259SOL    HW219230   4.409   1.480   7.262
 6260SOL     OW19231   4.165   0.435   6.120
 6260SOL    HW119232   4.184   0.367   6.056
 6260SOL    HW219233   4.109   0.393   6.185
 6261SOL     OW19234   4.054   0.557   6.875
 6261SOL    HW119235   4.106   0.498   6.929
 6261SOL    HW219236   4.073   0.530   6.785
 6262SOL     OW19237   0.036   1.601   6.272
 6262SOL    HW119238   0.060   1.664   6.204
 6262SOL    HW219239   4.467   1.548   6.233
 6263SOL     OW19240   3.768   1.070   5.892
 6263SOL    HW119241   3.862   1.061   5.874
 6263SOL    HW219242   3.739   0.982   5.915
 6264SOL     OW19243   3.954   0.626   7.568
 6264SOL    HW119244   3.867   0.619   7.608
 6264SOL    HW219245   3.941   0.596   7.479
 6265SOL     OW19246   3.929   0.305   8.437
 6265SOL    HW119247   3.964   0.273   8.521
 6265SOL    HW219248   3.849   0.253   8.424
 6266SOL     OW19249   3.731   0.388   8.085
 6266SOL    HW119250   3.644   0.405   8.122
 6266SOL    HW219251   3.717   0.313   8.027
 6267SOL     OW19252   4.266   1.244   8.594
 6267SOL    HW119253   4.198   1.307   8.571
 6267SOL    HW219254   4.334   1.296   8.636
 6268SOL     OW19255   0.020   0.777   9.305
 6268SOL    HW119256   0.069   0.821   9.375
 6268SOL    HW219257   0.062   0.805   9.224
 6269SOL     OW19258   4.398   0.990   8.083
 6269SOL    HW119259   4.473   0.986   8.142
 6269SOL    HW219260   4.337   1.050   8.126
 6270SOL     OW19261   4.419   1.161   9.260
 6270SOL    HW119262   4.458   1.241   9.226
 6270SOL    HW219263   4.327   1.168   9.237
 6271SOL     OW19264   4.061   1.432   8.517
 6271SOL    HW119265   3.988   1.388   8.472
 6271SOL    HW219266   4.106   1.480   8.448
 6272SOL     OW19267   4.163   0.395   8.934
 6272SOL    HW119268   4.242   0.342   8.935
 6272SOL    HW219269   4.091   0.333   8.947
 6273SOL     OW19270   3.942   1.714   7.921
 6273SOL    HW119271   3.962   1.791   7.975
 6273SOL    HW219272   4.017   1.706   7.862
 6274SOL     OW19273   3.954   1.441   7.982
 6274SOL    HW119274   3.935   1.535   7.988
 6274SOL    HW219275   3.896   1.401   8.046
 6275SOL     OW19276   3.976   1.088   8.334
 6275SOL    HW119277   3.980   1.003   8.378
 6275SOL    HW219278   3.924   1.143   8.393
 6276SOL     OW19279   4.361   1.798   8.903
 6276SOL    HW119280   4.274   1.764   8.926
 6276SOL    HW219281   4.351   1.893   8.903
 6277SOL     OW19282   4.309   0.986   7.587
 6277SOL    HW119283   4.340   1.037   7.512
 6277SOL    HW219284   4.377   0.998   7.654
 6278SOL     OW19285   3.840   0.653   8.008
 6278SOL    HW119286   3.810   0.565   8.030
 6278SOL    HW219287   3.831   0.702   8.090
 6279SOL     OW19288   3.757   1.595   7.572
 6279SOL    HW119289   3.738   1.503   7.591
 6279SOL    HW219290   3.733   1.642   7.651
 6280SOL     OW19291   3.845   0.745   9.032
 6280SOL    HW119292   3.936   0.772   9.041
 6280SOL    HW219293   3.795   0.826   9.038
 6281SOL     OW19294   4.309   1.388   8.186
 6281SOL    HW119295   4.274   1.299   8.189
 6281SOL    HW219296   4.311   1.410   8.092
 6282SOL     OW19297   0.018   0.016   7.958
 6282SOL    HW119298   0.048   0.078   7.892
 6282SOL    HW219299   4.428   0.042   7.977
 6283SOL     OW19300   3.912   0.964   8.721
 6283SOL    HW119301   3.997   0.926   8.703
 6283SOL    HW219302   3.850   0.913   8.669
 6284SOL     OW19303   4.038   0.251   9.232
 6284SOL    HW119304   4.100   0.318   9.261
 6284SOL    HW219305   3.965   0.258   9.292
 6285SOL     OW19306   4.312   0.728   7.718
 6285SOL    HW119307   4.308   0.806   7.664
 6285SOL    HW219308   4.245   0.741   7.785
 6286SOL     OW19309   3.812   0.821   8.224
 6286SOL    HW119310   3.893   0.813   8.275
 6286SOL    HW219311   3.770   0.900   8.258
 6287SOL     OW19312   3.853   1.848   9.026
 6287SOL    HW119313   3.853   1.828   9.119
 6287SOL    HW219314   3.762   1.838   8.999
 6288SOL     OW19315   4.241   0.203   8.345
 6288SOL    HW119316   4.283   0.220   8.429
 6288SOL    HW219317   4.261   0.280   8.292
 6289SOL     OW19318   4.083   1.813   8.312
 6289SOL    HW119319   4.132   1.732   8.319
 6289SOL    HW219320   4.148   1.882   8.323
 6290SOL     OW19321   4.042   0.959   7.698
 6290SOL    HW119322   4.125   0.977   7.654
 6290SOL    HW219323   4.012   0.876   7.661
 6291SOL     OW19324   4.177   1.252   9.182
 6291SOL    HW119325   4.151   1.264   9.091
 6291SOL    HW219326   4.097   1.262   9.233
 6292SOL     OW19327   3.911   0.269   8.961
 6292SOL    HW119328   3.845   0.336   8.945
 6292SOL    HW219329   3.925   0.271   9.056
 6293SOL     OW19330   4.191   1.735   7.773
 6293SOL    HW119331   4.224   1.795   7.839
 6293SOL    HW219332   4.260   1.731   7.707
 6294SOL     OW19333   3.980   1.793   8.680
 6294SOL    HW119334   4.026   1.722   8.724
 6294SOL    HW219335   3.966   1.760   8.591
 6295SOL     OW19336   4.112   0.693   7.920
 6295SOL    HW119337   4.136   0.602   7.935
 6295SOL    HW219338   4.018   0.697   7.941
 6296SOL     OW19339   4.327   0.120   7.565
 6296SOL    HW119340   4.412   0.078   7.576
 6296SOL    HW219341   4.302   0.101   7.475
 6297SOL     OW19342   0.021   1.420   8.358
 6297SOL    HW119343   0.079   1.469   8.301
 6297SOL    HW219344   4.444   1.401   8.304
 6298SOL     OW19345   4.271   0.110   7.988
 6298SOL    HW119346   4.187   0.069   8.010
 6298SOL    HW219347   4.254   0.161   7.909
 6299SOL     OW19348   4.023   0.070   7.648
 6299SOL    HW119349   4.103   0.120   7.629
 6299SOL    HW219350   4.052   0.000   7.706
 6300SOL     OW19351   0.324   0.677   8.907
 6300SOL    HW119352   0.257   0.613   8.885
 6300SOL    HW219353   0.407   0.630   8.898
 6301SOL     OW19354   4.190   1.145   8.179
 6301SOL    HW119355   4.122   1.126   8.244
 6301SOL    HW219356   4.149   1.128   8.095
 6302SOL     OW19357   3.807   0.549   8.843
 6302SOL    HW119358   3.898   0.554   8.812
 6302SOL    HW219359   3.800   0.621   8.906
 6303SOL     OW19360   4.297   0.238   8.609
 6303SOL    HW119361   4.304   0.145   8.629
 6303SOL    HW219362   4.209   0.263   8.638
 6304SOL     OW19363   4.231   1.386   7.621
 6304SOL    HW119364   4.146   1.372   7.662
 6304SOL    HW219365   4.210   1.401   7.529
 6305SOL     OW19366   4.243   0.271   7.771
 6305SOL    HW119367   4.284   0.215   7.705
 6305SOL    HW219368   4.223   0.352   7.725
 6306SOL     OW19369   4.141   0.815   8.698
 6306SOL    HW119370   4.208   0.824   8.765
 6306SOL    HW219371   4.106   0.726   8.710
 6307SOL     OW19372   3.794   1.573   8.801
 6307SOL    HW119373   3.762   1.644   8.746
 6307SOL    HW219374   3.889   1.578   8.794
 6308SOL     OW19375   4.069   1.110   7.937
 6308SOL    HW119376   4.071   1.183   7.875
 6308SOL    HW219377   4.067   1.031   7.883
 6309SOL     OW19378   4.303   0.539   8.311
 6309SOL    HW119379   4.301   0.604   8.241
 6309SOL    HW219380   4.367   0.572   8.374
 6310SOL     OW19381   4.072   1.535   8.764
 6310SOL    HW119382   4.066   1.491   8.679
 6310SOL    HW219383   4.165   1.535   8.785
 6311SOL     OW19384   4.138   0.740   9.053
 6311SOL    HW119385   4.195   0.786   8.992
 6311SOL    HW219386   4.185   0.659   9.074
 6312SOL     OW19387   4.239   0.071   9.173
 6312SOL    HW119388   4.207   4.486   9.145
 6312SOL    HW219389   4.161   0.123   9.189
 6313SOL     OW19390   4.290   0.892   8.474
 6313SOL    HW119391   4.317   0.982   8.490
 6313SOL    HW219392   4.243   0.867   8.554
 6314SOL     OW19393   4.014   0.237   8.689
 6314SOL    HW119394   3.969   0.248   8.772
 6314SOL    HW219395   4.053   0.150   8.693
 6315SOL     OW19396   3.771   1.311   8.725
 6315SOL    HW119397   3.803   1.256   8.796
 6315SOL    HW219398   3.776   1.400   8.759
 6316SOL     OW19399   4.012   0.053   8.105
 6316SOL    HW119400   4.006   0.149   8.105
 6316SOL    HW219401   4.026   0.030   8.197
 6317SOL     OW19402   4.076   0.916   9.256
 6317SOL    HW119403   4.158   0.930   9.304
 6317SOL    HW219404   4.099   0.851   9.189
 6318SOL     OW19405   4.031   0.809   8.394
 6318SOL    HW119406   4.122   0.837   8.394
 6318SOL    HW219407   4.034   0.718   8.425
 6319SOL     OW19408   4.069   0.533   8.458
 6319SOL    HW119409   4.025   0.450   8.438
 6319SOL    HW219410   4.148   0.532   8.404
 6320SOL     OW19411   3.729   1.321   7.643
 6320SOL    HW119412   3.642   1.335   7.606
 6320SOL    HW219413   3.727   1.231   7.677
 6321SOL     OW19414   3.816   1.787   8.387
 6321SOL    HW119415   3.786   1.708   8.343
 6321SOL    HW219416   3.906   1.800   8.355
 6322SOL     OW19417   4.232   1.584   8.353
 6322SOL    HW119418   4.318   1.612   8.384
 6322SOL    HW219419   4.251   1.514   8.291
 6323SOL     OW19420   3.756   0.544   8.566
 6323SOL    HW119421   3.831   0.518   8.512
 6323SOL    HW219422   3.792   0.547   8.655
 6324SOL     OW19423   3.909   0.519   9.169
 6324SOL    HW119424   3.985   0.501   9.114
 6324SOL    HW219425   3.867   0.595   9.128
 6325SOL     OW19426   0.028   0.549   7.710
 6325SOL    HW119427   0.021   0.491   7.786
 6325SOL    HW219428   4.462   0.616   7.725
 6326SOL     OW19429   3.969   1.553   9.175
 6326SOL    HW119430   3.943   1.617   9.242
 6326SOL    HW219431   3.967   1.469   9.221
 6327SOL     OW19432   4.189   0.495   7.632
 6327SOL    HW119433   4.248   0.567   7.653
 6327SOL    HW219434   4.104   0.535   7.618
 6328SOL     OW19435   3.870   1.140   8.921
 6328SOL    HW119436   3.871   1.089   9.001
 6328SOL    HW219437   3.886   1.076   8.851
 6329SOL     OW19438   3.809   1.270   8.460
 6329SOL    HW119439   3.793   1.280   8.554
 6329SOL    HW219440   3.738   1.212   8.430
 6330SOL     OW19441   4.389   1.651   9.149
 6330SOL    HW119442   4.355   1.736   9.177
 6330SOL    HW219443   4.427   1.668   9.063
 6331SOL     OW19444   3.861   1.797   9.291
 6331SOL    HW119445   3.810   1.732   9.340
 6331SOL    HW219446   3.908   1.845   9.359
 6332SOL     OW19447   3.988   0.324   8.164
 6332SOL    HW119448   3.901   0.358   8.140
 6332SOL    HW219449   3.985   0.315   8.259
 6333SOL     OW19450   4.087   1.307   8.938
 6333SOL    HW119451   4.068   1.383   8.883
 6333SOL    HW219452   4.015   1.247   8.922
 6334SOL     OW19453   4.326   1.490   7.928
 6334SOL    HW119454   4.342   1.431   7.855
 6334SOL    HW219455   4.259   1.550   7.895
 6335SOL     OW19456   3.984   1.349   7.735
 6335SOL    HW119457   3.891   1.345   7.712
 6335SOL    HW219458   3.986   1.385   7.823
 6336SOL     OW19459   3.836   1.024   9.168
 6336SOL    HW119460   3.760   0.999   9.220
 6336SOL    HW219461   3.910   0.985   9.215
 6337SOL     OW19462   4.368   0.206   8.937
 6337SOL    HW119463   4.458   0.225   8.914
 6337SOL    HW219464   4.372   0.173   9.027
 6338SOL     OW19465   3.805   0.338   7.496
 6338SOL    HW119466   3.735   0.283   7.460
 6338SOL    HW219467   3.817   0.407   7.431
 6339SOL     OW19468   3.788   0.184   7.766
 6339SOL    HW119469   3.788   0.251   7.697
 6339SOL    HW219470   3.863   0.129   7.745
 6340SOL     OW19471   4.339   0.840   8.884
 6340SOL    HW119472   4.377   0.926   8.868
 6340SOL    HW219473   4.413   0.784   8.904
 6341SOL     OW19474   4.395   0.560   9.181
 6341SOL    HW119475   4.419   0.634   9.237
 6341SOL    HW219476   4.479   0.522   9.155
 6342SOL     OW19477   4.107   1.739   9.009
 6342SOL    HW119478   4.022   1.781   8.995
 6342SOL    HW219479   4.087   1.658   9.055
 6343SOL     OW19480   4.309   0.730   8.115
 6343SOL    HW119481   4.350   0.815   8.103
 6343SOL    HW219482   4.240   0.726   8.049
 6344SOL     OW19483   3.943   1.306   9.302
 6344SOL    HW119484   3.878   1.242   9.274
 6344SOL    HW219485   3.927   1.317   9.396
 6345SOL     OW19486   3.809   1.233   8.113
 6345SOL    HW119487   3.813   1.185   8.196
 6345SOL    HW219488   3.877   1.193   8.059
 6346SOL     OW19489   4.418   1.386   9.110
 6346SOL    HW119490   4.328   1.354   9.103
 6346SOL    HW219491   4.409   1.480   9.124
 6347SOL     OW19492   4.165   0.435   7.982
 6347SOL    HW119493   4.184   0.367   7.918
 6347SOL    HW219494   4.109   0.393   8.047
 6348SOL     OW19495   4.054   0.557   8.737
 6348SOL    HW119496   4.106   0.498   8.791
 6348SOL    HW219497   4.073   0.530   8.647
 6349SOL     OW19498   0.036   1.601   8.134
 6349SOL    HW119499   0.060   1.664   8.067
 6349SOL    HW219500   4.467   1.548   8.095
 6350SOL     OW19501   3.768   1.070   7.754
 6350SOL    HW119502   3.862   1.061   7.736
 6350SOL    HW219503   3.739   0.982   7.777
 6351SOL     OW19504   3.954   0.626   9.430
 6351SOL    HW119505   3.867   0.619   9.470
 6351SOL    HW219506   3.941   0.596   9.341
 6352SOL     OW19507   3.929   0.305  10.299
 6352SOL    HW119508   3.964   0.273  10.382
 6352SOL    HW219509   3.849   0.253  10.286
 6353SOL     OW19510   3.731   0.388   9.947
 6353SOL    HW119511   3.644   0.405   9.984
 6353SOL    HW219512   3.717   0.313   9.889
 6354SOL     OW19513   4.266   1.244  10.457
 6354SOL    HW119514   4.198   1.307  10.433
 6354SOL    HW219515   4.334   1.297  10.498
 6355SOL     OW19516   0.023   0.812   0.080
 6355SOL    HW119517   0.104   0.845   0.121
 6355SOL    HW219518   0.049   0.791  11.090
 6356SOL     OW19519   4.398   0.990   9.945
 6356SOL    HW119520   4.473   0.985  10.005
 6356SOL    HW219521   4.337   1.049   9.988
 6357SOL     OW19522   4.062   1.431  10.378
 6357SOL    HW119523   3.988   1.388  10.334
 6357SOL    HW219524   4.106   1.480  10.309
 6358SOL     OW19525   4.176   0.397  10.792
 6358SOL    HW119526   4.245   0.331  10.796
 6358SOL    HW219527   4.096   0.350  10.817
 6359SOL     OW19528   3.942   1.714   9.783
 6359SOL    HW119529   3.962   1.791   9.837
 6359SOL    HW219530   4.017   1.706   9.724
 6360SOL     OW19531   3.954   1.441   9.844
 6360SOL    HW119532   3.935   1.535   9.850
 6360SOL    HW219533   3.895   1.401   9.908
 6361SOL     OW19534   3.976   1.088  10.196
 6361SOL    HW119535   3.980   1.003  10.240
 6361SOL    HW219536   3.924   1.144  10.255
 6362SOL     OW19537   4.354   1.802  10.753
 6362SOL    HW119538   4.268   1.772  10.781
 6362SOL    HW219539   4.353   1.896  10.767
 6363SOL     OW19540   4.309   0.986   9.449
 6363SOL    HW119541   4.340   1.037   9.374
 6363SOL    HW219542   4.377   0.998   9.516
 6364SOL     OW19543   3.840   0.653   9.870
 6364SOL    HW119544   3.810   0.565   9.892
 6364SOL    HW219545   3.831   0.702   9.952
 6365SOL     OW19546   3.757   1.595   9.434
 6365SOL    HW119547   3.738   1.503   9.453
 6365SOL    HW219548   3.733   1.642   9.513
 6366SOL     OW19549   3.849   0.726  10.916
 6366SOL    HW119550   3.941   0.750  10.905
 6366SOL    HW219551   3.802   0.809  10.909
 6367SOL     OW19552   4.309   1.388  10.048
 6367SOL    HW119553   4.274   1.299  10.051
 6367SOL    HW219554   4.311   1.409   9.954
 6368SOL     OW19555   0.018   0.015   9.819
 6368SOL    HW119556   0.048   0.078   9.754
 6368SOL    HW219557   4.428   0.042   9.839
 6369SOL     OW19558   3.911   0.963  10.580
 6369SOL    HW119559   3.997   0.924  10.562
 6369SOL    HW219560   3.849   0.910  10.529
 6370SOL     OW19561   4.058   0.278  11.087
 6370SOL    HW119562   4.115   0.337   0.036
 6370SOL    HW219563   3.973   0.284   0.032
 6371SOL     OW19564   4.312   0.727   9.580
 6371SOL    HW119565   4.308   0.806   9.526
 6371SOL    HW219566   4.245   0.741   9.647
 6372SOL     OW19567   3.812   0.821  10.086
 6372SOL    HW119568   3.893   0.813  10.137
 6372SOL    HW219569   3.770   0.900  10.120
 6373SOL     OW19570   3.854   1.847  10.897
 6373SOL    HW119571   3.838   1.806  10.983
 6373SOL    HW219572   3.771   1.840  10.851
 6374SOL     OW19573   4.241   0.204  10.212
 6374SOL    HW119574   4.288   0.224  10.293
 6374SOL    HW219575   4.260   0.278  10.154
 6375SOL     OW19576   4.082   1.813  10.174
 6375SOL    HW119577   4.132   1.732  10.181
 6375SOL    HW219578   4.148   1.882  10.185
 6376SOL     OW19579   4.042   0.959   9.560
 6376SOL    HW119580   4.125   0.977   9.516
 6376SOL    HW219581   4.012   0.876   9.523
 6377SOL     OW19582   4.177   1.263  11.055
 6377SOL    HW119583   4.151   1.277  10.964
 6377SOL    HW219584   4.107   1.209  11.092
 6378SOL     OW19585   3.922   0.272  10.816
 6378SOL    HW119586   3.848   0.332  10.810
 6378SOL    HW219587   3.938   0.263  10.910
 6379SOL     OW19588   4.191   1.735   9.635
 6379SOL    HW119589   4.224   1.795   9.701
 6379SOL    HW219590   4.260   1.731   9.569
 6380SOL     OW19591   3.980   1.793  10.543
 6380SOL    HW119592   4.027   1.723  10.588
 6380SOL    HW219593   3.967   1.760  10.454
 6381SOL     OW19594   4.112   0.693   9.782
 6381SOL    HW119595   4.136   0.602   9.797
 6381SOL    HW219596   4.018   0.697   9.803
 6382SOL     OW19597   4.327   0.120   9.427
 6382SOL    HW119598   4.412   0.078   9.438
 6382SOL    HW219599   4.302   0.101   9.337
 6383SOL     OW19600   0.021   1.420  10.221
 6383SOL    HW119601   0.080   1.469  10.163
 6383SOL    HW219602   4.444   1.401  10.166
 6384SOL     OW19603   4.271   0.110   9.850
 6384SOL    HW119604   4.187   0.069   9.871
 6384SOL    HW219605   4.254   0.161   9.771
 6385SOL     OW19606   4.023   0.070   9.510
 6385SOL    HW119607   4.103   0.120   9.491
 6385SOL    HW219608   4.052   0.000   9.568
 6386SOL     OW19609   0.310   0.680  10.773
 6386SOL    HW119610   0.252   0.604  10.767
 6386SOL    HW219611   0.398   0.644  10.763
 6387SOL     OW19612   4.190   1.145  10.041
 6387SOL    HW119613   4.122   1.126  10.106
 6387SOL    HW219614   4.149   1.128   9.957
 6388SOL     OW19615   3.806   0.548  10.709
 6388SOL    HW119616   3.896   0.554  10.677
 6388SOL    HW219617   3.801   0.613  10.779
 6389SOL     OW19618   4.299   0.236  10.479
 6389SOL    HW119619   4.298   0.140  10.484
 6389SOL    HW219620   4.209   0.262  10.500
 6390SOL     OW19621   4.231   1.386   9.483
 6390SOL    HW119622   4.146   1.372   9.524
 6390SOL    HW219623   4.210   1.401   9.391
 6391SOL     OW19624   4.243   0.271   9.633
 6391SOL    HW119625   4.284   0.215   9.567
 6391SOL    HW219626   4.223   0.352   9.587
 6392SOL     OW19627   4.141   0.814  10.559
 6392SOL    HW119628   4.208   0.823  10.626
 6392SOL    HW219629   4.107   0.725  10.571
 6393SOL     OW19630   3.794   1.577  10.663
 6393SOL    HW119631   3.763   1.645  10.604
 6393SOL    HW219632   3.890   1.578  10.654
 6394SOL     OW19633   4.069   1.110   9.799
 6394SOL    HW119634   4.071   1.183   9.737
 6394SOL    HW219635   4.067   1.031   9.745
 6395SOL     OW19636   4.303   0.538  10.174
 6395SOL    HW119637   4.302   0.605  10.105
 6395SOL    HW219638   4.368   0.570  10.237
 6396SOL     OW19639   4.072   1.533  10.626
 6396SOL    HW119640   4.067   1.489  10.541
 6396SOL    HW219641   4.165   1.535  10.647
 6397SOL     OW19642   4.135   0.735  10.903
 6397SOL    HW119643   4.199   0.779  10.847
 6397SOL    HW219644   4.162   0.643  10.903
 6398SOL     OW19645   4.290   0.892  10.336
 6398SOL    HW119646   4.317   0.983  10.351
 6398SOL    HW219647   4.243   0.868  10.415
 6399SOL     OW19648   4.015   0.237  10.549
 6399SOL    HW119649   3.975   0.251  10.635
 6399SOL    HW219650   4.051   0.148  10.554
 6400SOL     OW19651   3.774   1.313  10.585
 6400SOL    HW119652   3.801   1.256  10.657
 6400SOL    HW219653   3.775   1.401  10.622
 6401SOL     OW19654   4.012   0.053   9.967
 6401SOL    HW119655   4.006   0.148   9.967
 6401SOL    HW219656   4.026   0.030  10.059
 6402SOL     OW19657   4.081   0.917  11.094
 6402SOL    HW119658   4.164   0.934   0.038
 6402SOL    HW219659   4.101   0.850  11.028
 6403SOL     OW19660   4.031   0.809  10.256
 6403SOL    HW119661   4.122   0.837  10.255
 6403SOL    HW219662   4.034   0.718  10.286
 6404SOL     OW19663   4.069   0.533  10.321
 6404SOL    HW119664   4.025   0.451  10.301
 6404SOL    HW219665   4.148   0.532  10.267
 6405SOL     OW19666   3.729   1.321   9.505
 6405SOL    HW119667   3.642   1.335   9.468
 6405SOL    HW219668   3.727   1.231   9.539
 6406SOL     OW19669   3.816   1.787  10.249
 6406SOL    HW119670   3.786   1.708  10.205
 6406SOL    HW219671   3.906   1.800  10.217
 6407SOL     OW19672   4.232   1.584  10.215
 6407SOL    HW119673   4.318   1.613  10.246
 6407SOL    HW219674   4.251   1.514  10.152
 6408SOL     OW19675   3.757   0.544  10.429
 6408SOL    HW119676   3.832   0.519  10.375
 6408SOL    HW219677   3.791   0.547  10.518
 6409SOL     OW19678   0.028   0.549   9.572
 6409SOL    HW119679   0.021   0.491   9.648
 6409SOL    HW219680   4.462   0.616   9.587
 6410SOL     OW19681   3.977   1.567  11.051
 6410SOL    HW119682   3.919   1.596   0.020
 6410SOL    HW219683   3.986   1.473  11.065
 6411SOL     OW19684   4.189   0.495   9.494
 6411SOL    HW119685   4.248   0.567   9.515
 6411SOL    HW219686   4.104   0.536   9.481
 6412SOL     OW19687   3.876   1.138  10.780
 6412SOL    HW119688   3.868   1.084  10.858
 6412SOL    HW219689   3.889   1.075  10.709
 6413SOL     OW19690   3.809   1.270  10.321
 6413SOL    HW119691   3.795   1.281  10.416
 6413SOL    HW219692   3.738   1.213  10.293
 6414SOL     OW19693   4.390   1.667  11.002
 6414SOL    HW119694   4.308   1.713  10.984
 6414SOL    HW219695   4.428   1.650  10.916
 6415SOL     OW19696   3.988   0.324  10.026
 6415SOL    HW119697   3.902   0.358  10.002
 6415SOL    HW219698   3.985   0.315  10.121
 6416SOL     OW19699   4.082   1.312  10.812
 6416SOL    HW119700   4.070   1.382  10.748
 6416SOL    HW219701   4.014   1.248  10.790
 6417SOL     OW19702   4.326   1.490   9.790
 6417SOL    HW119703   4.343   1.431   9.717
 6417SOL    HW219704   4.259   1.550   9.757
 6418SOL     OW19705   3.984   1.349   9.597
 6418SOL    HW119706   3.891   1.345   9.574
 6418SOL    HW219707   3.986   1.385   9.685
 6419SOL     OW19708   3.839   1.013  11.018
 6419SOL    HW119709   3.770   1.001  11.083
 6419SOL    HW219710   3.918   0.982  11.062
 6420SOL     OW19711   4.374   0.187  10.817
 6420SOL    HW119712   4.439   0.208  10.750
 6420SOL    HW219713   4.416   0.212  10.900
 6421SOL     OW19714   3.805   0.338   9.358
 6421SOL    HW119715   3.735   0.283   9.322
 6421SOL    HW219716   3.818   0.407   9.293
 6422SOL     OW19717   3.788   0.184   9.628
 6422SOL    HW119718   3.788   0.251   9.559
 6422SOL    HW219719   3.863   0.129   9.607
 6423SOL     OW19720   4.339   0.839  10.746
 6423SOL    HW119721   4.374   0.926  10.729
 6423SOL    HW219722   4.416   0.784  10.757
 6424SOL     OW19723   4.116   1.735  10.875
 6424SOL    HW119724   4.038   1.790  10.864
 6424SOL    HW219725   4.085   1.661  10.928
 6425SOL     OW19726   4.309   0.730   9.977
 6425SOL    HW119727   4.350   0.815   9.965
 6425SOL    HW219728   4.240   0.726   9.911
 6426SOL     OW19729   3.809   1.233   9.975
 6426SOL    HW119730   3.813   1.186  10.058
 6426SOL    HW219731   3.877   1.193   9.921
 6427SOL     OW19732   4.408   1.391  10.946
 6427SOL    HW119733   4.331   1.343  10.977
 6427SOL    HW219734   4.400   1.477  10.987
 6428SOL     OW19735   4.165   0.435   9.844
 6428SOL    HW119736   4.184   0.367   9.780
 6428SOL    HW219737   4.109   0.393   9.908
 6429SOL     OW19738   4.054   0.556  10.600
 6429SOL    HW119739   4.108   0.496  10.652
 6429SOL    HW219740   4.071   0.531  10.509
 6430SOL     OW19741   0.036   1.601   9.996
 6430SOL    HW119742   0.060   1.664   9.928
 6430SOL    HW219743   4.467   1.548   9.957
 6431SOL     OW19744   3.768   1.070   9.616
 6431SOL    HW119745   3.862   1.061   9.598
 6431SOL    HW219746   3.739   0.982   9.639
 6432SOL     OW19747   3.946   2.475   0.113
 6432SOL    HW119748   3.863   2.479   0.160
 6432SOL    HW219749   3.926   2.508   0.026
 6433SOL     OW19750   3.947   2.148   0.992
 6433SOL    HW119751   3.979   2.111   1.074
 6433SOL    HW219752   3.858   2.113   0.982
 6434SOL     OW19753   3.727   2.245   0.638
 6434SOL    HW119754   3.644   2.270   0.679
 6434SOL    HW219755   3.707   2.165   0.589
 6435SOL     OW19756   4.265   3.106   1.147
 6435SOL    HW119757   4.198   3.169   1.123
 6435SOL    HW219758   4.334   3.158   1.188
 6436SOL     OW19759   0.018   2.641   1.857
 6436SOL    HW119760   0.070   2.682   1.926
 6436SOL    HW219761   0.063   2.665   1.776
 6437SOL     OW19762   4.397   2.851   0.634
 6437SOL    HW119763   4.474   2.849   0.692
 6437SOL    HW219764   4.336   2.911   0.678
 6438SOL     OW19765   4.419   3.023   1.812
 6438SOL    HW119766   4.459   3.103   1.778
 6438SOL    HW219767   4.327   3.030   1.790
 6439SOL     OW19768   4.061   3.294   1.069
 6439SOL    HW119769   3.989   3.250   1.024
 6439SOL    HW219770   4.106   3.343   1.000
 6440SOL     OW19771   4.171   2.261   1.483
 6440SOL    HW119772   4.246   2.201   1.488
 6440SOL    HW219773   4.095   2.206   1.498
 6441SOL     OW19774   3.941   3.575   0.475
 6441SOL    HW119775   3.962   3.653   0.527
 6441SOL    HW219776   4.013   3.570   0.411
 6442SOL     OW19777   3.951   3.303   0.532
 6442SOL    HW119778   3.936   3.397   0.536
 6442SOL    HW219779   3.892   3.266   0.598
 6443SOL     OW19780   3.975   2.950   0.886
 6443SOL    HW119781   3.980   2.865   0.930
 6443SOL    HW219782   3.924   3.005   0.945
 6444SOL     OW19783   4.362   3.659   1.455
 6444SOL    HW119784   4.275   3.627   1.478
 6444SOL    HW219785   4.352   3.755   1.455
 6445SOL     OW19786   4.297   2.868   0.139
 6445SOL    HW119787   4.311   2.936   0.073
 6445SOL    HW219788   4.379   2.867   0.189
 6446SOL     OW19789   3.838   2.514   0.560
 6446SOL    HW119790   3.808   2.425   0.582
 6446SOL    HW219791   3.830   2.563   0.641
 6447SOL     OW19792   3.771   3.463   0.119
 6447SOL    HW119793   3.742   3.375   0.144
 6447SOL    HW219794   3.744   3.518   0.192
 6448SOL     OW19795   3.846   2.604   1.586
 6448SOL    HW119796   3.938   2.630   1.594
 6448SOL    HW219797   3.797   2.686   1.592
 6449SOL     OW19798   4.309   3.250   0.738
 6449SOL    HW119799   4.274   3.161   0.741
 6449SOL    HW219800   4.311   3.271   0.645
 6450SOL     OW19801   0.021   1.873   0.531
 6450SOL    HW119802   0.052   1.928   0.460
 6450SOL    HW219803   4.426   1.885   0.532
 6451SOL     OW19804   3.912   2.827   1.273
 6451SOL    HW119805   3.997   2.788   1.255
 6451SOL    HW219806   3.850   2.774   1.222
 6452SOL     OW19807   4.059   2.112   1.812
 6452SOL    HW119808   4.101   2.196   1.828
 6452SOL    HW219809   3.969   2.124   1.843
 6453SOL     OW19810   4.309   2.579   0.269
 6453SOL    HW119811   4.330   2.656   0.217
 6453SOL    HW219812   4.246   2.610   0.335
 6454SOL     OW19813   3.812   2.684   0.775
 6454SOL    HW119814   3.893   2.676   0.825
 6454SOL    HW219815   3.770   2.762   0.810
 6455SOL     OW19816   3.853   3.712   1.578
 6455SOL    HW119817   3.853   3.690   1.671
 6455SOL    HW219818   3.762   3.699   1.551
 6456SOL     OW19819   4.250   2.052   0.880
 6456SOL    HW119820   4.270   2.058   0.974
 6456SOL    HW219821   4.260   2.141   0.848
 6457SOL     OW19822   4.082   3.675   0.864
 6457SOL    HW119823   4.132   3.593   0.871
 6457SOL    HW219824   4.148   3.744   0.875
 6458SOL     OW19825   4.040   2.822   0.275
 6458SOL    HW119826   4.120   2.846   0.228
 6458SOL    HW219827   4.014   2.738   0.239
 6459SOL     OW19828   4.177   3.113   1.734
 6459SOL    HW119829   4.151   3.126   1.643
 6459SOL    HW219830   4.097   3.124   1.785
 6460SOL     OW19831   3.925   2.143   1.502
 6460SOL    HW119832   3.843   2.193   1.497
 6460SOL    HW219833   3.905   2.072   1.563
 6461SOL     OW19834   4.192   3.593   0.328
 6461SOL    HW119835   4.225   3.657   0.392
 6461SOL    HW219836   4.264   3.584   0.265
 6462SOL     OW19837   3.980   3.655   1.232
 6462SOL    HW119838   4.027   3.584   1.276
 6462SOL    HW219839   3.966   3.623   1.143
 6463SOL     OW19840   4.108   2.556   0.475
 6463SOL    HW119841   4.134   2.465   0.489
 6463SOL    HW219842   4.015   2.558   0.497
 6464SOL     OW19843   4.348   1.990   0.111
 6464SOL    HW119844   4.435   1.953   0.127
 6464SOL    HW219845   4.318   1.949   0.030
 6465SOL     OW19846   0.021   3.282   0.910
 6465SOL    HW119847   0.079   3.332   0.853
 6465SOL    HW219848   4.444   3.263   0.856
 6466SOL     OW19849   4.260   1.927   0.499
 6466SOL    HW119850   4.180   1.930   0.552
 6466SOL    HW219851   4.256   2.006   0.445
 6467SOL     OW19852   4.008   1.911   0.200
 6467SOL    HW119853   4.051   1.965   0.134
 6467SOL    HW219854   4.075   1.847   0.226
 6468SOL     OW19855   0.326   2.535   1.449
 6468SOL    HW119856   0.258   2.469   1.437
 6468SOL    HW219857   0.407   2.485   1.453
 6469SOL     OW19858   4.192   3.006   0.735
 6469SOL    HW119859   4.123   2.987   0.799
 6469SOL    HW219860   4.150   2.993   0.650
 6470SOL     OW19861   3.803   2.416   1.392
 6470SOL    HW119862   3.895   2.415   1.364
 6470SOL    HW219863   3.799   2.486   1.457
 6471SOL     OW19864   4.283   2.072   1.149
 6471SOL    HW119865   4.327   2.008   1.204
 6471SOL    HW219866   4.196   2.082   1.188
 6472SOL     OW19867   4.237   3.261   0.191
 6472SOL    HW119868   4.152   3.248   0.232
 6472SOL    HW219869   4.222   3.241   0.098
 6473SOL     OW19870   4.248   2.132   0.323
 6473SOL    HW119871   4.285   2.076   0.255
 6473SOL    HW219872   4.225   2.213   0.278
 6474SOL     OW19873   4.140   2.675   1.250
 6474SOL    HW119874   4.207   2.685   1.317
 6474SOL    HW219875   4.106   2.587   1.263
 6475SOL     OW19876   3.794   3.435   1.354
 6475SOL    HW119877   3.762   3.506   1.297
 6475SOL    HW219878   3.889   3.440   1.346
 6476SOL     OW19879   4.067   2.981   0.497
 6476SOL    HW119880   4.069   3.054   0.435
 6476SOL    HW219881   4.063   2.903   0.441
 6477SOL     OW19882   4.300   2.400   0.864
 6477SOL    HW119883   4.301   2.466   0.795
 6477SOL    HW219884   4.366   2.430   0.927
 6478SOL     OW19885   4.072   3.397   1.315
 6478SOL    HW119886   4.067   3.353   1.231
 6478SOL    HW219887   4.165   3.398   1.337
 6479SOL     OW19888   4.137   2.604   1.605
 6479SOL    HW119889   4.197   2.648   1.544
 6479SOL    HW219890   4.179   2.520   1.623
 6480SOL     OW19891   4.232   1.914   1.734
 6480SOL    HW119892   4.186   1.854   1.675
 6480SOL    HW219893   4.168   1.981   1.754
 6481SOL     OW19894   4.289   2.754   1.026
 6481SOL    HW119895   4.317   2.844   1.041
 6481SOL    HW219896   4.242   2.729   1.106
 6482SOL     OW19897   4.024   2.062   1.247
 6482SOL    HW119898   3.985   2.094   1.329
 6482SOL    HW219899   4.004   1.968   1.247
 6483SOL     OW19900   3.770   3.173   1.277
 6483SOL    HW119901   3.803   3.118   1.348
 6483SOL    HW219902   3.776   3.262   1.311
 6484SOL     OW19903   4.020   1.928   0.626
 6484SOL    HW119904   4.004   2.019   0.650
 6484SOL    HW219905   4.033   1.883   0.710
 6485SOL     OW19906   4.076   2.777   1.809
 6485SOL    HW119907   4.158   2.792   1.856
 6485SOL    HW219908   4.099   2.713   1.741
 6486SOL     OW19909   4.031   2.670   0.945
 6486SOL    HW119910   4.122   2.699   0.946
 6486SOL    HW219911   4.033   2.580   0.976
 6487SOL     OW19912   4.064   2.390   1.009
 6487SOL    HW119913   4.027   2.303   0.993
 6487SOL    HW219914   4.143   2.392   0.956
 6488SOL     OW19915   3.732   3.189   0.194
 6488SOL    HW119916   3.645   3.201   0.156
 6488SOL    HW219917   3.732   3.099   0.226
 6489SOL     OW19918   3.817   3.649   0.940
 6489SOL    HW119919   3.786   3.570   0.895
 6489SOL    HW219920   3.906   3.662   0.908
 6490SOL     OW19921   4.232   3.446   0.905
 6490SOL    HW119922   4.318   3.475   0.936
 6490SOL    HW219923   4.251   3.377   0.842
 6491SOL     OW19924   3.759   2.406   1.116
 6491SOL    HW119925   3.839   2.391   1.065
 6491SOL    HW219926   3.789   2.410   1.207
 6492SOL     OW19927   3.915   2.381   1.728
 6492SOL    HW119928   3.972   2.343   1.661
 6492SOL    HW219929   3.872   2.455   1.684
 6493SOL     OW19930   0.026   2.405   0.264
 6493SOL    HW119931   0.021   2.354   0.345
 6493SOL    HW219932   4.463   2.475   0.276
 6494SOL     OW19933   3.969   3.415   1.727
 6494SOL    HW119934   3.943   3.479   1.793
 6494SOL    HW219935   3.967   3.331   1.773
 6495SOL     OW19936   4.186   2.351   0.176
 6495SOL    HW119937   4.243   2.422   0.205
 6495SOL    HW219938   4.100   2.392   0.165
 6496SOL     OW19939   3.870   3.002   1.472
 6496SOL    HW119940   3.871   2.951   1.553
 6496SOL    HW219941   3.886   2.938   1.403
 6497SOL     OW19942   3.809   3.131   1.013
 6497SOL    HW119943   3.793   3.142   1.106
 6497SOL    HW219944   3.738   3.074   0.983
 6498SOL     OW19945   4.389   3.513   1.701
 6498SOL    HW119946   4.354   3.598   1.729
 6498SOL    HW219947   4.428   3.531   1.615
 6499SOL     OW19948   3.862   3.658   1.843
 6499SOL    HW119949   3.810   3.593   1.892
 6499SOL    HW219950   3.908   3.708   1.910
 6500SOL     OW19951   3.985   2.182   0.716
 6500SOL    HW119952   3.898   2.215   0.694
 6500SOL    HW219953   3.984   2.171   0.811
 6501SOL     OW19954   4.087   3.170   1.490
 6501SOL    HW119955   4.068   3.245   1.434
 6501SOL    HW219956   4.015   3.109   1.474
 6502SOL     OW19957   4.324   3.352   0.481
 6502SOL    HW119958   4.342   3.296   0.405
 6502SOL    HW219959   4.257   3.413   0.450
 6503SOL     OW19960   3.991   3.204   0.288
 6503SOL    HW119961   3.903   3.204   0.250
 6503SOL    HW219962   3.979   3.242   0.375
 6504SOL     OW19963   3.836   2.886   1.720
 6504SOL    HW119964   3.760   2.862   1.772
 6504SOL    HW219965   3.910   2.847   1.766
 6505SOL     OW19966   4.389   2.068   1.494
 6505SOL    HW119967   4.478   2.067   1.458
 6505SOL    HW219968   4.401   2.056   1.588
 6506SOL     OW19969   3.807   2.203   0.047
 6506SOL    HW119970   3.732   2.172  11.098
 6506SOL    HW219971   3.824   2.291   0.012
 6507SOL     OW19972   3.789   2.020   0.314
 6507SOL    HW119973   3.780   2.101   0.263
 6507SOL    HW219974   3.872   1.983   0.283
 6508SOL     OW19975   4.337   2.701   1.435
 6508SOL    HW119976   4.380   2.786   1.420
 6508SOL    HW219977   4.410   2.641   1.452
 6509SOL     OW19978   4.396   2.419   1.738
 6509SOL    HW119979   4.419   2.495   1.791
 6509SOL    HW219980   4.481   2.386   1.708
 6510SOL     OW19981   4.107   3.601   1.560
 6510SOL    HW119982   4.022   3.643   1.547
 6510SOL    HW219983   4.087   3.520   1.607
 6511SOL     OW19984   4.308   2.591   0.667
 6511SOL    HW119985   4.349   2.677   0.656
 6511SOL    HW219986   4.239   2.589   0.602
 6512SOL     OW19987   3.943   3.169   1.854
 6512SOL    HW119988   3.878   3.104   1.826
 6512SOL    HW219989   3.927   3.179   1.948
 6513SOL     OW19990   3.809   3.094   0.666
 6513SOL    HW119991   3.815   3.046   0.749
 6513SOL    HW219992   3.879   3.059   0.612
 6514SOL     OW19993   4.418   3.248   1.662
 6514SOL    HW119994   4.328   3.216   1.654
 6514SOL    HW219995   4.409   3.342   1.676
 6515SOL     OW19996   4.161   2.296   0.533
 6515SOL    HW119997   4.182   2.227   0.470
 6515SOL    HW219998   4.104   2.253   0.597
 6516SOL     OW19999   4.053   2.416   1.289
 6516SOL    HW120000   4.107   2.360   1.345
 6516SOL    HW220001   4.074   2.389   1.200
 6517SOL     OW20002   0.035   3.462   0.687
 6517SOL    HW120003   0.063   3.524   0.619
 6517SOL    HW220004   4.466   3.411   0.645
 6518SOL     OW20005   3.766   2.932   0.301
 6518SOL    HW120006   3.861   2.927   0.297
 6518SOL    HW220007   3.738   2.844   0.326
 6519SOL     OW20008   3.954   2.485   1.985
 6519SOL    HW120009   3.865   2.484   2.020
 6519SOL    HW220010   3.944   2.460   1.894
 6520SOL     OW20011   3.947   2.148   2.853
 6520SOL    HW120012   3.979   2.111   2.936
 6520SOL    HW220013   3.858   2.113   2.844
 6521SOL     OW20014   3.727   2.245   2.500
 6521SOL    HW120015   3.644   2.270   2.541
 6521SOL    HW220016   3.706   2.165   2.451
 6522SOL     OW20017   4.266   3.106   3.007
 6522SOL    HW120018   4.198   3.169   2.985
 6522SOL    HW220019   4.334   3.158   3.050
 6523SOL     OW20020   0.018   2.641   3.719
 6523SOL    HW120021   0.070   2.682   3.788
 6523SOL    HW220022   0.063   2.665   3.638
 6524SOL     OW20023   4.399   2.852   2.496
 6524SOL    HW120024   4.473   2.846   2.557
 6524SOL    HW220025   4.337   2.911   2.540
 6525SOL     OW20026   4.419   3.023   3.674
 6525SOL    HW120027   4.458   3.103   3.640
 6525SOL    HW220028   4.327   3.030   3.651
 6526SOL     OW20029   4.061   3.294   2.931
 6526SOL    HW120030   3.988   3.250   2.886
 6526SOL    HW220031   4.106   3.342   2.862
 6527SOL     OW20032   4.172   2.261   3.345
 6527SOL    HW120033   4.246   2.201   3.350
 6527SOL    HW220034   4.095   2.206   3.360
 6528SOL     OW20035   3.942   3.576   2.335
 6528SOL    HW120036   3.962   3.653   2.389
 6528SOL    HW220037   4.017   3.568   2.276
 6529SOL     OW20038   3.954   3.303   2.396
 6529SOL    HW120039   3.935   3.397   2.401
 6529SOL    HW220040   3.895   3.263   2.460
 6530SOL     OW20041   3.976   2.950   2.748
 6530SOL    HW120042   3.980   2.865   2.792
 6530SOL    HW220043   3.924   3.005   2.807
 6531SOL     OW20044   4.362   3.659   3.317
 6531SOL    HW120045   4.275   3.627   3.340
 6531SOL    HW220046   4.353   3.754   3.317
 6532SOL     OW20047   4.309   2.848   2.001
 6532SOL    HW120048   4.340   2.899   1.926
 6532SOL    HW220049   4.377   2.860   2.068
 6533SOL     OW20050   3.840   2.514   2.422
 6533SOL    HW120051   3.808   2.426   2.443
 6533SOL    HW220052   3.831   2.563   2.504
 6534SOL     OW20053   3.757   3.457   1.986
 6534SOL    HW120054   3.738   3.365   2.005
 6534SOL    HW220055   3.732   3.504   2.065
 6535SOL     OW20056   3.846   2.604   3.448
 6535SOL    HW120057   3.938   2.630   3.456
 6535SOL    HW220058   3.797   2.686   3.454
 6536SOL     OW20059   4.309   3.250   2.600
 6536SOL    HW120060   4.274   3.161   2.603
 6536SOL    HW220061   4.311   3.272   2.506
 6537SOL     OW20062   0.022   1.870   2.388
 6537SOL    HW120063   0.052   1.931   2.320
 6537SOL    HW220064   4.427   1.884   2.391
 6538SOL     OW20065   3.912   2.827   3.135
 6538SOL    HW120066   3.997   2.787   3.117
 6538SOL    HW220067   3.850   2.774   3.084
 6539SOL     OW20068   4.059   2.112   3.674
 6539SOL    HW120069   4.101   2.196   3.690
 6539SOL    HW220070   3.969   2.124   3.705
 6540SOL     OW20071   4.312   2.589   2.132
 6540SOL    HW120072   4.308   2.667   2.077
 6540SOL    HW220073   4.244   2.604   2.199
 6541SOL     OW20074   3.812   2.683   2.638
 6541SOL    HW120075   3.893   2.675   2.688
 6541SOL    HW220076   3.770   2.762   2.672
 6542SOL     OW20077   3.853   3.711   3.440
 6542SOL    HW120078   3.853   3.690   3.533
 6542SOL    HW220079   3.762   3.699   3.413
 6543SOL     OW20080   4.250   2.052   2.742
 6543SOL    HW120081   4.270   2.058   2.836
 6543SOL    HW220082   4.260   2.141   2.709
 6544SOL     OW20083   4.082   3.675   2.726
 6544SOL    HW120084   4.133   3.594   2.733
 6544SOL    HW220085   4.147   3.744   2.737
 6545SOL     OW20086   4.043   2.821   2.113
 6545SOL    HW120087   4.126   2.840   2.069
 6545SOL    HW220088   4.013   2.739   2.074
 6546SOL     OW20089   4.177   3.114   3.596
 6546SOL    HW120090   4.151   3.126   3.505
 6546SOL    HW220091   4.097   3.124   3.647
 6547SOL     OW20092   3.925   2.143   3.364
 6547SOL    HW120093   3.843   2.193   3.358
 6547SOL    HW220094   3.905   2.072   3.425
 6548SOL     OW20095   4.192   3.597   2.188
 6548SOL    HW120096   4.225   3.657   2.254
 6548SOL    HW220097   4.260   3.595   2.121
 6549SOL     OW20098   3.979   3.655   3.094
 6549SOL    HW120099   4.026   3.584   3.138
 6549SOL    HW220100   3.966   3.622   3.005
 6550SOL     OW20101   4.112   2.555   2.335
 6550SOL    HW120102   4.136   2.464   2.350
 6550SOL    HW220103   4.018   2.558   2.355
 6551SOL     OW20104   4.340   1.970   1.980
 6551SOL    HW120105   4.435   1.956   1.979
 6551SOL    HW220106   4.312   1.948   1.891
 6552SOL     OW20107   0.021   3.282   2.772
 6552SOL    HW120108   0.079   3.331   2.715
 6552SOL    HW220109   4.444   3.263   2.718
 6553SOL     OW20110   4.260   1.927   2.363
 6553SOL    HW120111   4.181   1.931   2.416
 6553SOL    HW220112   4.256   2.005   2.307
 6554SOL     OW20113   4.017   1.910   2.047
 6554SOL    HW120114   4.078   1.973   2.008
 6554SOL    HW220115   4.073   1.846   2.090
 6555SOL     OW20116   0.326   2.535   3.311
 6555SOL    HW120117   0.258   2.469   3.299
 6555SOL    HW220118   0.407   2.484   3.315
 6556SOL     OW20119   4.190   3.007   2.594
 6556SOL    HW120120   4.122   2.988   2.658
 6556SOL    HW220121   4.149   2.990   2.509
 6557SOL     OW20122   3.803   2.416   3.254
 6557SOL    HW120123   3.895   2.415   3.226
 6557SOL    HW220124   3.799   2.486   3.319
 6558SOL     OW20125   4.283   2.072   3.011
 6558SOL    HW120126   4.327   2.008   3.067
 6558SOL    HW220127   4.196   2.082   3.050
 6559SOL     OW20128   4.231   3.248   2.035
 6559SOL    HW120129   4.146   3.234   2.076
 6559SOL    HW220130   4.210   3.263   1.943
 6560SOL     OW20131   4.245   2.128   2.183
 6560SOL    HW120132   4.286   2.073   2.116
 6560SOL    HW220133   4.225   2.210   2.138
 6561SOL     OW20134   4.140   2.675   3.112
 6561SOL    HW120135   4.207   2.685   3.179
 6561SOL    HW220136   4.106   2.587   3.125
 6562SOL     OW20137   3.794   3.435   3.216
 6562SOL    HW120138   3.762   3.506   3.160
 6562SOL    HW220139   3.889   3.440   3.208
 6563SOL     OW20140   4.068   2.972   2.352
 6563SOL    HW120141   4.071   3.045   2.289
 6563SOL    HW220142   4.067   2.894   2.297
 6564SOL     OW20143   4.300   2.400   2.727
 6564SOL    HW120144   4.300   2.466   2.657
 6564SOL    HW220145   4.366   2.430   2.789
 6565SOL     OW20146   4.072   3.397   3.178
 6565SOL    HW120147   4.067   3.353   3.093
 6565SOL    HW220148   4.165   3.398   3.199
 6566SOL     OW20149   4.137   2.604   3.467
 6566SOL    HW120150   4.197   2.648   3.406
 6566SOL    HW220151   4.179   2.520   3.485
 6567SOL     OW20152   4.232   1.914   3.596
 6567SOL    HW120153   4.186   1.854   3.537
 6567SOL    HW220154   4.168   1.981   3.616
 6568SOL     OW20155   4.290   2.754   2.889
 6568SOL    HW120156   4.317   2.844   2.904
 6568SOL    HW220157   4.243   2.729   2.968
 6569SOL     OW20158   4.024   2.062   3.109
 6569SOL    HW120159   3.985   2.094   3.191
 6569SOL    HW220160   4.004   1.968   3.109
 6570SOL     OW20161   3.770   3.173   3.139
 6570SOL    HW120162   3.803   3.118   3.210
 6570SOL    HW220163   3.776   3.262   3.173
 6571SOL     OW20164   4.019   1.928   2.488
 6571SOL    HW120165   4.003   2.019   2.511
 6571SOL    HW220166   4.032   1.883   2.572
 6572SOL     OW20167   4.076   2.777   3.671
 6572SOL    HW120168   4.158   2.792   3.718
 6572SOL    HW220169   4.098   2.713   3.603
 6573SOL     OW20170   4.031   2.670   2.808
 6573SOL    HW120171   4.122   2.698   2.808
 6573SOL    HW220172   4.033   2.580   2.838
 6574SOL     OW20173   4.064   2.390   2.871
 6574SOL    HW120174   4.027   2.303   2.855
 6574SOL    HW220175   4.143   2.392   2.818
 6575SOL     OW20176   3.729   3.183   2.058
 6575SOL    HW120177   3.642   3.197   2.020
 6575SOL    HW220178   3.726   3.093   2.091
 6576SOL     OW20179   3.816   3.649   2.801
 6576SOL    HW120180   3.786   3.570   2.756
 6576SOL    HW220181   3.906   3.662   2.769
 6577SOL     OW20182   4.232   3.446   2.767
 6577SOL    HW120183   4.318   3.474   2.799
 6577SOL    HW220184   4.251   3.376   2.705
 6578SOL     OW20185   3.759   2.407   2.978
 6578SOL    HW120186   3.839   2.391   2.927
 6578SOL    HW220187   3.789   2.410   3.069
 6579SOL     OW20188   3.915   2.381   3.590
 6579SOL    HW120189   3.971   2.343   3.523
 6579SOL    HW220190   3.873   2.455   3.546
 6580SOL     OW20191   0.031   2.416   2.124
 6580SOL    HW120192   0.021   2.352   2.195
 6580SOL    HW220193   4.463   2.482   2.141
 6581SOL     OW20194   3.969   3.415   3.589
 6581SOL    HW120195   3.943   3.479   3.655
 6581SOL    HW220196   3.967   3.331   3.635
 6582SOL     OW20197   4.189   2.355   2.050
 6582SOL    HW120198   4.247   2.427   2.069
 6582SOL    HW220199   4.103   2.396   2.035
 6583SOL     OW20200   3.870   3.002   3.334
 6583SOL    HW120201   3.871   2.951   3.415
 6583SOL    HW220202   3.886   2.938   3.265
 6584SOL     OW20203   3.809   3.132   2.874
 6584SOL    HW120204   3.793   3.142   2.968
 6584SOL    HW220205   3.738   3.074   2.844
 6585SOL     OW20206   4.389   3.513   3.563
 6585SOL    HW120207   4.354   3.598   3.591
 6585SOL    HW220208   4.428   3.531   3.477
 6586SOL     OW20209   3.862   3.658   3.705
 6586SOL    HW120210   3.810   3.593   3.754
 6586SOL    HW220211   3.908   3.708   3.772
 6587SOL     OW20212   3.985   2.182   2.577
 6587SOL    HW120213   3.898   2.215   2.556
 6587SOL    HW220214   3.984   2.171   2.672
 6588SOL     OW20215   4.087   3.169   3.352
 6588SOL    HW120216   4.068   3.245   3.297
 6588SOL    HW220217   4.015   3.109   3.336
 6589SOL     OW20218   4.326   3.352   2.342
 6589SOL    HW120219   4.342   3.293   2.269
 6589SOL    HW220220   4.260   3.413   2.309
 6590SOL     OW20221   3.984   3.211   2.149
 6590SOL    HW120222   3.891   3.207   2.126
 6590SOL    HW220223   3.986   3.247   2.237
 6591SOL     OW20224   3.836   2.886   3.582
 6591SOL    HW120225   3.760   2.861   3.634
 6591SOL    HW220226   3.910   2.847   3.628
 6592SOL     OW20227   4.389   2.068   3.356
 6592SOL    HW120228   4.478   2.067   3.320
 6592SOL    HW220229   4.401   2.056   3.450
 6593SOL     OW20230   3.803   2.194   1.897
 6593SOL    HW120231   3.715   2.176   1.864
 6593SOL    HW220232   3.832   2.270   1.845
 6594SOL     OW20233   3.792   2.018   2.172
 6594SOL    HW120234   3.777   2.098   2.121
 6594SOL    HW220235   3.877   1.986   2.141
 6595SOL     OW20236   4.338   2.701   3.297
 6595SOL    HW120237   4.380   2.786   3.283
 6595SOL    HW220238   4.410   2.641   3.314
 6596SOL     OW20239   4.396   2.419   3.600
 6596SOL    HW120240   4.419   2.495   3.653
 6596SOL    HW220241   4.481   2.385   3.570
 6597SOL     OW20242   4.107   3.601   3.422
 6597SOL    HW120243   4.022   3.643   3.409
 6597SOL    HW220244   4.087   3.520   3.469
 6598SOL     OW20245   4.308   2.592   2.530
 6598SOL    HW120246   4.350   2.677   2.517
 6598SOL    HW220247   4.239   2.589   2.463
 6599SOL     OW20248   3.943   3.169   3.716
 6599SOL    HW120249   3.878   3.104   3.688
 6599SOL    HW220250   3.927   3.179   3.810
 6600SOL     OW20251   3.809   3.095   2.527
 6600SOL    HW120252   3.814   3.047   2.610
 6600SOL    HW220253   3.877   3.056   2.473
 6601SOL     OW20254   4.418   3.248   3.524
 6601SOL    HW120255   4.328   3.216   3.517
 6601SOL    HW220256   4.409   3.342   3.538
 6602SOL     OW20257   4.164   2.295   2.396
 6602SOL    HW120258   4.180   2.228   2.330
 6602SOL    HW220259   4.106   2.253   2.459
 6603SOL     OW20260   4.053   2.416   3.151
 6603SOL    HW120261   4.107   2.360   3.206
 6603SOL    HW220262   4.074   2.389   3.062
 6604SOL     OW20263   0.036   3.463   2.548
 6604SOL    HW120264   0.060   3.526   2.480
 6604SOL    HW220265   4.467   3.410   2.509
 6605SOL     OW20266   3.768   2.932   2.168
 6605SOL    HW120267   3.861   2.923   2.150
 6605SOL    HW220268   3.739   2.844   2.191
 6606SOL     OW20269   3.954   2.485   3.847
 6606SOL    HW120270   3.865   2.484   3.882
 6606SOL    HW220271   3.944   2.460   3.756
 6607SOL     OW20272   3.948   2.147   4.715
 6607SOL    HW120273   3.979   2.111   4.798
 6607SOL    HW220274   3.859   2.113   4.706
 6608SOL     OW20275   3.727   2.245   4.362
 6608SOL    HW120276   3.644   2.269   4.404
 6608SOL    HW220277   3.706   2.165   4.313
 6609SOL     OW20278   4.267   3.106   4.868
 6609SOL    HW120279   4.198   3.169   4.847
 6609SOL    HW220280   4.334   3.158   4.912
 6610SOL     OW20281   0.019   2.640   5.581
 6610SOL    HW120282   0.069   2.682   5.651
 6610SOL    HW220283   0.063   2.666   5.500
 6611SOL     OW20284   4.399   2.852   4.358
 6611SOL    HW120285   4.472   2.846   4.419
 6611SOL    HW220286   4.337   2.911   4.402
 6612SOL     OW20287   4.419   3.023   5.536
 6612SOL    HW120288   4.458   3.103   5.502
 6612SOL    HW220289   4.327   3.030   5.513
 6613SOL     OW20290   4.061   3.294   4.793
 6613SOL    HW120291   3.988   3.250   4.749
 6613SOL    HW220292   4.106   3.342   4.724
 6614SOL     OW20293   4.171   2.261   5.206
 6614SOL    HW120294   4.246   2.201   5.212
 6614SOL    HW220295   4.095   2.206   5.222
 6615SOL     OW20296   3.942   3.576   4.197
 6615SOL    HW120297   3.962   3.653   4.251
 6615SOL    HW220298   4.017   3.568   4.138
 6616SOL     OW20299   3.954   3.303   4.258
 6616SOL    HW120300   3.935   3.397   4.263
 6616SOL    HW220301   3.895   3.263   4.322
 6617SOL     OW20302   3.976   2.950   4.610
 6617SOL    HW120303   3.980   2.865   4.654
 6617SOL    HW220304   3.924   3.005   4.669
 6618SOL     OW20305   4.362   3.659   5.179
 6618SOL    HW120306   4.275   3.626   5.202
 6618SOL    HW220307   4.353   3.754   5.179
 6619SOL     OW20308   4.309   2.848   3.863
 6619SOL    HW120309   4.340   2.899   3.788
 6619SOL    HW220310   4.377   2.860   3.930
 6620SOL     OW20311   3.840   2.514   4.284
 6620SOL    HW120312   3.808   2.426   4.305
 6620SOL    HW220313   3.831   2.563   4.366
 6621SOL     OW20314   3.757   3.457   3.848
 6621SOL    HW120315   3.738   3.365   3.868
 6621SOL    HW220316   3.732   3.504   3.927
 6622SOL     OW20317   3.846   2.604   5.309
 6622SOL    HW120318   3.937   2.631   5.318
 6622SOL    HW220319   3.796   2.686   5.316
 6623SOL     OW20320   4.309   3.250   4.462
 6623SOL    HW120321   4.274   3.161   4.465
 6623SOL    HW220322   4.311   3.271   4.368
 6624SOL     OW20323   0.022   1.870   4.250
 6624SOL    HW120324   0.052   1.931   4.182
 6624SOL    HW220325   4.427   1.884   4.253
 6625SOL     OW20326   3.912   2.827   4.996
 6625SOL    HW120327   3.998   2.787   4.979
 6625SOL    HW220328   3.850   2.773   4.947
 6626SOL     OW20329   4.059   2.112   5.536
 6626SOL    HW120330   4.101   2.196   5.552
 6626SOL    HW220331   3.969   2.124   5.566
 6627SOL     OW20332   4.312   2.589   3.994
 6627SOL    HW120333   4.308   2.667   3.939
 6627SOL    HW220334   4.244   2.604   4.061
 6628SOL     OW20335   3.811   2.683   4.500
 6628SOL    HW120336   3.892   2.675   4.550
 6628SOL    HW220337   3.770   2.762   4.534
 6629SOL     OW20338   3.853   3.712   5.302
 6629SOL    HW120339   3.853   3.690   5.395
 6629SOL    HW220340   3.762   3.699   5.275
 6630SOL     OW20341   4.251   2.052   4.604
 6630SOL    HW120342   4.270   2.058   4.698
 6630SOL    HW220343   4.260   2.141   4.572
 6631SOL     OW20344   4.082   3.675   4.588
 6631SOL    HW120345   4.132   3.594   4.595
 6631SOL    HW220346   4.147   3.744   4.599
 6632SOL     OW20347   4.043   2.821   3.975
 6632SOL    HW120348   4.126   2.840   3.931
 6632SOL    HW220349   4.013   2.738   3.936
 6633SOL     OW20350   4.177   3.114   5.458
 6633SOL    HW120351   4.151   3.126   5.367
 6633SOL    HW220352   4.097   3.124   5.509
 6634SOL     OW20353   3.924   2.144   5.227
 6634SOL    HW120354   3.842   2.193   5.221
 6634SOL    HW220355   3.905   2.073   5.288
 6635SOL     OW20356   4.192   3.597   4.050
 6635SOL    HW120357   4.225   3.657   4.116
 6635SOL    HW220358   4.260   3.596   3.983
 6636SOL     OW20359   3.980   3.655   4.956
 6636SOL    HW120360   4.026   3.584   5.000
 6636SOL    HW220361   3.966   3.622   4.867
 6637SOL     OW20362   4.112   2.555   4.197
 6637SOL    HW120363   4.136   2.464   4.212
 6637SOL    HW220364   4.018   2.558   4.217
 6638SOL     OW20365   4.340   1.970   3.842
 6638SOL    HW120366   4.435   1.956   3.841
 6638SOL    HW220367   4.311   1.948   3.753
 6639SOL     OW20368   0.021   3.282   4.634
 6639SOL    HW120369   0.080   3.331   4.576
 6639SOL    HW220370   4.444   3.263   4.580
 6640SOL     OW20371   4.260   1.927   4.225
 6640SOL    HW120372   4.181   1.931   4.278
 6640SOL    HW220373   4.256   2.005   4.169
 6641SOL     OW20374   4.017   1.910   3.909
 6641SOL    HW120375   4.078   1.973   3.870
 6641SOL    HW220376   4.073   1.846   3.952
 6642SOL     OW20377   0.327   2.535   5.173
 6642SOL    HW120378   0.257   2.470   5.161
 6642SOL    HW220379   0.407   2.483   5.176
 6643SOL     OW20380   4.190   3.007   4.456
 6643SOL    HW120381   4.122   2.988   4.520
 6643SOL    HW220382   4.149   2.990   4.371
 6644SOL     OW20383   3.803   2.416   5.116
 6644SOL    HW120384   3.895   2.415   5.088
 6644SOL    HW220385   3.799   2.486   5.181
 6645SOL     OW20386   4.283   2.072   4.873
 6645SOL    HW120387   4.326   2.008   4.929
 6645SOL    HW220388   4.196   2.083   4.912
 6646SOL     OW20389   4.231   3.248   3.897
 6646SOL    HW120390   4.146   3.234   3.939
 6646SOL    HW220391   4.210   3.263   3.805
 6647SOL     OW20392   4.245   2.128   4.045
 6647SOL    HW120393   4.286   2.073   3.978
 6647SOL    HW220394   4.225   2.210   4.000
 6648SOL     OW20395   4.140   2.675   4.973
 6648SOL    HW120396   4.207   2.685   5.041
 6648SOL    HW220397   4.105   2.587   4.987
 6649SOL     OW20398   3.794   3.435   5.078
 6649SOL    HW120399   3.762   3.506   5.022
 6649SOL    HW220400   3.889   3.440   5.070
 6650SOL     OW20401   4.068   2.972   4.213
 6650SOL    HW120402   4.071   3.045   4.151
 6650SOL    HW220403   4.067   2.894   4.159
 6651SOL     OW20404   4.300   2.400   4.588
 6651SOL    HW120405   4.300   2.466   4.519
 6651SOL    HW220406   4.366   2.430   4.651
 6652SOL     OW20407   4.071   3.397   5.040
 6652SOL    HW120408   4.066   3.353   4.955
 6652SOL    HW220409   4.165   3.398   5.061
 6653SOL     OW20410   4.137   2.605   5.329
 6653SOL    HW120411   4.197   2.648   5.268
 6653SOL    HW220412   4.179   2.520   5.347
 6654SOL     OW20413   4.232   1.914   5.458
 6654SOL    HW120414   4.186   1.854   5.399
 6654SOL    HW220415   4.168   1.981   5.479
 6655SOL     OW20416   4.290   2.754   4.751
 6655SOL    HW120417   4.316   2.845   4.766
 6655SOL    HW220418   4.243   2.729   4.830
 6656SOL     OW20419   4.024   2.062   4.972
 6656SOL    HW120420   3.985   2.094   5.053
 6656SOL    HW220421   4.004   1.968   4.971
 6657SOL     OW20422   3.772   3.173   5.000
 6657SOL    HW120423   3.803   3.118   5.072
 6657SOL    HW220424   3.776   3.262   5.035
 6658SOL     OW20425   4.020   1.928   4.350
 6658SOL    HW120426   4.003   2.019   4.373
 6658SOL    HW220427   4.032   1.883   4.434
 6659SOL     OW20428   4.076   2.777   5.533
 6659SOL    HW120429   4.158   2.792   5.580
 6659SOL    HW220430   4.098   2.713   5.465
 6660SOL     OW20431   4.031   2.670   4.669
 6660SOL    HW120432   4.122   2.698   4.670
 6660SOL    HW220433   4.033   2.580   4.701
 6661SOL     OW20434   4.064   2.390   4.733
 6661SOL    HW120435   4.027   2.303   4.717
 6661SOL    HW220436   4.143   2.392   4.679
 6662SOL     OW20437   3.729   3.183   3.919
 6662SOL    HW120438   3.643   3.197   3.882
 6662SOL    HW220439   3.726   3.093   3.953
 6663SOL     OW20440   3.816   3.649   4.663
 6663SOL    HW120441   3.786   3.570   4.618
 6663SOL    HW220442   3.906   3.661   4.631
 6664SOL     OW20443   4.232   3.446   4.629
 6664SOL    HW120444   4.318   3.474   4.661
 6664SOL    HW220445   4.251   3.376   4.567
 6665SOL     OW20446   3.759   2.407   4.840
 6665SOL    HW120447   3.839   2.391   4.790
 6665SOL    HW220448   3.788   2.410   4.931
 6666SOL     OW20449   3.915   2.382   5.452
 6666SOL    HW120450   3.971   2.343   5.384
 6666SOL    HW220451   3.872   2.455   5.409
 6667SOL     OW20452   0.031   2.416   3.986
 6667SOL    HW120453   0.020   2.352   4.057
 6667SOL    HW220454   4.463   2.482   4.003
 6668SOL     OW20455   3.969   3.415   5.451
 6668SOL    HW120456   3.943   3.479   5.517
 6668SOL    HW220457   3.967   3.331   5.497
 6669SOL     OW20458   4.189   2.355   3.912
 6669SOL    HW120459   4.247   2.427   3.931
 6669SOL    HW220460   4.104   2.396   3.897
 6670SOL     OW20461   3.870   3.002   5.197
 6670SOL    HW120462   3.871   2.950   5.277
 6670SOL    HW220463   3.886   2.938   5.127
 6671SOL     OW20464   3.809   3.131   4.736
 6671SOL    HW120465   3.794   3.142   4.830
 6671SOL    HW220466   3.738   3.075   4.707
 6672SOL     OW20467   4.389   3.513   5.425
 6672SOL    HW120468   4.354   3.598   5.453
 6672SOL    HW220469   4.427   3.531   5.339
 6673SOL     OW20470   3.862   3.658   5.567
 6673SOL    HW120471   3.810   3.593   5.615
 6673SOL    HW220472   3.908   3.708   5.634
 6674SOL     OW20473   3.985   2.182   4.439
 6674SOL    HW120474   3.898   2.215   4.418
 6674SOL    HW220475   3.984   2.171   4.534
 6675SOL     OW20476   4.088   3.169   5.214
 6675SOL    HW120477   4.067   3.245   5.159
 6675SOL    HW220478   4.015   3.109   5.199
 6676SOL     OW20479   4.326   3.352   4.204
 6676SOL    HW120480   4.342   3.293   4.131
 6676SOL    HW220481   4.259   3.413   4.171
 6677SOL     OW20482   3.984   3.211   4.011
 6677SOL    HW120483   3.891   3.207   3.988
 6677SOL    HW220484   3.986   3.247   4.099
 6678SOL     OW20485   3.836   2.886   5.444
 6678SOL    HW120486   3.759   2.862   5.496
 6678SOL    HW220487   3.910   2.847   5.491
 6679SOL     OW20488   4.389   2.068   5.218
 6679SOL    HW120489   4.478   2.067   5.183
 6679SOL    HW220490   4.401   2.056   5.312
 6680SOL     OW20491   3.803   2.195   3.759
 6680SOL    HW120492   3.715   2.176   3.726
 6680SOL    HW220493   3.832   2.270   3.707
 6681SOL     OW20494   3.792   2.018   4.034
 6681SOL    HW120495   3.777   2.098   3.983
 6681SOL    HW220496   3.877   1.986   4.004
 6682SOL     OW20497   4.338   2.701   5.159
 6682SOL    HW120498   4.380   2.786   5.145
 6682SOL    HW220499   4.410   2.641   5.177
 6683SOL     OW20500   4.397   2.419   5.462
 6683SOL    HW120501   4.419   2.495   5.515
 6683SOL    HW220502   4.481   2.385   5.432
 6684SOL     OW20503   4.107   3.601   5.285
 6684SOL    HW120504   4.022   3.643   5.271
 6684SOL    HW220505   4.087   3.520   5.331
 6685SOL     OW20506   4.308   2.592   4.392
 6685SOL    HW120507   4.350   2.677   4.379
 6685SOL    HW220508   4.239   2.589   4.325
 6686SOL     OW20509   3.943   3.168   5.578
 6686SOL    HW120510   3.878   3.104   5.550
 6686SOL    HW220511   3.927   3.179   5.672
 6687SOL     OW20512   3.809   3.095   4.389
 6687SOL    HW120513   3.814   3.047   4.472
 6687SOL    HW220514   3.877   3.055   4.335
 6688SOL     OW20515   4.418   3.248   5.385
 6688SOL    HW120516   4.328   3.216   5.379
 6688SOL    HW220517   4.409   3.342   5.400
 6689SOL     OW20518   4.164   2.295   4.258
 6689SOL    HW120519   4.180   2.228   4.192
 6689SOL    HW220520   4.106   2.253   4.321
 6690SOL     OW20521   4.053   2.416   5.013
 6690SOL    HW120522   4.107   2.360   5.069
 6690SOL    HW220523   4.074   2.389   4.924
 6691SOL     OW20524   0.036   3.463   4.410
 6691SOL    HW120525   0.059   3.526   4.342
 6691SOL    HW220526   4.467   3.410   4.371
 6692SOL     OW20527   3.768   2.932   4.030
 6692SOL    HW120528   3.861   2.923   4.012
 6692SOL    HW220529   3.739   2.844   4.053
 6693SOL     OW20530   3.954   2.485   5.709
 6693SOL    HW120531   3.865   2.484   5.744
 6693SOL    HW220532   3.944   2.459   5.618
 6694SOL     OW20533   3.947   2.148   6.577
 6694SOL    HW120534   3.979   2.111   6.660
 6694SOL    HW220535   3.858   2.113   6.568
 6695SOL     OW20536   3.727   2.245   6.224
 6695SOL    HW120537   3.644   2.270   6.265
 6695SOL    HW220538   3.705   2.165   6.175
 6696SOL     OW20539   4.266   3.106   6.731
 6696SOL    HW120540   4.198   3.169   6.709
 6696SOL    HW220541   4.334   3.158   6.774
 6697SOL     OW20542   0.018   2.641   7.443
 6697SOL    HW120543   0.070   2.681   7.512
 6697SOL    HW220544   0.063   2.665   7.362
 6698SOL     OW20545   4.399   2.852   6.220
 6698SOL    HW120546   4.473   2.846   6.281
 6698SOL    HW220547   4.337   2.911   6.264
 6699SOL     OW20548   4.419   3.023   7.398
 6699SOL    HW120549   4.459   3.103   7.364
 6699SOL    HW220550   4.327   3.030   7.375
 6700SOL     OW20551   4.061   3.294   6.655
 6700SOL    HW120552   3.988   3.250   6.610
 6700SOL    HW220553   4.106   3.342   6.586
 6701SOL     OW20554   4.172   2.261   7.069
 6701SOL    HW120555   4.246   2.201   7.074
 6701SOL    HW220556   4.095   2.206   7.084
 6702SOL     OW20557   3.942   3.576   6.059
 6702SOL    HW120558   3.962   3.653   6.113
 6702SOL    HW220559   4.017   3.568   6.000
 6703SOL     OW20560   3.955   3.303   6.121
 6703SOL    HW120561   3.935   3.397   6.126
 6703SOL    HW220562   3.895   3.263   6.184
 6704SOL     OW20563   3.976   2.950   6.472
 6704SOL    HW120564   3.980   2.865   6.516
 6704SOL    HW220565   3.924   3.005   6.531
 6705SOL     OW20566   4.362   3.659   7.041
 6705SOL    HW120567   4.275   3.627   7.064
 6705SOL    HW220568   4.353   3.754   7.041
 6706SOL     OW20569   4.309   2.848   5.725
 6706SOL    HW120570   4.340   2.899   5.650
 6706SOL    HW220571   4.377   2.860   5.792
 6707SOL     OW20572   3.840   2.514   6.146
 6707SOL    HW120573   3.808   2.426   6.167
 6707SOL    HW220574   3.831   2.563   6.228
 6708SOL     OW20575   3.757   3.457   5.710
 6708SOL    HW120576   3.738   3.365   5.729
 6708SOL    HW220577   3.732   3.504   5.789
 6709SOL     OW20578   3.846   2.604   7.172
 6709SOL    HW120579   3.938   2.630   7.180
 6709SOL    HW220580   3.797   2.686   7.178
 6710SOL     OW20581   4.309   3.250   6.323
 6710SOL    HW120582   4.274   3.161   6.327
 6710SOL    HW220583   4.311   3.272   6.230
 6711SOL     OW20584   0.022   1.870   6.111
 6711SOL    HW120585   0.052   1.931   6.044
 6711SOL    HW220586   4.427   1.884   6.115
 6712SOL     OW20587   3.912   2.827   6.859
 6712SOL    HW120588   3.997   2.787   6.841
 6712SOL    HW220589   3.850   2.774   6.808
 6713SOL     OW20590   4.059   2.112   7.398
 6713SOL    HW120591   4.101   2.196   7.414
 6713SOL    HW220592   3.969   2.124   7.429
 6714SOL     OW20593   4.312   2.589   5.856
 6714SOL    HW120594   4.308   2.667   5.801
 6714SOL    HW220595   4.244   2.604   5.923
 6715SOL     OW20596   3.812   2.683   6.362
 6715SOL    HW120597   3.893   2.675   6.412
 6715SOL    HW220598   3.770   2.762   6.396
 6716SOL     OW20599   3.853   3.711   7.164
 6716SOL    HW120600   3.853   3.690   7.257
 6716SOL    HW220601   3.762   3.699   7.137
 6717SOL     OW20602   4.251   2.051   6.466
 6717SOL    HW120603   4.270   2.058   6.560
 6717SOL    HW220604   4.260   2.141   6.433
 6718SOL     OW20605   4.082   3.675   6.450
 6718SOL    HW120606   4.132   3.594   6.457
 6718SOL    HW220607   4.147   3.744   6.461
 6719SOL     OW20608   4.043   2.821   5.837
 6719SOL    HW120609   4.125   2.839   5.792
 6719SOL    HW220610   4.012   2.739   5.799
 6720SOL     OW20611   4.177   3.114   7.320
 6720SOL    HW120612   4.151   3.126   7.229
 6720SOL    HW220613   4.097   3.124   7.371
 6721SOL     OW20614   3.925   2.143   7.088
 6721SOL    HW120615   3.843   2.193   7.082
 6721SOL    HW220616   3.905   2.072   7.149
 6722SOL     OW20617   4.192   3.597   5.912
 6722SOL    HW120618   4.225   3.657   5.978
 6722SOL    HW220619   4.260   3.595   5.845
 6723SOL     OW20620   3.980   3.655   6.818
 6723SOL    HW120621   4.026   3.584   6.862
 6723SOL    HW220622   3.966   3.622   6.729
 6724SOL     OW20623   4.112   2.555   6.059
 6724SOL    HW120624   4.136   2.464   6.074
 6724SOL    HW220625   4.018   2.558   6.079
 6725SOL     OW20626   4.340   1.970   5.704
 6725SOL    HW120627   4.435   1.956   5.703
 6725SOL    HW220628   4.311   1.948   5.615
 6726SOL     OW20629   0.021   3.282   6.496
 6726SOL    HW120630   0.080   3.331   6.438
 6726SOL    HW220631   4.444   3.263   6.442
 6727SOL     OW20632   4.260   1.927   6.087
 6727SOL    HW120633   4.181   1.931   6.140
 6727SOL    HW220634   4.256   2.005   6.032
 6728SOL     OW20635   4.017   1.910   5.771
 6728SOL    HW120636   4.078   1.974   5.732
 6728SOL    HW220637   4.073   1.846   5.814
 6729SOL     OW20638   0.326   2.535   7.034
 6729SOL    HW120639   0.258   2.469   7.023
 6729SOL    HW220640   0.407   2.485   7.039
 6730SOL     OW20641   4.190   3.007   6.318
 6730SOL    HW120642   4.122   2.988   6.382
 6730SOL    HW220643   4.149   2.990   6.233
 6731SOL     OW20644   3.804   2.416   6.978
 6731SOL    HW120645   3.895   2.415   6.950
 6731SOL    HW220646   3.799   2.486   7.043
 6732SOL     OW20647   4.283   2.072   6.735
 6732SOL    HW120648   4.327   2.008   6.791
 6732SOL    HW220649   4.196   2.083   6.774
 6733SOL     OW20650   4.231   3.248   5.759
 6733SOL    HW120651   4.146   3.234   5.801
 6733SOL    HW220652   4.210   3.263   5.667
 6734SOL     OW20653   4.245   2.128   5.907
 6734SOL    HW120654   4.286   2.073   5.840
 6734SOL    HW220655   4.225   2.210   5.862
 6735SOL     OW20656   4.140   2.675   6.836
 6735SOL    HW120657   4.207   2.685   6.903
 6735SOL    HW220658   4.106   2.587   6.849
 6736SOL     OW20659   3.794   3.435   6.940
 6736SOL    HW120660   3.762   3.506   6.884
 6736SOL    HW220661   3.889   3.440   6.932
 6737SOL     OW20662   4.069   2.972   6.075
 6737SOL    HW120663   4.071   3.045   6.013
 6737SOL    HW220664   4.067   2.894   6.021
 6738SOL     OW20665   4.300   2.400   6.451
 6738SOL    HW120666   4.300   2.466   6.382
 6738SOL    HW220667   4.366   2.430   6.513
 6739SOL     OW20668   4.072   3.397   6.902
 6739SOL    HW120669   4.067   3.353   6.817
 6739SOL    HW220670   4.165   3.398   6.923
 6740SOL     OW20671   4.137   2.604   7.191
 6740SOL    HW120672   4.197   2.648   7.130
 6740SOL    HW220673   4.179   2.520   7.209
 6741SOL     OW20674   4.232   1.914   7.320
 6741SOL    HW120675   4.186   1.854   7.261
 6741SOL    HW220676   4.168   1.981   7.340
 6742SOL     OW20677   4.290   2.754   6.613
 6742SOL    HW120678   4.317   2.844   6.628
 6742SOL    HW220679   4.243   2.729   6.692
 6743SOL     OW20680   4.024   2.062   6.833
 6743SOL    HW120681   3.985   2.094   6.915
 6743SOL    HW220682   4.004   1.968   6.833
 6744SOL     OW20683   3.770   3.173   6.863
 6744SOL    HW120684   3.802   3.118   6.934
 6744SOL    HW220685   3.776   3.262   6.897
 6745SOL     OW20686   4.020   1.928   6.212
 6745SOL    HW120687   4.003   2.019   6.235
 6745SOL    HW220688   4.032   1.883   6.296
 6746SOL     OW20689   4.076   2.777   7.395
 6746SOL    HW120690   4.158   2.792   7.442
 6746SOL    HW220691   4.099   2.713   7.327
 6747SOL     OW20692   4.031   2.670   6.532
 6747SOL    HW120693   4.122   2.698   6.532
 6747SOL    HW220694   4.033   2.580   6.562
 6748SOL     OW20695   4.064   2.390   6.595
 6748SOL    HW120696   4.027   2.303   6.579
 6748SOL    HW220697   4.143   2.392   6.542
 6749SOL     OW20698   3.729   3.183   5.781
 6749SOL    HW120699   3.643   3.197   5.743
 6749SOL    HW220700   3.726   3.093   5.815
 6750SOL     OW20701   3.816   3.649   6.525
 6750SOL    HW120702   3.786   3.570   6.481
 6750SOL    HW220703   3.906   3.662   6.493
 6751SOL     OW20704   4.232   3.446   6.491
 6751SOL    HW120705   4.318   3.474   6.523
 6751SOL    HW220706   4.251   3.376   6.429
 6752SOL     OW20707   3.759   2.407   6.702
 6752SOL    HW120708   3.838   2.391   6.651
 6752SOL    HW220709   3.789   2.410   6.793
 6753SOL     OW20710   3.915   2.381   7.314
 6753SOL    HW120711   3.971   2.343   7.247
 6753SOL    HW220712   3.873   2.455   7.270
 6754SOL     OW20713   0.030   2.416   5.848
 6754SOL    HW120714   0.020   2.352   5.919
 6754SOL    HW220715   4.463   2.482   5.865
 6755SOL     OW20716   3.969   3.415   7.313
 6755SOL    HW120717   3.943   3.479   7.379
 6755SOL    HW220718   3.967   3.331   7.359
 6756SOL     OW20719   4.189   2.355   5.774
 6756SOL    HW120720   4.247   2.428   5.794
 6756SOL    HW220721   4.103   2.396   5.759
 6757SOL     OW20722   3.870   3.002   7.058
 6757SOL    HW120723   3.871   2.951   7.139
 6757SOL    HW220724   3.886   2.938   6.989
 6758SOL     OW20725   3.809   3.132   6.598
 6758SOL    HW120726   3.793   3.142   6.692
 6758SOL    HW220727   3.738   3.074   6.568
 6759SOL     OW20728   4.388   3.513   7.287
 6759SOL    HW120729   4.354   3.598   7.315
 6759SOL    HW220730   4.428   3.531   7.201
 6760SOL     OW20731   3.862   3.658   7.429
 6760SOL    HW120732   3.810   3.593   7.478
 6760SOL    HW220733   3.908   3.708   7.496
 6761SOL     OW20734   3.985   2.182   6.301
 6761SOL    HW120735   3.898   2.215   6.280
 6761SOL    HW220736   3.984   2.171   6.396
 6762SOL     OW20737   4.087   3.169   7.076
 6762SOL    HW120738   4.068   3.245   7.021
 6762SOL    HW220739   4.015   3.109   7.060
 6763SOL     OW20740   4.326   3.352   6.066
 6763SOL    HW120741   4.342   3.293   5.993
 6763SOL    HW220742   4.259   3.413   6.033
 6764SOL     OW20743   3.984   3.211   5.873
 6764SOL    HW120744   3.891   3.207   5.850
 6764SOL    HW220745   3.986   3.247   5.961
 6765SOL     OW20746   3.836   2.886   7.306
 6765SOL    HW120747   3.760   2.861   7.358
 6765SOL    HW220748   3.910   2.847   7.352
 6766SOL     OW20749   4.389   2.068   7.080
 6766SOL    HW120750   4.478   2.068   7.044
 6766SOL    HW220751   4.401   2.056   7.174
 6767SOL     OW20752   3.803   2.194   5.620
 6767SOL    HW120753   3.714   2.176   5.590
 6767SOL    HW220754   3.832   2.269   5.569
 6768SOL     OW20755   3.792   2.018   5.896
 6768SOL    HW120756   3.777   2.098   5.846
 6768SOL    HW220757   3.877   1.986   5.865
 6769SOL     OW20758   4.338   2.701   7.022
 6769SOL    HW120759   4.380   2.786   7.007
 6769SOL    HW220760   4.410   2.641   7.038
 6770SOL     OW20761   4.396   2.419   7.324
 6770SOL    HW120762   4.419   2.495   7.377
 6770SOL    HW220763   4.481   2.386   7.294
 6771SOL     OW20764   4.107   3.601   7.146
 6771SOL    HW120765   4.022   3.643   7.133
 6771SOL    HW220766   4.087   3.520   7.193
 6772SOL     OW20767   4.308   2.592   6.254
 6772SOL    HW120768   4.350   2.677   6.241
 6772SOL    HW220769   4.239   2.589   6.187
 6773SOL     OW20770   3.943   3.169   7.440
 6773SOL    HW120771   3.878   3.104   7.412
 6773SOL    HW220772   3.927   3.179   7.534
 6774SOL     OW20773   3.809   3.095   6.251
 6774SOL    HW120774   3.814   3.047   6.334
 6774SOL    HW220775   3.877   3.056   6.197
 6775SOL     OW20776   4.418   3.248   7.248
 6775SOL    HW120777   4.328   3.216   7.241
 6775SOL    HW220778   4.409   3.342   7.262
 6776SOL     OW20779   4.165   2.295   6.120
 6776SOL    HW120780   4.180   2.228   6.054
 6776SOL    HW220781   4.106   2.253   6.183
 6777SOL     OW20782   4.053   2.416   6.875
 6777SOL    HW120783   4.107   2.360   6.930
 6777SOL    HW220784   4.074   2.389   6.785
 6778SOL     OW20785   0.036   3.463   6.272
 6778SOL    HW120786   0.059   3.526   6.204
 6778SOL    HW220787   4.467   3.410   6.233
 6779SOL     OW20788   3.768   2.932   5.892
 6779SOL    HW120789   3.862   2.923   5.874
 6779SOL    HW220790   3.739   2.844   5.915
 6780SOL     OW20791   3.954   2.485   7.571
 6780SOL    HW120792   3.865   2.484   7.606
 6780SOL    HW220793   3.944   2.460   7.480
 6781SOL     OW20794   3.947   2.148   8.439
 6781SOL    HW120795   3.979   2.111   8.522
 6781SOL    HW220796   3.858   2.113   8.430
 6782SOL     OW20797   3.727   2.245   8.086
 6782SOL    HW120798   3.644   2.270   8.127
 6782SOL    HW220799   3.706   2.165   8.037
 6783SOL     OW20800   4.266   3.106   8.593
 6783SOL    HW120801   4.198   3.169   8.571
 6783SOL    HW220802   4.334   3.158   8.636
 6784SOL     OW20803   0.018   2.641   9.305
 6784SOL    HW120804   0.070   2.681   9.374
 6784SOL    HW220805   0.063   2.665   9.224
 6785SOL     OW20806   4.398   2.852   8.083
 6785SOL    HW120807   4.473   2.846   8.142
 6785SOL    HW220808   4.337   2.911   8.126
 6786SOL     OW20809   4.419   3.023   9.260
 6786SOL    HW120810   4.459   3.103   9.226
 6786SOL    HW220811   4.327   3.030   9.237
 6787SOL     OW20812   4.061   3.294   8.517
 6787SOL    HW120813   3.988   3.250   8.472
 6787SOL    HW220814   4.106   3.342   8.448
 6788SOL     OW20815   4.171   2.261   8.930
 6788SOL    HW120816   4.246   2.201   8.936
 6788SOL    HW220817   4.095   2.206   8.946
 6789SOL     OW20818   3.942   3.576   7.921
 6789SOL    HW120819   3.962   3.653   7.975
 6789SOL    HW220820   4.017   3.568   7.862
 6790SOL     OW20821   3.954   3.303   7.982
 6790SOL    HW120822   3.936   3.397   7.987
 6790SOL    HW220823   3.895   3.264   8.046
 6791SOL     OW20824   3.975   2.950   8.334
 6791SOL    HW120825   3.980   2.865   8.378
 6791SOL    HW220826   3.924   3.005   8.393
 6792SOL     OW20827   4.362   3.659   8.903
 6792SOL    HW120828   4.275   3.627   8.926
 6792SOL    HW220829   4.353   3.754   8.903
 6793SOL     OW20830   4.309   2.848   7.588
 6793SOL    HW120831   4.340   2.899   7.512
 6793SOL    HW220832   4.377   2.860   7.654
 6794SOL     OW20833   3.839   2.514   8.008
 6794SOL    HW120834   3.808   2.426   8.030
 6794SOL    HW220835   3.831   2.563   8.090
 6795SOL     OW20836   3.757   3.457   7.572
 6795SOL    HW120837   3.738   3.365   7.592
 6795SOL    HW220838   3.732   3.504   7.651
 6796SOL     OW20839   3.846   2.604   9.034
 6796SOL    HW120840   3.938   2.630   9.042
 6796SOL    HW220841   3.797   2.686   9.040
 6797SOL     OW20842   4.309   3.250   8.185
 6797SOL    HW120843   4.274   3.161   8.189
 6797SOL    HW220844   4.311   3.272   8.092
 6798SOL     OW20845   0.022   1.870   7.974
 6798SOL    HW120846   0.052   1.931   7.906
 6798SOL    HW220847   4.427   1.884   7.977
 6799SOL     OW20848   3.912   2.827   8.721
 6799SOL    HW120849   3.997   2.787   8.703
 6799SOL    HW220850   3.850   2.774   8.670
 6800SOL     OW20851   4.059   2.112   9.260
 6800SOL    HW120852   4.101   2.196   9.277
 6800SOL    HW220853   3.969   2.124   9.291
 6801SOL     OW20854   4.312   2.589   7.718
 6801SOL    HW120855   4.308   2.667   7.663
 6801SOL    HW220856   4.244   2.604   7.785
 6802SOL     OW20857   3.812   2.683   8.224
 6802SOL    HW120858   3.893   2.675   8.274
 6802SOL    HW220859   3.770   2.762   8.258
 6803SOL     OW20860   3.853   3.711   9.026
 6803SOL    HW120861   3.853   3.690   9.119
 6803SOL    HW220862   3.762   3.699   8.999
 6804SOL     OW20863   4.250   2.052   8.328
 6804SOL    HW120864   4.270   2.058   8.422
 6804SOL    HW220865   4.261   2.141   8.295
 6805SOL     OW20866   4.082   3.675   8.312
 6805SOL    HW120867   4.133   3.594   8.319
 6805SOL    HW220868   4.147   3.744   8.323
 6806SOL     OW20869   4.043   2.821   7.699
 6806SOL    HW120870   4.126   2.840   7.655
 6806SOL    HW220871   4.013   2.738   7.660
 6807SOL     OW20872   4.177   3.114   9.182
 6807SOL    HW120873   4.151   3.126   9.091
 6807SOL    HW220874   4.097   3.124   9.233
 6808SOL     OW20875   3.925   2.143   8.950
 6808SOL    HW120876   3.843   2.193   8.945
 6808SOL    HW220877   3.905   2.072   9.011
 6809SOL     OW20878   4.192   3.597   7.774
 6809SOL    HW120879   4.225   3.657   7.840
 6809SOL    HW220880   4.260   3.595   7.706
 6810SOL     OW20881   3.979   3.655   8.680
 6810SOL    HW120882   4.026   3.584   8.724
 6810SOL    HW220883   3.966   3.622   8.591
 6811SOL     OW20884   4.112   2.555   7.921
 6811SOL    HW120885   4.136   2.464   7.936
 6811SOL    HW220886   4.018   2.558   7.941
 6812SOL     OW20887   4.340   1.970   7.566
 6812SOL    HW120888   4.435   1.956   7.565
 6812SOL    HW220889   4.312   1.948   7.478
 6813SOL     OW20890   0.021   3.282   8.358
 6813SOL    HW120891   0.079   3.331   8.301
 6813SOL    HW220892   4.444   3.263   8.304
 6814SOL     OW20893   4.260   1.927   7.949
 6814SOL    HW120894   4.181   1.931   8.002
 6814SOL    HW220895   4.255   2.005   7.893
 6815SOL     OW20896   4.017   1.910   7.633
 6815SOL    HW120897   4.078   1.973   7.594
 6815SOL    HW220898   4.073   1.846   7.676
 6816SOL     OW20899   0.326   2.535   8.897
 6816SOL    HW120900   0.258   2.469   8.885
 6816SOL    HW220901   0.408   2.485   8.901
 6817SOL     OW20902   4.190   3.007   8.180
 6817SOL    HW120903   4.122   2.988   8.244
 6817SOL    HW220904   4.149   2.990   8.095
 6818SOL     OW20905   3.803   2.416   8.840
 6818SOL    HW120906   3.895   2.415   8.812
 6818SOL    HW220907   3.799   2.486   8.905
 6819SOL     OW20908   4.283   2.072   8.597
 6819SOL    HW120909   4.327   2.008   8.653
 6819SOL    HW220910   4.196   2.082   8.636
 6820SOL     OW20911   4.231   3.248   7.621
 6820SOL    HW120912   4.146   3.234   7.662
 6820SOL    HW220913   4.210   3.263   7.529
 6821SOL     OW20914   4.245   2.128   7.769
 6821SOL    HW120915   4.286   2.073   7.703
 6821SOL    HW220916   4.225   2.210   7.724
 6822SOL     OW20917   4.140   2.675   8.698
 6822SOL    HW120918   4.207   2.685   8.765
 6822SOL    HW220919   4.106   2.587   8.711
 6823SOL     OW20920   3.794   3.435   8.801
 6823SOL    HW120921   3.762   3.506   8.746
 6823SOL    HW220922   3.889   3.440   8.794
 6824SOL     OW20923   4.068   2.972   7.938
 6824SOL    HW120924   4.071   3.045   7.875
 6824SOL    HW220925   4.067   2.894   7.883
 6825SOL     OW20926   4.300   2.400   8.313
 6825SOL    HW120927   4.300   2.466   8.244
 6825SOL    HW220928   4.366   2.430   8.375
 6826SOL     OW20929   4.072   3.397   8.764
 6826SOL    HW120930   4.067   3.353   8.679
 6826SOL    HW220931   4.165   3.398   8.785
 6827SOL     OW20932   4.137   2.604   9.053
 6827SOL    HW120933   4.197   2.648   8.992
 6827SOL    HW220934   4.179   2.520   9.071
 6828SOL     OW20935   4.232   1.914   9.182
 6828SOL    HW120936   4.186   1.854   9.123
 6828SOL    HW220937   4.168   1.981   9.202
 6829SOL     OW20938   4.289   2.754   8.475
 6829SOL    HW120939   4.317   2.844   8.490
 6829SOL    HW220940   4.243   2.729   8.554
 6830SOL     OW20941   4.024   2.062   8.695
 6830SOL    HW120942   3.985   2.094   8.777
 6830SOL    HW220943   4.004   1.968   8.695
 6831SOL     OW20944   3.770   3.173   8.725
 6831SOL    HW120945   3.803   3.118   8.796
 6831SOL    HW220946   3.776   3.262   8.759
 6832SOL     OW20947   4.019   1.927   8.074
 6832SOL    HW120948   4.003   2.019   8.097
 6832SOL    HW220949   4.033   1.883   8.158
 6833SOL     OW20950   4.076   2.777   9.257
 6833SOL    HW120951   4.158   2.792   9.304
 6833SOL    HW220952   4.099   2.713   9.189
 6834SOL     OW20953   4.031   2.670   8.393
 6834SOL    HW120954   4.122   2.698   8.394
 6834SOL    HW220955   4.033   2.580   8.424
 6835SOL     OW20956   4.064   2.390   8.457
 6835SOL    HW120957   4.027   2.303   8.441
 6835SOL    HW220958   4.143   2.392   8.404
 6836SOL     OW20959   3.729   3.183   7.644
 6836SOL    HW120960   3.642   3.197   7.606
 6836SOL    HW220961   3.726   3.093   7.677
 6837SOL     OW20962   3.816   3.649   8.387
 6837SOL    HW120963   3.786   3.570   8.342
 6837SOL    HW220964   3.906   3.662   8.355
 6838SOL     OW20965   4.232   3.446   8.353
 6838SOL    HW120966   4.318   3.474   8.385
 6838SOL    HW220967   4.251   3.376   8.291
 6839SOL     OW20968   3.759   2.407   8.564
 6839SOL    HW120969   3.839   2.391   8.513
 6839SOL    HW220970   3.789   2.410   8.655
 6840SOL     OW20971   3.915   2.381   9.176
 6840SOL    HW120972   3.972   2.343   9.109
 6840SOL    HW220973   3.872   2.455   9.132
 6841SOL     OW20974   0.030   2.416   7.710
 6841SOL    HW120975   0.021   2.353   7.781
 6841SOL    HW220976   4.463   2.481   7.727
 6842SOL     OW20977   3.969   3.415   9.175
 6842SOL    HW120978   3.943   3.479   9.241
 6842SOL    HW220979   3.967   3.331   9.221
 6843SOL     OW20980   4.189   2.355   7.636
 6843SOL    HW120981   4.248   2.427   7.655
 6843SOL    HW220982   4.104   2.396   7.621
 6844SOL     OW20983   3.870   3.002   8.920
 6844SOL    HW120984   3.871   2.951   9.001
 6844SOL    HW220985   3.886   2.938   8.851
 6845SOL     OW20986   3.809   3.131   8.460
 6845SOL    HW120987   3.793   3.142   8.554
 6845SOL    HW220988   3.738   3.074   8.430
 6846SOL     OW20989   4.388   3.513   9.149
 6846SOL    HW120990   4.354   3.598   9.177
 6846SOL    HW220991   4.428   3.531   9.063
 6847SOL     OW20992   3.862   3.658   9.291
 6847SOL    HW120993   3.810   3.593   9.340
 6847SOL    HW220994   3.908   3.708   9.358
 6848SOL     OW20995   3.985   2.181   8.163
 6848SOL    HW120996   3.898   2.215   8.142
 6848SOL    HW220997   3.984   2.171   8.258
 6849SOL     OW20998   4.087   3.169   8.938
 6849SOL    HW120999   4.068   3.245   8.883
 6849SOL    HW221000   4.015   3.109   8.922
 6850SOL     OW21001   4.326   3.352   7.928
 6850SOL    HW121002   4.342   3.293   7.855
 6850SOL    HW221003   4.260   3.413   7.895
 6851SOL     OW21004   3.984   3.211   7.735
 6851SOL    HW121005   3.891   3.207   7.712
 6851SOL    HW221006   3.986   3.247   7.823
 6852SOL     OW21007   3.836   2.886   9.168
 6852SOL    HW121008   3.760   2.861   9.220
 6852SOL    HW221009   3.910   2.847   9.214
 6853SOL     OW21010   4.389   2.068   8.942
 6853SOL    HW121011   4.478   2.067   8.906
 6853SOL    HW221012   4.401   2.056   9.036
 6854SOL     OW21013   3.803   2.195   7.483
 6854SOL    HW121014   3.715   2.176   7.449
 6854SOL    HW221015   3.833   2.270   7.431
 6855SOL     OW21016   3.792   2.018   7.757
 6855SOL    HW121017   3.777   2.098   7.707
 6855SOL    HW221018   3.877   1.986   7.728
 6856SOL     OW21019   4.338   2.701   8.883
 6856SOL    HW121020   4.380   2.786   8.869
 6856SOL    HW221021   4.410   2.641   8.900
 6857SOL     OW21022   4.396   2.419   9.186
 6857SOL    HW121023   4.419   2.495   9.239
 6857SOL    HW221024   4.481   2.386   9.156
 6858SOL     OW21025   4.107   3.601   9.008
 6858SOL    HW121026   4.022   3.643   8.995
 6858SOL    HW221027   4.087   3.520   9.055
 6859SOL     OW21028   4.308   2.592   8.116
 6859SOL    HW121029   4.350   2.677   8.104
 6859SOL    HW221030   4.239   2.589   8.049
 6860SOL     OW21031   3.943   3.169   9.302
 6860SOL    HW121032   3.878   3.104   9.274
 6860SOL    HW221033   3.928   3.179   9.396
 6861SOL     OW21034   3.809   3.095   8.113
 6861SOL    HW121035   3.815   3.047   8.196
 6861SOL    HW221036   3.877   3.056   8.059
 6862SOL     OW21037   4.418   3.248   9.110
 6862SOL    HW121038   4.328   3.216   9.103
 6862SOL    HW221039   4.408   3.342   9.124
 6863SOL     OW21040   4.164   2.295   7.982
 6863SOL    HW121041   4.180   2.228   7.916
 6863SOL    HW221042   4.106   2.253   8.045
 6864SOL     OW21043   4.053   2.416   8.737
 6864SOL    HW121044   4.107   2.360   8.793
 6864SOL    HW221045   4.074   2.389   8.648
 6865SOL     OW21046   0.036   3.463   8.134
 6865SOL    HW121047   0.060   3.526   8.066
 6865SOL    HW221048   4.467   3.410   8.095
 6866SOL     OW21049   3.768   2.932   7.754
 6866SOL    HW121050   3.861   2.923   7.736
 6866SOL    HW221051   3.739   2.844   7.777
 6867SOL     OW21052   3.954   2.485   9.433
 6867SOL    HW121053   3.865   2.484   9.468
 6867SOL    HW221054   3.944   2.460   9.342
 6868SOL     OW21055   3.947   2.148  10.301
 6868SOL    HW121056   3.979   2.111  10.384
 6868SOL    HW221057   3.858   2.113  10.292
 6869SOL     OW21058   3.727   2.245   9.948
 6869SOL    HW121059   3.644   2.270   9.989
 6869SOL    HW221060   3.706   2.165   9.900
 6870SOL     OW21061   4.266   3.106  10.456
 6870SOL    HW121062   4.198   3.169  10.433
 6870SOL    HW221063   4.334   3.159  10.499
 6871SOL     OW21064   0.023   2.675   0.079
 6871SOL    HW121065   0.103   2.707   0.121
 6871SOL    HW221066   0.050   2.653  11.090
 6872SOL     OW21067   4.399   2.852   9.944
 6872SOL    HW121068   4.473   2.845  10.005
 6872SOL    HW221069   4.337   2.911   9.988
 6873SOL     OW21070   4.062   3.293  10.378
 6873SOL    HW121071   3.988   3.250  10.335
 6873SOL    HW221072   4.106   3.342  10.309
 6874SOL     OW21073   4.177   2.264  10.795
 6874SOL    HW121074   4.246   2.197  10.798
 6874SOL    HW221075   4.097   2.216  10.816
 6875SOL     OW21076   3.942   3.576   9.783
 6875SOL    HW121077   3.962   3.653   9.837
 6875SOL    HW221078   4.017   3.568   9.724
 6876SOL     OW21079   3.954   3.303   9.844
 6876SOL    HW121080   3.935   3.397   9.850
 6876SOL    HW221081   3.895   3.264   9.908
 6877SOL     OW21082   3.976   2.950  10.196
 6877SOL    HW121083   3.980   2.866  10.240
 6877SOL    HW221084   3.924   3.006  10.255
 6878SOL     OW21085   4.355   3.664  10.753
 6878SOL    HW121086   4.269   3.634  10.781
 6878SOL    HW221087   4.353   3.758  10.768
 6879SOL     OW21088   4.309   2.848   9.449
 6879SOL    HW121089   4.340   2.899   9.374
 6879SOL    HW221090   4.377   2.860   9.516
 6880SOL     OW21091   3.840   2.514   9.870
 6880SOL    HW121092   3.808   2.426   9.892
 6880SOL    HW221093   3.831   2.563   9.952
 6881SOL     OW21094   3.757   3.457   9.434
 6881SOL    HW121095   3.738   3.365   9.454
 6881SOL    HW221096   3.732   3.504   9.513
 6882SOL     OW21097   3.849   2.588  10.916
 6882SOL    HW121098   3.942   2.611  10.905
 6882SOL    HW221099   3.803   2.672  10.909
 6883SOL     OW21100   4.309   3.250  10.048
 6883SOL    HW121101   4.274   3.161  10.051
 6883SOL    HW221102   4.311   3.271   9.954
 6884SOL     OW21103   0.022   1.870   9.835
 6884SOL    HW121104   0.052   1.931   9.768
 6884SOL    HW221105   4.427   1.884   9.839
 6885SOL     OW21106   3.912   2.825  10.579
 6885SOL    HW121107   3.997   2.785  10.562
 6885SOL    HW221108   3.849   2.771  10.531
 6886SOL     OW21109   4.067   2.119   0.018
 6886SOL    HW121110   4.117   2.194   0.050
 6886SOL    HW221111   3.976   2.142   0.033
 6887SOL     OW21112   4.312   2.589   9.580
 6887SOL    HW121113   4.308   2.667   9.525
 6887SOL    HW221114   4.244   2.604   9.647
 6888SOL     OW21115   3.812   2.684  10.086
 6888SOL    HW121116   3.893   2.675  10.136
 6888SOL    HW221117   3.770   2.762  10.120
 6889SOL     OW21118   3.855   3.706  10.897
 6889SOL    HW121119   3.837   3.670  10.984
 6889SOL    HW221120   3.771   3.703  10.852
 6890SOL     OW21121   4.250   2.052  10.191
 6890SOL    HW121122   4.271   2.059  10.284
 6890SOL    HW221123   4.260   2.141  10.158
 6891SOL     OW21124   4.082   3.675  10.174
 6891SOL    HW121125   4.132   3.594  10.181
 6891SOL    HW221126   4.147   3.744  10.185
 6892SOL     OW21127   4.043   2.821   9.561
 6892SOL    HW121128   4.126   2.840   9.517
 6892SOL    HW221129   4.013   2.738   9.522
 6893SOL     OW21130   4.177   3.125  11.055
 6893SOL    HW121131   4.152   3.139  10.964
 6893SOL    HW221132   4.107   3.071  11.092
 6894SOL     OW21133   3.928   2.142  10.807
 6894SOL    HW121134   3.846   2.192  10.804
 6894SOL    HW221135   3.913   2.074  10.873
 6895SOL     OW21136   4.192   3.597   9.636
 6895SOL    HW121137   4.225   3.657   9.702
 6895SOL    HW221138   4.260   3.595   9.568
 6896SOL     OW21139   3.980   3.655  10.543
 6896SOL    HW121140   4.026   3.585  10.588
 6896SOL    HW221141   3.967   3.621  10.454
 6897SOL     OW21142   4.112   2.555   9.783
 6897SOL    HW121143   4.136   2.464   9.798
 6897SOL    HW221144   4.018   2.558   9.803
 6898SOL     OW21145   4.340   1.970   9.428
 6898SOL    HW121146   4.435   1.956   9.427
 6898SOL    HW221147   4.312   1.948   9.339
 6899SOL     OW21148   0.021   3.282  10.220
 6899SOL    HW121149   0.079   3.331  10.162
 6899SOL    HW221150   4.444   3.263  10.166
 6900SOL     OW21151   4.260   1.927   9.811
 6900SOL    HW121152   4.181   1.931   9.864
 6900SOL    HW221153   4.255   2.005   9.755
 6901SOL     OW21154   4.017   1.910   9.495
 6901SOL    HW121155   4.078   1.973   9.456
 6901SOL    HW221156   4.073   1.846   9.538
 6902SOL     OW21157   0.312   2.537  10.763
 6902SOL    HW121158   0.254   2.461  10.767
 6902SOL    HW221159   0.400   2.500  10.765
 6903SOL     OW21160   4.190   3.007  10.042
 6903SOL    HW121161   4.122   2.988  10.106
 6903SOL    HW221162   4.149   2.990   9.957
 6904SOL     OW21163   3.802   2.415  10.705
 6904SOL    HW121164   3.894   2.414  10.677
 6904SOL    HW221165   3.799   2.476  10.778
 6905SOL     OW21166   4.283   2.072  10.460
 6905SOL    HW121167   4.325   2.003  10.512
 6905SOL    HW221168   4.196   2.082  10.498
 6906SOL     OW21169   4.231   3.248   9.483
 6906SOL    HW121170   4.146   3.234   9.524
 6906SOL    HW221171   4.210   3.263   9.391
 6907SOL     OW21172   4.245   2.128   9.631
 6907SOL    HW121173   4.286   2.073   9.565
 6907SOL    HW221174   4.225   2.210   9.586
 6908SOL     OW21175   4.141   2.674  10.559
 6908SOL    HW121176   4.207   2.684  10.627
 6908SOL    HW221177   4.106   2.586  10.572
 6909SOL     OW21178   3.794   3.438  10.663
 6909SOL    HW121179   3.764   3.508  10.605
 6909SOL    HW221180   3.889   3.440  10.654
 6910SOL     OW21181   4.068   2.972   9.800
 6910SOL    HW121182   4.071   3.045   9.737
 6910SOL    HW221183   4.067   2.894   9.745
 6911SOL     OW21184   4.300   2.400  10.175
 6911SOL    HW121185   4.301   2.467  10.106
 6911SOL    HW221186   4.367   2.428  10.237
 6912SOL     OW21187   4.071   3.395  10.626
 6912SOL    HW121188   4.067   3.351  10.541
 6912SOL    HW221189   4.165   3.397  10.647
 6913SOL     OW21190   4.135   2.596  10.903
 6913SOL    HW121191   4.199   2.640  10.848
 6913SOL    HW221192   4.161   2.504  10.902
 6914SOL     OW21193   4.290   2.754  10.336
 6914SOL    HW121194   4.316   2.845  10.352
 6914SOL    HW221195   4.242   2.729  10.416
 6915SOL     OW21196   4.024   2.062  10.556
 6915SOL    HW121197   3.989   2.095  10.639
 6915SOL    HW221198   4.005   1.968  10.557
 6916SOL     OW21199   3.774   3.175  10.585
 6916SOL    HW121200   3.801   3.118  10.657
 6916SOL    HW221201   3.775   3.263  10.622
 6917SOL     OW21202   4.019   1.927   9.936
 6917SOL    HW121203   4.003   2.019   9.959
 6917SOL    HW221204   4.032   1.883  10.020
 6918SOL     OW21205   4.081   2.779  11.093
 6918SOL    HW121206   4.164   2.796   0.038
 6918SOL    HW221207   4.101   2.712  11.028
 6919SOL     OW21208   4.031   2.670  10.255
 6919SOL    HW121209   4.122   2.698  10.255
 6919SOL    HW221210   4.033   2.579  10.286
 6920SOL     OW21211   4.063   2.390  10.319
 6920SOL    HW121212   4.027   2.303  10.304
 6920SOL    HW221213   4.143   2.392  10.267
 6921SOL     OW21214   3.729   3.183   9.506
 6921SOL    HW121215   3.642   3.197   9.468
 6921SOL    HW221216   3.726   3.093   9.539
 6922SOL     OW21217   3.816   3.649  10.249
 6922SOL    HW121218   3.786   3.570  10.204
 6922SOL    HW221219   3.906   3.662  10.217
 6923SOL     OW21220   4.232   3.446  10.215
 6923SOL    HW121221   4.318   3.474  10.246
 6923SOL    HW221222   4.251   3.376  10.152
 6924SOL     OW21223   3.760   2.407  10.427
 6924SOL    HW121224   3.839   2.392  10.376
 6924SOL    HW221225   3.789   2.410  10.518
 6925SOL     OW21226   0.030   2.416   9.572
 6925SOL    HW121227   0.021   2.353   9.643
 6925SOL    HW221228   4.463   2.481   9.589
 6926SOL     OW21229   3.979   3.429  11.052
 6926SOL    HW121230   3.920   3.459   0.020
 6926SOL    HW221231   3.985   3.334  11.066
 6927SOL     OW21232   4.189   2.355   9.498
 6927SOL    HW121233   4.248   2.427   9.517
 6927SOL    HW221234   4.103   2.396   9.483
 6928SOL     OW21235   3.876   3.000  10.779
 6928SOL    HW121236   3.868   2.946  10.858
 6928SOL    HW221237   3.889   2.937  10.708
 6929SOL     OW21238   3.809   3.132  10.322
 6929SOL    HW121239   3.795   3.143  10.416
 6929SOL    HW221240   3.738   3.074  10.293
 6930SOL     OW21241   4.392   3.529  11.002
 6930SOL    HW121242   4.309   3.575  10.987
 6930SOL    HW221243   4.427   3.513  10.914
 6931SOL     OW21244   3.985   2.181  10.025
 6931SOL    HW121245   3.898   2.215  10.004
 6931SOL    HW221246   3.984   2.171  10.120
 6932SOL     OW21247   4.082   3.173  10.811
 6932SOL    HW121248   4.070   3.244  10.748
 6932SOL    HW221249   4.014   3.110  10.790
 6933SOL     OW21250   4.326   3.352   9.790
 6933SOL    HW121251   4.342   3.293   9.717
 6933SOL    HW221252   4.260   3.413   9.757
 6934SOL     OW21253   3.984   3.211   9.597
 6934SOL    HW121254   3.891   3.207   9.574
 6934SOL    HW221255   3.986   3.247   9.685
 6935SOL     OW21256   3.839   2.875  11.018
 6935SOL    HW121257   3.770   2.862  11.083
 6935SOL    HW221258   3.918   2.843  11.061
 6936SOL     OW21259   4.396   2.067  10.809
 6936SOL    HW121260   4.474   2.075  10.755
 6936SOL    HW221261   4.428   2.077  10.899
 6937SOL     OW21262   3.803   2.195   9.345
 6937SOL    HW121263   3.715   2.176   9.312
 6937SOL    HW221264   3.832   2.270   9.293
 6938SOL     OW21265   3.792   2.018   9.619
 6938SOL    HW121266   3.777   2.098   9.569
 6938SOL    HW221267   3.877   1.986   9.590
 6939SOL     OW21268   4.338   2.701  10.745
 6939SOL    HW121269   4.377   2.786  10.729
 6939SOL    HW221270   4.413   2.641  10.753
 6940SOL     OW21271   4.116   3.596  10.875
 6940SOL    HW121272   4.038   3.650  10.863
 6940SOL    HW221273   4.086   3.522  10.928
 6941SOL     OW21274   4.308   2.592   9.978
 6941SOL    HW121275   4.350   2.677   9.965
 6941SOL    HW221276   4.239   2.589   9.911
 6942SOL     OW21277   3.809   3.095   9.975
 6942SOL    HW121278   3.814   3.048  10.058
 6942SOL    HW221279   3.877   3.055   9.921
 6943SOL     OW21280   4.408   3.253  10.945
 6943SOL    HW121281   4.331   3.205  10.976
 6943SOL    HW221282   4.401   3.339  10.987
 6944SOL     OW21283   4.164   2.295   9.844
 6944SOL    HW121284   4.180   2.228   9.778
 6944SOL    HW221285   4.106   2.253   9.907
 6945SOL     OW21286   4.054   2.416  10.600
 6945SOL    HW121287   4.108   2.358  10.654
 6945SOL    HW221288   4.073   2.389  10.510
 6946SOL     OW21289   0.036   3.463   9.996
 6946SOL    HW121290   0.059   3.526   9.928
 6946SOL    HW221291   4.467   3.410   9.957
 6947SOL     OW21292   3.768   2.932   9.616
 6947SOL    HW121293   3.861   2.923   9.598
 6947SOL    HW221294   3.739   2.844   9.639
 6948SOL     OW21295   3.923   4.297   0.088
 6948SOL    HW121296   3.900   4.355   0.161
 6948SOL    HW221297   3.937   4.356   0.014
 6949SOL     OW21298   3.947   4.006   0.991
 6949SOL    HW121299   3.977   3.971   1.074
 6949SOL    HW221300   3.857   3.973   0.982
 6950SOL     OW21301   3.727   4.102   0.643
 6950SOL    HW121302   3.645   4.130   0.683
 6950SOL    HW221303   3.704   4.025   0.591
 6951SOL     OW21304   0.061   0.009   1.859
 6951SOL    HW121305   0.116   0.073   1.903
 6951SOL    HW221306   0.075   0.025   1.765
 6952SOL     OW21307   4.173   4.116   1.478
 6952SOL    HW121308   4.248   4.058   1.488
 6952SOL    HW221309   4.097   4.062   1.500
 6953SOL     OW21310   3.810   4.368   0.559
 6953SOL    HW121311   3.795   4.279   0.589
 6953SOL    HW221312   3.869   4.406   0.625
 6954SOL     OW21313   3.841   4.476   1.583
 6954SOL    HW121314   3.908   4.495   1.649
 6954SOL    HW221315   3.809   0.062   1.556
 6955SOL     OW21316   0.022   3.735   0.532
 6955SOL    HW121317   0.053   3.791   0.460
 6955SOL    HW221318   4.427   3.746   0.531
 6956SOL     OW21319   4.059   3.975   1.809
 6956SOL    HW121320   4.100   4.058   1.833
 6956SOL    HW221321   3.968   3.983   1.840
 6957SOL     OW21322   4.250   3.912   0.881
 6957SOL    HW121323   4.270   3.918   0.974
 6957SOL    HW221324   4.260   4.002   0.848
 6958SOL     OW21325   3.923   4.005   1.505
 6958SOL    HW121326   3.838   4.048   1.496
 6958SOL    HW221327   3.907   3.932   1.565
 6959SOL     OW21328   4.092   4.388   0.409
 6959SOL    HW121329   4.129   4.314   0.457
 6959SOL    HW221330   4.021   4.419   0.465
 6960SOL     OW21331   4.343   3.841   0.118
 6960SOL    HW121332   4.435   3.814   0.122
 6960SOL    HW221333   4.314   3.817   0.030
 6961SOL     OW21334   4.260   3.790   0.500
 6961SOL    HW121335   4.180   3.792   0.552
 6961SOL    HW221336   4.255   3.868   0.445
 6962SOL     OW21337   4.009   3.772   0.201
 6962SOL    HW121338   4.052   3.826   0.134
 6962SOL    HW221339   4.076   3.708   0.225
 6963SOL     OW21340   0.364   4.392   1.526
 6963SOL    HW121341   0.307   4.369   1.452
 6963SOL    HW221342   0.432   4.324   1.525
 6964SOL     OW21343   3.800   4.280   1.393
 6964SOL    HW121344   3.891   4.272   1.365
 6964SOL    HW221345   3.801   4.354   1.454
 6965SOL     OW21346   4.283   3.934   1.149
 6965SOL    HW121347   4.327   3.871   1.206
 6965SOL    HW221348   4.196   3.945   1.188
 6966SOL     OW21349   4.248   3.994   0.324
 6966SOL    HW121350   4.281   3.934   0.257
 6966SOL    HW221351   4.227   4.074   0.276
 6967SOL     OW21352   4.156   0.011   1.273
 6967SOL    HW121353   4.219   0.006   1.345
 6967SOL    HW221354   4.114   4.425   1.273
 6968SOL     OW21355   4.306   4.263   0.873
 6968SOL    HW121356   4.314   4.333   0.808
 6968SOL    HW221357   4.373   4.282   0.938
 6969SOL     OW21358   4.232   3.776   1.734
 6969SOL    HW121359   4.186   3.716   1.675
 6969SOL    HW221360   4.168   3.844   1.754
 6970SOL     OW21361   4.023   3.924   1.247
 6970SOL    HW121362   3.985   3.956   1.329
 6970SOL    HW221363   4.004   3.830   1.247
 6971SOL     OW21364   4.021   3.790   0.626
 6971SOL    HW121365   4.003   3.881   0.650
 6971SOL    HW221366   4.033   3.745   0.710
 6972SOL     OW21367   4.040   0.013   0.920
 6972SOL    HW121368   4.116   0.071   0.927
 6972SOL    HW221369   4.061   4.440   0.978
 6973SOL     OW21370   4.071   4.243   1.017
 6973SOL    HW121371   4.030   4.158   0.997
 6973SOL    HW221372   4.149   4.246   0.962
 6974SOL     OW21373   3.759   4.272   1.115
 6974SOL    HW121374   3.839   4.255   1.065
 6974SOL    HW221375   3.788   4.274   1.206
 6975SOL     OW21376   3.917   4.246   1.719
 6975SOL    HW121377   3.970   4.195   1.658
 6975SOL    HW221378   3.863   4.302   1.663
 6976SOL     OW21379   0.002   4.294   0.284
 6976SOL    HW121380   0.027   4.214   0.330
 6976SOL    HW221381   4.490   4.359   0.353
 6977SOL     OW21382   4.194   4.215   0.174
 6977SOL    HW121383   4.247   4.283   0.215
 6977SOL    HW221384   4.105   4.250   0.175
 6978SOL     OW21385   3.986   4.045   0.717
 6978SOL    HW121386   3.897   4.073   0.694
 6978SOL    HW221387   3.983   4.032   0.812
 6979SOL     OW21388   4.391   3.929   1.494
 6979SOL    HW121389   4.480   3.934   1.460
 6979SOL    HW221390   4.402   3.922   1.589
 6980SOL     OW21391   3.804   4.049   0.057
 6980SOL    HW121392   3.737   4.047  11.088
 6980SOL    HW221393   3.833   4.141   0.060
 6981SOL     OW21394   3.789   3.882   0.312
 6981SOL    HW121395   3.775   3.956   0.253
 6981SOL    HW221396   3.873   3.845   0.285
 6982SOL     OW21397   4.406   4.272   1.747
 6982SOL    HW121398   4.425   4.354   1.792
 6982SOL    HW221399   4.491   4.240   1.718
 6983SOL     OW21400   4.172   4.155   0.542
 6983SOL    HW121401   4.188   4.088   0.476
 6983SOL    HW221402   4.110   4.115   0.603
 6984SOL     OW21403   4.047   4.264   1.291
 6984SOL    HW121404   4.103   4.208   1.345
 6984SOL    HW221405   4.069   4.239   1.201
 6985SOL     OW21406   3.950   4.292   1.987
 6985SOL    HW121407   3.891   4.359   2.022
 6985SOL    HW221408   3.938   4.297   1.892
 6986SOL     OW21409   3.947   4.006   2.852
 6986SOL    HW121410   3.978   3.971   2.936
 6986SOL    HW221411   3.857   3.973   2.844
 6987SOL     OW21412   3.728   4.100   2.506
 6987SOL    HW121413   3.646   4.131   2.545
 6987SOL    HW221414   3.702   4.023   2.455
 6988SOL     OW21415   0.061   0.009   3.721
 6988SOL    HW121416   0.116   0.073   3.765
 6988SOL    HW221417   0.075   0.025   3.627
 6989SOL     OW21418   4.173   4.116   3.341
 6989SOL    HW121419   4.248   4.058   3.350
 6989SOL    HW221420   4.097   4.062   3.362
 6990SOL     OW21421   3.797   4.375   2.431
 6990SOL    HW121422   3.795   4.282   2.454
 6990SOL    HW221423   3.869   4.410   2.484
 6991SOL     OW21424   3.841   4.476   3.445
 6991SOL    HW121425   3.908   4.496   3.511
 6991SOL    HW221426   3.809   0.062   3.418
 6992SOL     OW21427   0.022   3.731   2.387
 6992SOL    HW121428   0.053   3.793   2.321
 6992SOL    HW221429   4.427   3.745   2.391
 6993SOL     OW21430   4.059   3.975   3.671
 6993SOL    HW121431   4.100   4.058   3.694
 6993SOL    HW221432   3.968   3.983   3.702
 6994SOL     OW21433   4.250   3.911   2.743
 6994SOL    HW121434   4.269   3.918   2.836
 6994SOL    HW221435   4.261   4.000   2.709
 6995SOL     OW21436   3.923   4.005   3.367
 6995SOL    HW121437   3.838   4.048   3.358
 6995SOL    HW221438   3.907   3.933   3.427
 6996SOL     OW21439   4.091   4.393   2.275
 6996SOL    HW121440   4.128   4.316   2.319
 6996SOL    HW221441   4.021   4.423   2.334
 6997SOL     OW21442   4.339   3.828   1.982
 6997SOL    HW121443   4.434   3.822   1.978
 6997SOL    HW221444   4.310   3.808   1.893
 6998SOL     OW21445   4.260   3.789   2.364
 6998SOL    HW121446   4.181   3.793   2.417
 6998SOL    HW221447   4.255   3.866   2.308
 6999SOL     OW21448   4.017   3.772   2.047
 6999SOL    HW121449   4.078   3.836   2.010
 6999SOL    HW221450   4.073   3.707   2.090
 7000SOL     OW21451   0.364   4.392   3.388
 7000SOL    HW121452   0.307   4.369   3.314
 7000SOL    HW221453   0.432   4.325   3.387
 7001SOL     OW21454   3.800   4.280   3.256
 7001SOL    HW121455   3.891   4.272   3.227
 7001SOL    HW221456   3.801   4.354   3.316
 7002SOL     OW21457   4.282   3.933   3.011
 7002SOL    HW121458   4.327   3.871   3.068
 7002SOL    HW221459   4.196   3.945   3.050
 7003SOL     OW21460   4.245   3.988   2.184
 7003SOL    HW121461   4.285   3.932   2.118
 7003SOL    HW221462   4.229   4.071   2.140
 7004SOL     OW21463   4.156   0.011   3.135
 7004SOL    HW121464   4.220   0.006   3.206
 7004SOL    HW221465   4.114   4.425   3.135
 7005SOL     OW21466   4.305   4.263   2.735
 7005SOL    HW121467   4.313   4.333   2.670
 7005SOL    HW221468   4.373   4.282   2.800
 7006SOL     OW21469   4.232   3.776   3.596
 7006SOL    HW121470   4.186   3.716   3.537
 7006SOL    HW221471   4.168   3.844   3.616
 7007SOL     OW21472   4.023   3.924   3.109
 7007SOL    HW121473   3.985   3.956   3.191
 7007SOL    HW221474   4.004   3.830   3.109
 7008SOL     OW21475   4.020   3.789   2.488
 7008SOL    HW121476   4.003   3.881   2.511
 7008SOL    HW221477   4.032   3.745   2.572
 7009SOL     OW21478   4.040   0.013   2.784
 7009SOL    HW121479   4.115   0.072   2.789
 7009SOL    HW221480   4.062   4.440   2.842
 7010SOL     OW21481   4.071   4.242   2.880
 7010SOL    HW121482   4.030   4.158   2.859
 7010SOL    HW221483   4.149   4.246   2.824
 7011SOL     OW21484   3.759   4.271   2.977
 7011SOL    HW121485   3.839   4.256   2.927
 7011SOL    HW221486   3.788   4.273   3.068
 7012SOL     OW21487   3.917   4.246   3.581
 7012SOL    HW121488   3.970   4.195   3.520
 7012SOL    HW221489   3.863   4.302   3.525
 7013SOL     OW21490   0.003   4.296   2.140
 7013SOL    HW121491   0.026   4.212   2.179
 7013SOL    HW221492   4.480   4.352   2.214
 7014SOL     OW21493   4.202   4.212   2.049
 7014SOL    HW121494   4.254   4.291   2.066
 7014SOL    HW221495   4.112   4.244   2.040
 7015SOL     OW21496   3.986   4.044   2.578
 7015SOL    HW121497   3.897   4.072   2.556
 7015SOL    HW221498   3.984   4.032   2.673
 7016SOL     OW21499   4.391   3.929   3.356
 7016SOL    HW121500   4.480   3.935   3.322
 7016SOL    HW221501   4.401   3.922   3.451
 7017SOL     OW21502   3.799   4.043   1.891
 7017SOL    HW121503   3.712   4.036   1.852
 7017SOL    HW221504   3.831   4.129   1.863
 7018SOL     OW21505   3.792   3.880   2.172
 7018SOL    HW121506   3.777   3.959   2.121
 7018SOL    HW221507   3.877   3.848   2.141
 7019SOL     OW21508   4.406   4.271   3.609
 7019SOL    HW121509   4.425   4.354   3.654
 7019SOL    HW221510   4.492   4.240   3.580
 7020SOL     OW21511   4.175   4.154   2.406
 7020SOL    HW121512   4.186   4.090   2.336
 7020SOL    HW221513   4.111   4.114   2.465
 7021SOL     OW21514   4.047   4.264   3.153
 7021SOL    HW121515   4.103   4.208   3.207
 7021SOL    HW221516   4.069   4.239   3.063
 7022SOL     OW21517   3.950   4.292   3.849
 7022SOL    HW121518   3.891   4.359   3.884
 7022SOL    HW221519   3.938   4.297   3.754
 7023SOL     OW21520   3.947   4.006   4.714
 7023SOL    HW121521   3.978   3.971   4.798
 7023SOL    HW221522   3.857   3.973   4.706
 7024SOL     OW21523   3.728   4.100   4.368
 7024SOL    HW121524   3.646   4.131   4.407
 7024SOL    HW221525   3.702   4.023   4.317
 7025SOL     OW21526   0.061   0.009   5.583
 7025SOL    HW121527   0.116   0.073   5.627
 7025SOL    HW221528   0.075   0.025   5.489
 7026SOL     OW21529   4.173   4.116   5.202
 7026SOL    HW121530   4.248   4.058   5.212
 7026SOL    HW221531   4.097   4.062   5.224
 7027SOL     OW21532   3.798   4.374   4.293
 7027SOL    HW121533   3.795   4.281   4.316
 7027SOL    HW221534   3.869   4.410   4.346
 7028SOL     OW21535   3.841   4.476   5.307
 7028SOL    HW121536   3.908   4.496   5.373
 7028SOL    HW221537   3.809   0.062   5.280
 7029SOL     OW21538   0.022   3.731   4.249
 7029SOL    HW121539   0.053   3.793   4.183
 7029SOL    HW221540   4.427   3.745   4.253
 7030SOL     OW21541   4.059   3.975   5.533
 7030SOL    HW121542   4.100   4.058   5.557
 7030SOL    HW221543   3.968   3.983   5.564
 7031SOL     OW21544   4.250   3.911   4.605
 7031SOL    HW121545   4.269   3.918   4.698
 7031SOL    HW221546   4.261   4.000   4.571
 7032SOL     OW21547   3.923   4.005   5.229
 7032SOL    HW121548   3.838   4.048   5.220
 7032SOL    HW221549   3.907   3.932   5.289
 7033SOL     OW21550   4.091   4.393   4.137
 7033SOL    HW121551   4.128   4.316   4.181
 7033SOL    HW221552   4.021   4.423   4.196
 7034SOL     OW21553   4.339   3.828   3.844
 7034SOL    HW121554   4.434   3.822   3.840
 7034SOL    HW221555   4.310   3.808   3.755
 7035SOL     OW21556   4.260   3.789   4.226
 7035SOL    HW121557   4.181   3.793   4.279
 7035SOL    HW221558   4.255   3.866   4.170
 7036SOL     OW21559   4.017   3.772   3.909
 7036SOL    HW121560   4.078   3.836   3.872
 7036SOL    HW221561   4.073   3.707   3.952
 7037SOL     OW21562   0.364   4.392   5.250
 7037SOL    HW121563   0.307   4.369   5.176
 7037SOL    HW221564   0.432   4.325   5.249
 7038SOL     OW21565   3.800   4.280   5.118
 7038SOL    HW121566   3.891   4.272   5.089
 7038SOL    HW221567   3.801   4.354   5.178
 7039SOL     OW21568   4.283   3.933   4.873
 7039SOL    HW121569   4.327   3.871   4.930
 7039SOL    HW221570   4.196   3.945   4.912
 7040SOL     OW21571   4.245   3.988   4.046
 7040SOL    HW121572   4.285   3.932   3.980
 7040SOL    HW221573   4.229   4.071   4.002
 7041SOL     OW21574   4.156   0.011   4.997
 7041SOL    HW121575   4.220   0.007   5.068
 7041SOL    HW221576   4.114   4.425   4.997
 7042SOL     OW21577   4.305   4.263   4.597
 7042SOL    HW121578   4.313   4.333   4.532
 7042SOL    HW221579   4.373   4.283   4.662
 7043SOL     OW21580   4.232   3.776   5.458
 7043SOL    HW121581   4.186   3.716   5.399
 7043SOL    HW221582   4.168   3.844   5.478
 7044SOL     OW21583   4.023   3.924   4.971
 7044SOL    HW121584   3.985   3.956   5.053
 7044SOL    HW221585   4.004   3.830   4.971
 7045SOL     OW21586   4.020   3.789   4.350
 7045SOL    HW121587   4.003   3.881   4.373
 7045SOL    HW221588   4.032   3.745   4.434
 7046SOL     OW21589   4.040   0.013   4.646
 7046SOL    HW121590   4.115   0.072   4.651
 7046SOL    HW221591   4.062   4.440   4.704
 7047SOL     OW21592   4.071   4.242   4.742
 7047SOL    HW121593   4.030   4.158   4.721
 7047SOL    HW221594   4.149   4.246   4.686
 7048SOL     OW21595   3.759   4.272   4.839
 7048SOL    HW121596   3.839   4.256   4.789
 7048SOL    HW221597   3.788   4.273   4.930
 7049SOL     OW21598   3.917   4.246   5.443
 7049SOL    HW121599   3.970   4.195   5.382
 7049SOL    HW221600   3.863   4.302   5.387
 7050SOL     OW21601   0.004   4.296   4.002
 7050SOL    HW121602   0.025   4.212   4.041
 7050SOL    HW221603   4.480   4.352   4.076
 7051SOL     OW21604   4.202   4.212   3.911
 7051SOL    HW121605   4.254   4.291   3.927
 7051SOL    HW221606   4.112   4.244   3.902
 7052SOL     OW21607   3.986   4.044   4.440
 7052SOL    HW121608   3.897   4.072   4.418
 7052SOL    HW221609   3.984   4.032   4.535
 7053SOL     OW21610   4.391   3.929   5.218
 7053SOL    HW121611   4.480   3.934   5.184
 7053SOL    HW221612   4.401   3.922   5.313
 7054SOL     OW21613   3.799   4.043   3.753
 7054SOL    HW121614   3.712   4.036   3.714
 7054SOL    HW221615   3.831   4.129   3.726
 7055SOL     OW21616   3.792   3.880   4.034
 7055SOL    HW121617   3.777   3.959   3.983
 7055SOL    HW221618   3.877   3.848   4.003
 7056SOL     OW21619   4.406   4.272   5.471
 7056SOL    HW121620   4.425   4.354   5.516
 7056SOL    HW221621   4.492   4.240   5.442
 7057SOL     OW21622   4.175   4.154   4.268
 7057SOL    HW121623   4.186   4.090   4.198
 7057SOL    HW221624   4.111   4.114   4.327
 7058SOL     OW21625   4.047   4.264   5.015
 7058SOL    HW121626   4.103   4.208   5.069
 7058SOL    HW221627   4.069   4.239   4.925
 7059SOL     OW21628   3.950   4.292   5.711
 7059SOL    HW121629   3.891   4.359   5.746
 7059SOL    HW221630   3.938   4.297   5.616
 7060SOL     OW21631   3.947   4.006   6.576
 7060SOL    HW121632   3.978   3.971   6.660
 7060SOL    HW221633   3.857   3.973   6.568
 7061SOL     OW21634   3.728   4.100   6.230
 7061SOL    HW121635   3.646   4.131   6.269
 7061SOL    HW221636   3.702   4.023   6.179
 7062SOL     OW21637   0.061   0.009   7.445
 7062SOL    HW121638   0.116   0.073   7.489
 7062SOL    HW221639   0.075   0.025   7.351
 7063SOL     OW21640   4.173   4.116   7.064
 7063SOL    HW121641   4.248   4.058   7.074
 7063SOL    HW221642   4.097   4.062   7.086
 7064SOL     OW21643   3.798   4.375   6.155
 7064SOL    HW121644   3.795   4.282   6.177
 7064SOL    HW221645   3.869   4.410   6.208
 7065SOL     OW21646   3.841   4.476   7.169
 7065SOL    HW121647   3.908   4.496   7.235
 7065SOL    HW221648   3.809   0.062   7.142
 7066SOL     OW21649   0.022   3.731   6.111
 7066SOL    HW121650   0.053   3.793   6.045
 7066SOL    HW221651   4.427   3.745   6.115
 7067SOL     OW21652   4.059   3.975   7.395
 7067SOL    HW121653   4.100   4.058   7.419
 7067SOL    HW221654   3.968   3.983   7.426
 7068SOL     OW21655   4.250   3.911   6.467
 7068SOL    HW121656   4.269   3.918   6.560
 7068SOL    HW221657   4.261   4.000   6.433
 7069SOL     OW21658   3.923   4.005   7.091
 7069SOL    HW121659   3.838   4.048   7.082
 7069SOL    HW221660   3.907   3.932   7.151
 7070SOL     OW21661   4.091   4.393   5.999
 7070SOL    HW121662   4.128   4.316   6.043
 7070SOL    HW221663   4.021   4.423   6.058
 7071SOL     OW21664   4.339   3.828   5.706
 7071SOL    HW121665   4.434   3.822   5.702
 7071SOL    HW221666   4.310   3.808   5.617
 7072SOL     OW21667   4.260   3.789   6.088
 7072SOL    HW121668   4.181   3.793   6.141
 7072SOL    HW221669   4.255   3.867   6.032
 7073SOL     OW21670   4.017   3.772   5.771
 7073SOL    HW121671   4.078   3.836   5.734
 7073SOL    HW221672   4.073   3.707   5.814
 7074SOL     OW21673   0.364   4.392   7.112
 7074SOL    HW121674   0.307   4.369   7.038
 7074SOL    HW221675   0.432   4.325   7.111
 7075SOL     OW21676   3.800   4.280   6.980
 7075SOL    HW121677   3.891   4.272   6.951
 7075SOL    HW221678   3.801   4.354   7.040
 7076SOL     OW21679   4.283   3.933   6.735
 7076SOL    HW121680   4.327   3.871   6.792
 7076SOL    HW221681   4.196   3.945   6.774
 7077SOL     OW21682   4.245   3.988   5.908
 7077SOL    HW121683   4.285   3.932   5.842
 7077SOL    HW221684   4.229   4.071   5.864
 7078SOL     OW21685   4.156   0.011   6.859
 7078SOL    HW121686   4.220   0.006   6.930
 7078SOL    HW221687   4.114   4.425   6.859
 7079SOL     OW21688   4.305   4.263   6.459
 7079SOL    HW121689   4.313   4.333   6.394
 7079SOL    HW221690   4.373   4.282   6.524
 7080SOL     OW21691   4.232   3.776   7.320
 7080SOL    HW121692   4.186   3.716   7.261
 7080SOL    HW221693   4.168   3.844   7.340
 7081SOL     OW21694   4.023   3.924   6.833
 7081SOL    HW121695   3.985   3.956   6.915
 7081SOL    HW221696   4.004   3.830   6.833
 7082SOL     OW21697   4.020   3.789   6.212
 7082SOL    HW121698   4.003   3.881   6.235
 7082SOL    HW221699   4.032   3.745   6.296
 7083SOL     OW21700   4.040   0.013   6.508
 7083SOL    HW121701   4.115   0.072   6.513
 7083SOL    HW221702   4.062   4.440   6.566
 7084SOL     OW21703   4.071   4.242   6.604
 7084SOL    HW121704   4.030   4.158   6.583
 7084SOL    HW221705   4.149   4.246   6.548
 7085SOL     OW21706   3.759   4.272   6.701
 7085SOL    HW121707   3.839   4.256   6.651
 7085SOL    HW221708   3.788   4.273   6.792
 7086SOL     OW21709   3.917   4.246   7.305
 7086SOL    HW121710   3.970   4.195   7.244
 7086SOL    HW221711   3.863   4.302   7.249
 7087SOL     OW21712   0.004   4.296   5.864
 7087SOL    HW121713   0.025   4.211   5.903
 7087SOL    HW221714   4.480   4.352   5.938
 7088SOL     OW21715   4.202   4.212   5.773
 7088SOL    HW121716   4.254   4.291   5.790
 7088SOL    HW221717   4.112   4.244   5.764
 7089SOL     OW21718   3.986   4.044   6.302
 7089SOL    HW121719   3.897   4.072   6.280
 7089SOL    HW221720   3.984   4.032   6.397
 7090SOL     OW21721   4.391   3.929   7.080
 7090SOL    HW121722   4.480   3.934   7.046
 7090SOL    HW221723   4.401   3.922   7.175
 7091SOL     OW21724   3.799   4.043   5.615
 7091SOL    HW121725   3.712   4.035   5.576
 7091SOL    HW221726   3.831   4.129   5.587
 7092SOL     OW21727   3.792   3.880   5.896
 7092SOL    HW121728   3.777   3.959   5.845
 7092SOL    HW221729   3.877   3.848   5.865
 7093SOL     OW21730   4.406   4.272   7.333
 7093SOL    HW121731   4.425   4.354   7.378
 7093SOL    HW221732   4.491   4.240   7.304
 7094SOL     OW21733   4.175   4.154   6.130
 7094SOL    HW121734   4.186   4.090   6.060
 7094SOL    HW221735   4.111   4.114   6.189
 7095SOL     OW21736   4.047   4.264   6.877
 7095SOL    HW121737   4.103   4.208   6.931
 7095SOL    HW221738   4.069   4.239   6.787
 7096SOL     OW21739   3.950   4.292   7.573
 7096SOL    HW121740   3.891   4.359   7.608
 7096SOL    HW221741   3.938   4.297   7.478
 7097SOL     OW21742   3.947   4.006   8.438
 7097SOL    HW121743   3.978   3.971   8.522
 7097SOL    HW221744   3.857   3.973   8.430
 7098SOL     OW21745   3.728   4.100   8.092
 7098SOL    HW121746   3.646   4.131   8.131
 7098SOL    HW221747   3.702   4.023   8.041
 7099SOL     OW21748   0.061   0.009   9.307
 7099SOL    HW121749   0.116   0.073   9.351
 7099SOL    HW221750   0.075   0.025   9.213
 7100SOL     OW21751   4.173   4.116   8.927
 7100SOL    HW121752   4.248   4.058   8.936
 7100SOL    HW221753   4.097   4.062   8.948
 7101SOL     OW21754   3.797   4.375   8.017
 7101SOL    HW121755   3.795   4.282   8.040
 7101SOL    HW221756   3.869   4.410   8.070
 7102SOL     OW21757   3.841   4.476   9.031
 7102SOL    HW121758   3.908   4.496   9.097
 7102SOL    HW221759   3.809   0.062   9.004
 7103SOL     OW21760   0.022   3.731   7.973
 7103SOL    HW121761   0.053   3.793   7.907
 7103SOL    HW221762   4.427   3.745   7.977
 7104SOL     OW21763   4.059   3.975   9.257
 7104SOL    HW121764   4.100   4.058   9.281
 7104SOL    HW221765   3.968   3.983   9.288
 7105SOL     OW21766   4.250   3.911   8.329
 7105SOL    HW121767   4.269   3.918   8.422
 7105SOL    HW221768   4.261   4.000   8.295
 7106SOL     OW21769   3.923   4.005   8.953
 7106SOL    HW121770   3.838   4.048   8.944
 7106SOL    HW221771   3.907   3.933   9.014
 7107SOL     OW21772   4.091   4.393   7.861
 7107SOL    HW121773   4.128   4.316   7.905
 7107SOL    HW221774   4.021   4.423   7.920
 7108SOL     OW21775   4.339   3.828   7.568
 7108SOL    HW121776   4.434   3.822   7.564
 7108SOL    HW221777   4.310   3.808   7.479
 7109SOL     OW21778   4.260   3.789   7.950
 7109SOL    HW121779   4.181   3.793   8.003
 7109SOL    HW221780   4.255   3.866   7.894
 7110SOL     OW21781   4.017   3.772   7.633
 7110SOL    HW121782   4.078   3.836   7.596
 7110SOL    HW221783   4.073   3.707   7.676
 7111SOL     OW21784   0.364   4.392   8.974
 7111SOL    HW121785   0.307   4.369   8.900
 7111SOL    HW221786   0.432   4.325   8.973
 7112SOL     OW21787   3.800   4.280   8.842
 7112SOL    HW121788   3.891   4.272   8.813
 7112SOL    HW221789   3.801   4.354   8.902
 7113SOL     OW21790   4.282   3.933   8.597
 7113SOL    HW121791   4.327   3.871   8.654
 7113SOL    HW221792   4.196   3.945   8.636
 7114SOL     OW21793   4.245   3.988   7.770
 7114SOL    HW121794   4.285   3.932   7.704
 7114SOL    HW221795   4.229   4.071   7.726
 7115SOL     OW21796   4.156   0.011   8.721
 7115SOL    HW121797   4.220   0.006   8.792
 7115SOL    HW221798   4.114   4.425   8.721
 7116SOL     OW21799   4.305   4.263   8.321
 7116SOL    HW121800   4.313   4.333   8.256
 7116SOL    HW221801   4.373   4.282   8.386
 7117SOL     OW21802   4.232   3.776   9.182
 7117SOL    HW121803   4.186   3.716   9.123
 7117SOL    HW221804   4.168   3.844   9.202
 7118SOL     OW21805   4.023   3.924   8.695
 7118SOL    HW121806   3.985   3.956   8.777
 7118SOL    HW221807   4.004   3.830   8.695
 7119SOL     OW21808   4.020   3.789   8.074
 7119SOL    HW121809   4.003   3.881   8.097
 7119SOL    HW221810   4.032   3.745   8.158
 7120SOL     OW21811   4.040   0.013   8.370
 7120SOL    HW121812   4.115   0.072   8.375
 7120SOL    HW221813   4.062   4.440   8.428
 7121SOL     OW21814   4.071   4.242   8.466
 7121SOL    HW121815   4.030   4.158   8.445
 7121SOL    HW221816   4.149   4.246   8.410
 7122SOL     OW21817   3.759   4.271   8.563
 7122SOL    HW121818   3.839   4.256   8.513
 7122SOL    HW221819   3.788   4.273   8.654
 7123SOL     OW21820   3.917   4.246   9.167
 7123SOL    HW121821   3.970   4.195   9.106
 7123SOL    HW221822   3.863   4.302   9.111
 7124SOL     OW21823   0.003   4.296   7.726
 7124SOL    HW121824   0.026   4.212   7.765
 7124SOL    HW221825   4.480   4.352   7.800
 7125SOL     OW21826   4.202   4.212   7.635
 7125SOL    HW121827   4.254   4.291   7.651
 7125SOL    HW221828   4.112   4.244   7.626
 7126SOL     OW21829   3.986   4.044   8.164
 7126SOL    HW121830   3.897   4.072   8.142
 7126SOL    HW221831   3.984   4.032   8.259
 7127SOL     OW21832   4.391   3.929   8.942
 7127SOL    HW121833   4.480   3.935   8.908
 7127SOL    HW221834   4.402   3.922   9.037
 7128SOL     OW21835   3.799   4.043   7.477
 7128SOL    HW121836   3.712   4.036   7.438
 7128SOL    HW221837   3.831   4.129   7.449
 7129SOL     OW21838   3.792   3.880   7.758
 7129SOL    HW121839   3.777   3.959   7.707
 7129SOL    HW221840   3.877   3.848   7.727
 7130SOL     OW21841   4.406   4.272   9.195
 7130SOL    HW121842   4.425   4.354   9.240
 7130SOL    HW221843   4.491   4.240   9.166
 7131SOL     OW21844   4.175   4.154   7.992
 7131SOL    HW121845   4.186   4.090   7.922
 7131SOL    HW221846   4.111   4.114   8.051
 7132SOL     OW21847   4.047   4.264   8.739
 7132SOL    HW121848   4.103   4.208   8.793
 7132SOL    HW221849   4.069   4.239   8.649
 7133SOL     OW21850   3.950   4.292   9.435
 7133SOL    HW121851   3.891   4.359   9.470
 7133SOL    HW221852   3.938   4.297   9.340
 7134SOL     OW21853   3.947   4.006  10.300
 7134SOL    HW121854   3.978   3.971  10.384
 7134SOL    HW221855   3.857   3.973  10.292
 7135SOL     OW21856   3.728   4.100   9.953
 7135SOL    HW121857   3.646   4.131   9.993
 7135SOL    HW221858   3.702   4.023   9.903
 7136SOL     OW21859   4.180   4.122  10.796
 7136SOL    HW121860   4.247   4.054  10.799
 7136SOL    HW221861   4.099   4.076  10.818
 7137SOL     OW21862   3.797   4.375   9.880
 7137SOL    HW121863   3.795   4.282   9.902
 7137SOL    HW221864   3.869   4.410   9.932
 7138SOL     OW21865   3.852   4.459  10.905
 7138SOL    HW121866   3.948   4.465  10.910
 7138SOL    HW221867   3.823   0.050  10.896
 7139SOL     OW21868   0.022   3.731   9.835
 7139SOL    HW121869   0.053   3.792   9.769
 7139SOL    HW221870   4.427   3.745   9.838
 7140SOL     OW21871   4.067   3.979   0.016
 7140SOL    HW121872   4.110   4.060   0.044
 7140SOL    HW221873   3.974   3.995   0.031
 7141SOL     OW21874   4.250   3.911  10.192
 7141SOL    HW121875   4.270   3.919  10.285
 7141SOL    HW221876   4.261   4.000  10.157
 7142SOL     OW21877   3.928   4.004  10.808
 7142SOL    HW121878   3.847   4.056  10.808
 7142SOL    HW221879   3.915   3.939  10.876
 7143SOL     OW21880   4.091   4.393   9.724
 7143SOL    HW121881   4.128   4.317   9.767
 7143SOL    HW221882   4.022   4.423   9.783
 7144SOL     OW21883   4.339   3.828   9.430
 7144SOL    HW121884   4.434   3.822   9.426
 7144SOL    HW221885   4.310   3.808   9.341
 7145SOL     OW21886   4.260   3.789   9.812
 7145SOL    HW121887   4.181   3.793   9.865
 7145SOL    HW221888   4.255   3.866   9.756
 7146SOL     OW21889   4.017   3.772   9.495
 7146SOL    HW121890   4.078   3.836   9.458
 7146SOL    HW221891   4.073   3.707   9.538
 7147SOL     OW21892   0.329   4.393  10.806
 7147SOL    HW121893   0.240   4.358  10.804
 7147SOL    HW221894   0.383   4.320  10.777
 7148SOL     OW21895   3.799   4.279  10.706
 7148SOL    HW121896   3.890   4.272  10.677
 7148SOL    HW221897   3.802   4.339  10.780
 7149SOL     OW21898   4.283   3.934  10.460
 7149SOL    HW121899   4.324   3.865  10.512
 7149SOL    HW221900   4.196   3.944  10.498
 7150SOL     OW21901   4.244   3.988   9.632
 7150SOL    HW121902   4.285   3.932   9.566
 7150SOL    HW221903   4.229   4.071   9.588
 7151SOL     OW21904   4.155   0.008  10.576
 7151SOL    HW121905   4.222   0.001  10.644
 7151SOL    HW221906   4.109   4.424  10.580
 7152SOL     OW21907   4.305   4.263  10.183
 7152SOL    HW121908   4.314   4.333  10.119
 7152SOL    HW221909   4.374   4.280  10.248
 7153SOL     OW21910   4.126   4.462  10.912
 7153SOL    HW121911   4.191   0.027  10.887
 7153SOL    HW221912   4.171   4.378  10.906
 7154SOL     OW21913   4.024   3.924  10.557
 7154SOL    HW121914   3.988   3.956  10.639
 7154SOL    HW221915   4.004   3.830  10.557
 7155SOL     OW21916   4.020   3.789   9.936
 7155SOL    HW121917   4.003   3.881   9.959
 7155SOL    HW221918   4.032   3.745  10.020
 7156SOL     OW21919   4.040   0.013  10.232
 7156SOL    HW121920   4.115   0.072  10.238
 7156SOL    HW221921   4.062   4.440  10.290
 7157SOL     OW21922   4.071   4.242  10.328
 7157SOL    HW121923   4.030   4.158  10.307
 7157SOL    HW221924   4.149   4.246  10.273
 7158SOL     OW21925   3.759   4.273  10.426
 7158SOL    HW121926   3.840   4.256  10.377
 7158SOL    HW221927   3.788   4.275  10.518
 7159SOL     OW21928   0.003   4.296   9.588
 7159SOL    HW121929   0.026   4.212   9.628
 7159SOL    HW221930   4.480   4.352   9.662
 7160SOL     OW21931   4.202   4.212   9.497
 7160SOL    HW121932   4.254   4.291   9.514
 7160SOL    HW221933   4.112   4.244   9.488
 7161SOL     OW21934   3.986   4.044  10.026
 7161SOL    HW121935   3.897   4.072  10.004
 7161SOL    HW221936   3.984   4.031  10.121
 7162SOL     OW21937   4.397   3.929  10.811
 7162SOL    HW121938   4.475   3.938  10.756
 7162SOL    HW221939   4.429   3.942  10.900
 7163SOL     OW21940   3.799   4.043   9.339
 7163SOL    HW121941   3.712   4.036   9.299
 7163SOL    HW221942   3.831   4.129   9.312
 7164SOL     OW21943   3.792   3.880   9.620
 7164SOL    HW121944   3.777   3.959   9.569
 7164SOL    HW221945   3.877   3.848   9.590
 7165SOL     OW21946   4.174   4.154   9.854
 7165SOL    HW121947   4.186   4.090   9.784
 7165SOL    HW221948   4.111   4.114   9.913
 7166SOL     OW21949   4.047   4.262  10.601
 7166SOL    HW121950   4.103   4.206  10.655
 7166SOL    HW221951   4.068   4.237  10.511
   4.50000   4.50000  11.10000
